integrator          =  md
nsteps              =  0
tinit               =  0
dt                  =  0.004
comm_mode           =  linear
nstcomm             =  5
nstcalcenergy       =  1
comm_grps           =  System
cutoff-scheme       =  Verlet
nstxout             =  0
nstvout             =  0
nstfout             =  0
nstlog              =  5000
nstlist             =  10
nstenergy           =  1
nstxout-compressed  =  5000
; ns_type           =  grid
pbc                 =  xyz
coulombtype         =  cut-off
fourierspacing      =  0.12
pme_order           =  4
ewald_rtol          =  1e-5
vdwtype             =  cut-off
rvdw_switch         =  0
rvdw                =  100.0
rlist               =  100.0
rcoulomb            =  100.0
coulomb-modifier    =  None ; This is needed in order to compare Coulomb energies of different structures.
vdw-modifier        =  None ; This is needed in order to compare VdW energies of different structures.
DispCorr            =  no
tc_grps             =  System
annealing           =  No
gen_vel             =  no
continuation        =  yes
gen_seed            =  -1
constraints         =  none
constraint_algorithm=  lincs
lincs-iter          =  1
lincs-order         =  4
periodic_molecules  =  no
qmmm                =  no
tcoupl              =  v-rescale
tau_t               =  0.1
ref_t               =  298
ld_seed             =  -1
Pcoupl              =  Parrinello-Rahman
pcoupltype          =  isotropic
compressibility     =  4.5e-5
ref_p               =  1.0
tau_p               =  10.0
