Protein in water t= 1000.00000 step= 500000
28914
    1ALA      N    1   5.445   0.579   0.261
    1ALA     H1    2   5.363   0.524   0.283
    1ALA     H2    3   5.467   0.659   0.319
    1ALA     H3    4   5.428   0.609   0.166
    1ALA     CA    5   5.569   0.496   0.253
    1ALA     HA    6   5.659   0.543   0.215
    1ALA     CB    7   5.606   0.422   0.388
    1ALA    HB1    8   5.522   0.374   0.440
    1ALA    HB2    9   5.684   0.355   0.352
    1ALA    HB3   10   5.668   0.486   0.451
    1ALA      C   11   5.550   0.392   0.144
    1ALA      O   12   5.475   0.298   0.158
    2ALA      N   13   5.636   0.416   0.038
    2ALA      H   14   5.714   0.478   0.056
    2ALA     CA   15   9.422   4.045   5.232
    2ALA     HA   16   9.394   3.948   5.273
    2ALA     CB   17   9.338   4.043   5.108
    2ALA    HB1   18   9.361   4.128   5.042
    2ALA    HB2   19   9.352   3.947   5.059
    2ALA    HB3   20   9.232   4.059   5.128
    2ALA      C   21   9.574   4.040   5.187
    2ALA      O   22   9.602   3.969   5.091
    3GLN      N   23   5.933   0.373  -0.026
    3GLN      H   24   5.904   0.433   0.050
    3GLN     CA   25   9.812   4.080   5.264
    3GLN     HA   26   9.865   4.116   5.177
    3GLN     CB   27   6.130   0.417   0.103
    3GLN    HB1   28   6.239   0.405   0.101
    3GLN    HB2   29   6.099   0.361   0.191
    3GLN     CG   30   6.101   0.569   0.126
    3GLN    HG1   31   6.070   0.618   0.034
    3GLN    HG2   32   6.189   0.625   0.160
    3GLN     CD   33   5.980   0.590   0.220
    3GLN    OE1   34   5.876   0.535   0.197
    3GLN    NE2   35   5.997   0.655   0.331
    3GLN   HE21   36   6.084   0.700   0.355
    3GLN   HE22   37   5.914   0.669   0.387
    3GLN      C   38   9.843   3.927   5.264
    3GLN      O   39   6.026   0.110   0.024
    4ALA      N   40   9.963   3.898   5.213
    4ALA      H   41  10.014   3.970   5.163
    4ALA     CA   42   9.999   3.754   5.192
    4ALA     HA   43   9.911   3.705   5.152
    4ALA     CB   44  10.114   3.726   5.093
    4ALA    HB1   45  10.118   3.618   5.076
    4ALA    HB2   46  10.100   3.778   4.998
    4ALA    HB3   47  10.218   3.751   5.118
    4ALA      C   48   6.299   7.421   0.046
    4ALA      O   49   6.328   0.024   0.143
    5ALA      N   50   6.293   7.288   0.057
    5ALA      H   51   6.287   7.241  -0.032
    5ALA     CA   52   6.260   7.211   0.182
    5ALA     HA   53   6.189   7.285   0.219
    5ALA     CB   54   6.200   7.075   0.149
    5ALA    HB1   55   6.264   7.023   0.078
    5ALA    HB2   56   6.182   7.026   0.245
    5ALA    HB3   57   6.098   7.079   0.112
    5ALA      C   58   6.381   7.203   0.288
    5ALA      O   59   6.431   7.099   0.314
    6ALA      N   60   6.428   7.312   0.338
    6ALA      H   61   6.397   7.391   0.283
    6ALA     CA   62   6.527   7.316   0.445
    6ALA     HA   63   6.511   7.229   0.509
    6ALA     CB   64   6.666   7.294   0.377
    6ALA    HB1   65   6.750   7.268   0.440
    6ALA    HB2   66   6.669   7.213   0.305
    6ALA    HB3   67   6.697   7.377   0.312
    6ALA      C   68   6.538   7.437   0.529
    6ALA      O   69   6.612   7.445   0.629
    7ALA      N   70   6.467   0.076   0.489
    7ALA      H   71   6.406   0.073   0.408
    7ALA     CA   72   6.446   0.207   0.564
    7ALA     HA   73   6.543   0.257   0.560
    7ALA     CB   74   6.335   0.284   0.482
    7ALA    HB1   75   6.328   0.377   0.538
    7ALA    HB2   76   6.352   0.296   0.375
    7ALA    HB3   77   6.244   0.227   0.499
    7ALA      C   78   6.402   0.187   0.715
    7ALA      O   79   6.299   0.134   0.742
    8GLN      N   80   6.497   0.226   0.805
    8GLN      H   81   6.585   0.257   0.768
    8GLN     CA   82   6.487   0.203   0.956
    8GLN     HA   83   6.468   0.097   0.977
    8GLN     CB   84   6.626   0.225   1.011
    8GLN    HB1   85   6.689   0.141   0.983
    8GLN    HB2   86   6.602   0.233   1.117
    8GLN     CG   87   6.691   0.362   0.971
    8GLN    HG1   88   6.616   0.439   0.983
    8GLN    HG2   89   6.722   0.356   0.866
    8GLN     CD   90   6.822   0.388   1.047
    8GLN    OE1   91   6.894   0.303   1.095
    8GLN    NE2   92   6.852   0.514   1.058
    8GLN   HE21   93   6.780   0.581   1.035
    8GLN   HE22   94   6.936   0.536   1.109
    8GLN      C   95   6.381   0.292   1.022
    8GLN      O   96   6.320   0.375   0.953
    9ALA      N   97   6.356   0.258   1.152
    9ALA      H   98   6.417   0.181   1.178
    9ALA     CA   99   6.243   0.297   1.232
    9ALA     HA  100   6.150   0.283   1.176
    9ALA     CB  101   6.245   0.206   1.357
    9ALA    HB1  102   6.258   0.101   1.330
    9ALA    HB2  103   6.312   0.233   1.438
    9ALA    HB3  104   6.144   0.221   1.394
    9ALA      C  105   6.236   0.445   1.272
    9ALA      O  106   6.331   0.524   1.251
   10ALA      N  107   6.118   0.486   1.336
   10ALA      H  108   6.050   0.414   1.356
   10ALA     CA  109   6.093   0.618   1.386
   10ALA     HA  110   6.072   0.687   1.304
   10ALA     CB  111   5.961   0.600   1.477
   10ALA    HB1  112   5.872   0.574   1.418
   10ALA    HB2  113   5.984   0.523   1.551
   10ALA    HB3  114   5.935   0.694   1.525
   10ALA      C  115   6.203   0.686   1.461
   10ALA      O  116   6.233   0.804   1.449
   11ALA      N  117   6.266   0.601   1.537
   11ALA      H  118   6.218   0.518   1.568
   11ALA     CA  119   6.369   0.640   1.633
   11ALA     HA  120   6.376   0.743   1.666
   11ALA     CB  121   6.347   0.558   1.764
   11ALA    HB1  122   6.348   0.451   1.743
   11ALA    HB2  123   6.425   0.581   1.837
   11ALA    HB3  124   6.248   0.589   1.796
   11ALA      C  125   6.516   0.600   1.595
   11ALA      O  126   6.613   0.628   1.675
   12ALA      N  127   6.537   0.541   1.478
   12ALA      H  128   6.466   0.546   1.407
   12ALA     CA  129   6.672   0.493   1.450
   12ALA     HA  130   6.715   0.432   1.529
   12ALA     CB  131   6.662   0.402   1.334
   12ALA    HB1  132   6.593   0.439   1.257
   12ALA    HB2  133   6.764   0.383   1.300
   12ALA    HB3  134   6.628   0.301   1.358
   12ALA      C  135   6.785   0.596   1.419
   12ALA      O  136   6.906   0.561   1.419
   13GLN      N  137   6.751   0.725   1.404
   13GLN      H  138   6.652   0.745   1.414
   13GLN     CA  139   6.850   0.845   1.374
   13GLN     HA  140   6.920   0.804   1.302
   13GLN     CB  141   6.777   0.966   1.301
   13GLN    HB1  142   6.844   1.011   1.228
   13GLN    HB2  143   6.754   1.033   1.385
   13GLN     CG  144   6.658   0.932   1.219
   13GLN    HG1  145   6.696   0.859   1.148
   13GLN    HG2  146   6.624   1.018   1.161
   13GLN     CD  147   6.531   0.872   1.280
   13GLN    OE1  148   6.504   0.856   1.401
   13GLN    NE2  149   6.448   0.819   1.194
   13GLN   HE21  150   6.462   0.839   1.095
   13GLN   HE22  151   6.375   0.761   1.233
   13GLN      C  152   6.939   0.883   1.495
   13GLN      O  153   6.900   0.865   1.609
   14ALA      N  154   7.057   0.938   1.463
   14ALA      H  155   7.079   0.940   1.365
   14ALA     CA  156   7.165   0.973   1.560
   14ALA     HA  157   7.198   0.884   1.614
   14ALA     CB  158   7.274   1.040   1.481
   14ALA    HB1  159   7.353   1.081   1.543
   14ALA    HB2  160   7.319   0.964   1.418
   14ALA    HB3  161   7.241   1.102   1.397
   14ALA      C  162   7.115   1.062   1.676
   14ALA      O  163   7.022   1.141   1.657
   15ALA      N  164   7.205   1.076   1.777
   15ALA      H  165   7.287   1.017   1.781
   15ALA     CA  166   7.190   1.183   1.877
   15ALA     HA  167   7.087   1.205   1.905
   15ALA     CB  168   7.253   1.133   2.004
   15ALA    HB1  169   7.357   1.104   1.997
   15ALA    HB2  170   7.262   1.213   2.077
   15ALA    HB3  171   7.195   1.055   2.054
   15ALA      C  172   7.249   1.307   1.825
   15ALA    OC1  173   7.183   1.415   1.831
   15ALA    OC2  174   7.364   1.305   1.775
   16SOL     OW  175   2.120   1.364   2.891
   16SOL    HW1  176   2.204   1.405   2.872
   16SOL    HW2  177   2.104   1.384   2.983
   17SOL     OW  178   9.793   6.008   4.979
   17SOL    HW1  179   9.778   5.992   4.886
   17SOL    HW2  180   9.742   5.939   5.023
   18SOL     OW  181   6.719   2.780   1.723
   18SOL    HW1  182   6.791   2.739   1.675
   18SOL    HW2  183   6.711   2.730   1.804
   19SOL     OW  184   4.155   1.191   0.047
   19SOL    HW1  185   4.247   1.164   0.040
   19SOL    HW2  186   4.136   1.235  -0.036
   20SOL     OW  187   5.784   0.518   2.265
   20SOL    HW1  188   5.793   0.496   2.172
   20SOL    HW2  189   5.690   0.531   2.278
   21SOL     OW  190   4.004   7.320   1.035
   21SOL    HW1  191   3.925   7.317   0.982
   21SOL    HW2  192   4.047   7.236   1.019
   22SOL     OW  193   6.262   4.178   3.306
   22SOL    HW1  194   6.192   4.240   3.330
   22SOL    HW2  195   6.340   4.233   3.295
   23SOL     OW  196   8.916   7.039   5.187
   23SOL    HW1  197   8.985   7.014   5.126
   23SOL    HW2  198   8.841   6.985   5.163
   24SOL     OW  199   6.019   2.618   1.808
   24SOL    HW1  200   6.064   2.608   1.892
   24SOL    HW2  201   6.081   2.587   1.743
   25SOL     OW  202   5.788   2.872   2.092
   25SOL    HW1  203   5.850   2.914   2.152
   25SOL    HW2  204   5.836   2.862   2.010
   26SOL     OW  205   5.327   6.129   3.854
   26SOL    HW1  206   5.396   6.066   3.829
   26SOL    HW2  207   5.299   6.100   3.941
   27SOL     OW  208   3.315   1.325   2.447
   27SOL    HW1  209   3.293   1.386   2.377
   27SOL    HW2  210   3.399   1.287   2.420
   28SOL     OW  211   3.589   7.060   5.056
   28SOL    HW1  212   3.669   7.097   5.018
   28SOL    HW2  213   3.613   7.036   5.145
   29SOL     OW  214   5.033   7.353   0.138
   29SOL    HW1  215   4.955   7.369   0.191
   29SOL    HW2  216   5.062   7.440   0.111
   30SOL     OW  217   9.678   0.048   4.010
   30SOL    HW1  218   9.612   0.074   4.074
   30SOL    HW2  219   9.725   0.129   3.990
   31SOL     OW  220   9.459   6.825   3.613
   31SOL    HW1  221   9.374   6.838   3.571
   31SOL    HW2  222   9.455   6.878   3.692
   32SOL     OW  223   7.334   6.012   1.910
   32SOL    HW1  224   7.267   5.969   1.964
   32SOL    HW2  225   7.368   6.082   1.966
   33SOL     OW  226   6.960   1.822   0.144
   33SOL    HW1  227   6.995   1.893   0.090
   33SOL    HW2  228   7.002   1.833   0.229
   34SOL     OW  229   6.475   5.643   3.327
   34SOL    HW1  230   6.523   5.581   3.271
   34SOL    HW2  231   6.543   5.684   3.380
   35SOL     OW  232   3.221   4.524   2.307
   35SOL    HW1  233   3.168   4.602   2.320
   35SOL    HW2  234   3.229   4.515   2.212
   36SOL     OW  235   7.645   0.770   3.637
   36SOL    HW1  236   7.565   0.806   3.676
   36SOL    HW2  237   7.666   0.695   3.692
   37SOL     OW  238   3.520   5.021   1.140
   37SOL    HW1  239   3.528   4.985   1.051
   37SOL    HW2  240   3.437   5.070   1.138
   38SOL     OW  241   2.671   7.157   0.731
   38SOL    HW1  242   2.589   7.200   0.753
   38SOL    HW2  243   2.729   7.176   0.804
   39SOL     OW  244   5.705   4.264   0.287
   39SOL    HW1  245   5.643   4.218   0.344
   39SOL    HW2  246   5.769   4.198   0.263
   40SOL     OW  247   7.580   0.213   2.529
   40SOL    HW1  248   7.495   0.207   2.484
   40SOL    HW2  249   7.630   0.139   2.495
   41SOL     OW  250   2.351   3.226   1.642
   41SOL    HW1  251   2.304   3.201   1.721
   41SOL    HW2  252   2.392   3.145   1.612
   42SOL     OW  253   4.466   3.826   0.528
   42SOL    HW1  254   4.506   3.820   0.441
   42SOL    HW2  255   4.537   3.800   0.587
   43SOL     OW  256   6.340   0.463   3.417
   43SOL    HW1  257   6.333   0.558   3.423
   43SOL    HW2  258   6.428   0.448   3.382
   44SOL     OW  259   3.792   0.666   0.206
   44SOL    HW1  260   3.847   0.742   0.186
   44SOL    HW2  261   3.724   0.666   0.139
   45SOL     OW  262   6.373   2.264   3.907
   45SOL    HW1  263   6.396   2.347   3.865
   45SOL    HW2  264   6.410   2.198   3.849
   46SOL     OW  265   7.896   6.685   3.215
   46SOL    HW1  266   7.895   6.591   3.198
   46SOL    HW2  267   7.912   6.725   3.129
   47SOL     OW  268   1.265   5.169   1.057
   47SOL    HW1  269   1.250   5.166   1.151
   47SOL    HW2  270   1.177   5.174   1.019
   48SOL     OW  271   4.180   6.091   3.061
   48SOL    HW1  272   4.104   6.039   3.086
   48SOL    HW2  273   4.216   6.124   3.144
   49SOL     OW  274   1.401   2.016   1.450
   49SOL    HW1  275   1.464   2.088   1.441
   49SOL    HW2  276   1.415   1.961   1.373
   50SOL     OW  277   6.888   0.024   0.844
   50SOL    HW1  278   6.948   0.089   0.882
   50SOL    HW2  279   6.837  -0.007   0.919
   51SOL     OW  280   6.555   3.465   4.436
   51SOL    HW1  281   6.512   3.379   4.436
   51SOL    HW2  282   6.534   3.502   4.350
   52SOL     OW  283   4.127   2.387   3.893
   52SOL    HW1  284   4.163   2.470   3.862
   52SOL    HW2  285   4.199   2.346   3.941
   53SOL     OW  286   8.532   2.786   1.755
   53SOL    HW1  287   8.503   2.696   1.740
   53SOL    HW2  288   8.612   2.795   1.705
   54SOL     OW  289   4.998   0.703   2.714
   54SOL    HW1  290   5.035   0.669   2.795
   54SOL    HW2  291   5.042   0.787   2.701
   55SOL     OW  292  10.699   3.460   4.661
   55SOL    HW1  293  10.614   3.489   4.694
   55SOL    HW2  294  10.678   3.393   4.596
   56SOL     OW  295   5.534   2.484   0.085
   56SOL    HW1  296   5.500   2.440   0.008
   56SOL    HW2  297   5.558   2.414   0.145
   57SOL     OW  298   5.140   3.635   2.193
   57SOL    HW1  299   5.143   3.566   2.127
   57SOL    HW2  300   5.080   3.700   2.157
   58SOL     OW  301   8.723   5.554   4.267
   58SOL    HW1  302   8.649   5.598   4.225
   58SOL    HW2  303   8.693   5.464   4.281
   59SOL     OW  304   4.614   6.967   1.094
   59SOL    HW1  305   4.547   6.966   1.163
   59SOL    HW2  306   4.569   7.002   1.017
   60SOL     OW  307   1.194   6.975   0.562
   60SOL    HW1  308   1.123   7.014   0.614
   60SOL    HW2  309   1.151   6.946   0.482
   61SOL     OW  310   3.167   1.121   1.660
   61SOL    HW1  311   3.158   1.156   1.748
   61SOL    HW2  312   3.207   1.192   1.610
   62SOL     OW  313   5.709   6.892   1.451
   62SOL    HW1  314   5.742   6.802   1.457
   62SOL    HW2  315   5.627   6.891   1.500
   63SOL     OW  316   6.278   6.119   4.458
   63SOL    HW1  317   6.184   6.129   4.475
   63SOL    HW2  318   6.312   6.076   4.536
   64SOL     OW  319   6.516   2.457   4.342
   64SOL    HW1  320   6.520   2.371   4.384
   64SOL    HW2  321   6.429   2.460   4.302
   65SOL     OW  322   5.013   6.976   0.886
   65SOL    HW1  323   4.981   6.913   0.822
   65SOL    HW2  324   5.089   7.016   0.845
   66SOL     OW  325   6.880   1.642   1.600
   66SOL    HW1  326   6.932   1.563   1.614
   66SOL    HW2  327   6.903   1.670   1.511
   67SOL     OW  328   6.091   2.836   3.522
   67SOL    HW1  329   6.158   2.829   3.589
   67SOL    HW2  330   6.103   2.759   3.467
   68SOL     OW  331   1.564   6.802   1.073
   68SOL    HW1  332   1.648   6.837   1.045
   68SOL    HW2  333   1.536   6.744   1.002
   69SOL     OW  334   4.186   4.839   4.344
   69SOL    HW1  335   4.220   4.923   4.375
   69SOL    HW2  336   4.255   4.776   4.365
   70SOL     OW  337   6.717   2.670   4.905
   70SOL    HW1  338   6.756   2.710   4.827
   70SOL    HW2  339   6.787   2.615   4.941
   71SOL     OW  340   6.905   4.038   1.325
   71SOL    HW1  341   6.977   4.077   1.375
   71SOL    HW2  342   6.947   3.979   1.263
   72SOL     OW  343   2.209   3.672   2.007
   72SOL    HW1  344   2.260   3.670   2.089
   72SOL    HW2  345   2.138   3.610   2.021
   73SOL     OW  346   5.012   4.452   3.831
   73SOL    HW1  347   5.010   4.489   3.742
   73SOL    HW2  348   5.022   4.527   3.889
   74SOL     OW  349   5.938   0.903   0.779
   74SOL    HW1  350   6.020   0.892   0.732
   74SOL    HW2  351   5.873   0.859   0.724
   75SOL     OW  352   5.744   6.301   0.777
   75SOL    HW1  353   5.682   6.373   0.769
   75SOL    HW2  354   5.829   6.339   0.755
   76SOL     OW  355   6.044   5.536   4.649
   76SOL    HW1  356   6.100   5.572   4.718
   76SOL    HW2  357   5.972   5.495   4.696
   77SOL     OW  358   4.232   2.448   4.559
   77SOL    HW1  359   4.211   2.427   4.468
   77SOL    HW2  360   4.216   2.367   4.607
   78SOL     OW  361   2.103   6.462   0.846
   78SOL    HW1  362   2.042   6.468   0.772
   78SOL    HW2  363   2.047   6.466   0.924
   79SOL     OW  364   6.687   6.489   2.089
   79SOL    HW1  365   6.702   6.403   2.128
   79SOL    HW2  366   6.603   6.517   2.124
   80SOL     OW  367   4.275   0.181   2.073
   80SOL    HW1  368   4.354   0.195   2.021
   80SOL    HW2  369   4.294   0.221   2.158
   81SOL     OW  370   9.139   3.706   4.899
   81SOL    HW1  371   9.179   3.622   4.919
   81SOL    HW2  372   9.200   3.748   4.838
   82SOL     OW  373   6.152   1.871   2.007
   82SOL    HW1  374   6.236   1.903   1.974
   82SOL    HW2  375   6.099   1.949   2.020
   83SOL     OW  376   3.223   5.478   0.445
   83SOL    HW1  377   3.276   5.414   0.492
   83SOL    HW2  378   3.236   5.458   0.353
   84SOL     OW  379   6.016   5.899   3.257
   84SOL    HW1  380   6.081   5.911   3.187
   84SOL    HW2  381   6.014   5.983   3.303
   85SOL     OW  382   5.467   5.160   5.132
   85SOL    HW1  383   5.468   5.064   5.134
   85SOL    HW2  384   5.475   5.181   5.039
   86SOL     OW  385   6.022   2.826   2.931
   86SOL    HW1  386   6.028   2.913   2.972
   86SOL    HW2  387   5.950   2.783   2.977
   87SOL     OW  388   6.130   4.254   4.575
   87SOL    HW1  389   6.192   4.287   4.640
   87SOL    HW2  390   6.158   4.164   4.559
   88SOL     OW  391   9.488   1.694   4.869
   88SOL    HW1  392   9.521   1.608   4.844
   88SOL    HW2  393   9.429   1.718   4.797
   89SOL     OW  394   6.718   7.431   2.169
   89SOL    HW1  395   6.757   7.488   2.235
   89SOL    HW2  396   6.695   7.489   2.097
   90SOL     OW  397   7.650   1.223   2.145
   90SOL    HW1  398   7.611   1.140   2.117
   90SOL    HW2  399   7.715   1.197   2.211
   91SOL     OW  400   8.016   7.248   3.718
   91SOL    HW1  401   8.018   7.235   3.623
   91SOL    HW2  402   7.943   7.308   3.732
   92SOL     OW  403   9.855   0.293   4.191
   92SOL    HW1  404   9.870   0.254   4.277
   92SOL    HW2  405   9.876   0.386   4.202
   93SOL     OW  406   5.084   3.163   3.884
   93SOL    HW1  407   5.164   3.143   3.836
   93SOL    HW2  408   5.017   3.175   3.817
   94SOL     OW  409   1.302   1.388   0.198
   94SOL    HW1  410   1.273   1.418   0.111
   94SOL    HW2  411   1.241   1.431   0.259
   95SOL     OW  412   5.192   2.025   0.652
   95SOL    HW1  413   5.286   2.040   0.658
   95SOL    HW2  414   5.155   2.109   0.627
   96SOL     OW  415   2.559   5.199   1.602
   96SOL    HW1  416   2.488   5.135   1.591
   96SOL    HW2  417   2.596   5.178   1.688
   97SOL     OW  418   7.420   5.853   4.218
   97SOL    HW1  419   7.391   5.941   4.195
   97SOL    HW2  420   7.459   5.862   4.305
   98SOL     OW  421   7.511   2.845   3.466
   98SOL    HW1  422   7.505   2.750   3.454
   98SOL    HW2  423   7.422   2.872   3.488
   99SOL     OW  424   4.577   5.237   3.359
   99SOL    HW1  425   4.653   5.282   3.394
   99SOL    HW2  426   4.504   5.296   3.376
  100SOL     OW  427   3.925   6.550   0.896
  100SOL    HW1  428   3.866   6.564   0.970
  100SOL    HW2  429   3.869   6.559   0.819
  101SOL     OW  430   8.923   6.015   3.799
  101SOL    HW1  431   8.984   5.991   3.729
  101SOL    HW2  432   8.903   6.107   3.781
  102SOL     OW  433   4.136   7.341   0.065
  102SOL    HW1  434   4.207   7.279   0.049
  102SOL    HW2  435   4.107   7.321   0.154
  103SOL     OW  436   2.683   7.436   0.313
  103SOL    HW1  437   2.600   7.449   0.267
  103SOL    HW2  438   2.706   7.345   0.295
  104SOL     OW  439   8.419   3.312   4.468
  104SOL    HW1  440   8.385   3.400   4.486
  104SOL    HW2  441   8.391   3.260   4.544
  105SOL     OW  442   6.433   7.322   4.067
  105SOL    HW1  443   6.383   7.303   4.147
  105SOL    HW2  444   6.466   7.411   4.080
  106SOL     OW  445   3.114   6.047   2.426
  106SOL    HW1  446   3.176   6.117   2.410
  106SOL    HW2  447   3.121   5.991   2.349
  107SOL     OW  448   3.604   3.766   0.287
  107SOL    HW1  449   3.673   3.710   0.251
  107SOL    HW2  450   3.633   3.855   0.269
  108SOL     OW  451   4.754   3.464   1.649
  108SOL    HW1  452   4.711   3.379   1.658
  108SOL    HW2  453   4.692   3.526   1.687
  109SOL     OW  454   7.476   5.985   2.325
  109SOL    HW1  455   7.454   6.078   2.318
  109SOL    HW2  456   7.401   5.939   2.287
  110SOL     OW  457   2.339   5.256   0.018
  110SOL    HW1  458   2.346   5.351   0.005
  110SOL    HW2  459   2.392   5.239   0.096
  111SOL     OW  460   5.617   2.288   4.331
  111SOL    HW1  461   5.569   2.258   4.408
  111SOL    HW2  462   5.548   2.312   4.268
  112SOL     OW  463   8.886   6.059   4.746
  112SOL    HW1  464   8.836   6.010   4.682
  112SOL    HW2  465   8.893   6.001   4.821
  113SOL     OW  466   5.003   6.766   4.427
  113SOL    HW1  467   5.037   6.853   4.405
  113SOL    HW2  468   5.064   6.733   4.493
  114SOL     OW  469   7.235   6.470   1.482
  114SOL    HW1  470   7.194   6.461   1.568
  114SOL    HW2  471   7.282   6.387   1.470
  115SOL     OW  472   3.862   6.573   1.772
  115SOL    HW1  473   3.792   6.636   1.756
  115SOL    HW2  474   3.820   6.487   1.762
  116SOL     OW  475   7.235   6.787   1.049
  116SOL    HW1  476   7.141   6.795   1.033
  116SOL    HW2  477   7.244   6.704   1.096
  117SOL     OW  478   6.897   7.043   2.983
  117SOL    HW1  479   6.842   7.044   2.905
  117SOL    HW2  480   6.983   7.013   2.951
  118SOL     OW  481   1.987   1.818   2.060
  118SOL    HW1  482   1.920   1.886   2.063
  118SOL    HW2  483   1.996   1.788   2.151
  119SOL     OW  484   9.479   6.106   3.662
  119SOL    HW1  485   9.485   6.176   3.728
  119SOL    HW2  486   9.528   6.033   3.700
  120SOL     OW  487   2.385   4.755   2.187
  120SOL    HW1  488   2.298   4.719   2.203
  120SOL    HW2  489   2.369   4.844   2.155
  121SOL     OW  490   9.739   0.078   4.748
  121SOL    HW1  491   9.797   0.043   4.680
  121SOL    HW2  492   9.692   0.149   4.704
  122SOL     OW  493   3.310   6.028   0.176
  122SOL    HW1  494   3.232   6.081   0.193
  122SOL    HW2  495   3.319   6.027   0.081
  123SOL     OW  496   4.420   3.220   2.500
  123SOL    HW1  497   4.427   3.203   2.406
  123SOL    HW2  498   4.328   3.203   2.520
  124SOL     OW  499   7.084   2.468   0.621
  124SOL    HW1  500   7.032   2.461   0.702
  124SOL    HW2  501   7.030   2.521   0.563
  125SOL     OW  502   6.374   5.257   3.802
  125SOL    HW1  503   6.448   5.241   3.743
  125SOL    HW2  504   6.312   5.308   3.751
  126SOL     OW  505   5.246   5.035   1.154
  126SOL    HW1  506   5.277   4.945   1.140
  126SOL    HW2  507   5.318   5.089   1.122
  127SOL     OW  508   6.946   6.675   0.975
  127SOL    HW1  509   6.868   6.691   1.027
  127SOL    HW2  510   6.912   6.656   0.887
  128SOL     OW  511   9.584   0.331   4.370
  128SOL    HW1  512   9.644   0.281   4.425
  128SOL    HW2  513   9.592   0.421   4.400
  129SOL     OW  514   9.599   7.361   4.846
  129SOL    HW1  515   9.591   7.287   4.785
  129SOL    HW2  516   9.651   7.426   4.798
  130SOL     OW  517   6.163   0.890   4.503
  130SOL    HW1  518   6.140   0.967   4.556
  130SOL    HW2  519   6.184   0.823   4.568
  131SOL     OW  520   6.416   6.096   3.857
  131SOL    HW1  521   6.371   6.029   3.909
  131SOL    HW2  522   6.354   6.120   3.789
  132SOL     OW  523   5.361   6.080   4.689
  132SOL    HW1  524   5.331   6.055   4.776
  132SOL    HW2  525   5.337   6.006   4.633
  133SOL     OW  526   7.296   4.274   2.491
  133SOL    HW1  527   7.308   4.354   2.543
  133SOL    HW2  528   7.325   4.204   2.549
  134SOL     OW  529   5.793   2.164   0.257
  134SOL    HW1  530   5.720   2.127   0.207
  134SOL    HW2  531   5.798   2.109   0.335
  135SOL     OW  532   5.035   4.804   0.447
  135SOL    HW1  533   4.966   4.752   0.405
  135SOL    HW2  534   5.001   4.893   0.447
  136SOL     OW  535   4.071   5.329   3.393
  136SOL    HW1  536   4.152   5.380   3.391
  136SOL    HW2  537   4.013   5.373   3.331
  137SOL     OW  538   3.601   0.745   4.148
  137SOL    HW1  539   3.695   0.741   4.129
  137SOL    HW2  540   3.560   0.697   4.076
  138SOL     OW  541   5.251   0.947   2.282
  138SOL    HW1  542   5.279   1.030   2.322
  138SOL    HW2  543   5.256   0.884   2.354
  139SOL     OW  544   2.694   3.790   2.585
  139SOL    HW1  545   2.642   3.843   2.645
  139SOL    HW2  546   2.782   3.829   2.588
  140SOL     OW  547   4.485   0.261   1.550
  140SOL    HW1  548   4.506   0.228   1.462
  140SOL    HW2  549   4.475   0.183   1.603
  141SOL     OW  550   9.672   2.103   4.955
  141SOL    HW1  551   9.762   2.107   4.987
  141SOL    HW2  552   9.678   2.119   4.861
  142SOL     OW  553   3.263   0.952   3.703
  142SOL    HW1  554   3.356   0.936   3.721
  142SOL    HW2  555   3.246   0.902   3.623
  143SOL     OW  556   4.115   6.325   0.306
  143SOL    HW1  557   4.083   6.235   0.314
  143SOL    HW2  558   4.210   6.316   0.295
  144SOL     OW  559   6.152   7.005   1.426
  144SOL    HW1  560   6.221   7.067   1.401
  144SOL    HW2  561   6.089   7.058   1.475
  145SOL     OW  562   3.184   4.660   1.984
  145SOL    HW1  563   3.134   4.598   1.930
  145SOL    HW2  564   3.201   4.733   1.926
  146SOL     OW  565   8.238   6.449   3.201
  146SOL    HW1  566   8.280   6.452   3.287
  146SOL    HW2  567   8.144   6.455   3.220
  147SOL     OW  568   1.309   7.339   1.466
  147SOL    HW1  569   1.382   7.281   1.487
  147SOL    HW2  570   1.248   7.328   1.539
  148SOL     OW  571   3.863   3.387   3.541
  148SOL    HW1  572   3.850   3.434   3.623
  148SOL    HW2  573   3.912   3.308   3.566
  149SOL     OW  574   5.291   4.994   2.803
  149SOL    HW1  575   5.249   5.078   2.819
  149SOL    HW2  576   5.256   4.965   2.718
  150SOL     OW  577   5.804   3.401   4.634
  150SOL    HW1  578   5.756   3.442   4.562
  150SOL    HW2  579   5.862   3.470   4.666
  151SOL     OW  580   5.854   2.486   2.046
  151SOL    HW1  581   5.917   2.424   2.083
  151SOL    HW2  582   5.909   2.556   2.010
  152SOL     OW  583   6.775   4.372   5.094
  152SOL    HW1  584   6.819   4.392   5.177
  152SOL    HW2  585   6.683   4.391   5.111
  153SOL     OW  586   6.419   4.466   4.544
  153SOL    HW1  587   6.450   4.412   4.616
  153SOL    HW2  588   6.486   4.534   4.534
  154SOL     OW  589   5.313   1.749   0.597
  154SOL    HW1  590   5.374   1.731   0.669
  154SOL    HW2  591   5.265   1.826   0.624
  155SOL     OW  592   6.802   3.481   4.478
  155SOL    HW1  593   6.816   3.552   4.540
  155SOL    HW2  594   6.707   3.477   4.467
  156SOL     OW  595   5.600   6.224   4.616
  156SOL    HW1  596   5.506   6.214   4.632
  156SOL    HW2  597   5.615   6.183   4.531
  157SOL     OW  598   6.555   1.143   2.444
  157SOL    HW1  599   6.635   1.195   2.436
  157SOL    HW2  600   6.544   1.103   2.358
  158SOL     OW  601   3.275   1.572   4.230
  158SOL    HW1  602   3.356   1.623   4.231
  158SOL    HW2  603   3.261   1.550   4.138
  159SOL     OW  604   1.001   7.121   0.011
  159SOL    HW1  605   0.955   7.037   0.016
  159SOL    HW2  606   1.093   7.099   0.025
  160SOL     OW  607   3.398   7.029   0.240
  160SOL    HW1  608   3.469   7.023   0.305
  160SOL    HW2  609   3.381   7.122   0.230
  161SOL     OW  610  10.005   7.018   3.978
  161SOL    HW1  611  10.024   7.003   4.070
  161SOL    HW2  612   9.932   7.080   3.978
  162SOL     OW  613   4.731   3.019   2.067
  162SOL    HW1  614   4.704   3.109   2.051
  162SOL    HW2  615   4.809   3.026   2.122
  163SOL     OW  616   1.646   4.881   1.405
  163SOL    HW1  617   1.578   4.885   1.338
  163SOL    HW2  618   1.715   4.827   1.367
  164SOL     OW  619   3.481   4.005   0.356
  164SOL    HW1  620   3.565   3.969   0.386
  164SOL    HW2  621   3.489   4.099   0.372
  165SOL     OW  622   5.053   2.946   1.011
  165SOL    HW1  623   5.087   2.942   0.922
  165SOL    HW2  624   5.071   2.859   1.048
  166SOL     OW  625  10.379   0.783   4.711
  166SOL    HW1  626  10.296   0.831   4.718
  166SOL    HW2  627  10.352   0.691   4.704
  167SOL     OW  628   8.601   6.400   2.028
  167SOL    HW1  629   8.677   6.439   2.072
  167SOL    HW2  630   8.545   6.369   2.099
  168SOL     OW  631   3.374   6.339   1.686
  168SOL    HW1  632   3.435   6.384   1.745
  168SOL    HW2  633   3.424   6.323   1.607
  169SOL     OW  634   3.350   2.810   2.157
  169SOL    HW1  635   3.412   2.757   2.207
  169SOL    HW2  636   3.284   2.837   2.221
  170SOL     OW  637   1.698   6.569   1.313
  170SOL    HW1  638   1.672   6.641   1.371
  170SOL    HW2  639   1.785   6.593   1.283
  171SOL     OW  640   4.094   4.991   4.879
  171SOL    HW1  641   4.014   4.962   4.924
  171SOL    HW2  642   4.130   5.060   4.934
  172SOL     OW  643   4.913   0.255   3.576
  172SOL    HW1  644   4.818   0.259   3.561
  172SOL    HW2  645   4.949   0.323   3.518
  173SOL     OW  646   2.797   1.469   0.953
  173SOL    HW1  647   2.770   1.552   0.913
  173SOL    HW2  648   2.751   1.467   1.037
  174SOL     OW  649   7.316   1.168   4.855
  174SOL    HW1  650   7.374   1.180   4.930
  174SOL    HW2  651   7.335   1.241   4.797
  175SOL     OW  652   0.144   2.092  -0.033
  175SOL    HW1  653   0.133   2.004   0.002
  175SOL    HW2  654   0.165   2.146   0.043
  176SOL     OW  655   5.433   0.135   1.737
  176SOL    HW1  656   5.526   0.116   1.751
  176SOL    HW2  657   5.398   0.150   1.824
  177SOL     OW  658   4.876   0.851   3.183
  177SOL    HW1  659   4.800   0.829   3.128
  177SOL    HW2  660   4.881   0.780   3.246
  178SOL     OW  661   7.731   0.747   0.978
  178SOL    HW1  662   7.637   0.738   0.962
  178SOL    HW2  663   7.765   0.785   0.898
  179SOL     OW  664   2.655   6.567   0.947
  179SOL    HW1  665   2.683   6.635   0.885
  179SOL    HW2  666   2.560   6.560   0.932
  180SOL     OW  667   7.394   5.657   0.752
  180SOL    HW1  668   7.458   5.592   0.782
  180SOL    HW2  669   7.320   5.648   0.811
  181SOL     OW  670   1.807   3.802   2.217
  181SOL    HW1  671   1.804   3.830   2.309
  181SOL    HW2  672   1.716   3.784   2.195
  182SOL     OW  673   7.461   1.309   0.876
  182SOL    HW1  674   7.416   1.351   0.803
  182SOL    HW2  675   7.490   1.382   0.932
  183SOL     OW  676   6.791   6.008   0.160
  183SOL    HW1  677   6.702   6.013   0.124
  183SOL    HW2  678   6.847   6.043   0.091
  184SOL     OW  679   5.432   1.069   3.549
  184SOL    HW1  680   5.467   1.136   3.490
  184SOL    HW2  681   5.362   1.027   3.499
  185SOL     OW  682   8.512   6.175   5.058
  185SOL    HW1  683   8.444   6.162   5.125
  185SOL    HW2  684   8.522   6.270   5.053
  186SOL     OW  685   4.488   3.383   5.081
  186SOL    HW1  686   4.560   3.372   5.143
  186SOL    HW2  687   4.530   3.411   5.000
  187SOL     OW  688   3.771   6.292   2.907
  187SOL    HW1  689   3.847   6.235   2.895
  187SOL    HW2  690   3.725   6.288   2.823
  188SOL     OW  691   2.624   0.868   0.086
  188SOL    HW1  692   2.573   0.948   0.095
  188SOL    HW2  693   2.714   0.894   0.104
  189SOL     OW  694   4.687   7.058   4.361
  189SOL    HW1  695   4.738   7.032   4.438
  189SOL    HW2  696   4.738   7.131   4.324
  190SOL     OW  697   6.281   6.715   0.138
  190SOL    HW1  698   6.280   6.724   0.043
  190SOL    HW2  699   6.330   6.635   0.154
  191SOL     OW  700   7.038   1.899   3.250
  191SOL    HW1  701   7.003   1.816   3.216
  191SOL    HW2  702   7.080   1.940   3.174
  192SOL     OW  703   4.551   6.681   0.756
  192SOL    HW1  704   4.551   6.690   0.851
  192SOL    HW2  705   4.534   6.588   0.740
  193SOL     OW  706   8.123   5.840   4.019
  193SOL    HW1  707   8.191   5.883   3.968
  193SOL    HW2  708   8.149   5.853   4.111
  194SOL     OW  709   4.156   7.017   1.548
  194SOL    HW1  710   4.214   6.959   1.598
  194SOL    HW2  711   4.196   7.103   1.557
  195SOL     OW  712   6.335   1.617   2.885
  195SOL    HW1  713   6.308   1.610   2.977
  195SOL    HW2  714   6.350   1.527   2.857
  196SOL     OW  715   6.431   1.033   3.011
  196SOL    HW1  716   6.448   0.945   2.977
  196SOL    HW2  717   6.422   1.021   3.106
  197SOL     OW  718   7.642   0.035   2.344
  197SOL    HW1  719   7.580  -0.035   2.325
  197SOL    HW2  720   7.718   0.017   2.288
  198SOL     OW  721   6.870   2.342   2.278
  198SOL    HW1  722   6.941   2.280   2.296
  198SOL    HW2  723   6.825   2.351   2.362
  199SOL     OW  724   5.612   4.903   2.166
  199SOL    HW1  725   5.553   4.952   2.109
  199SOL    HW2  726   5.687   4.882   2.111
  200SOL     OW  727   9.364   1.424   3.804
  200SOL    HW1  728   9.405   1.507   3.780
  200SOL    HW2  729   9.361   1.425   3.899
  201SOL     OW  730   7.383   1.944   1.347
  201SOL    HW1  731   7.476   1.968   1.347
  201SOL    HW2  732   7.338   2.025   1.370
  202SOL     OW  733   6.061   1.962   0.235
  202SOL    HW1  734   6.024   1.947   0.322
  202SOL    HW2  735   5.985   1.971   0.178
  203SOL     OW  736   2.632   1.172   2.811
  203SOL    HW1  737   2.633   1.081   2.782
  203SOL    HW2  738   2.671   1.170   2.898
  204SOL     OW  739   4.923   2.718   5.141
  204SOL    HW1  740   4.888   2.636   5.105
  204SOL    HW2  741   4.851   2.780   5.134
  205SOL     OW  742   9.250   2.879   2.899
  205SOL    HW1  743   9.233   2.886   2.805
  205SOL    HW2  744   9.224   2.963   2.935
  206SOL     OW  745   6.706   2.633   4.483
  206SOL    HW1  746   6.703   2.589   4.398
  206SOL    HW2  747   6.719   2.562   4.546
  207SOL     OW  748   7.195   0.346   0.850
  207SOL    HW1  749   7.160   0.266   0.813
  207SOL    HW2  750   7.285   0.325   0.874
  208SOL     OW  751   7.210   4.431   1.538
  208SOL    HW1  752   7.155   4.378   1.480
  208SOL    HW2  753   7.165   4.430   1.622
  209SOL     OW  754   1.860   3.052   1.922
  209SOL    HW1  755   1.790   3.029   1.861
  209SOL    HW2  756   1.830   3.133   1.963
  210SOL     OW  757   8.078   0.491   2.802
  210SOL    HW1  758   8.070   0.397   2.787
  210SOL    HW2  759   8.014   0.510   2.870
  211SOL     OW  760   1.522   2.874   1.167
  211SOL    HW1  761   1.600   2.894   1.220
  211SOL    HW2  762   1.449   2.902   1.222
  212SOL     OW  763  10.739   1.645   5.021
  212SOL    HW1  764  10.702   1.557   5.016
  212SOL    HW2  765  10.760   1.657   5.114
  213SOL     OW  766   5.111   2.782   1.245
  213SOL    HW1  767   5.016   2.783   1.245
  213SOL    HW2  768   5.137   2.873   1.229
  214SOL     OW  769   4.130   0.857   3.267
  214SOL    HW1  770   4.188   0.782   3.253
  214SOL    HW2  771   4.068   0.827   3.334
  215SOL     OW  772   8.326   5.100   1.450
  215SOL    HW1  773   8.276   5.019   1.454
  215SOL    HW2  774   8.408   5.076   1.406
  216SOL     OW  775   8.076   3.804   5.151
  216SOL    HW1  776   8.113   3.803   5.239
  216SOL    HW2  777   7.982   3.790   5.164
  217SOL     OW  778   1.299   5.972   1.735
  217SOL    HW1  779   1.283   6.051   1.684
  217SOL    HW2  780   1.330   5.908   1.670
  218SOL     OW  781   7.209   0.644   1.731
  218SOL    HW1  782   7.142   0.703   1.764
  218SOL    HW2  783   7.292   0.683   1.756
  219SOL     OW  784   4.534   4.437   3.336
  219SOL    HW1  785   4.443   4.408   3.332
  219SOL    HW2  786   4.579   4.367   3.383
  220SOL     OW  787   5.292   1.427   3.679
  220SOL    HW1  788   5.255   1.339   3.678
  220SOL    HW2  789   5.378   1.416   3.719
  221SOL     OW  790   3.371   0.579   3.291
  221SOL    HW1  791   3.339   0.596   3.203
  221SOL    HW2  792   3.439   0.645   3.305
  222SOL     OW  793   4.847   6.428   3.532
  222SOL    HW1  794   4.903   6.382   3.469
  222SOL    HW2  795   4.906   6.449   3.605
  223SOL     OW  796   4.074   4.330   4.706
  223SOL    HW1  797   4.158   4.355   4.669
  223SOL    HW2  798   4.090   4.244   4.745
  224SOL     OW  799   3.058  -0.012   2.930
  224SOL    HW1  800   2.986   0.018   2.874
  224SOL    HW2  801   3.024  -0.005   3.019
  225SOL     OW  802  10.141   4.029   3.982
  225SOL    HW1  803  10.220   4.082   3.970
  225SOL    HW2  804  10.163   3.945   3.943
  226SOL     OW  805   5.885   5.494   1.512
  226SOL    HW1  806   5.928   5.419   1.553
  226SOL    HW2  807   5.931   5.506   1.429
  227SOL     OW  808   3.560   4.338   3.901
  227SOL    HW1  809   3.633   4.399   3.891
  227SOL    HW2  810   3.555   4.321   3.995
  228SOL     OW  811   4.300   5.618   3.213
  228SOL    HW1  812   4.316   5.689   3.275
  228SOL    HW2  813   4.363   5.551   3.235
  229SOL     OW  814   7.722   5.165   3.245
  229SOL    HW1  815   7.725   5.116   3.327
  229SOL    HW2  816   7.814   5.175   3.220
  230SOL     OW  817   8.187   2.887   4.910
  230SOL    HW1  818   8.112   2.943   4.930
  230SOL    HW2  819   8.184   2.875   4.815
  231SOL     OW  820   2.740   5.575   1.207
  231SOL    HW1  821   2.666   5.633   1.225
  231SOL    HW2  822   2.766   5.541   1.293
  232SOL     OW  823   8.011   7.135   1.813
  232SOL    HW1  824   8.097   7.172   1.833
  232SOL    HW2  825   8.028   7.067   1.748
  233SOL     OW  826   4.772   5.214   4.797
  233SOL    HW1  827   4.781   5.172   4.711
  233SOL    HW2  828   4.773   5.142   4.860
  234SOL     OW  829   1.876   3.560   2.368
  234SOL    HW1  830   1.884   3.652   2.342
  234SOL    HW2  831   1.831   3.563   2.453
  235SOL     OW  832   3.822   0.367   3.245
  235SOL    HW1  833   3.851   0.282   3.279
  235SOL    HW2  834   3.727   0.358   3.236
  236SOL     OW  835   2.210   6.702   2.132
  236SOL    HW1  836   2.268   6.691   2.207
  236SOL    HW2  837   2.198   6.613   2.099
  237SOL     OW  838   1.879   0.699   2.039
  237SOL    HW1  839   1.973   0.719   2.043
  237SOL    HW2  840   1.862   0.687   1.945
  238SOL     OW  841   5.847   5.069   1.126
  238SOL    HW1  842   5.870   5.052   1.034
  238SOL    HW2  843   5.777   5.133   1.122
  239SOL     OW  844   7.301   1.339   0.671
  239SOL    HW1  845   7.210   1.316   0.688
  239SOL    HW2  846   7.312   1.324   0.577
  240SOL     OW  847   6.649   3.700   1.012
  240SOL    HW1  848   6.560   3.664   1.019
  240SOL    HW2  849   6.639   3.793   1.034
  241SOL     OW  850   9.879   6.411   3.523
  241SOL    HW1  851   9.792   6.408   3.563
  241SOL    HW2  852   9.912   6.321   3.530
  242SOL     OW  853   5.463   0.992   2.577
  242SOL    HW1  854   5.523   0.934   2.530
  242SOL    HW2  855   5.470   1.075   2.531
  243SOL     OW  856   3.597   4.352   3.593
  243SOL    HW1  857   3.580   4.438   3.555
  243SOL    HW2  858   3.521   4.334   3.648
  244SOL     OW  859   9.392   2.611   3.899
  244SOL    HW1  860   9.340   2.595   3.978
  244SOL    HW2  861   9.440   2.529   3.884
  245SOL     OW  862   3.381   6.730   3.151
  245SOL    HW1  863   3.443   6.775   3.208
  245SOL    HW2  864   3.415   6.744   3.062
  246SOL     OW  865   5.034   6.124   0.704
  246SOL    HW1  866   5.033   6.140   0.610
  246SOL    HW2  867   5.032   6.028   0.712
  247SOL     OW  868   3.829   6.214   4.210
  247SOL    HW1  869   3.810   6.266   4.288
  247SOL    HW2  870   3.898   6.263   4.165
  248SOL     OW  871   4.233   7.082   0.047
  248SOL    HW1  872   4.201   7.032  -0.028
  248SOL    HW2  873   4.328   7.070   0.045
  249SOL     OW  874   5.823   7.016   0.247
  249SOL    HW1  875   5.848   6.942   0.193
  249SOL    HW2  876   5.729   7.028   0.231
  250SOL     OW  877   3.270   3.037   1.981
  250SOL    HW1  878   3.314   3.089   2.048
  250SOL    HW2  879   3.304   2.949   1.992
  251SOL     OW  880   0.929   7.078   1.085
  251SOL    HW1  881   1.023   7.071   1.104
  251SOL    HW2  882   0.914   7.172   1.077
  252SOL     OW  883   3.992   6.682   2.444
  252SOL    HW1  884   3.939   6.747   2.397
  252SOL    HW2  885   4.072   6.729   2.467
  253SOL     OW  886   0.711   6.712   0.505
  253SOL    HW1  887   0.724   6.786   0.446
  253SOL    HW2  888   0.763   6.735   0.583
  254SOL     OW  889   8.938   5.983   4.391
  254SOL    HW1  890   8.897   5.916   4.447
  254SOL    HW2  891   9.016   6.010   4.440
  255SOL     OW  892   6.599   4.889   4.430
  255SOL    HW1  893   6.630   4.798   4.438
  255SOL    HW2  894   6.517   4.890   4.480
  256SOL     OW  895   9.563   4.199   4.691
  256SOL    HW1  896   9.636   4.145   4.661
  256SOL    HW2  897   9.486   4.145   4.676
  257SOL     OW  898   3.226   3.254   4.464
  257SOL    HW1  899   3.139   3.222   4.489
  257SOL    HW2  900   3.287   3.188   4.496
  258SOL     OW  901   7.536   1.307   1.239
  258SOL    HW1  902   7.445   1.279   1.232
  258SOL    HW2  903   7.586   1.239   1.193
  259SOL     OW  904   9.907   1.035   5.164
  259SOL    HW1  905   9.987   1.078   5.135
  259SOL    HW2  906   9.937   0.952   5.203
  260SOL     OW  907   3.499   0.840   2.636
  260SOL    HW1  908   3.461   0.904   2.575
  260SOL    HW2  909   3.434   0.832   2.706
  261SOL     OW  910   7.845   2.741   1.970
  261SOL    HW1  911   7.931   2.699   1.969
  261SOL    HW2  912   7.846   2.800   1.895
  262SOL     OW  913   6.466   6.603   3.139
  262SOL    HW1  914   6.549   6.555   3.147
  262SOL    HW2  915   6.409   6.561   3.204
  263SOL     OW  916   7.738   6.770   4.052
  263SOL    HW1  917   7.681   6.765   3.975
  263SOL    HW2  918   7.690   6.825   4.114
  264SOL     OW  919   8.802   3.158   4.657
  264SOL    HW1  920   8.868   3.090   4.670
  264SOL    HW2  921   8.843   3.219   4.594
  265SOL     OW  922   8.992   2.768   2.959
  265SOL    HW1  923   8.989   2.672   2.957
  265SOL    HW2  924   9.084   2.790   2.949
  266SOL     OW  925   6.817   1.447   1.330
  266SOL    HW1  926   6.883   1.378   1.326
  266SOL    HW2  927   6.866   1.526   1.354
  267SOL     OW  928   8.413   5.360   1.495
  267SOL    HW1  929   8.391   5.267   1.496
  267SOL    HW2  930   8.428   5.382   1.587
  268SOL     OW  931   2.865   3.225   3.590
  268SOL    HW1  932   2.862   3.134   3.619
  268SOL    HW2  933   2.866   3.220   3.495
  269SOL     OW  934   1.764   0.272   1.671
  269SOL    HW1  935   1.765   0.246   1.763
  269SOL    HW2  936   1.678   0.244   1.639
  270SOL     OW  937   2.139   6.912   1.458
  270SOL    HW1  938   2.232   6.909   1.437
  270SOL    HW2  939   2.095   6.921   1.373
  271SOL     OW  940   7.621   3.603   0.577
  271SOL    HW1  941   7.614   3.511   0.552
  271SOL    HW2  942   7.709   3.629   0.549
  272SOL     OW  943   5.277   4.181   2.850
  272SOL    HW1  944   5.185   4.190   2.876
  272SOL    HW2  945   5.285   4.233   2.770
  273SOL     OW  946   2.066   4.216   2.325
  273SOL    HW1  947   2.082   4.309   2.344
  273SOL    HW2  948   2.000   4.217   2.256
  274SOL     OW  949   8.488   2.927   2.214
  274SOL    HW1  950   8.416   2.890   2.162
  274SOL    HW2  951   8.565   2.877   2.188
  275SOL     OW  952   3.862   6.250   0.789
  275SOL    HW1  953   3.887   6.231   0.699
  275SOL    HW2  954   3.793   6.317   0.781
  276SOL     OW  955   5.944   6.052   1.758
  276SOL    HW1  956   5.968   5.963   1.782
  276SOL    HW2  957   5.958   6.056   1.663
  277SOL     OW  958   9.859   7.422   4.492
  277SOL    HW1  959   9.872   7.329   4.508
  277SOL    HW2  960   9.793   7.425   4.422
  278SOL     OW  961   2.622   7.300   1.128
  278SOL    HW1  962   2.573   7.225   1.162
  278SOL    HW2  963   2.591   7.311   1.038
  279SOL     OW  964   5.158   5.137   1.590
  279SOL    HW1  965   5.069   5.154   1.622
  279SOL    HW2  966   5.168   5.042   1.595
  280SOL     OW  967   5.102   2.801   0.573
  280SOL    HW1  968   5.042   2.844   0.512
  280SOL    HW2  969   5.045   2.761   0.638
  281SOL     OW  970   6.992   1.594   2.802
  281SOL    HW1  971   6.952   1.530   2.743
  281SOL    HW2  972   7.069   1.624   2.754
  282SOL     OW  973   8.670   5.298   3.667
  282SOL    HW1  974   8.752   5.345   3.679
  282SOL    HW2  975   8.664   5.284   3.572
  283SOL     OW  976   7.986   3.310   3.895
  283SOL    HW1  977   7.956   3.317   3.805
  283SOL    HW2  978   7.944   3.384   3.940
  284SOL     OW  979   1.659   3.588   1.640
  284SOL    HW1  980   1.703   3.599   1.556
  284SOL    HW2  981   1.681   3.667   1.689
  285SOL     OW  982   6.155   4.140   1.589
  285SOL    HW1  983   6.130   4.095   1.508
  285SOL    HW2  984   6.206   4.216   1.559
  286SOL     OW  985   8.550   3.790   3.924
  286SOL    HW1  986   8.597   3.707   3.910
  286SOL    HW2  987   8.465   3.777   3.884
  287SOL     OW  988   1.932   1.087   0.446
  287SOL    HW1  989   1.940   1.124   0.534
  287SOL    HW2  990   2.023   1.074   0.418
  288SOL     OW  991   1.503   3.838   1.756
  288SOL    HW1  992   1.442   3.773   1.791
  288SOL    HW2  993   1.451   3.886   1.691
  289SOL     OW  994   4.737   2.967   1.796
  289SOL    HW1  995   4.749   2.943   1.888
  289SOL    HW2  996   4.688   2.894   1.758
  290SOL     OW  997   4.737   0.867   1.884
  290SOL    HW1  998   4.709   0.940   1.828
  290SOL    HW2  999   4.673   0.798   1.866
  291SOL     OW 1000   6.275   2.189   2.728
  291SOL    HW1 1001   6.231   2.230   2.654
  291SOL    HW2 1002   6.303   2.262   2.783
  292SOL     OW 1003   9.710   4.864   3.729
  292SOL    HW1 1004   9.734   4.777   3.759
  292SOL    HW2 1005   9.743   4.923   3.796
  293SOL     OW 1006   2.156   0.961   2.629
  293SOL    HW1 1007   2.137   0.888   2.687
  293SOL    HW2 1008   2.071   0.984   2.591
  294SOL     OW 1009   8.943   1.580   2.211
  294SOL    HW1 1010   8.945   1.674   2.192
  294SOL    HW2 1011   8.861   1.566   2.257
  295SOL     OW 1012   6.074   1.817   3.695
  295SOL    HW1 1013   6.058   1.833   3.788
  295SOL    HW2 1014   6.114   1.730   3.692
  296SOL     OW 1015   6.267   1.588   3.687
  296SOL    HW1 1016   6.306   1.675   3.688
  296SOL    HW2 1017   6.307   1.544   3.612
  297SOL     OW 1018   5.420   5.883   2.261
  297SOL    HW1 1019   5.430   5.951   2.327
  297SOL    HW2 1020   5.466   5.916   2.184
  298SOL     OW 1021   1.851   2.954   2.413
  298SOL    HW1 1022   1.859   3.044   2.381
  298SOL    HW2 1023   1.829   2.903   2.335
  299SOL     OW 1024   1.512   2.541   1.834
  299SOL    HW1 1025   1.601   2.574   1.836
  299SOL    HW2 1026   1.487   2.532   1.926
  300SOL     OW 1027   6.986   0.609   2.200
  300SOL    HW1 1028   6.992   0.564   2.116
  300SOL    HW2 1029   6.922   0.679   2.186
  301SOL     OW 1030   4.250   5.337   3.079
  301SOL    HW1 1031   4.248   5.416   3.133
  301SOL    HW2 1032   4.273   5.369   2.992
  302SOL     OW 1033   5.106   0.788   0.394
  302SOL    HW1 1034   5.039   0.777   0.326
  302SOL    HW2 1035   5.095   0.878   0.424
  303SOL     OW 1036   4.998   4.648   3.614
  303SOL    HW1 1037   4.912   4.686   3.636
  303SOL    HW2 1038   5.061   4.717   3.636
  304SOL     OW 1039   4.701   4.034   4.723
  304SOL    HW1 1040   4.690   4.129   4.716
  304SOL    HW2 1041   4.613   4.000   4.739
  305SOL     OW 1042   4.670   4.973   2.251
  305SOL    HW1 1043   4.676   4.890   2.299
  305SOL    HW2 1044   4.686   4.949   2.160
  306SOL     OW 1045   3.328   0.776   2.822
  306SOL    HW1 1046   3.360   0.756   2.910
  306SOL    HW2 1047   3.274   0.854   2.834
  307SOL     OW 1048   6.436   4.131   5.161
  307SOL    HW1 1049   6.478   4.073   5.225
  307SOL    HW2 1050   6.455   4.219   5.193
  308SOL     OW 1051   7.801   1.561   2.942
  308SOL    HW1 1052   7.894   1.567   2.961
  308SOL    HW2 1053   7.795   1.504   2.866
  309SOL     OW 1054   4.400   0.681   5.148
  309SOL    HW1 1055   4.494   0.666   5.143
  309SOL    HW2 1056   4.390   0.747   5.217
  310SOL     OW 1057   6.185   5.973   2.491
  310SOL    HW1 1058   6.228   6.004   2.412
  310SOL    HW2 1059   6.187   6.049   2.550
  311SOL     OW 1060   1.549   0.152   2.124
  311SOL    HW1 1061   1.524   0.223   2.065
  311SOL    HW2 1062   1.630   0.183   2.165
  312SOL     OW 1063   0.966   7.018   0.354
  312SOL    HW1 1064   0.999   7.103   0.381
  312SOL    HW2 1065   0.872   7.021   0.372
  313SOL     OW 1066   2.188   0.383   3.058
  313SOL    HW1 1067   2.102   0.413   3.027
  313SOL    HW2 1068   2.223   0.332   2.985
  314SOL     OW 1069   5.829   5.076   4.231
  314SOL    HW1 1070   5.924   5.087   4.224
  314SOL    HW2 1071   5.800   5.056   4.142
  315SOL     OW 1072   5.099   0.794   1.847
  315SOL    HW1 1073   5.144   0.803   1.764
  315SOL    HW2 1074   5.057   0.879   1.862
  316SOL     OW 1075   8.793   3.684   3.551
  316SOL    HW1 1076   8.751   3.715   3.471
  316SOL    HW2 1077   8.886   3.684   3.531
  317SOL     OW 1078   6.273   6.062   3.314
  317SOL    HW1 1079   6.318   6.144   3.297
  317SOL    HW2 1080   6.339   5.994   3.297
  318SOL     OW 1081   7.439   0.429   4.146
  318SOL    HW1 1082   7.437   0.355   4.207
  318SOL    HW2 1083   7.382   0.494   4.187
  319SOL     OW 1084   9.040   2.484   2.916
  319SOL    HW1 1085   9.030   2.412   2.854
  319SOL    HW2 1086   9.091   2.447   2.988
  320SOL     OW 1087   8.642   4.295   4.271
  320SOL    HW1 1088   8.696   4.320   4.346
  320SOL    HW2 1089   8.557   4.271   4.309
  321SOL     OW 1090   5.974   3.498   4.139
  321SOL    HW1 1091   5.923   3.438   4.085
  321SOL    HW2 1092   5.954   3.585   4.103
  322SOL     OW 1093   6.640   4.415   2.081
  322SOL    HW1 1094   6.634   4.411   2.176
  322SOL    HW2 1095   6.728   4.385   2.060
  323SOL     OW 1096  10.101   4.301   4.641
  323SOL    HW1 1097  10.110   4.394   4.619
  323SOL    HW2 1098  10.187   4.276   4.675
  324SOL     OW 1099   5.980   6.892   0.822
  324SOL    HW1 1100   5.982   6.935   0.737
  324SOL    HW2 1101   5.924   6.948   0.876
  325SOL     OW 1102   9.194   4.243   4.864
  325SOL    HW1 1103   9.224   4.190   4.937
  325SOL    HW2 1104   9.172   4.328   4.904
  326SOL     OW 1105   5.704   1.137   4.732
  326SOL    HW1 1106   5.675   1.070   4.793
  326SOL    HW2 1107   5.691   1.098   4.646
  327SOL     OW 1108   8.429   2.676   4.836
  327SOL    HW1 1109   8.391   2.710   4.917
  327SOL    HW2 1110   8.361   2.691   4.770
  328SOL     OW 1111   4.060   5.682   0.575
  328SOL    HW1 1112   4.029   5.769   0.601
  328SOL    HW2 1113   4.013   5.621   0.631
  329SOL     OW 1114   7.165   1.844   0.332
  329SOL    HW1 1115   7.241   1.875   0.284
  329SOL    HW2 1116   7.175   1.881   0.420
  330SOL     OW 1117   7.354   4.940   3.313
  330SOL    HW1 1118   7.359   5.035   3.319
  330SOL    HW2 1119   7.398   4.909   3.392
  331SOL     OW 1120   2.604   4.939   2.271
  331SOL    HW1 1121   2.655   4.887   2.209
  331SOL    HW2 1122   2.642   4.918   2.357
  332SOL     OW 1123   2.147   3.050   1.437
  332SOL    HW1 1124   2.142   3.090   1.524
  332SOL    HW2 1125   2.115   2.961   1.450
  333SOL     OW 1126   7.334   3.148   2.453
  333SOL    HW1 1127   7.258   3.113   2.499
  333SOL    HW2 1128   7.309   3.237   2.430
  334SOL     OW 1129   3.139   3.554   0.469
  334SOL    HW1 1130   3.200   3.604   0.522
  334SOL    HW2 1131   3.106   3.616   0.405
  335SOL     OW 1132   5.148   2.709   2.090
  335SOL    HW1 1133   5.130   2.622   2.127
  335SOL    HW2 1134   5.079   2.721   2.025
  336SOL     OW 1135   3.267   1.260   3.069
  336SOL    HW1 1136   3.295   1.304   2.989
  336SOL    HW2 1137   3.181   1.297   3.088
  337SOL     OW 1138   9.694   3.148   3.276
  337SOL    HW1 1139   9.783   3.181   3.263
  337SOL    HW2 1140   9.652   3.156   3.191
  338SOL     OW 1141   1.649   4.391   0.883
  338SOL    HW1 1142   1.734   4.354   0.861
  338SOL    HW2 1143   1.644   4.473   0.832
  339SOL     OW 1144   9.763   7.123   4.670
  339SOL    HW1 1145   9.850   7.120   4.709
  339SOL    HW2 1146   9.772   7.073   4.588
  340SOL     OW 1147   9.299   4.146   3.713
  340SOL    HW1 1148   9.282   4.149   3.807
  340SOL    HW2 1149   9.333   4.058   3.697
  341SOL     OW 1150   8.427   2.896   4.335
  341SOL    HW1 1151   8.449   2.985   4.306
  341SOL    HW2 1152   8.449   2.840   4.260
  342SOL     OW 1153   3.694   1.975   4.007
  342SOL    HW1 1154   3.712   2.012   4.093
  342SOL    HW2 1155   3.615   1.922   4.020
  343SOL     OW 1156   9.108   6.482   2.670
  343SOL    HW1 1157   9.192   6.449   2.639
  343SOL    HW2 1158   9.124   6.509   2.760
  344SOL     OW 1159   3.303   3.639   2.013
  344SOL    HW1 1160   3.397   3.621   2.003
  344SOL    HW2 1161   3.260   3.567   1.967
  345SOL     OW 1162   4.201   5.529   0.362
  345SOL    HW1 1163   4.263   5.556   0.429
  345SOL    HW2 1164   4.204   5.599   0.297
  346SOL     OW 1165   5.365   5.218   3.047
  346SOL    HW1 1166   5.432   5.233   3.113
  346SOL    HW2 1167   5.401   5.255   2.967
  347SOL     OW 1168   2.088   7.031   2.731
  347SOL    HW1 1169   2.143   7.012   2.806
  347SOL    HW2 1170   2.106   7.123   2.710
  348SOL     OW 1171   5.473   3.554   0.578
  348SOL    HW1 1172   5.554   3.559   0.528
  348SOL    HW2 1173   5.404   3.574   0.514
  349SOL     OW 1174   2.526   2.317   3.355
  349SOL    HW1 1175   2.569   2.398   3.329
  349SOL    HW2 1176   2.493   2.279   3.274
  350SOL     OW 1177   8.820   2.154   2.982
  350SOL    HW1 1178   8.757   2.184   2.916
  350SOL    HW2 1179   8.833   2.230   3.039
  351SOL     OW 1180   3.821   1.795   3.772
  351SOL    HW1 1181   3.794   1.742   3.697
  351SOL    HW2 1182   3.740   1.811   3.820
  352SOL     OW 1183   6.791   1.529   4.567
  352SOL    HW1 1184   6.809   1.580   4.646
  352SOL    HW2 1185   6.700   1.500   4.576
  353SOL     OW 1186   3.641  -0.003   2.257
  353SOL    HW1 1187   3.693  -0.021   2.179
  353SOL    HW2 1188   3.635   0.092   2.261
  354SOL     OW 1189   7.614   0.762   1.974
  354SOL    HW1 1190   7.563   0.815   1.912
  354SOL    HW2 1191   7.549   0.731   2.038
  355SOL     OW 1192   2.416   2.089   0.834
  355SOL    HW1 1193   2.467   2.171   0.837
  355SOL    HW2 1194   2.466   2.028   0.887
  356SOL     OW 1195   5.667   6.710   0.467
  356SOL    HW1 1196   5.612   6.722   0.389
  356SOL    HW2 1197   5.606   6.712   0.540
  357SOL     OW 1198   5.256   3.510   4.721
  357SOL    HW1 1199   5.337   3.487   4.674
  357SOL    HW2 1200   5.220   3.584   4.671
  358SOL     OW 1201   7.797   4.938   4.436
  358SOL    HW1 1202   7.708   4.965   4.415
  358SOL    HW2 1203   7.804   4.952   4.531
  359SOL     OW 1204   3.979   6.396   5.056
  359SOL    HW1 1205   3.954   6.325   4.997
  359SOL    HW2 1206   3.996   6.353   5.140
  360SOL     OW 1207  10.212   7.393   4.890
  360SOL    HW1 1208  10.239   7.301   4.889
  360SOL    HW2 1209  10.293   7.441   4.910
  361SOL     OW 1210   3.716   3.981   1.900
  361SOL    HW1 1211   3.647   4.041   1.870
  361SOL    HW2 1212   3.668   3.910   1.942
  362SOL     OW 1213   4.373   3.908   3.940
  362SOL    HW1 1214   4.361   4.003   3.948
  362SOL    HW2 1215   4.285   3.874   3.925
  363SOL     OW 1216   6.164   2.268   2.462
  363SOL    HW1 1217   6.070   2.258   2.450
  363SOL    HW2 1218   6.197   2.291   2.374
  364SOL     OW 1219   4.420   2.126   3.060
  364SOL    HW1 1220   4.456   2.212   3.038
  364SOL    HW2 1221   4.415   2.125   3.155
  365SOL     OW 1222   1.925   5.860   1.095
  365SOL    HW1 1223   2.013   5.898   1.094
  365SOL    HW2 1224   1.867   5.936   1.106
  366SOL     OW 1225   4.514   5.350   4.835
  366SOL    HW1 1226   4.470   5.278   4.790
  366SOL    HW2 1227   4.596   5.312   4.867
  367SOL     OW 1228   2.841   3.957   2.317
  367SOL    HW1 1229   2.918   3.964   2.260
  367SOL    HW2 1230   2.857   4.021   2.386
  368SOL     OW 1231   6.218   2.051   2.277
  368SOL    HW1 1232   6.182   2.077   2.361
  368SOL    HW2 1233   6.310   2.034   2.294
  369SOL     OW 1234   4.793   3.864   0.854
  369SOL    HW1 1235   4.866   3.824   0.901
  369SOL    HW2 1236   4.731   3.792   0.841
  370SOL     OW 1237   5.951   1.652   3.906
  370SOL    HW1 1238   5.883   1.712   3.937
  370SOL    HW2 1239   5.912   1.565   3.915
  371SOL     OW 1240   4.010   6.021   2.405
  371SOL    HW1 1241   3.988   5.998   2.315
  371SOL    HW2 1242   3.959   6.099   2.424
  372SOL     OW 1243   4.690   0.924   0.213
  372SOL    HW1 1244   4.657   0.847   0.258
  372SOL    HW2 1245   4.623   0.991   0.226
  373SOL     OW 1246   0.390   3.670  -0.015
  373SOL    HW1 1247   0.393   3.704   0.075
  373SOL    HW2 1248   0.385   3.575  -0.005
  374SOL     OW 1249   7.387   0.346   3.044
  374SOL    HW1 1250   7.413   0.438   3.031
  374SOL    HW2 1251   7.295   0.343   3.020
  375SOL     OW 1252   4.121   5.794   4.801
  375SOL    HW1 1253   4.211   5.766   4.815
  375SOL    HW2 1254   4.102   5.770   4.710
  376SOL     OW 1255   5.377   3.706   1.352
  376SOL    HW1 1256   5.389   3.629   1.407
  376SOL    HW2 1257   5.465   3.743   1.342
  377SOL     OW 1258   7.588   6.005   4.673
  377SOL    HW1 1259   7.580   6.081   4.615
  377SOL    HW2 1260   7.571   6.040   4.760
  378SOL     OW 1261   9.181   6.477   4.582
  378SOL    HW1 1262   9.248   6.416   4.612
  378SOL    HW2 1263   9.229   6.557   4.560
  379SOL     OW 1264   4.681   2.231   5.078
  379SOL    HW1 1265   4.660   2.153   5.027
  379SOL    HW2 1266   4.668   2.304   5.018
  380SOL     OW 1267   4.109   5.492   2.051
  380SOL    HW1 1268   4.106   5.569   2.107
  380SOL    HW2 1269   4.137   5.421   2.108
  381SOL     OW 1270   6.667   2.642   0.331
  381SOL    HW1 1271   6.696   2.551   0.338
  381SOL    HW2 1272   6.576   2.641   0.362
  382SOL     OW 1273   6.803   3.262   2.425
  382SOL    HW1 1274   6.753   3.273   2.344
  382SOL    HW2 1275   6.894   3.256   2.396
  383SOL     OW 1276   6.525   0.101   2.471
  383SOL    HW1 1277   6.529   0.197   2.480
  383SOL    HW2 1278   6.613   0.072   2.492
  384SOL     OW 1279   8.548   1.409   4.755
  384SOL    HW1 1280   8.537   1.387   4.847
  384SOL    HW2 1281   8.493   1.346   4.708
  385SOL     OW 1282   6.875   2.159   0.204
  385SOL    HW1 1283   6.907   2.152   0.295
  385SOL    HW2 1284   6.797   2.104   0.202
  386SOL     OW 1285   1.816   4.222   0.581
  386SOL    HW1 1286   1.908   4.205   0.563
  386SOL    HW2 1287   1.769   4.154   0.533
  387SOL     OW 1288   1.349   5.295   1.611
  387SOL    HW1 1289   1.284   5.356   1.575
  387SOL    HW2 1290   1.380   5.246   1.534
  388SOL     OW 1291   1.703   0.972   0.326
  388SOL    HW1 1292   1.769   1.011   0.383
  388SOL    HW2 1293   1.633   1.038   0.321
  389SOL     OW 1294   1.677   6.644   1.648
  389SOL    HW1 1295   1.628   6.625   1.729
  389SOL    HW2 1296   1.610   6.669   1.585
  390SOL     OW 1297   5.707   1.743   4.017
  390SOL    HW1 1298   5.734   1.770   4.105
  390SOL    HW2 1299   5.612   1.755   4.016
  391SOL     OW 1300   7.458   3.826   4.478
  391SOL    HW1 1301   7.486   3.840   4.387
  391SOL    HW2 1302   7.497   3.741   4.501
  392SOL     OW 1303   4.659   0.383   2.914
  392SOL    HW1 1304   4.691   0.311   2.968
  392SOL    HW2 1305   4.703   0.371   2.830
  393SOL     OW 1306   6.422   6.198   1.498
  393SOL    HW1 1307   6.358   6.244   1.445
  393SOL    HW2 1308   6.456   6.264   1.558
  394SOL     OW 1309   8.492   2.025   4.752
  394SOL    HW1 1310   8.523   1.939   4.725
  394SOL    HW2 1311   8.478   2.073   4.671
  395SOL     OW 1312   4.875   2.109   2.726
  395SOL    HW1 1313   4.880   2.180   2.790
  395SOL    HW2 1314   4.832   2.037   2.773
  396SOL     OW 1315   4.525   3.859   2.869
  396SOL    HW1 1316   4.559   3.859   2.958
  396SOL    HW2 1317   4.562   3.938   2.830
  397SOL     OW 1318   3.774   3.596   4.202
  397SOL    HW1 1319   3.689   3.630   4.229
  397SOL    HW2 1320   3.754   3.523   4.145
  398SOL     OW 1321   3.456   6.804   0.530
  398SOL    HW1 1322   3.417   6.717   0.538
  398SOL    HW2 1323   3.531   6.792   0.471
  399SOL     OW 1324   8.266   7.234   3.098
  399SOL    HW1 1325   8.310   7.319   3.102
  399SOL    HW2 1326   8.231   7.221   3.186
  400SOL     OW 1327   2.906   3.203   2.210
  400SOL    HW1 1328   2.951   3.288   2.214
  400SOL    HW2 1329   2.838   3.209   2.278
  401SOL     OW 1330   5.882   2.456   2.913
  401SOL    HW1 1331   5.917   2.513   2.844
  401SOL    HW2 1332   5.858   2.516   2.984
  402SOL     OW 1333   1.822   5.351   2.364
  402SOL    HW1 1334   1.749   5.290   2.364
  402SOL    HW2 1335   1.784   5.433   2.397
  403SOL     OW 1336   0.822   3.894   0.928
  403SOL    HW1 1337   0.904   3.890   0.878
  403SOL    HW2 1338   0.833   3.969   0.986
  404SOL     OW 1339   1.063   3.907   0.788
  404SOL    HW1 1340   1.135   3.959   0.824
  404SOL    HW2 1341   1.106   3.841   0.734
  405SOL     OW 1342   9.161   5.614   4.571
  405SOL    HW1 1343   9.121   5.528   4.558
  405SOL    HW2 1344   9.226   5.621   4.501
  406SOL     OW 1345   6.528   3.594   0.067
  406SOL    HW1 1346   6.494   3.509   0.096
  406SOL    HW2 1347   6.584   3.573  -0.008
  407SOL     OW 1348   3.494   3.062   0.528
  407SOL    HW1 1349   3.477   3.154   0.509
  407SOL    HW2 1350   3.409   3.019   0.519
  408SOL     OW 1351   7.141   4.064   2.194
  408SOL    HW1 1352   7.065   4.026   2.150
  408SOL    HW2 1353   7.119   4.061   2.288
  409SOL     OW 1354   8.262   3.991   1.336
  409SOL    HW1 1355   8.232   4.004   1.246
  409SOL    HW2 1356   8.346   3.946   1.328
  410SOL     OW 1357   9.031   1.499   4.336
  410SOL    HW1 1358   8.970   1.538   4.273
  410SOL    HW2 1359   9.082   1.436   4.284
  411SOL     OW 1360   5.861   0.126   1.512
  411SOL    HW1 1361   5.799   0.061   1.481
  411SOL    HW2 1362   5.871   0.107   1.606
  412SOL     OW 1363   4.564   6.133   0.301
  412SOL    HW1 1364   4.534   6.185   0.376
  412SOL    HW2 1365   4.562   6.194   0.228
  413SOL     OW 1366   7.295   6.818   1.476
  413SOL    HW1 1367   7.319   6.832   1.384
  413SOL    HW2 1368   7.226   6.752   1.473
  414SOL     OW 1369   2.637   4.852   1.046
  414SOL    HW1 1370   2.698   4.782   1.021
  414SOL    HW2 1371   2.615   4.895   0.963
  415SOL     OW 1372   7.884   7.268   4.410
  415SOL    HW1 1373   7.855   7.180   4.433
  415SOL    HW2 1374   7.944   7.256   4.336
  416SOL     OW 1375   3.599   1.225   0.429
  416SOL    HW1 1376   3.508   1.198   0.442
  416SOL    HW2 1377   3.649   1.176   0.495
  417SOL     OW 1378   5.455   4.048   3.002
  417SOL    HW1 1379   5.454   4.141   2.979
  417SOL    HW2 1380   5.539   4.017   2.968
  418SOL     OW 1381   7.474   3.167   0.557
  418SOL    HW1 1382   7.387   3.140   0.527
  418SOL    HW2 1383   7.478   3.135   0.647
  419SOL     OW 1384   7.211   0.803   2.328
  419SOL    HW1 1385   7.125   0.823   2.363
  419SOL    HW2 1386   7.194   0.749   2.250
  420SOL     OW 1387   9.350   6.684   4.461
  420SOL    HW1 1388   9.347   6.779   4.448
  420SOL    HW2 1389   9.352   6.648   4.373
  421SOL     OW 1390   2.648   5.068   3.332
  421SOL    HW1 1391   2.682   5.015   3.260
  421SOL    HW2 1392   2.581   5.014   3.373
  422SOL     OW 1393   2.288   4.163   2.575
  422SOL    HW1 1394   2.284   4.082   2.626
  422SOL    HW2 1395   2.197   4.185   2.557
  423SOL     OW 1396   6.411   2.478   0.359
  423SOL    HW1 1397   6.340   2.415   0.367
  423SOL    HW2 1398   6.367   2.563   0.359
  424SOL     OW 1399   0.061   3.204   0.095
  424SOL    HW1 1400   0.118   3.268   0.138
  424SOL    HW2 1401   0.096   3.196   0.006
  425SOL     OW 1402   6.997   5.031   0.488
  425SOL    HW1 1403   7.054   5.106   0.472
  425SOL    HW2 1404   6.934   5.062   0.553
  426SOL     OW 1405   4.893   1.328   2.780
  426SOL    HW1 1406   4.856   1.240   2.788
  426SOL    HW2 1407   4.821   1.381   2.744
  427SOL     OW 1408   7.787   1.695   1.608
  427SOL    HW1 1409   7.704   1.659   1.638
  427SOL    HW2 1410   7.814   1.755   1.677
  428SOL     OW 1411   8.427   0.539   4.345
  428SOL    HW1 1412   8.387   0.561   4.261
  428SOL    HW2 1413   8.358   0.555   4.409
  429SOL     OW 1414   6.750   1.997   0.639
  429SOL    HW1 1415   6.694   1.962   0.570
  429SOL    HW2 1416   6.705   2.076   0.669
  430SOL     OW 1417   1.915   4.492   1.097
  430SOL    HW1 1418   1.909   4.504   1.002
  430SOL    HW2 1419   2.008   4.475   1.113
  431SOL     OW 1420   6.731   1.259   3.191
  431SOL    HW1 1421   6.665   1.293   3.251
  431SOL    HW2 1422   6.814   1.291   3.227
  432SOL     OW 1423   4.117   1.485   2.905
  432SOL    HW1 1424   4.120   1.436   2.823
  432SOL    HW2 1425   4.028   1.521   2.908
  433SOL     OW 1426   3.775   4.109   0.784
  433SOL    HW1 1427   3.804   4.182   0.839
  433SOL    HW2 1428   3.679   4.112   0.790
  434SOL     OW 1429   2.903   5.023   3.759
  434SOL    HW1 1430   2.893   5.116   3.741
  434SOL    HW2 1431   2.983   4.998   3.713
  435SOL     OW 1432   7.395   3.429   2.788
  435SOL    HW1 1433   7.408   3.523   2.798
  435SOL    HW2 1434   7.478   3.390   2.814
  436SOL     OW 1435   7.738   0.574   3.804
  436SOL    HW1 1436   7.821   0.620   3.795
  436SOL    HW2 1437   7.754   0.509   3.873
  437SOL     OW 1438   3.540   4.695   3.142
  437SOL    HW1 1439   3.630   4.725   3.149
  437SOL    HW2 1440   3.523   4.690   3.048
  438SOL     OW 1441   9.203   2.551   5.206
  438SOL    HW1 1442   9.205   2.467   5.161
  438SOL    HW2 1443   9.152   2.536   5.285
  439SOL     OW 1444   3.382   4.989   2.942
  439SOL    HW1 1445   3.459   5.044   2.959
  439SOL    HW2 1446   3.327   5.002   3.020
  440SOL     OW 1447   7.908   5.833   4.493
  440SOL    HW1 1448   7.852   5.831   4.570
  440SOL    HW2 1449   7.937   5.742   4.483
  441SOL     OW 1450   7.673   5.262   2.710
  441SOL    HW1 1451   7.580   5.243   2.711
  441SOL    HW2 1452   7.689   5.308   2.792
  442SOL     OW 1453   9.292   3.025   5.122
  442SOL    HW1 1454   9.231   2.951   5.121
  442SOL    HW2 1455   9.323   3.030   5.212
  443SOL     OW 1456   3.250   5.733   4.280
  443SOL    HW1 1457   3.201   5.655   4.303
  443SOL    HW2 1458   3.204   5.769   4.204
  444SOL     OW 1459   4.067   1.240   2.393
  444SOL    HW1 1460   4.028   1.280   2.471
  444SOL    HW2 1461   4.026   1.286   2.320
  445SOL     OW 1462   9.860   0.651   4.343
  445SOL    HW1 1463   9.906   0.636   4.426
  445SOL    HW2 1464   9.924   0.697   4.288
  446SOL     OW 1465   6.498   1.552   2.236
  446SOL    HW1 1466   6.536   1.628   2.279
  446SOL    HW2 1467   6.436   1.517   2.299
  447SOL     OW 1468   7.152   2.575   2.681
  447SOL    HW1 1469   7.094   2.500   2.683
  447SOL    HW2 1470   7.233   2.544   2.723
  448SOL     OW 1471   4.640   0.550   3.449
  448SOL    HW1 1472   4.574   0.526   3.384
  448SOL    HW2 1473   4.589   0.571   3.528
  449SOL     OW 1474   7.927   4.494   3.704
  449SOL    HW1 1475   8.011   4.540   3.705
  449SOL    HW2 1476   7.943   4.416   3.650
  450SOL     OW 1477   5.786   4.174   3.517
  450SOL    HW1 1478   5.822   4.085   3.519
  450SOL    HW2 1479   5.784   4.196   3.424
  451SOL     OW 1480   7.177   4.724   2.807
  451SOL    HW1 1481   7.161   4.687   2.720
  451SOL    HW2 1482   7.192   4.648   2.863
  452SOL     OW 1483   4.081   0.165   0.698
  452SOL    HW1 1484   4.007   0.151   0.758
  452SOL    HW2 1485   4.110   0.254   0.716
  453SOL     OW 1486   9.802   0.411   3.770
  453SOL    HW1 1487   9.889   0.448   3.782
  453SOL    HW2 1488   9.744   0.487   3.766
  454SOL     OW 1489   8.539   4.664   3.213
  454SOL    HW1 1490   8.524   4.717   3.291
  454SOL    HW2 1491   8.453   4.652   3.174
  455SOL     OW 1492   3.172   6.000   3.936
  455SOL    HW1 1493   3.131   6.077   3.896
  455SOL    HW2 1494   3.156   6.011   4.030
  456SOL     OW 1495   3.848   7.482   4.815
  456SOL    HW1 1496   3.903   7.429   4.873
  456SOL    HW2 1497   3.763   7.486   4.858
  457SOL     OW 1498   1.520   0.451   0.048
  457SOL    HW1 1499   1.427   0.456   0.070
  457SOL    HW2 1500   1.546   0.542   0.033
  458SOL     OW 1501   4.685   2.120   3.280
  458SOL    HW1 1502   4.729   2.138   3.363
  458SOL    HW2 1503   4.595   2.101   3.304
  459SOL     OW 1504   5.288   6.351   4.747
  459SOL    HW1 1505   5.363   6.404   4.774
  459SOL    HW2 1506   5.316   6.260   4.763
  460SOL     OW 1507   3.694   1.321   3.628
  460SOL    HW1 1508   3.689   1.226   3.637
  460SOL    HW2 1509   3.610   1.353   3.662
  461SOL     OW 1510   2.815   4.423   1.326
  461SOL    HW1 1511   2.804   4.517   1.311
  461SOL    HW2 1512   2.854   4.417   1.413
  462SOL     OW 1513   5.740   5.111   0.501
  462SOL    HW1 1514   5.832   5.116   0.528
  462SOL    HW2 1515   5.728   5.019   0.476
  463SOL     OW 1516   3.944   6.243   1.951
  463SOL    HW1 1517   3.962   6.324   1.998
  463SOL    HW2 1518   3.869   6.264   1.895
  464SOL     OW 1519   6.681   1.484   5.126
  464SOL    HW1 1520   6.703   1.512   5.215
  464SOL    HW2 1521   6.669   1.389   5.133
  465SOL     OW 1522   9.802   5.822   3.623
  465SOL    HW1 1523   9.771   5.911   3.607
  465SOL    HW2 1524   9.867   5.807   3.554
  466SOL     OW 1525   3.284   5.177   2.242
  466SOL    HW1 1526   3.340   5.254   2.245
  466SOL    HW2 1527   3.208   5.205   2.191
  467SOL     OW 1528   4.021   5.999   0.663
  467SOL    HW1 1529   4.099   6.014   0.716
  467SOL    HW2 1530   4.019   6.072   0.600
  468SOL     OW 1531   8.336   5.315   3.644
  468SOL    HW1 1532   8.364   5.406   3.655
  468SOL    HW2 1533   8.404   5.264   3.687
  469SOL     OW 1534   3.718   2.136   0.706
  469SOL    HW1 1535   3.682   2.057   0.747
  469SOL    HW2 1536   3.692   2.130   0.614
  470SOL     OW 1537   0.863   3.621   0.939
  470SOL    HW1 1538   0.900   3.705   0.912
  470SOL    HW2 1539   0.776   3.619   0.900
  471SOL     OW 1540   5.700   4.170   1.118
  471SOL    HW1 1541   5.776   4.115   1.138
  471SOL    HW2 1542   5.724   4.217   1.039
  472SOL     OW 1543   3.694   2.257   5.020
  472SOL    HW1 1544   3.757   2.328   5.005
  472SOL    HW2 1545   3.626   2.296   5.075
  473SOL     OW 1546  10.204   3.282   5.094
  473SOL    HW1 1547  10.258   3.253   5.167
  473SOL    HW2 1548  10.267   3.309   5.027
  474SOL     OW 1549   7.924   3.141   1.635
  474SOL    HW1 1550   7.945   3.234   1.643
  474SOL    HW2 1551   7.903   3.129   1.542
  475SOL     OW 1552   6.128   2.633   2.085
  475SOL    HW1 1553   6.224   2.633   2.086
  475SOL    HW2 1554   6.104   2.717   2.046
  476SOL     OW 1555   2.914   7.244   1.159
  476SOL    HW1 1556   2.928   7.305   1.231
  476SOL    HW2 1557   2.818   7.239   1.151
  477SOL     OW 1558   7.462   6.385   0.768
  477SOL    HW1 1559   7.393   6.331   0.806
  477SOL    HW2 1560   7.416   6.459   0.729
  478SOL     OW 1561   7.156   1.620   1.204
  478SOL    HW1 1562   7.102   1.695   1.229
  478SOL    HW2 1563   7.155   1.563   1.281
  479SOL     OW 1564   4.098   3.807   1.456
  479SOL    HW1 1565   4.145   3.833   1.536
  479SOL    HW2 1566   4.014   3.851   1.463
  480SOL     OW 1567  10.476   6.700   5.212
  480SOL    HW1 1568  10.452   6.682   5.121
  480SOL    HW2 1569  10.463   6.617   5.257
  481SOL     OW 1570   2.951   2.337   0.550
  481SOL    HW1 1571   2.968   2.321   0.458
  481SOL    HW2 1572   3.013   2.406   0.574
  482SOL     OW 1573   6.799   5.445  -0.008
  482SOL    HW1 1574   6.852   5.512   0.035
  482SOL    HW2 1575   6.709   5.477   0.000
  483SOL     OW 1576   7.282   4.273   2.068
  483SOL    HW1 1577   7.240   4.228   2.141
  483SOL    HW2 1578   7.354   4.216   2.043
  484SOL     OW 1579   8.640   5.511   3.197
  484SOL    HW1 1580   8.574   5.460   3.150
  484SOL    HW2 1581   8.590   5.581   3.239
  485SOL     OW 1582   8.444   5.297   4.315
  485SOL    HW1 1583   8.483   5.333   4.235
  485SOL    HW2 1584   8.355   5.271   4.288
  486SOL     OW 1585   4.547   7.188   2.332
  486SOL    HW1 1586   4.463   7.168   2.373
  486SOL    HW2 1587   4.533   7.273   2.290
  487SOL     OW 1588   1.223   4.939   0.484
  487SOL    HW1 1589   1.285   4.902   0.421
  487SOL    HW2 1590   1.253   4.907   0.569
  488SOL     OW 1591   6.895   6.641   2.152
  488SOL    HW1 1592   6.807   6.637   2.114
  488SOL    HW2 1593   6.884   6.689   2.234
  489SOL     OW 1594   6.269   2.335   1.956
  489SOL    HW1 1595   6.199   2.271   1.947
  489SOL    HW2 1596   6.344   2.284   1.988
  490SOL     OW 1597   7.183   1.146   3.249
  490SOL    HW1 1598   7.097   1.108   3.230
  490SOL    HW2 1599   7.169   1.241   3.243
  491SOL     OW 1600   4.507   1.225   4.703
  491SOL    HW1 1601   4.422   1.201   4.739
  491SOL    HW2 1602   4.552   1.268   4.776
  492SOL     OW 1603   6.294   6.048   0.229
  492SOL    HW1 1604   6.219   6.037   0.170
  492SOL    HW2 1605   6.302   5.964   0.274
  493SOL     OW 1606   7.785   1.277   1.885
  493SOL    HW1 1607   7.720   1.268   1.815
  493SOL    HW2 1608   7.762   1.359   1.929
  494SOL     OW 1609   8.708   1.020   4.626
  494SOL    HW1 1610   8.797   1.019   4.662
  494SOL    HW2 1611   8.704   1.099   4.573
  495SOL     OW 1612   8.090   4.172   0.974
  495SOL    HW1 1613   8.103   4.164   1.068
  495SOL    HW2 1614   8.163   4.226   0.944
  496SOL     OW 1615   7.412   5.706   1.532
  496SOL    HW1 1616   7.500   5.678   1.557
  496SOL    HW2 1617   7.361   5.626   1.528
  497SOL     OW 1618   6.144   1.448   0.866
  497SOL    HW1 1619   6.088   1.401   0.928
  497SOL    HW2 1620   6.196   1.380   0.823
  498SOL     OW 1621   3.775   1.138   1.005
  498SOL    HW1 1622   3.851   1.156   1.060
  498SOL    HW2 1623   3.751   1.224   0.970
  499SOL     OW 1624   5.276   3.898   1.537
  499SOL    HW1 1625   5.283   3.804   1.553
  499SOL    HW2 1626   5.297   3.908   1.444
  500SOL     OW 1627   1.096   6.393   0.984
  500SOL    HW1 1628   1.046   6.393   0.903
  500SOL    HW2 1629   1.115   6.301   1.001
  501SOL     OW 1630   5.124   0.127   1.775
  501SOL    HW1 1631   5.091   0.138   1.686
  501SOL    HW2 1632   5.154   0.214   1.800
  502SOL     OW 1633   3.531   4.339   1.243
  502SOL    HW1 1634   3.521   4.418   1.190
  502SOL    HW2 1635   3.450   4.290   1.229
  503SOL     OW 1636   5.794   2.544   3.955
  503SOL    HW1 1637   5.854   2.560   4.028
  503SOL    HW2 1638   5.717   2.506   3.996
  504SOL     OW 1639   3.890   7.210   3.188
  504SOL    HW1 1640   3.859   7.151   3.119
  504SOL    HW2 1641   3.982   7.186   3.200
  505SOL     OW 1642   4.786   2.936   5.136
  505SOL    HW1 1643   4.877   2.962   5.120
  505SOL    HW2 1644   4.738   3.019   5.137
  506SOL     OW 1645   9.891   1.288   3.995
  506SOL    HW1 1646   9.931   1.202   4.008
  506SOL    HW2 1647   9.816   1.271   3.938
  507SOL     OW 1648   6.293   0.929   2.709
  507SOL    HW1 1649   6.261   0.999   2.765
  507SOL    HW2 1650   6.344   0.873   2.767
  508SOL     OW 1651   6.827   0.106   0.110
  508SOL    HW1 1652   6.884   0.180   0.087
  508SOL    HW2 1653   6.782   0.134   0.189
  509SOL     OW 1654   3.613   1.922   0.412
  509SOL    HW1 1655   3.638   1.856   0.476
  509SOL    HW2 1656   3.635   1.883   0.327
  510SOL     OW 1657   5.717   2.922   5.190
  510SOL    HW1 1658   5.652   2.854   5.207
  510SOL    HW2 1659   5.754   2.941   5.276
  511SOL     OW 1660   2.830   6.456   1.550
  511SOL    HW1 1661   2.803   6.545   1.576
  511SOL    HW2 1662   2.838   6.461   1.455
  512SOL     OW 1663   6.922   6.330   0.326
  512SOL    HW1 1664   6.950   6.420   0.346
  512SOL    HW2 1665   6.849   6.341   0.265
  513SOL     OW 1666   6.721   3.476   3.923
  513SOL    HW1 1667   6.683   3.512   3.843
  513SOL    HW2 1668   6.730   3.551   3.981
  514SOL     OW 1669   5.693   5.281   1.026
  514SOL    HW1 1670   5.686   5.354   1.087
  514SOL    HW2 1671   5.692   5.322   0.939
  515SOL     OW 1672   4.974   5.538   4.636
  515SOL    HW1 1673   4.936   5.620   4.667
  515SOL    HW2 1674   5.063   5.562   4.611
  516SOL     OW 1675   9.276   5.774   2.729
  516SOL    HW1 1676   9.244   5.780   2.819
  516SOL    HW2 1677   9.369   5.751   2.738
  517SOL     OW 1678   4.018   2.873   1.441
  517SOL    HW1 1679   4.023   2.964   1.467
  517SOL    HW2 1680   4.028   2.875   1.345
  518SOL     OW 1681   4.550   6.056   4.842
  518SOL    HW1 1682   4.546   6.054   4.938
  518SOL    HW2 1683   4.567   5.965   4.817
  519SOL     OW 1684   6.910   6.756   4.390
  519SOL    HW1 1685   6.854   6.834   4.393
  519SOL    HW2 1686   6.913   6.731   4.298
  520SOL     OW 1687   4.317   1.820   4.130
  520SOL    HW1 1688   4.264   1.842   4.054
  520SOL    HW2 1689   4.274   1.743   4.168
  521SOL     OW 1690   5.700   0.859   0.349
  521SOL    HW1 1691   5.701   0.935   0.408
  521SOL    HW2 1692   5.647   0.794   0.396
  522SOL     OW 1693   1.881   6.378   2.568
  522SOL    HW1 1694   1.842   6.320   2.502
  522SOL    HW2 1695   1.975   6.359   2.564
  523SOL     OW 1696   6.763   5.728   1.177
  523SOL    HW1 1697   6.739   5.786   1.105
  523SOL    HW2 1698   6.766   5.786   1.254
  524SOL     OW 1699   5.632   3.512   2.852
  524SOL    HW1 1700   5.697   3.522   2.782
  524SOL    HW2 1701   5.662   3.570   2.921
  525SOL     OW 1702   7.540   6.872   0.987
  525SOL    HW1 1703   7.614   6.901   1.040
  525SOL    HW2 1704   7.503   6.799   1.037
  526SOL     OW 1705   6.340   0.510   5.169
  526SOL    HW1 1706   6.336   0.599   5.204
  526SOL    HW2 1707   6.303   0.455   5.237
  527SOL     OW 1708   2.464   4.030   0.354
  527SOL    HW1 1709   2.475   4.022   0.259
  527SOL    HW2 1710   2.390   3.974   0.375
  528SOL     OW 1711   3.412   5.433   4.706
  528SOL    HW1 1712   3.425   5.343   4.737
  528SOL    HW2 1713   3.390   5.424   4.614
  529SOL     OW 1714  10.523   5.213   4.408
  529SOL    HW1 1715  10.510   5.167   4.491
  529SOL    HW2 1716  10.601   5.173   4.370
  530SOL     OW 1717   7.073   2.103   2.812
  530SOL    HW1 1718   7.017   2.133   2.884
  530SOL    HW2 1719   7.039   2.017   2.788
  531SOL     OW 1720   7.382   0.049   1.065
  531SOL    HW1 1721   7.287   0.053   1.077
  531SOL    HW2 1722   7.399  -0.038   1.030
  532SOL     OW 1723   7.230   6.299   0.899
  532SOL    HW1 1724   7.217   6.387   0.935
  532SOL    HW2 1725   7.178   6.242   0.956
  533SOL     OW 1726   6.971   5.804   1.582
  533SOL    HW1 1727   7.053   5.809   1.533
  533SOL    HW2 1728   6.999   5.796   1.674
  534SOL     OW 1729   1.613   0.753  -0.017
  534SOL    HW1 1730   1.685   0.757   0.046
  534SOL    HW2 1731   1.537   0.786   0.032
  535SOL     OW 1732   4.408   5.289   3.771
  535SOL    HW1 1733   4.330   5.343   3.785
  535SOL    HW2 1734   4.401   5.262   3.679
  536SOL     OW 1735   5.651   2.296   2.018
  536SOL    HW1 1736   5.725   2.356   2.029
  536SOL    HW2 1737   5.645   2.249   2.101
  537SOL     OW 1738   3.565   1.533   0.421
  537SOL    HW1 1739   3.612   1.554   0.340
  537SOL    HW2 1740   3.566   1.437   0.425
  538SOL     OW 1741   4.638   7.022   4.852
  538SOL    HW1 1742   4.581   7.087   4.811
  538SOL    HW2 1743   4.642   6.950   4.789
  539SOL     OW 1744   9.671   5.791   4.431
  539SOL    HW1 1745   9.604   5.738   4.386
  539SOL    HW2 1746   9.672   5.756   4.520
  540SOL     OW 1747   2.608   6.339   0.716
  540SOL    HW1 1748   2.680   6.301   0.766
  540SOL    HW2 1749   2.626   6.315   0.625
  541SOL     OW 1750  10.434   1.804   4.724
  541SOL    HW1 1751  10.472   1.729   4.679
  541SOL    HW2 1752  10.451   1.787   4.817
  542SOL     OW 1753   7.945   0.765   3.832
  542SOL    HW1 1754   8.027   0.731   3.867
  542SOL    HW2 1755   7.919   0.833   3.894
  543SOL     OW 1756  10.459   7.223   4.467
  543SOL    HW1 1757  10.419   7.223   4.554
  543SOL    HW2 1758  10.458   7.131   4.440
  544SOL     OW 1759   7.102   3.481   4.835
  544SOL    HW1 1760   7.062   3.432   4.907
  544SOL    HW2 1761   7.134   3.413   4.775
  545SOL     OW 1762   2.160   7.038   2.088
  545SOL    HW1 1763   2.067   7.015   2.090
  545SOL    HW2 1764   2.190   7.023   2.178
  546SOL     OW 1765   5.549   0.597   2.671
  546SOL    HW1 1766   5.568   0.691   2.662
  546SOL    HW2 1767   5.521   0.570   2.584
  547SOL     OW 1768   9.333   4.332   4.614
  547SOL    HW1 1769   9.281   4.326   4.694
  547SOL    HW2 1770   9.422   4.306   4.641
  548SOL     OW 1771   7.975   6.602   2.173
  548SOL    HW1 1772   7.927   6.616   2.091
  548SOL    HW2 1773   7.965   6.508   2.190
  549SOL     OW 1774   7.108   1.387   4.747
  549SOL    HW1 1775   7.067   1.310   4.788
  549SOL    HW2 1776   7.130   1.444   4.821
  550SOL     OW 1777   4.148   5.963   1.378
  550SOL    HW1 1778   4.091   6.034   1.408
  550SOL    HW2 1779   4.189   5.998   1.299
  551SOL     OW 1780   8.381   3.423   2.201
  551SOL    HW1 1781   8.416   3.446   2.287
  551SOL    HW2 1782   8.318   3.352   2.219
  552SOL     OW 1783   4.798   6.115   1.676
  552SOL    HW1 1784   4.819   6.206   1.656
  552SOL    HW2 1785   4.880   6.068   1.663
  553SOL     OW 1786   8.290   1.066   4.223
  553SOL    HW1 1787   8.349   0.996   4.252
  553SOL    HW2 1788   8.335   1.146   4.249
  554SOL     OW 1789   9.177   5.741   3.773
  554SOL    HW1 1790   9.138   5.736   3.860
  554SOL    HW2 1791   9.149   5.827   3.739
  555SOL     OW 1792   5.549   5.147   1.633
  555SOL    HW1 1793   5.575   5.104   1.551
  555SOL    HW2 1794   5.623   5.204   1.654
  556SOL     OW 1795   6.802   3.278   1.010
  556SOL    HW1 1796   6.804   3.372   1.029
  556SOL    HW2 1797   6.893   3.254   0.996
  557SOL     OW 1798   4.118   5.312   0.620
  557SOL    HW1 1799   4.188   5.248   0.605
  557SOL    HW2 1800   4.156   5.396   0.594
  558SOL     OW 1801   7.841   6.844   5.121
  558SOL    HW1 1802   7.876   6.824   5.207
  558SOL    HW2 1803   7.858   6.765   5.069
  559SOL     OW 1804   7.387   2.497   3.717
  559SOL    HW1 1805   7.391   2.528   3.627
  559SOL    HW2 1806   7.447   2.553   3.765
  560SOL     OW 1807   2.690   3.316   0.626
  560SOL    HW1 1808   2.732   3.290   0.544
  560SOL    HW2 1809   2.597   3.302   0.610
  561SOL     OW 1810   4.980   1.243   2.218
  561SOL    HW1 1811   4.930   1.197   2.150
  561SOL    HW2 1812   5.051   1.286   2.170
  562SOL     OW 1813   3.720   3.118   3.059
  562SOL    HW1 1814   3.679   3.204   3.072
  562SOL    HW2 1815   3.654   3.067   3.012
  563SOL     OW 1816   5.913   3.236   4.457
  563SOL    HW1 1817   5.886   3.306   4.517
  563SOL    HW2 1818   5.918   3.158   4.512
  564SOL     OW 1819   6.326   6.771   3.679
  564SOL    HW1 1820   6.259   6.768   3.610
  564SOL    HW2 1821   6.402   6.809   3.636
  565SOL     OW 1822   5.822   5.061   3.970
  565SOL    HW1 1823   5.909   5.078   3.934
  565SOL    HW2 1824   5.766   5.127   3.929
  566SOL     OW 1825   8.272   2.209   2.525
  566SOL    HW1 1826   8.330   2.133   2.527
  566SOL    HW2 1827   8.190   2.175   2.490
  567SOL     OW 1828   5.107   0.113   0.934
  567SOL    HW1 1829   5.141   0.036   0.888
  567SOL    HW2 1830   5.123   0.094   1.026
  568SOL     OW 1831   3.651   2.977   1.560
  568SOL    HW1 1832   3.578   2.927   1.523
  568SOL    HW2 1833   3.713   2.910   1.589
  569SOL     OW 1834   6.045   4.314   4.955
  569SOL    HW1 1835   6.106   4.369   5.006
  569SOL    HW2 1836   5.975   4.374   4.930
  570SOL     OW 1837   7.230   1.536   0.384
  570SOL    HW1 1838   7.221   1.621   0.340
  570SOL    HW2 1839   7.313   1.500   0.351
  571SOL     OW 1840   6.134   5.477   2.359
  571SOL    HW1 1841   6.227   5.468   2.377
  571SOL    HW2 1842   6.092   5.412   2.415
  572SOL     OW 1843   8.608   1.698   1.699
  572SOL    HW1 1844   8.633   1.790   1.707
  572SOL    HW2 1845   8.652   1.655   1.773
  573SOL     OW 1846   8.800   6.496   2.299
  573SOL    HW1 1847   8.856   6.559   2.252
  573SOL    HW2 1848   8.805   6.416   2.247
  574SOL     OW 1849   4.397   4.084   1.361
  574SOL    HW1 1850   4.414   4.177   1.347
  574SOL    HW2 1851   4.368   4.052   1.276
  575SOL     OW 1852   6.856   4.704   1.342
  575SOL    HW1 1853   6.845   4.618   1.382
  575SOL    HW2 1854   6.922   4.748   1.396
  576SOL     OW 1855   3.533   0.072   0.773
  576SOL    HW1 1856   3.533  -0.004   0.715
  576SOL    HW2 1857   3.446   0.071   0.813
  577SOL     OW 1858   1.287   7.071   0.337
  577SOL    HW1 1859   1.266   7.056   0.429
  577SOL    HW2 1860   1.342   6.996   0.313
  578SOL     OW 1861   1.096   7.291   0.885
  578SOL    HW1 1862   1.072   7.384   0.881
  578SOL    HW2 1863   1.066   7.255   0.802
  579SOL     OW 1864   7.886   6.053   4.991
  579SOL    HW1 1865   7.915   6.040   5.082
  579SOL    HW2 1866   7.817   6.118   4.997
  580SOL     OW 1867   3.198   6.558   4.105
  580SOL    HW1 1868   3.240   6.489   4.157
  580SOL    HW2 1869   3.263   6.580   4.038
  581SOL     OW 1870   5.419   0.059   3.816
  581SOL    HW1 1871   5.482   0.040   3.885
  581SOL    HW2 1872   5.454   0.015   3.739
  582SOL     OW 1873   3.485   4.816   3.635
  582SOL    HW1 1874   3.500   4.895   3.687
  582SOL    HW2 1875   3.457   4.848   3.550
  583SOL     OW 1876   2.355   2.913   0.727
  583SOL    HW1 1877   2.382   2.875   0.810
  583SOL    HW2 1878   2.260   2.919   0.733
  584SOL     OW 1879   0.322   1.867   0.054
  584SOL    HW1 1880   0.353   1.912  -0.024
  584SOL    HW2 1881   0.296   1.780   0.023
  585SOL     OW 1882   7.927   4.386   0.994
  585SOL    HW1 1883   7.981   4.465   0.989
  585SOL    HW2 1884   7.985   4.315   0.967
  586SOL     OW 1885   4.187   2.030   3.457
  586SOL    HW1 1886   4.130   2.106   3.441
  586SOL    HW2 1887   4.131   1.955   3.441
  587SOL     OW 1888   7.821   0.090   0.645
  587SOL    HW1 1889   7.741   0.106   0.595
  587SOL    HW2 1890   7.792   0.040   0.722
  588SOL     OW 1891   6.908   3.690   4.671
  588SOL    HW1 1892   6.971   3.735   4.727
  588SOL    HW2 1893   6.900   3.602   4.710
  589SOL     OW 1894   5.807   6.197   1.457
  589SOL    HW1 1895   5.821   6.104   1.478
  589SOL    HW2 1896   5.851   6.209   1.373
  590SOL     OW 1897   6.982   7.307   0.173
  590SOL    HW1 1898   6.956   7.357   0.250
  590SOL    HW2 1899   6.990   7.217   0.204
  591SOL     OW 1900   4.659   0.098   0.684
  591SOL    HW1 1901   4.679   0.004   0.688
  591SOL    HW2 1902   4.723   0.134   0.623
  592SOL     OW 1903   3.625   6.488   3.201
  592SOL    HW1 1904   3.587   6.491   3.289
  592SOL    HW2 1905   3.711   6.449   3.213
  593SOL     OW 1906   3.700   6.625   4.820
  593SOL    HW1 1907   3.607   6.601   4.824
  593SOL    HW2 1908   3.705   6.708   4.867
  594SOL     OW 1909   4.971   3.856   5.143
  594SOL    HW1 1910   4.950   3.766   5.119
  594SOL    HW2 1911   4.887   3.901   5.142
  595SOL     OW 1912   2.911   5.835   0.053
  595SOL    HW1 1913   2.815   5.839   0.057
  595SOL    HW2 1914   2.939   5.860   0.141
  596SOL     OW 1915   7.107   3.051   2.210
  596SOL    HW1 1916   7.179   3.042   2.148
  596SOL    HW2 1917   7.092   2.963   2.244
  597SOL     OW 1918   7.527   0.055   4.877
  597SOL    HW1 1919   7.547   0.056   4.784
  597SOL    HW2 1920   7.600   0.008   4.917
  598SOL     OW 1921   2.424   1.309   3.015
  598SOL    HW1 1922   2.460   1.302   2.926
  598SOL    HW2 1923   2.487   1.364   3.061
  599SOL     OW 1924   5.851   4.566   0.716
  599SOL    HW1 1925   5.931   4.514   0.720
  599SOL    HW2 1926   5.786   4.514   0.763
  600SOL     OW 1927   6.925   5.535   1.972
  600SOL    HW1 1928   7.021   5.531   1.977
  600SOL    HW2 1929   6.896   5.519   2.062
  601SOL     OW 1930   8.763   6.594   2.625
  601SOL    HW1 1931   8.694   6.661   2.627
  601SOL    HW2 1932   8.793   6.588   2.716
  602SOL     OW 1933   3.615   0.037   3.796
  602SOL    HW1 1934   3.611   0.040   3.891
  602SOL    HW2 1935   3.682   0.102   3.773
  603SOL     OW 1936   2.732   2.130   2.944
  603SOL    HW1 1937   2.641   2.123   2.914
  603SOL    HW2 1938   2.767   2.204   2.895
  604SOL     OW 1939   5.936   0.632   2.769
  604SOL    HW1 1940   5.913   0.688   2.843
  604SOL    HW2 1941   5.869   0.651   2.703
  605SOL     OW 1942   7.912   1.858   4.725
  605SOL    HW1 1943   7.931   1.815   4.808
  605SOL    HW2 1944   7.984   1.920   4.713
  606SOL     OW 1945   8.451   6.231   1.824
  606SOL    HW1 1946   8.491   6.219   1.910
  606SOL    HW2 1947   8.462   6.324   1.805
  607SOL     OW 1948   5.919   6.778   1.945
  607SOL    HW1 1949   5.910   6.843   1.875
  607SOL    HW2 1950   5.877   6.820   2.021
  608SOL     OW 1951   7.681   4.282   0.940
  608SOL    HW1 1952   7.771   4.311   0.954
  608SOL    HW2 1953   7.689   4.188   0.921
  609SOL     OW 1954   6.535   1.444   4.668
  609SOL    HW1 1955   6.441   1.461   4.660
  609SOL    HW2 1956   6.545   1.406   4.755
  610SOL     OW 1957  10.018   1.553   3.811
  610SOL    HW1 1958  10.032   1.577   3.903
  610SOL    HW2 1959  10.068   1.472   3.800
  611SOL     OW 1960  10.285   4.085   4.602
  611SOL    HW1 1961  10.354   4.066   4.664
  611SOL    HW2 1962  10.300   4.176   4.575
  612SOL     OW 1963   4.489   1.668   5.242
  612SOL    HW1 1964   4.489   1.669   5.338
  612SOL    HW2 1965   4.520   1.755   5.217
  613SOL     OW 1966   8.068   4.138   2.569
  613SOL    HW1 1967   8.060   4.207   2.635
  613SOL    HW2 1968   7.978   4.121   2.542
  614SOL     OW 1969   5.850   3.067   3.878
  614SOL    HW1 1970   5.931   3.022   3.902
  614SOL    HW2 1971   5.804   3.006   3.820
  615SOL     OW 1972   4.958   6.911   1.518
  615SOL    HW1 1973   5.031   6.918   1.456
  615SOL    HW2 1974   4.923   6.823   1.505
  616SOL     OW 1975   3.216   1.824   4.403
  616SOL    HW1 1976   3.262   1.849   4.483
  616SOL    HW2 1977   3.272   1.758   4.363
  617SOL     OW 1978   6.065   1.055   1.511
  617SOL    HW1 1979   6.143   1.027   1.462
  617SOL    HW2 1980   6.097   1.124   1.570
  618SOL     OW 1981   6.077   1.984   1.429
  618SOL    HW1 1982   6.093   1.891   1.415
  618SOL    HW2 1983   6.054   1.991   1.522
  619SOL     OW 1984   3.982   0.383   0.162
  619SOL    HW1 1985   3.980   0.453   0.097
  619SOL    HW2 1986   3.966   0.303   0.111
  620SOL     OW 1987   9.694   3.203   4.282
  620SOL    HW1 1988   9.768   3.223   4.339
  620SOL    HW2 1989   9.731   3.144   4.215
  621SOL     OW 1990   5.984   0.537   5.214
  621SOL    HW1 1991   6.009   0.446   5.199
  621SOL    HW2 1992   6.012   0.583   5.135
  622SOL     OW 1993  10.364   4.882   4.365
  622SOL    HW1 1994  10.337   4.958   4.314
  622SOL    HW2 1995  10.458   4.877   4.354
  623SOL     OW 1996   1.803   6.904   1.707
  623SOL    HW1 1997   1.888   6.861   1.701
  623SOL    HW2 1998   1.813   6.969   1.776
  624SOL     OW 1999   3.230   2.670   1.261
  624SOL    HW1 2000   3.249   2.601   1.324
  624SOL    HW2 2001   3.310   2.677   1.208
  625SOL     OW 2002   5.021   2.102   2.260
  625SOL    HW1 2003   4.937   2.081   2.220
  625SOL    HW2 2004   5.005   2.092   2.354
  626SOL     OW 2005   8.079   7.254   2.691
  626SOL    HW1 2006   8.099   7.289   2.604
  626SOL    HW2 2007   8.028   7.175   2.674
  627SOL     OW 2008   7.710   6.991   1.198
  627SOL    HW1 2009   7.679   6.935   1.269
  627SOL    HW2 2010   7.744   7.069   1.242
  628SOL     OW 2011   8.302   5.724   1.780
  628SOL    HW1 2012   8.303   5.630   1.765
  628SOL    HW2 2013   8.268   5.761   1.698
  629SOL     OW 2014   5.512   1.231   1.249
  629SOL    HW1 2015   5.558   1.152   1.278
  629SOL    HW2 2016   5.471   1.206   1.166
  630SOL     OW 2017   9.784   1.439   3.703
  630SOL    HW1 2018   9.848   1.461   3.771
  630SOL    HW2 2019   9.790   1.344   3.694
  631SOL     OW 2020   5.951   1.859   4.364
  631SOL    HW1 2021   5.874   1.913   4.345
  631SOL    HW2 2022   6.024   1.921   4.366
  632SOL     OW 2023   8.720   2.707   2.423
  632SOL    HW1 2024   8.732   2.775   2.357
  632SOL    HW2 2025   8.801   2.706   2.473
  633SOL     OW 2026   2.454   1.631   2.881
  633SOL    HW1 2027   2.491   1.551   2.842
  633SOL    HW2 2028   2.527   1.668   2.931
  634SOL     OW 2029   6.490   5.620   2.652
  634SOL    HW1 2030   6.511   5.644   2.742
  634SOL    HW2 2031   6.532   5.535   2.640
  635SOL     OW 2032   9.473   6.208   2.900
  635SOL    HW1 2033   9.395   6.202   2.844
  635SOL    HW2 2034   9.542   6.164   2.850
  636SOL     OW 2035   2.991   4.866   2.269
  636SOL    HW1 2036   2.927   4.851   2.199
  636SOL    HW2 2037   2.955   4.820   2.344
  637SOL     OW 2038   7.494   1.393   4.891
  637SOL    HW1 2039   7.557   1.369   4.959
  637SOL    HW2 2040   7.538   1.370   4.809
  638SOL     OW 2041   9.898   6.998   3.682
  638SOL    HW1 2042   9.807   6.981   3.658
  638SOL    HW2 2043   9.910   6.949   3.764
  639SOL     OW 2044   2.431   0.894   2.661
  639SOL    HW1 2045   2.352   0.860   2.618
  639SOL    HW2 2046   2.398   0.961   2.721
  640SOL     OW 2047   3.138   6.422   2.788
  640SOL    HW1 2048   3.045   6.412   2.769
  640SOL    HW2 2049   3.145   6.508   2.830
  641SOL     OW 2050   2.935   3.516   1.788
  641SOL    HW1 2051   2.974   3.603   1.797
  641SOL    HW2 2052   2.858   3.530   1.732
  642SOL     OW 2053   9.960   4.741   4.919
  642SOL    HW1 2054  10.042   4.769   4.960
  642SOL    HW2 2055   9.933   4.816   4.866
  643SOL     OW 2056   7.185   0.549   4.965
  643SOL    HW1 2057   7.177   0.644   4.976
  643SOL    HW2 2058   7.151   0.512   5.046
  644SOL     OW 2059   1.372   6.195   0.723
  644SOL    HW1 2060   1.283   6.173   0.697
  644SOL    HW2 2061   1.426   6.171   0.648
  645SOL     OW 2062   6.604   5.615   3.989
  645SOL    HW1 2063   6.686   5.584   3.951
  645SOL    HW2 2064   6.581   5.691   3.937
  646SOL     OW 2065   7.580   6.737   1.269
  646SOL    HW1 2066   7.603   6.662   1.323
  646SOL    HW2 2067   7.564   6.701   1.182
  647SOL     OW 2068   3.981   6.170   3.280
  647SOL    HW1 2069   3.930   6.239   3.236
  647SOL    HW2 2070   3.991   6.202   3.369
  648SOL     OW 2071   6.087   2.778   2.638
  648SOL    HW1 2072   6.093   2.802   2.730
  648SOL    HW2 2073   6.058   2.857   2.594
  649SOL     OW 2074   9.087   0.913   4.431
  649SOL    HW1 2075   9.057   1.004   4.431
  649SOL    HW2 2076   9.010   0.862   4.409
  650SOL     OW 2077   1.141   2.069   1.325
  650SOL    HW1 2078   1.128   1.981   1.361
  650SOL    HW2 2079   1.229   2.095   1.352
  651SOL     OW 2080   3.040   1.375   0.349
  651SOL    HW1 2081   3.122   1.333   0.374
  651SOL    HW2 2082   3.061   1.425   0.270
  652SOL     OW 2083   6.588   0.758   1.931
  652SOL    HW1 2084   6.586   0.798   1.844
  652SOL    HW2 2085   6.634   0.675   1.918
  653SOL     OW 2086   7.142   0.975   4.937
  653SOL    HW1 2087   7.088   1.005   4.864
  653SOL    HW2 2088   7.200   1.048   4.955
  654SOL     OW 2089   1.535   6.114   0.483
  654SOL    HW1 2090   1.611   6.149   0.436
  654SOL    HW2 2091   1.463   6.122   0.420
  655SOL     OW 2092   2.404   5.480   0.362
  655SOL    HW1 2093   2.317   5.471   0.402
  655SOL    HW2 2094   2.394   5.551   0.299
  656SOL     OW 2095   6.160   1.165   0.862
  656SOL    HW1 2096   6.161   1.101   0.791
  656SOL    HW2 2097   6.233   1.139   0.919
  657SOL     OW 2098   6.332   4.614   4.322
  657SOL    HW1 2099   6.328   4.532   4.373
  657SOL    HW2 2100   6.407   4.661   4.358
  658SOL     OW 2101   7.150   7.279   1.221
  658SOL    HW1 2102   7.101   7.219   1.277
  658SOL    HW2 2103   7.201   7.221   1.163
  659SOL     OW 2104   6.472   4.106   4.862
  659SOL    HW1 2105   6.446   4.014   4.857
  659SOL    HW2 2106   6.474   4.125   4.956
  660SOL     OW 2107   4.356   1.299   3.343
  660SOL    HW1 2108   4.390   1.305   3.433
  660SOL    HW2 2109   4.310   1.215   3.341
  661SOL     OW 2110   5.253   5.640   0.628
  661SOL    HW1 2111   5.340   5.599   0.630
  661SOL    HW2 2112   5.195   5.573   0.663
  662SOL     OW 2113   7.302   5.761   0.024
  662SOL    HW1 2114   7.320   5.671   0.000
  662SOL    HW2 2115   7.325   5.767   0.117
  663SOL     OW 2116   8.744   6.983   4.885
  663SOL    HW1 2117   8.779   6.919   4.947
  663SOL    HW2 2118   8.735   6.934   4.803
  664SOL     OW 2119   8.339   2.062   1.808
  664SOL    HW1 2120   8.312   1.984   1.856
  664SOL    HW2 2121   8.293   2.134   1.850
  665SOL     OW 2122   8.598   3.208   2.263
  665SOL    HW1 2123   8.539   3.134   2.276
  665SOL    HW2 2124   8.669   3.195   2.326
  666SOL     OW 2125   4.802   0.343   1.520
  666SOL    HW1 2126   4.735   0.316   1.458
  666SOL    HW2 2127   4.758   0.341   1.605
  667SOL     OW 2128   1.410   4.331   1.225
  667SOL    HW1 2129   1.381   4.294   1.309
  667SOL    HW2 2130   1.497   4.295   1.212
  668SOL     OW 2131   4.485   2.398   2.838
  668SOL    HW1 2132   4.506   2.433   2.751
  668SOL    HW2 2133   4.397   2.431   2.856
  669SOL     OW 2134   5.586   2.642   4.346
  669SOL    HW1 2135   5.628   2.575   4.399
  669SOL    HW2 2136   5.505   2.662   4.392
  670SOL     OW 2137   6.675   2.824   2.584
  670SOL    HW1 2138   6.657   2.737   2.546
  670SOL    HW2 2139   6.597   2.843   2.637
  671SOL     OW 2140   7.723   1.702   4.048
  671SOL    HW1 2141   7.702   1.756   3.972
  671SOL    HW2 2142   7.696   1.755   4.123
  672SOL     OW 2143   6.771   1.142   3.522
  672SOL    HW1 2144   6.787   1.216   3.463
  672SOL    HW2 2145   6.828   1.157   3.596
  673SOL     OW 2146   9.383   4.039   4.016
  673SOL    HW1 2147   9.381   3.965   3.957
  673SOL    HW2 2148   9.467   4.082   3.998
  674SOL     OW 2149   8.330   4.096   2.706
  674SOL    HW1 2150   8.337   4.191   2.704
  674SOL    HW2 2151   8.240   4.077   2.682
  675SOL     OW 2152   8.814   2.400   2.549
  675SOL    HW1 2153   8.826   2.349   2.469
  675SOL    HW2 2154   8.719   2.406   2.559
  676SOL     OW 2155   3.598   3.330   2.388
  676SOL    HW1 2156   3.633   3.380   2.461
  676SOL    HW2 2157   3.612   3.386   2.312
  677SOL     OW 2158   6.694   5.478   4.250
  677SOL    HW1 2159   6.645   5.420   4.192
  677SOL    HW2 2160   6.634   5.497   4.322
  678SOL     OW 2161   9.469   3.622   4.154
  678SOL    HW1 2162   9.548   3.586   4.194
  678SOL    HW2 2163   9.400   3.607   4.218
  679SOL     OW 2164   4.224   2.001   2.736
  679SOL    HW1 2165   4.145   2.004   2.683
  679SOL    HW2 2166   4.294   1.982   2.674
  680SOL     OW 2167   5.180   2.153   4.999
  680SOL    HW1 2168   5.244   2.195   4.942
  680SOL    HW2 2169   5.226   2.076   5.034
  681SOL     OW 2170   2.658   4.665   2.643
  681SOL    HW1 2171   2.563   4.681   2.652
  681SOL    HW2 2172   2.664   4.587   2.589
  682SOL     OW 2173   5.532   1.316   4.434
  682SOL    HW1 2174   5.460   1.377   4.446
  682SOL    HW2 2175   5.576   1.345   4.354
  683SOL     OW 2176   8.578   0.760   4.077
  683SOL    HW1 2177   8.672   0.774   4.088
  683SOL    HW2 2178   8.571   0.703   4.001
  684SOL     OW 2179   6.527   7.227   2.553
  684SOL    HW1 2180   6.570   7.278   2.484
  684SOL    HW2 2181   6.463   7.173   2.507
  685SOL     OW 2182   3.211   0.983   2.265
  685SOL    HW1 2183   3.248   0.895   2.260
  685SOL    HW2 2184   3.162   0.994   2.184
  686SOL     OW 2185   5.234   1.118   4.061
  686SOL    HW1 2186   5.139   1.127   4.066
  686SOL    HW2 2187   5.256   1.055   4.129
  687SOL     OW 2188   8.619   4.828   2.842
  687SOL    HW1 2189   8.620   4.920   2.867
  687SOL    HW2 2190   8.569   4.825   2.761
  688SOL     OW 2191   2.502   4.292   0.547
  688SOL    HW1 2192   2.590   4.257   0.538
  688SOL    HW2 2193   2.445   4.225   0.510
  689SOL     OW 2194   2.838   0.737   0.325
  689SOL    HW1 2195   2.796   0.817   0.293
  689SOL    HW2 2196   2.845   0.750   0.419
  690SOL     OW 2197   6.457   2.478   0.040
  690SOL    HW1 2198   6.470   2.498   0.132
  690SOL    HW2 2199   6.370   2.438   0.036
  691SOL     OW 2200   5.264   4.174   3.445
  691SOL    HW1 2201   5.322   4.116   3.495
  691SOL    HW2 2202   5.315   4.198   3.368
  692SOL     OW 2203   1.445   5.660   0.869
  692SOL    HW1 2204   1.359   5.651   0.827
  692SOL    HW2 2205   1.437   5.739   0.924
  693SOL     OW 2206   8.679   7.143   2.594
  693SOL    HW1 2207   8.748   7.078   2.580
  693SOL    HW2 2208   8.656   7.173   2.506
  694SOL     OW 2209   3.085   6.408   2.247
  694SOL    HW1 2210   3.062   6.487   2.296
  694SOL    HW2 2211   3.147   6.361   2.304
  695SOL     OW 2212   2.530   0.018   2.700
  695SOL    HW1 2213   2.574  -0.034   2.633
  695SOL    HW2 2214   2.438   0.020   2.672
  696SOL     OW 2215   2.428   0.604   2.520
  696SOL    HW1 2216   2.455   0.673   2.580
  696SOL    HW2 2217   2.495   0.605   2.451
  697SOL     OW 2218   6.945   3.108   4.546
  697SOL    HW1 2219   6.967   3.164   4.471
  697SOL    HW2 2220   7.007   3.134   4.614
  698SOL     OW 2221   4.175   4.610   2.978
  698SOL    HW1 2222   4.089   4.569   2.980
  698SOL    HW2 2223   4.166   4.687   3.033
  699SOL     OW 2224   4.747   7.482   1.694
  699SOL    HW1 2225   4.831   7.454   1.658
  699SOL    HW2 2226   4.692   7.404   1.691
  700SOL     OW 2227   6.969   1.062   0.232
  700SOL    HW1 2228   6.938   0.976   0.262
  700SOL    HW2 2229   6.963   1.057   0.137
  701SOL     OW 2230   4.073   0.449   4.041
  701SOL    HW1 2231   4.143   0.427   3.981
  701SOL    HW2 2232   4.040   0.365   4.073
  702SOL     OW 2233   7.555   0.951   2.340
  702SOL    HW1 2234   7.619   1.022   2.343
  702SOL    HW2 2235   7.477   0.987   2.381
  703SOL     OW 2236   1.927   1.484   0.791
  703SOL    HW1 2237   1.921   1.422   0.864
  703SOL    HW2 2238   1.942   1.429   0.714
  704SOL     OW 2239   3.741   5.060   3.129
  704SOL    HW1 2240   3.741   4.992   3.062
  704SOL    HW2 2241   3.702   5.018   3.206
  705SOL     OW 2242   6.966   4.732   0.606
  705SOL    HW1 2243   6.977   4.643   0.640
  705SOL    HW2 2244   6.947   4.720   0.513
  706SOL     OW 2245   0.893   6.770   0.692
  706SOL    HW1 2246   0.952   6.699   0.669
  706SOL    HW2 2247   0.949   6.834   0.737
  707SOL     OW 2248   6.151   0.613   0.779
  707SOL    HW1 2249   6.153   0.518   0.767
  707SOL    HW2 2250   6.099   0.627   0.858
  708SOL     OW 2251   5.028   6.991   4.203
  708SOL    HW1 2252   5.005   7.082   4.219
  708SOL    HW2 2253   4.944   6.948   4.186
  709SOL     OW 2254   4.394   3.860   2.208
  709SOL    HW1 2255   4.321   3.890   2.262
  709SOL    HW2 2256   4.432   3.788   2.257
  710SOL     OW 2257   7.918   5.639   2.914
  710SOL    HW1 2258   7.947   5.610   3.001
  710SOL    HW2 2259   7.986   5.607   2.855
  711SOL     OW 2260   8.720   3.167   4.158
  711SOL    HW1 2261   8.675   3.084   4.171
  711SOL    HW2 2262   8.654   3.234   4.176
  712SOL     OW 2263   8.403   5.401   3.108
  712SOL    HW1 2264   8.326   5.357   3.073
  712SOL    HW2 2265   8.369   5.466   3.169
  713SOL     OW 2266   6.188   6.081   0.600
  713SOL    HW1 2267   6.203   6.150   0.535
  713SOL    HW2 2268   6.229   6.115   0.680
  714SOL     OW 2269   9.902   3.423   3.746
  714SOL    HW1 2270   9.983   3.393   3.706
  714SOL    HW2 2271   9.851   3.343   3.760
  715SOL     OW 2272   4.545   0.590   3.169
  715SOL    HW1 2273   4.610   0.659   3.156
  715SOL    HW2 2274   4.555   0.534   3.092
  716SOL     OW 2275   4.951   1.131   4.318
  716SOL    HW1 2276   5.042   1.162   4.314
  716SOL    HW2 2277   4.958   1.036   4.312
  717SOL     OW 2278   6.200   3.456   0.558
  717SOL    HW1 2279   6.124   3.411   0.596
  717SOL    HW2 2280   6.274   3.399   0.579
  718SOL     OW 2281   4.162   3.921   2.604
  718SOL    HW1 2282   4.195   3.836   2.632
  718SOL    HW2 2283   4.074   3.926   2.640
  719SOL     OW 2284   6.490   2.846   4.537
  719SOL    HW1 2285   6.575   2.809   4.558
  719SOL    HW2 2286   6.486   2.845   4.442
  720SOL     OW 2287   8.001   3.061   3.580
  720SOL    HW1 2288   7.966   3.011   3.507
  720SOL    HW2 2289   7.950   3.142   3.580
  721SOL     OW 2290   3.478   0.250   0.405
  721SOL    HW1 2291   3.550   0.210   0.356
  721SOL    HW2 2292   3.428   0.176   0.440
  722SOL     OW 2293   5.920   3.119   3.033
  722SOL    HW1 2294   5.928   3.199   2.980
  722SOL    HW2 2295   5.901   3.151   3.121
  723SOL     OW 2296   5.551   2.098   0.191
  723SOL    HW1 2297   5.522   2.015   0.230
  723SOL    HW2 2298   5.478   2.158   0.205
  724SOL     OW 2299   3.400   7.086   0.648
  724SOL    HW1 2300   3.480   7.034   0.641
  724SOL    HW2 2301   3.335   7.038   0.596
  725SOL     OW 2302   4.137   6.472   0.554
  725SOL    HW1 2303   4.123   6.423   0.636
  725SOL    HW2 2304   4.132   6.405   0.486
  726SOL     OW 2305   7.848   6.803   4.581
  726SOL    HW1 2306   7.936   6.815   4.544
  726SOL    HW2 2307   7.858   6.734   4.646
  727SOL     OW 2308   0.818   6.077   1.091
  727SOL    HW1 2309   0.728   6.044   1.088
  727SOL    HW2 2310   0.856   6.035   1.168
  728SOL     OW 2311   3.960   5.889   4.311
  728SOL    HW1 2312   4.029   5.937   4.265
  728SOL    HW2 2313   3.919   5.836   4.242
  729SOL     OW 2314   9.834   3.705   4.398
  729SOL    HW1 2315   9.916   3.678   4.357
  729SOL    HW2 2316   9.799   3.771   4.339
  730SOL     OW 2317   4.466   4.582   3.595
  730SOL    HW1 2318   4.408   4.620   3.529
  730SOL    HW2 2319   4.407   4.550   3.663
  731SOL     OW 2320   3.378   0.602   0.163
  731SOL    HW1 2321   3.395   0.509   0.172
  731SOL    HW2 2322   3.282   0.609   0.157
  732SOL     OW 2323   3.539   0.985   3.907
  732SOL    HW1 2324   3.610   0.948   3.960
  732SOL    HW2 2325   3.508   0.912   3.853
  733SOL     OW 2326   3.636   2.358   3.870
  733SOL    HW1 2327   3.566   2.343   3.933
  733SOL    HW2 2328   3.628   2.286   3.808
  734SOL     OW 2329   5.287   1.242   1.039
  734SOL    HW1 2330   5.285   1.296   0.959
  734SOL    HW2 2331   5.195   1.223   1.056
  735SOL     OW 2332   9.495   0.116   4.237
  735SOL    HW1 2333   9.500   0.073   4.322
  735SOL    HW2 2334   9.535   0.202   4.252
  736SOL     OW 2335   4.253   3.046   0.792
  736SOL    HW1 2336   4.248   3.104   0.868
  736SOL    HW2 2337   4.165   3.051   0.753
  737SOL     OW 2338   8.788   1.359   3.396
  737SOL    HW1 2339   8.784   1.448   3.361
  737SOL    HW2 2340   8.700   1.324   3.385
  738SOL     OW 2341   5.911   4.556   2.779
  738SOL    HW1 2342   5.959   4.585   2.857
  738SOL    HW2 2343   5.819   4.569   2.802
  739SOL     OW 2344   4.898   0.686   0.620
  739SOL    HW1 2345   4.938   0.772   0.607
  739SOL    HW2 2346   4.870   0.660   0.532
  740SOL     OW 2347   2.387   6.468   1.902
  740SOL    HW1 2348   2.436   6.387   1.920
  740SOL    HW2 2349   2.454   6.529   1.869
  741SOL     OW 2350   0.486   6.019   0.146
  741SOL    HW1 2351   0.528   6.031   0.231
  741SOL    HW2 2352   0.394   6.043   0.160
  742SOL     OW 2353   9.233   2.354   3.066
  742SOL    HW1 2354   9.300   2.400   3.117
  742SOL    HW2 2355   9.196   2.290   3.127
  743SOL     OW 2356   5.008   3.093   5.051
  743SOL    HW1 2357   4.992   3.142   5.132
  743SOL    HW2 2358   5.016   3.160   4.983
  744SOL     OW 2359   5.201   4.480   1.949
  744SOL    HW1 2360   5.133   4.414   1.962
  744SOL    HW2 2361   5.234   4.464   1.861
  745SOL     OW 2362   6.480   1.149   1.570
  745SOL    HW1 2363   6.389   1.164   1.594
  745SOL    HW2 2364   6.526   1.227   1.600
  746SOL     OW 2365   6.367   5.500   0.081
  746SOL    HW1 2366   6.398   5.410   0.067
  746SOL    HW2 2367   6.272   5.494   0.070
  747SOL     OW 2368   7.223   6.116   2.322
  747SOL    HW1 2369   7.138   6.085   2.352
  747SOL    HW2 2370   7.257   6.167   2.396
  748SOL     OW 2371   2.721   1.102   3.066
  748SOL    HW1 2372   2.717   1.188   3.106
  748SOL    HW2 2373   2.751   1.044   3.136
  749SOL     OW 2374   4.033   7.112   0.844
  749SOL    HW1 2375   3.990   7.145   0.766
  749SOL    HW2 2376   4.057   7.021   0.823
  750SOL     OW 2377   5.162   0.424   3.252
  750SOL    HW1 2378   5.227   0.433   3.322
  750SOL    HW2 2379   5.102   0.356   3.284
  751SOL     OW 2380   3.944   4.247   5.036
  751SOL    HW1 2381   3.871   4.215   4.984
  751SOL    HW2 2382   3.975   4.170   5.084
  752SOL     OW 2383   5.903   4.292   1.620
  752SOL    HW1 2384   5.827   4.301   1.677
  752SOL    HW2 2385   5.965   4.240   1.670
  753SOL     OW 2386   9.675   5.008   3.488
  753SOL    HW1 2387   9.712   4.982   3.572
  753SOL    HW2 2388   9.660   5.103   3.496
  754SOL     OW 2389   7.684   4.694   1.098
  754SOL    HW1 2390   7.707   4.623   1.157
  754SOL    HW2 2391   7.616   4.658   1.041
  755SOL     OW 2392   3.324   4.608   1.689
  755SOL    HW1 2393   3.288   4.539   1.743
  755SOL    HW2 2394   3.370   4.562   1.618
  756SOL     OW 2395   4.539   2.407   4.654
  756SOL    HW1 2396   4.472   2.400   4.722
  756SOL    HW2 2397   4.490   2.430   4.575
  757SOL     OW 2398   3.735   0.415   2.681
  757SOL    HW1 2399   3.741   0.320   2.671
  757SOL    HW2 2400   3.760   0.431   2.772
  758SOL     OW 2401   3.064   0.633   0.126
  758SOL    HW1 2402   3.009   0.711   0.124
  758SOL    HW2 2403   3.035   0.584   0.203
  759SOL     OW 2404   7.972   6.632   4.145
  759SOL    HW1 2405   7.943   6.669   4.062
  759SOL    HW2 2406   7.927   6.547   4.151
  760SOL     OW 2407   6.329   1.471   1.767
  760SOL    HW1 2408   6.410   1.480   1.717
  760SOL    HW2 2409   6.355   1.490   1.857
  761SOL     OW 2410   9.207   2.985   2.663
  761SOL    HW1 2411   9.218   2.976   2.568
  761SOL    HW2 2412   9.150   3.061   2.673
  762SOL     OW 2413   3.826   0.356   0.634
  762SOL    HW1 2414   3.736   0.373   0.604
  762SOL    HW2 2415   3.865   0.304   0.564
  763SOL     OW 2416   8.399   3.136   1.840
  763SOL    HW1 2417   8.464   3.167   1.904
  763SOL    HW2 2418   8.375   3.215   1.791
  764SOL     OW 2419   5.672   2.873   4.207
  764SOL    HW1 2420   5.719   2.816   4.146
  764SOL    HW2 2421   5.676   2.827   4.291
  765SOL     OW 2422   2.619   6.912   0.876
  765SOL    HW1 2423   2.534   6.957   0.874
  765SOL    HW2 2424   2.673   6.960   0.814
  766SOL     OW 2425   9.694   4.557   3.337
  766SOL    HW1 2426   9.676   4.464   3.327
  766SOL    HW2 2427   9.785   4.561   3.368
  767SOL     OW 2428   4.879   0.291   4.400
  767SOL    HW1 2429   4.801   0.256   4.443
  767SOL    HW2 2430   4.953   0.249   4.444
  768SOL     OW 2431   3.183   1.209   1.912
  768SOL    HW1 2432   3.250   1.201   1.979
  768SOL    HW2 2433   3.140   1.293   1.930
  769SOL     OW 2434   2.945   0.974   1.432
  769SOL    HW1 2435   2.854   0.952   1.415
  769SOL    HW2 2436   2.968   0.923   1.511
  770SOL     OW 2437   4.050   4.664   1.755
  770SOL    HW1 2438   3.988   4.596   1.731
  770SOL    HW2 2439   4.136   4.625   1.739
  771SOL     OW 2440   4.541   3.610   1.776
  771SOL    HW1 2441   4.582   3.649   1.853
  771SOL    HW2 2442   4.545   3.679   1.710
  772SOL     OW 2443   2.203   6.048   2.784
  772SOL    HW1 2444   2.254   6.032   2.704
  772SOL    HW2 2445   2.178   5.961   2.814
  773SOL     OW 2446   5.253   3.889   2.022
  773SOL    HW1 2447   5.334   3.886   1.971
  773SOL    HW2 2448   5.259   3.970   2.072
  774SOL     OW 2449   6.932   2.894   3.640
  774SOL    HW1 2450   6.880   2.968   3.610
  774SOL    HW2 2451   7.001   2.934   3.693
  775SOL     OW 2452   7.599   5.533   3.785
  775SOL    HW1 2453   7.630   5.443   3.781
  775SOL    HW2 2454   7.631   5.566   3.869
  776SOL     OW 2455  10.388   2.585   5.251
  776SOL    HW1 2456  10.362   2.514   5.309
  776SOL    HW2 2457  10.484   2.586   5.255
  777SOL     OW 2458   6.575   6.079   2.021
  777SOL    HW1 2459   6.524   6.127   1.956
  777SOL    HW2 2460   6.660   6.124   2.023
  778SOL     OW 2461   2.140   6.276   2.501
  778SOL    HW1 2462   2.233   6.299   2.499
  778SOL    HW2 2463   2.109   6.295   2.412
  779SOL     OW 2464   7.108   1.031   3.516
  779SOL    HW1 2465   7.185   0.983   3.487
  779SOL    HW2 2466   7.064   1.057   3.435
  780SOL     OW 2467   7.214   4.710   4.059
  780SOL    HW1 2468   7.207   4.645   3.989
  780SOL    HW2 2469   7.307   4.730   4.064
  781SOL     OW 2470   8.513   0.727   4.896
  781SOL    HW1 2471   8.543   0.744   4.985
  781SOL    HW2 2472   8.420   0.752   4.897
  782SOL     OW 2473   7.368   2.359   2.643
  782SOL    HW1 2474   7.378   2.264   2.647
  782SOL    HW2 2475   7.439   2.392   2.698
  783SOL     OW 2476   8.677   1.401   2.503
  783SOL    HW1 2477   8.766   1.436   2.509
  783SOL    HW2 2478   8.649   1.423   2.414
  784SOL     OW 2479   6.561   4.016   0.361
  784SOL    HW1 2480   6.496   3.955   0.327
  784SOL    HW2 2481   6.516   4.101   0.362
  785SOL     OW 2482   7.311   6.375   4.241
  785SOL    HW1 2483   7.388   6.398   4.292
  785SOL    HW2 2484   7.247   6.346   4.306
  786SOL     OW 2485   7.004   1.826   1.270
  786SOL    HW1 2486   6.960   1.878   1.203
  786SOL    HW2 2487   7.053   1.889   1.322
  787SOL     OW 2488   3.661   2.845   1.946
  787SOL    HW1 2489   3.716   2.824   2.022
  787SOL    HW2 2490   3.721   2.840   1.872
  788SOL     OW 2491   3.079   0.802   1.606
  788SOL    HW1 2492   3.117   0.865   1.668
  788SOL    HW2 2493   3.155   0.765   1.560
  789SOL     OW 2494   4.135   1.685   3.144
  789SOL    HW1 2495   4.211   1.636   3.176
  789SOL    HW2 2496   4.101   1.632   3.072
  790SOL     OW 2497   8.130   1.935   3.735
  790SOL    HW1 2498   8.152   1.842   3.733
  790SOL    HW2 2499   8.181   1.973   3.663
  791SOL     OW 2500   8.356   0.126   3.516
  791SOL    HW1 2501   8.413   0.053   3.492
  791SOL    HW2 2502   8.281   0.119   3.456
  792SOL     OW 2503   6.147   1.096   2.892
  792SOL    HW1 2504   6.104   1.087   2.977
  792SOL    HW2 2505   6.106   1.173   2.853
  793SOL     OW 2506   8.221   4.935   3.123
  793SOL    HW1 2507   8.162   4.991   3.073
  793SOL    HW2 2508   8.236   4.860   3.067
  794SOL     OW 2509   8.116   0.776   2.254
  794SOL    HW1 2510   8.084   0.778   2.344
  794SOL    HW2 2511   8.036   0.770   2.200
  795SOL     OW 2512   6.835   3.131   0.096
  795SOL    HW1 2513   6.783   3.072   0.041
  795SOL    HW2 2514   6.772   3.194   0.131
  796SOL     OW 2515   5.122   2.436   2.147
  796SOL    HW1 2516   5.030   2.425   2.123
  796SOL    HW2 2517   5.168   2.366   2.100
  797SOL     OW 2518   8.335   1.929   2.450
  797SOL    HW1 2519   8.313   1.954   2.361
  797SOL    HW2 2520   8.429   1.912   2.447
  798SOL     OW 2521   3.577   5.230   2.370
  798SOL    HW1 2522   3.616   5.241   2.457
  798SOL    HW2 2523   3.584   5.316   2.329
  799SOL     OW 2524   5.758   2.154   3.644
  799SOL    HW1 2525   5.789   2.088   3.706
  799SOL    HW2 2526   5.778   2.116   3.558
  800SOL     OW 2527   5.080   4.216   1.885
  800SOL    HW1 2528   5.118   4.179   1.805
  800SOL    HW2 2529   5.012   4.276   1.854
  801SOL     OW 2530   7.079   3.070   3.859
  801SOL    HW1 2531   7.003   3.128   3.865
  801SOL    HW2 2532   7.136   3.099   3.930
  802SOL     OW 2533   3.153   5.479   1.576
  802SOL    HW1 2534   3.175   5.403   1.522
  802SOL    HW2 2535   3.210   5.549   1.543
  803SOL     OW 2536   4.335   3.175   1.237
  803SOL    HW1 2537   4.269   3.194   1.304
  803SOL    HW2 2538   4.284   3.151   1.159
  804SOL     OW 2539   3.084   7.335   2.669
  804SOL    HW1 2540   3.120   7.256   2.710
  804SOL    HW2 2541   2.993   7.312   2.650
  805SOL     OW 2542   3.457   3.369   3.773
  805SOL    HW1 2543   3.411   3.286   3.775
  805SOL    HW2 2544   3.388   3.435   3.767
  806SOL     OW 2545   8.179   2.488   4.506
  806SOL    HW1 2546   8.134   2.537   4.437
  806SOL    HW2 2547   8.154   2.397   4.491
  807SOL     OW 2548   8.719   5.197   3.301
  807SOL    HW1 2549   8.715   5.131   3.232
  807SOL    HW2 2550   8.633   5.240   3.299
  808SOL     OW 2551   9.823   2.930   5.060
  808SOL    HW1 2552   9.756   2.941   5.127
  808SOL    HW2 2553   9.890   2.995   5.081
  809SOL     OW 2554   5.497   6.494   0.959
  809SOL    HW1 2555   5.423   6.440   0.932
  809SOL    HW2 2556   5.543   6.515   0.878
  810SOL     OW 2557   7.475   3.313   2.081
  810SOL    HW1 2558   7.438   3.228   2.057
  810SOL    HW2 2559   7.533   3.335   2.009
  811SOL     OW 2560   4.384   5.413   1.582
  811SOL    HW1 2561   4.391   5.436   1.675
  811SOL    HW2 2562   4.303   5.454   1.553
  812SOL     OW 2563   6.713   4.466   3.954
  812SOL    HW1 2564   6.732   4.379   3.990
  812SOL    HW2 2565   6.760   4.468   3.871
  813SOL     OW 2566   0.889   2.052   0.408
  813SOL    HW1 2567   0.906   2.138   0.368
  813SOL    HW2 2568   0.967   2.034   0.459
  814SOL     OW 2569   7.405   6.131   4.153
  814SOL    HW1 2570   7.477   6.147   4.092
  814SOL    HW2 2571   7.373   6.218   4.176
  815SOL     OW 2572   3.264   3.778   4.208
  815SOL    HW1 2573   3.249   3.738   4.294
  815SOL    HW2 2574   3.208   3.855   4.207
  816SOL     OW 2575   9.590   4.647   4.239
  816SOL    HW1 2576   9.577   4.733   4.198
  816SOL    HW2 2577   9.560   4.585   4.173
  817SOL     OW 2578   4.603   1.275   0.884
  817SOL    HW1 2579   4.585   1.274   0.790
  817SOL    HW2 2580   4.557   1.353   0.916
  818SOL     OW 2581   5.640   1.388   4.688
  818SOL    HW1 2582   5.676   1.300   4.675
  818SOL    HW2 2583   5.571   1.396   4.622
  819SOL     OW 2584   8.565   7.268   3.338
  819SOL    HW1 2585   8.622   7.242   3.266
  819SOL    HW2 2586   8.508   7.192   3.352
  820SOL     OW 2587   5.014   3.919   4.372
  820SOL    HW1 2588   5.096   3.880   4.404
  820SOL    HW2 2589   5.038   4.007   4.344
  821SOL     OW 2590   5.449   6.850   3.645
  821SOL    HW1 2591   5.377   6.891   3.597
  821SOL    HW2 2592   5.440   6.757   3.627
  822SOL     OW 2593   8.208   5.846   3.383
  822SOL    HW1 2594   8.179   5.904   3.313
  822SOL    HW2 2595   8.160   5.765   3.368
  823SOL     OW 2596  10.298   7.283   4.084
  823SOL    HW1 2597  10.238   7.253   4.153
  823SOL    HW2 2598  10.384   7.252   4.112
  824SOL     OW 2599   5.220   1.465   2.956
  824SOL    HW1 2600   5.212   1.371   2.939
  824SOL    HW2 2601   5.229   1.472   3.051
  825SOL     OW 2602   8.400   6.020   3.193
  825SOL    HW1 2603   8.304   6.023   3.193
  825SOL    HW2 2604   8.427   6.112   3.185
  826SOL     OW 2605   4.830   3.645   4.114
  826SOL    HW1 2606   4.812   3.661   4.206
  826SOL    HW2 2607   4.903   3.583   4.114
  827SOL     OW 2608   4.811   4.978   0.533
  827SOL    HW1 2609   4.756   4.903   0.553
  827SOL    HW2 2610   4.756   5.054   0.553
  828SOL     OW 2611   1.916   6.002   1.745
  828SOL    HW1 2612   1.925   6.088   1.705
  828SOL    HW2 2613   1.949   5.941   1.680
  829SOL     OW 2614   5.657   2.660   3.751
  829SOL    HW1 2615   5.728   2.621   3.803
  829SOL    HW2 2616   5.584   2.668   3.812
  830SOL     OW 2617   5.798   5.168   0.154
  830SOL    HW1 2618   5.709   5.199   0.136
  830SOL    HW2 2619   5.855   5.234   0.116
  831SOL     OW 2620   5.461   3.909   5.177
  831SOL    HW1 2621   5.505   3.824   5.180
  831SOL    HW2 2622   5.434   3.925   5.267
  832SOL     OW 2623   1.889   2.707   2.595
  832SOL    HW1 2624   1.942   2.672   2.524
  832SOL    HW2 2625   1.816   2.751   2.551
  833SOL     OW 2626   4.917   2.302   1.886
  833SOL    HW1 2627   4.989   2.361   1.863
  833SOL    HW2 2628   4.961   2.226   1.925
  834SOL     OW 2629   5.629   2.741   4.775
  834SOL    HW1 2630   5.658   2.821   4.819
  834SOL    HW2 2631   5.677   2.671   4.821
  835SOL     OW 2632   6.712   6.407   0.912
  835SOL    HW1 2633   6.631   6.435   0.870
  835SOL    HW2 2634   6.778   6.411   0.843
  836SOL     OW 2635   6.366   3.458   3.140
  836SOL    HW1 2636   6.303   3.472   3.210
  836SOL    HW2 2637   6.430   3.528   3.150
  837SOL     OW 2638   2.480   4.024   1.069
  837SOL    HW1 2639   2.395   4.003   1.108
  837SOL    HW2 2640   2.486   4.119   1.077
  838SOL     OW 2641   4.592   3.234   1.774
  838SOL    HW1 2642   4.506   3.227   1.734
  838SOL    HW2 2643   4.622   3.143   1.782
  839SOL     OW 2644   6.080   2.650   4.639
  839SOL    HW1 2645   6.070   2.614   4.727
  839SOL    HW2 2646   5.991   2.652   4.604
  840SOL     OW 2647   9.053   6.183   3.139
  840SOL    HW1 2648   9.029   6.275   3.127
  840SOL    HW2 2649   9.148   6.184   3.151
  841SOL     OW 2650   1.446   1.156   0.022
  841SOL    HW1 2651   1.537   1.137  -0.002
  841SOL    HW2 2652   1.438   1.251   0.017
  842SOL     OW 2653   2.307   0.995   0.554
  842SOL    HW1 2654   2.301   1.090   0.546
  842SOL    HW2 2655   2.233   0.971   0.610
  843SOL     OW 2656   8.496   4.303   3.785
  843SOL    HW1 2657   8.512   4.272   3.875
  843SOL    HW2 2658   8.553   4.249   3.731
  844SOL     OW 2659   6.933   1.023   3.298
  844SOL    HW1 2660   6.959   0.933   3.279
  844SOL    HW2 2661   6.861   1.014   3.360
  845SOL     OW 2662   3.281   5.520   3.363
  845SOL    HW1 2663   3.284   5.558   3.275
  845SOL    HW2 2664   3.366   5.477   3.373
  846SOL     OW 2665   8.538   1.076   3.063
  846SOL    HW1 2666   8.574   1.144   3.119
  846SOL    HW2 2667   8.586   1.084   2.981
  847SOL     OW 2668   7.111   1.467   4.472
  847SOL    HW1 2669   7.115   1.414   4.551
  847SOL    HW2 2670   7.024   1.507   4.473
  848SOL     OW 2671   7.584   6.721   4.822
  848SOL    HW1 2672   7.561   6.764   4.740
  848SOL    HW2 2673   7.509   6.738   4.880
  849SOL     OW 2674   3.169   2.607   4.217
  849SOL    HW1 2675   3.105   2.556   4.166
  849SOL    HW2 2676   3.157   2.697   4.187
  850SOL     OW 2677   9.084   4.049   2.630
  850SOL    HW1 2678   9.058   4.007   2.712
  850SOL    HW2 2679   9.060   4.141   2.642
  851SOL     OW 2680   9.115   2.909   4.712
  851SOL    HW1 2681   9.044   2.877   4.657
  851SOL    HW2 2682   9.173   2.834   4.723
  852SOL     OW 2683  10.179   2.634   4.631
  852SOL    HW1 2684  10.225   2.652   4.713
  852SOL    HW2 2685  10.244   2.650   4.563
  853SOL     OW 2686   4.297   7.493   0.447
  853SOL    HW1 2687   4.325   7.430   0.380
  853SOL    HW2 2688   4.284   7.440   0.526
  854SOL     OW 2689   2.947   2.754   3.371
  854SOL    HW1 2690   2.920   2.771   3.281
  854SOL    HW2 2691   2.895   2.816   3.423
  855SOL     OW 2692   3.986   7.290   4.970
  855SOL    HW1 2693   4.077   7.262   4.972
  855SOL    HW2 2694   3.936   7.211   4.951
  856SOL     OW 2695   7.171   2.026   1.566
  856SOL    HW1 2696   7.241   2.062   1.620
  856SOL    HW2 2697   7.123   2.102   1.535
  857SOL     OW 2698  10.056   6.025   4.979
  857SOL    HW1 2699   9.964   6.025   5.002
  857SOL    HW2 2700  10.068   5.946   4.926
  858SOL     OW 2701   5.459   4.990   4.011
  858SOL    HW1 2702   5.414   5.056   4.064
  858SOL    HW2 2703   5.410   4.910   4.025
  859SOL     OW 2704   8.504   0.393   3.553
  859SOL    HW1 2705   8.519   0.353   3.638
  859SOL    HW2 2706   8.437   0.338   3.512
  860SOL     OW 2707   4.653   3.285   0.424
  860SOL    HW1 2708   4.583   3.264   0.486
  860SOL    HW2 2709   4.611   3.278   0.338
  861SOL     OW 2710   1.115   4.453   1.470
  861SOL    HW1 2711   1.148   4.539   1.447
  861SOL    HW2 2712   1.187   4.411   1.519
  862SOL     OW 2713   6.003   1.940   2.454
  862SOL    HW1 2714   5.967   1.877   2.517
  862SOL    HW2 2715   5.943   1.937   2.380
  863SOL     OW 2716   4.647   1.109   1.416
  863SOL    HW1 2717   4.712   1.120   1.346
  863SOL    HW2 2718   4.585   1.180   1.403
  864SOL     OW 2719   7.374   1.192   4.561
  864SOL    HW1 2720   7.283   1.196   4.533
  864SOL    HW2 2721   7.383   1.107   4.604
  865SOL     OW 2722   7.299   0.930   0.423
  865SOL    HW1 2723   7.331   0.962   0.338
  865SOL    HW2 2724   7.369   0.950   0.484
  866SOL     OW 2725   5.427   4.598   1.417
  866SOL    HW1 2726   5.508   4.563   1.379
  866SOL    HW2 2727   5.370   4.521   1.427
  867SOL     OW 2728   9.999   6.337   4.972
  867SOL    HW1 2729  10.014   6.283   5.050
  867SOL    HW2 2730   9.919   6.385   4.991
  868SOL     OW 2731   4.751   3.080   3.252
  868SOL    HW1 2732   4.679   3.132   3.287
  868SOL    HW2 2733   4.805   3.143   3.204
  869SOL     OW 2734   4.565   2.889   2.895
  869SOL    HW1 2735   4.539   2.863   2.806
  869SOL    HW2 2736   4.535   2.817   2.950
  870SOL     OW 2737   2.005   2.013   0.576
  870SOL    HW1 2738   2.071   2.079   0.556
  870SOL    HW2 2739   2.040   1.967   0.652
  871SOL     OW 2740   3.313   3.208   2.729
  871SOL    HW1 2741   3.218   3.212   2.742
  871SOL    HW2 2742   3.325   3.226   2.636
  872SOL     OW 2743   5.568   0.665   2.034
  872SOL    HW1 2744   5.602   0.744   2.075
  872SOL    HW2 2745   5.477   0.660   2.064
  873SOL     OW 2746   4.405   3.242   0.949
  873SOL    HW1 2747   4.455   3.208   1.022
  873SOL    HW2 2748   4.375   3.328   0.978
  874SOL     OW 2749   7.239   0.881   5.198
  874SOL    HW1 2750   7.297   0.956   5.193
  874SOL    HW2 2751   7.169   0.899   5.135
  875SOL     OW 2752   8.160   4.663   2.651
  875SOL    HW1 2753   8.101   4.699   2.717
  875SOL    HW2 2754   8.103   4.616   2.591
  876SOL     OW 2755   5.456   3.206   3.181
  876SOL    HW1 2756   5.419   3.134   3.129
  876SOL    HW2 2757   5.420   3.285   3.140
  877SOL     OW 2758   0.662   3.045  -0.023
  877SOL    HW1 2759   0.587   3.007   0.023
  877SOL    HW2 2760   0.700   3.106   0.040
  878SOL     OW 2761   2.835   6.220   2.263
  878SOL    HW1 2762   2.746   6.250   2.248
  878SOL    HW2 2763   2.855   6.166   2.186
  879SOL     OW 2764   4.438   3.669   2.675
  879SOL    HW1 2765   4.343   3.660   2.685
  879SOL    HW2 2766   4.459   3.749   2.723
  880SOL     OW 2767   5.787   4.258   3.187
  880SOL    HW1 2768   5.780   4.162   3.189
  880SOL    HW2 2769   5.814   4.278   3.097
  881SOL     OW 2770   5.291   6.324   2.402
  881SOL    HW1 2771   5.337   6.300   2.322
  881SOL    HW2 2772   5.243   6.245   2.427
  882SOL     OW 2773   5.431   6.645   1.180
  882SOL    HW1 2774   5.342   6.677   1.166
  882SOL    HW2 2775   5.454   6.599   1.099
  883SOL     OW 2776   5.632   1.786   0.291
  883SOL    HW1 2777   5.570   1.784   0.364
  883SOL    HW2 2778   5.626   1.699   0.253
  884SOL     OW 2779   4.446   7.364   4.409
  884SOL    HW1 2780   4.475   7.399   4.325
  884SOL    HW2 2781   4.522   7.372   4.466
  885SOL     OW 2782   4.570   1.281   5.044
  885SOL    HW1 2783   4.607   1.356   5.090
  885SOL    HW2 2784   4.495   1.317   4.996
  886SOL     OW 2785   3.835   7.438   1.931
  886SOL    HW1 2786   3.891   7.440   1.854
  886SOL    HW2 2787   3.746   7.432   1.896
  887SOL     OW 2788   7.126   3.523   0.282
  887SOL    HW1 2789   7.154   3.453   0.341
  887SOL    HW2 2790   7.144   3.489   0.194
  888SOL     OW 2791   7.367   3.649   0.638
  888SOL    HW1 2792   7.454   3.644   0.599
  888SOL    HW2 2793   7.379   3.707   0.714
  889SOL     OW 2794   7.898   6.938   3.642
  889SOL    HW1 2795   7.923   6.956   3.733
  889SOL    HW2 2796   7.882   6.844   3.640
  890SOL     OW 2797   7.164   3.960   3.729
  890SOL    HW1 2798   7.218   3.897   3.683
  890SOL    HW2 2799   7.075   3.944   3.696
  891SOL     OW 2800   2.652   1.449   2.507
  891SOL    HW1 2801   2.652   1.422   2.416
  891SOL    HW2 2802   2.744   1.445   2.534
  892SOL     OW 2803   9.699   0.839   3.325
  892SOL    HW1 2804   9.622   0.895   3.338
  892SOL    HW2 2805   9.663   0.750   3.326
  893SOL     OW 2806   2.451   3.905   0.793
  893SOL    HW1 2807   2.474   3.874   0.880
  893SOL    HW2 2808   2.526   3.880   0.738
  894SOL     OW 2809   2.947   2.972   3.542
  894SOL    HW1 2810   3.017   2.978   3.477
  894SOL    HW2 2811   2.993   2.976   3.626
  895SOL     OW 2812   5.913   1.565   2.754
  895SOL    HW1 2813   5.853   1.586   2.683
  895SOL    HW2 2814   5.954   1.649   2.776
  896SOL     OW 2815   9.105   4.260   3.014
  896SOL    HW1 2816   9.044   4.320   2.973
  896SOL    HW2 2817   9.115   4.188   2.952
  897SOL     OW 2818   0.760   1.156   0.291
  897SOL    HW1 2819   0.679   1.106   0.283
  897SOL    HW2 2820   0.825   1.106   0.241
  898SOL     OW 2821   3.939   7.064   1.695
  898SOL    HW1 2822   4.018   7.039   1.647
  898SOL    HW2 2823   3.872   7.003   1.664
  899SOL     OW 2824   5.943   1.512   1.911
  899SOL    HW1 2825   5.966   1.427   1.949
  899SOL    HW2 2826   5.874   1.492   1.848
  900SOL     OW 2827   8.443   4.987   2.055
  900SOL    HW1 2828   8.475   5.077   2.054
  900SOL    HW2 2829   8.488   4.945   1.982
  901SOL     OW 2830   6.928   6.281   4.063
  901SOL    HW1 2831   7.016   6.250   4.041
  901SOL    HW2 2832   6.870   6.218   4.021
  902SOL     OW 2833   8.559   4.331   4.936
  902SOL    HW1 2834   8.566   4.241   4.903
  902SOL    HW2 2835   8.475   4.362   4.904
  903SOL     OW 2836   7.158   6.233   4.424
  903SOL    HW1 2837   7.100   6.278   4.485
  903SOL    HW2 2838   7.100   6.196   4.358
  904SOL     OW 2839  10.703   6.321   4.883
  904SOL    HW1 2840  10.702   6.246   4.942
  904SOL    HW2 2841  10.713   6.282   4.796
  905SOL     OW 2842   6.592   7.261   1.258
  905SOL    HW1 2843   6.636   7.337   1.297
  905SOL    HW2 2844   6.610   7.267   1.164
  906SOL     OW 2845   7.820   5.198   4.340
  906SOL    HW1 2846   7.902   5.201   4.290
  906SOL    HW2 2847   7.821   5.112   4.382
  907SOL     OW 2848   3.520   0.469   0.588
  907SOL    HW1 2849   3.547   0.543   0.534
  907SOL    HW2 2850   3.504   0.398   0.524
  908SOL     OW 2851   7.065   0.496   4.321
  908SOL    HW1 2852   6.988   0.547   4.295
  908SOL    HW2 2853   7.098   0.542   4.398
  909SOL     OW 2854   4.049   6.787   1.892
  909SOL    HW1 2855   3.998   6.712   1.862
  909SOL    HW2 2856   4.081   6.761   1.978
  910SOL     OW 2857  10.233   1.654   4.912
  910SOL    HW1 2858  10.170   1.655   4.840
  910SOL    HW2 2859  10.318   1.665   4.869
  911SOL     OW 2860   3.075   0.761   1.290
  911SOL    HW1 2861   3.045   0.838   1.339
  911SOL    HW2 2862   3.129   0.797   1.220
  912SOL     OW 2863   1.570   6.225   1.770
  912SOL    HW1 2864   1.581   6.135   1.739
  912SOL    HW2 2865   1.656   6.249   1.805
  913SOL     OW 2866   7.039   0.430   2.014
  913SOL    HW1 2867   6.995   0.433   1.930
  913SOL    HW2 2868   7.104   0.360   2.005
  914SOL     OW 2869   6.582   4.984   4.827
  914SOL    HW1 2870   6.572   5.070   4.868
  914SOL    HW2 2871   6.514   4.983   4.759
  915SOL     OW 2872   0.848   3.698   0.183
  915SOL    HW1 2873   0.768   3.673   0.229
  915SOL    HW2 2874   0.860   3.630   0.116
  916SOL     OW 2875   5.553   3.972   2.083
  916SOL    HW1 2876   5.638   4.018   2.081
  916SOL    HW2 2877   5.499   4.024   2.142
  917SOL     OW 2878   7.778   7.368   4.691
  917SOL    HW1 2879   7.707   7.414   4.645
  917SOL    HW2 2880   7.826   7.323   4.621
  918SOL     OW 2881   8.604   0.178   4.540
  918SOL    HW1 2882   8.693   0.143   4.531
  918SOL    HW2 2883   8.586   0.172   4.634
  919SOL     OW 2884   7.622   2.726   4.632
  919SOL    HW1 2885   7.653   2.635   4.642
  919SOL    HW2 2886   7.527   2.719   4.637
  920SOL     OW 2887   7.038   4.152   3.242
  920SOL    HW1 2888   7.117   4.125   3.290
  920SOL    HW2 2889   6.969   4.151   3.308
  921SOL     OW 2890   9.252   4.011   3.449
  921SOL    HW1 2891   9.168   4.041   3.415
  921SOL    HW2 2892   9.268   4.064   3.528
  922SOL     OW 2893   9.258   1.839   3.263
  922SOL    HW1 2894   9.311   1.777   3.315
  922SOL    HW2 2895   9.201   1.783   3.211
  923SOL     OW 2896   7.523   4.903   0.856
  923SOL    HW1 2897   7.494   4.890   0.766
  923SOL    HW2 2898   7.514   4.816   0.896
  924SOL     OW 2899   3.526   2.142   3.666
  924SOL    HW1 2900   3.581   2.072   3.632
  924SOL    HW2 2901   3.454   2.097   3.710
  925SOL     OW 2902   7.633   4.207   3.411
  925SOL    HW1 2903   7.550   4.179   3.449
  925SOL    HW2 2904   7.687   4.128   3.410
  926SOL     OW 2905   8.857   2.043   4.961
  926SOL    HW1 2906   8.840   1.973   4.898
  926SOL    HW2 2907   8.774   2.055   5.008
  927SOL     OW 2908   4.288   6.066   0.568
  927SOL    HW1 2909   4.282   6.138   0.505
  927SOL    HW2 2910   4.317   5.991   0.516
  928SOL     OW 2911   7.415   5.107   2.646
  928SOL    HW1 2912   7.348   5.048   2.683
  928SOL    HW2 2913   7.385   5.195   2.669
  929SOL     OW 2914   2.708   1.076   3.544
  929SOL    HW1 2915   2.759   1.116   3.474
  929SOL    HW2 2916   2.701   0.984   3.520
  930SOL     OW 2917   7.749   2.353   1.656
  930SOL    HW1 2918   7.844   2.361   1.645
  930SOL    HW2 2919   7.714   2.355   1.567
  931SOL     OW 2920   7.911   0.082   3.185
  931SOL    HW1 2921   7.830   0.119   3.221
  931SOL    HW2 2922   7.899  -0.012   3.190
  932SOL     OW 2923   4.948   3.585   5.099
  932SOL    HW1 2924   4.861   3.546   5.105
  932SOL    HW2 2925   5.000   3.521   5.050
  933SOL     OW 2926   5.543   3.947   1.792
  933SOL    HW1 2927   5.536   3.921   1.884
  933SOL    HW2 2928   5.462   3.995   1.774
  934SOL     OW 2929   5.136   5.455   1.619
  934SOL    HW1 2930   5.081   5.388   1.580
  934SOL    HW2 2931   5.205   5.407   1.664
  935SOL     OW 2932   6.482   5.910   3.233
  935SOL    HW1 2933   6.450   5.824   3.206
  935SOL    HW2 2934   6.545   5.892   3.303
  936SOL     OW 2935   4.792   7.356   0.343
  936SOL    HW1 2936   4.777   7.451   0.344
  936SOL    HW2 2937   4.765   7.327   0.430
  937SOL     OW 2938   6.549   1.410   1.996
  937SOL    HW1 2939   6.549   1.407   2.091
  937SOL    HW2 2940   6.629   1.456   1.973
  938SOL     OW 2941   5.661   5.784   3.712
  938SOL    HW1 2942   5.663   5.817   3.802
  938SOL    HW2 2943   5.645   5.862   3.659
  939SOL     OW 2944   4.772   4.683   0.305
  939SOL    HW1 2945   4.737   4.599   0.275
  939SOL    HW2 2946   4.704   4.747   0.282
  940SOL     OW 2947   1.310   2.678   1.376
  940SOL    HW1 2948   1.384   2.625   1.346
  940SOL    HW2 2949   1.254   2.686   1.299
  941SOL     OW 2950   6.351   3.938   3.760
  941SOL    HW1 2951   6.274   3.892   3.794
  941SOL    HW2 2952   6.316   4.022   3.729
  942SOL     OW 2953   8.773   7.116   2.119
  942SOL    HW1 2954   8.737   7.054   2.057
  942SOL    HW2 2955   8.750   7.202   2.085
  943SOL     OW 2956   6.117   4.648   1.286
  943SOL    HW1 2957   6.210   4.633   1.306
  943SOL    HW2 2958   6.070   4.591   1.347
  944SOL     OW 2959   1.657   3.645   0.671
  944SOL    HW1 2960   1.642   3.736   0.648
  944SOL    HW2 2961   1.626   3.595   0.596
  945SOL     OW 2962   5.322   1.358   1.427
  945SOL    HW1 2963   5.370   1.394   1.352
  945SOL    HW2 2964   5.352   1.267   1.433
  946SOL     OW 2965   8.140   4.000   2.348
  946SOL    HW1 2966   8.124   4.062   2.419
  946SOL    HW2 2967   8.123   4.051   2.268
  947SOL     OW 2968   3.347   2.718   4.394
  947SOL    HW1 2969   3.280   2.650   4.386
  947SOL    HW2 2970   3.408   2.685   4.459
  948SOL     OW 2971   7.491   1.243   2.819
  948SOL    HW1 2972   7.506   1.247   2.913
  948SOL    HW2 2973   7.494   1.149   2.798
  949SOL     OW 2974   4.861   3.211   0.281
  949SOL    HW1 2975   4.794   3.231   0.346
  949SOL    HW2 2976   4.818   3.228   0.197
  950SOL     OW 2977   7.493   3.359   3.714
  950SOL    HW1 2978   7.407   3.322   3.737
  950SOL    HW2 2979   7.508   3.428   3.779
  951SOL     OW 2980   7.567   3.389   1.838
  951SOL    HW1 2981   7.625   3.340   1.779
  951SOL    HW2 2982   7.583   3.481   1.816
  952SOL     OW 2983   6.199   3.833   1.055
  952SOL    HW1 2984   6.281   3.848   1.102
  952SOL    HW2 2985   6.165   3.751   1.090
  953SOL     OW 2986   8.467   4.850   1.816
  953SOL    HW1 2987   8.410   4.861   1.740
  953SOL    HW2 2988   8.529   4.783   1.791
  954SOL     OW 2989   4.099   2.762   3.104
  954SOL    HW1 2990   4.168   2.801   3.158
  954SOL    HW2 2991   4.057   2.837   3.062
  955SOL     OW 2992   8.879   0.860   2.131
  955SOL    HW1 2993   8.799   0.811   2.150
  955SOL    HW2 2994   8.949   0.799   2.150
  956SOL     OW 2995   4.940   0.990   0.751
  956SOL    HW1 2996   4.851   0.992   0.716
  956SOL    HW2 2997   4.931   0.957   0.840
  957SOL     OW 2998   3.628   3.293   0.375
  957SOL    HW1 2999   3.579   3.375   0.385
  957SOL    HW2 3000   3.713   3.321   0.340
  958SOL     OW 3001   5.722   6.034   1.977
  958SOL    HW1 3002   5.740   6.107   2.037
  958SOL    HW2 3003   5.786   6.044   1.907
  959SOL     OW 3004   2.103   0.034   0.212
  959SOL    HW1 3005   2.156   0.012   0.135
  959SOL    HW2 3006   2.025  -0.020   0.203
  960SOL     OW 3007   3.416   3.093   0.219
  960SOL    HW1 3008   3.377   3.008   0.243
  960SOL    HW2 3009   3.483   3.108   0.285
  961SOL     OW 3010   6.725   0.793   3.102
  961SOL    HW1 3011   6.752   0.724   3.162
  961SOL    HW2 3012   6.709   0.747   3.019
  962SOL     OW 3013   3.691   4.836   0.275
  962SOL    HW1 3014   3.688   4.924   0.312
  962SOL    HW2 3015   3.599   4.812   0.263
  963SOL     OW 3016   6.915   5.019   3.590
  963SOL    HW1 3017   6.910   5.067   3.673
  963SOL    HW2 3018   6.856   4.945   3.602
  964SOL     OW 3019   5.010   4.775   4.693
  964SOL    HW1 3020   5.013   4.868   4.669
  964SOL    HW2 3021   4.947   4.737   4.633
  965SOL     OW 3022   6.972   5.446   1.103
  965SOL    HW1 3023   7.053   5.488   1.072
  965SOL    HW2 3024   6.903   5.492   1.055
  966SOL     OW 3025   2.233   1.448   0.425
  966SOL    HW1 3026   2.160   1.471   0.367
  966SOL    HW2 3027   2.260   1.532   0.462
  967SOL     OW 3028   7.143   5.292   2.060
  967SOL    HW1 3029   7.072   5.271   1.999
  967SOL    HW2 3030   7.205   5.343   2.008
  968SOL     OW 3031   6.642   3.205   3.341
  968SOL    HW1 3032   6.549   3.223   3.333
  968SOL    HW2 3033   6.653   3.118   3.302
  969SOL     OW 3034   3.701   4.431   2.731
  969SOL    HW1 3035   3.639   4.496   2.696
  969SOL    HW2 3036   3.783   4.451   2.686
  970SOL     OW 3037   2.915   0.128   1.362
  970SOL    HW1 3038   3.007   0.107   1.346
  970SOL    HW2 3039   2.911   0.155   1.453
  971SOL     OW 3040   5.762   5.891   2.994
  971SOL    HW1 3041   5.830   5.932   2.940
  971SOL    HW2 3042   5.716   5.964   3.034
  972SOL     OW 3043   3.668   2.871   0.703
  972SOL    HW1 3044   3.574   2.883   0.715
  972SOL    HW2 3045   3.682   2.881   0.609
  973SOL     OW 3046   4.059   3.659   4.259
  973SOL    HW1 3047   4.082   3.626   4.346
  973SOL    HW2 3048   3.964   3.646   4.252
  974SOL     OW 3049   3.852   1.239   2.617
  974SOL    HW1 3050   3.786   1.238   2.687
  974SOL    HW2 3051   3.816   1.300   2.552
  975SOL     OW 3052   5.693   6.455   3.273
  975SOL    HW1 3053   5.629   6.452   3.202
  975SOL    HW2 3054   5.712   6.363   3.291
  976SOL     OW 3055   8.594   1.812   4.630
  976SOL    HW1 3056   8.514   1.765   4.604
  976SOL    HW2 3057   8.658   1.789   4.563
  977SOL     OW 3058   2.535   0.345   0.249
  977SOL    HW1 3059   2.544   0.365   0.156
  977SOL    HW2 3060   2.465   0.404   0.279
  978SOL     OW 3061   1.437   4.974   0.970
  978SOL    HW1 3062   1.381   5.032   1.022
  978SOL    HW2 3063   1.380   4.945   0.899
  979SOL     OW 3064   6.665   1.179   3.882
  979SOL    HW1 3065   6.640   1.086   3.875
  979SOL    HW2 3066   6.587   1.227   3.854
  980SOL     OW 3067   4.492   1.267   0.655
  980SOL    HW1 3068   4.447   1.302   0.578
  980SOL    HW2 3069   4.426   1.214   0.700
  981SOL     OW 3070   7.673   0.098   3.483
  981SOL    HW1 3071   7.674   0.193   3.499
  981SOL    HW2 3072   7.679   0.090   3.388
  982SOL     OW 3073   7.993   0.752   3.106
  982SOL    HW1 3074   7.945   0.787   3.181
  982SOL    HW2 3075   8.072   0.805   3.102
  983SOL     OW 3076   2.543   0.925   3.341
  983SOL    HW1 3077   2.544   0.832   3.319
  983SOL    HW2 3078   2.483   0.965   3.277
  984SOL     OW 3079   6.356   2.400   2.877
  984SOL    HW1 3080   6.319   2.481   2.911
  984SOL    HW2 3081   6.369   2.417   2.784
  985SOL     OW 3082   7.413   3.321   4.993
  985SOL    HW1 3083   7.331   3.322   5.042
  985SOL    HW2 3084   7.445   3.411   4.998
  986SOL     OW 3085   8.273   3.414   5.265
  986SOL    HW1 3086   8.252   3.396   5.173
  986SOL    HW2 3087   8.348   3.473   5.261
  987SOL     OW 3088   1.534   4.353   1.986
  987SOL    HW1 3089   1.528   4.274   1.932
  987SOL    HW2 3090   1.627   4.363   2.005
  988SOL     OW 3091   5.543   6.182   1.422
  988SOL    HW1 3092   5.519   6.176   1.514
  988SOL    HW2 3093   5.636   6.206   1.423
  989SOL     OW 3094   5.741   2.962   0.156
  989SOL    HW1 3095   5.678   2.953   0.228
  989SOL    HW2 3096   5.705   3.031   0.101
  990SOL     OW 3097   3.823   4.047   2.983
  990SOL    HW1 3098   3.891   3.999   3.032
  990SOL    HW2 3099   3.743   4.029   3.032
  991SOL     OW 3100   6.011   5.058   0.594
  991SOL    HW1 3101   6.017   4.965   0.570
  991SOL    HW2 3102   6.102   5.087   0.601
  992SOL     OW 3103   5.640   5.295   3.198
  992SOL    HW1 3104   5.655   5.367   3.259
  992SOL    HW2 3105   5.677   5.326   3.115
  993SOL     OW 3106   8.177   0.905   1.644
  993SOL    HW1 3107   8.272   0.913   1.639
  993SOL    HW2 3108   8.155   0.841   1.576
  994SOL     OW 3109   1.762   2.434   1.156
  994SOL    HW1 3110   1.792   2.462   1.243
  994SOL    HW2 3111   1.841   2.426   1.104
  995SOL     OW 3112   4.981   6.355   4.046
  995SOL    HW1 3113   4.943   6.417   3.984
  995SOL    HW2 3114   4.906   6.315   4.089
  996SOL     OW 3115   9.077   5.376   3.035
  996SOL    HW1 3116   9.163   5.354   3.071
  996SOL    HW2 3117   9.025   5.402   3.111
  997SOL     OW 3118   6.691   1.762   5.151
  997SOL    HW1 3119   6.760   1.713   5.195
  997SOL    HW2 3120   6.663   1.705   5.079
  998SOL     OW 3121   5.831   0.066   1.814
  998SOL    HW1 3122   5.781   0.007   1.870
  998SOL    HW2 3123   5.906   0.092   1.868
  999SOL     OW 3124   3.683   6.225   4.483
  999SOL    HW1 3125   3.726   6.146   4.449
  999SOL    HW2 3126   3.751   6.292   4.480
 1000SOL     OW 3127   4.306   5.150   0.488
 1000SOL    HW1 3128   4.329   5.058   0.502
 1000SOL    HW2 3129   4.381   5.187   0.442
 1001SOL     OW 3130   9.918   6.745   4.218
 1001SOL    HW1 3131   9.986   6.813   4.213
 1001SOL    HW2 3132   9.838   6.792   4.239
 1002SOL     OW 3133   8.944   4.328   3.483
 1002SOL    HW1 3134   8.947   4.233   3.476
 1002SOL    HW2 3135   9.030   4.357   3.451
 1003SOL     OW 3136   4.931   0.212   0.571
 1003SOL    HW1 3137   4.929   0.236   0.663
 1003SOL    HW2 3138   5.016   0.242   0.540
 1004SOL     OW 3139   1.102   6.141   0.553
 1004SOL    HW1 3140   1.041   6.138   0.479
 1004SOL    HW2 3141   1.060   6.200   0.616
 1005SOL     OW 3142   6.963   0.733   5.042
 1005SOL    HW1 3143   6.990   0.713   5.131
 1005SOL    HW2 3144   6.974   0.828   5.034
 1006SOL     OW 3145   5.885   3.195   0.339
 1006SOL    HW1 3146   5.826   3.223   0.269
 1006SOL    HW2 3147   5.828   3.170   0.411
 1007SOL     OW 3148   5.048   5.946   4.880
 1007SOL    HW1 3149   4.986   5.973   4.812
 1007SOL    HW2 3150   5.040   6.014   4.947
 1008SOL     OW 3151   6.124   0.444   2.029
 1008SOL    HW1 3152   6.063   0.414   1.962
 1008SOL    HW2 3153   6.119   0.540   2.024
 1009SOL     OW 3154   3.560   3.386   1.408
 1009SOL    HW1 3155   3.507   3.405   1.331
 1009SOL    HW2 3156   3.531   3.451   1.473
 1010SOL     OW 3157   4.194   4.019   3.533
 1010SOL    HW1 3158   4.183   4.106   3.572
 1010SOL    HW2 3159   4.145   3.960   3.590
 1011SOL     OW 3160   6.652   3.052   4.272
 1011SOL    HW1 3161   6.686   2.989   4.209
 1011SOL    HW2 3162   6.615   3.122   4.219
 1012SOL     OW 3163   5.209   5.771   0.066
 1012SOL    HW1 3164   5.301   5.786   0.089
 1012SOL    HW2 3165   5.165   5.760   0.150
 1013SOL     OW 3166   9.429   0.690   3.992
 1013SOL    HW1 3167   9.372   0.666   3.919
 1013SOL    HW2 3168   9.439   0.609   4.042
 1014SOL     OW 3169   9.581   2.877   5.176
 1014SOL    HW1 3170   9.533   2.890   5.258
 1014SOL    HW2 3171   9.628   2.795   5.187
 1015SOL     OW 3172   7.734   3.069   4.736
 1015SOL    HW1 3173   7.653   3.067   4.685
 1015SOL    HW2 3174   7.719   3.007   4.807
 1016SOL     OW 3175   5.511   6.802   3.046
 1016SOL    HW1 3176   5.462   6.786   2.965
 1016SOL    HW2 3177   5.473   6.883   3.080
 1017SOL     OW 3178   5.036   1.501   4.486
 1017SOL    HW1 3179   5.018   1.515   4.393
 1017SOL    HW2 3180   4.950   1.509   4.528
 1018SOL     OW 3181   2.933   5.165   3.296
 1018SOL    HW1 3182   2.876   5.089   3.304
 1018SOL    HW2 3183   2.937   5.202   3.384
 1019SOL     OW 3184   9.029   5.385   4.243
 1019SOL    HW1 3185   8.952   5.351   4.288
 1019SOL    HW2 3186   9.021   5.353   4.153
 1020SOL     OW 3187  10.847   4.016   4.997
 1020SOL    HW1 3188  10.918   3.953   4.988
 1020SOL    HW2 3189  10.815   4.004   5.086
 1021SOL     OW 3190   5.749   3.659   4.905
 1021SOL    HW1 3191   5.756   3.736   4.961
 1021SOL    HW2 3192   5.745   3.694   4.816
 1022SOL     OW 3193   5.390   1.524   2.609
 1022SOL    HW1 3194   5.391   1.520   2.513
 1022SOL    HW2 3195   5.346   1.607   2.628
 1023SOL     OW 3196   4.270   5.545   0.662
 1023SOL    HW1 3197   4.213   5.612   0.625
 1023SOL    HW2 3198   4.286   5.573   0.752
 1024SOL     OW 3199   9.533   7.156   4.007
 1024SOL    HW1 3200   9.516   7.246   3.979
 1024SOL    HW2 3201   9.455   7.131   4.056
 1025SOL     OW 3202   4.491   6.968   0.511
 1025SOL    HW1 3203   4.531   7.041   0.464
 1025SOL    HW2 3204   4.444   7.009   0.583
 1026SOL     OW 3205   5.885   3.241   2.739
 1026SOL    HW1 3206   5.877   3.328   2.780
 1026SOL    HW2 3207   5.801   3.199   2.756
 1027SOL     OW 3208   6.402   5.839   1.034
 1027SOL    HW1 3209   6.307   5.838   1.028
 1027SOL    HW2 3210   6.424   5.930   1.056
 1028SOL     OW 3211   6.698   3.113   4.867
 1028SOL    HW1 3212   6.689   3.092   4.774
 1028SOL    HW2 3213   6.616   3.086   4.906
 1029SOL     OW 3214   1.148   2.444   1.056
 1029SOL    HW1 3215   1.113   2.476   1.140
 1029SOL    HW2 3216   1.185   2.522   1.015
 1030SOL     OW 3217   3.020   0.903   0.953
 1030SOL    HW1 3218   3.001   0.995   0.970
 1030SOL    HW2 3219   3.093   0.905   0.891
 1031SOL     OW 3220   6.670   5.082   2.994
 1031SOL    HW1 3221   6.591   5.048   2.952
 1031SOL    HW2 3222   6.681   5.169   2.957
 1032SOL     OW 3223   5.461   1.378   0.637
 1032SOL    HW1 3224   5.443   1.304   0.695
 1032SOL    HW2 3225   5.457   1.454   0.694
 1033SOL     OW 3226   4.179   1.546   1.272
 1033SOL    HW1 3227   4.087   1.539   1.297
 1033SOL    HW2 3228   4.201   1.461   1.234
 1034SOL     OW 3229   4.210   0.757   2.953
 1034SOL    HW1 3230   4.184   0.849   2.955
 1034SOL    HW2 3231   4.291   0.755   2.902
 1035SOL     OW 3232   2.290   0.367   1.472
 1035SOL    HW1 3233   2.337   0.440   1.433
 1035SOL    HW2 3234   2.358   0.301   1.489
 1036SOL     OW 3235   7.091   2.764   3.318
 1036SOL    HW1 3236   7.061   2.852   3.340
 1036SOL    HW2 3237   7.140   2.774   3.237
 1037SOL     OW 3238   4.063   6.631   1.127
 1037SOL    HW1 3239   3.998   6.598   1.064
 1037SOL    HW2 3240   4.052   6.726   1.125
 1038SOL     OW 3241   6.390   1.959   1.576
 1038SOL    HW1 3242   6.472   2.003   1.553
 1038SOL    HW2 3243   6.412   1.906   1.653
 1039SOL     OW 3244   6.350   1.371   2.754
 1039SOL    HW1 3245   6.255   1.365   2.748
 1039SOL    HW2 3246   6.369   1.348   2.845
 1040SOL     OW 3247   1.704   4.475   1.659
 1040SOL    HW1 3248   1.778   4.533   1.646
 1040SOL    HW2 3249   1.730   4.418   1.731
 1041SOL     OW 3250   0.629   3.679   0.389
 1041SOL    HW1 3251   0.561   3.683   0.456
 1041SOL    HW2 3252   0.623   3.764   0.344
 1042SOL     OW 3253   6.966   7.450   5.169
 1042SOL    HW1 3254   6.914   7.453   5.089
 1042SOL    HW2 3255   7.057   7.452   5.139
 1043SOL     OW 3256   3.828   7.038   4.364
 1043SOL    HW1 3257   3.815   7.101   4.292
 1043SOL    HW2 3258   3.922   7.040   4.381
 1044SOL     OW 3259   6.967   1.554   0.315
 1044SOL    HW1 3260   7.058   1.550   0.343
 1044SOL    HW2 3261   6.918   1.567   0.396
 1045SOL     OW 3262   7.520   6.609   3.886
 1045SOL    HW1 3263   7.440   6.557   3.883
 1045SOL    HW2 3264   7.508   6.677   3.820
 1046SOL     OW 3265   8.316   2.871   1.920
 1046SOL    HW1 3266   8.366   2.815   1.861
 1046SOL    HW2 3267   8.319   2.958   1.879
 1047SOL     OW 3268   7.585   6.605   1.000
 1047SOL    HW1 3269   7.650   6.619   0.931
 1047SOL    HW2 3270   7.515   6.556   0.958
 1048SOL     OW 3271   3.569   1.256   4.232
 1048SOL    HW1 3272   3.650   1.279   4.186
 1048SOL    HW2 3273   3.550   1.167   4.201
 1049SOL     OW 3274   8.500   3.784   4.592
 1049SOL    HW1 3275   8.446   3.709   4.566
 1049SOL    HW2 3276   8.457   3.859   4.551
 1050SOL     OW 3277   8.517   1.228   3.578
 1050SOL    HW1 3278   8.512   1.255   3.487
 1050SOL    HW2 3279   8.609   1.201   3.590
 1051SOL     OW 3280  10.017   4.488   5.183
 1051SOL    HW1 3281   9.955   4.496   5.110
 1051SOL    HW2 3282  10.022   4.576   5.221
 1052SOL     OW 3283   7.032   6.259   1.324
 1052SOL    HW1 3284   7.008   6.166   1.326
 1052SOL    HW2 3285   7.120   6.262   1.363
 1053SOL     OW 3286  10.187   3.299   4.096
 1053SOL    HW1 3287  10.216   3.340   4.178
 1053SOL    HW2 3288  10.168   3.209   4.121
 1054SOL     OW 3289   8.245   5.899   4.251
 1054SOL    HW1 3290   8.284   5.911   4.337
 1054SOL    HW2 3291   8.256   5.806   4.233
 1055SOL     OW 3292   1.225   0.328   0.671
 1055SOL    HW1 3293   1.266   0.251   0.631
 1055SOL    HW2 3294   1.292   0.362   0.731
 1056SOL     OW 3295   7.013   4.370   2.806
 1056SOL    HW1 3296   7.092   4.376   2.752
 1056SOL    HW2 3297   6.959   4.444   2.779
 1057SOL     OW 3298   3.788   1.043   2.399
 1057SOL    HW1 3299   3.799   0.963   2.451
 1057SOL    HW2 3300   3.730   1.098   2.452
 1058SOL     OW 3301   1.941   0.272   0.324
 1058SOL    HW1 3302   1.894   0.189   0.329
 1058SOL    HW2 3303   2.034   0.247   0.324
 1059SOL     OW 3304   2.625   4.586   2.231
 1059SOL    HW1 3305   2.546   4.571   2.179
 1059SOL    HW2 3306   2.613   4.674   2.266
 1060SOL     OW 3307   5.415   0.033   2.209
 1060SOL    HW1 3308   5.372   0.039   2.123
 1060SOL    HW2 3309   5.344   0.037   2.272
 1061SOL     OW 3310   3.820   2.512   3.962
 1061SOL    HW1 3311   3.731   2.495   3.929
 1061SOL    HW2 3312   3.816   2.600   3.999
 1062SOL     OW 3313   7.003   2.340   2.674
 1062SOL    HW1 3314   6.920   2.316   2.633
 1062SOL    HW2 3315   7.014   2.276   2.744
 1063SOL     OW 3316   7.127   6.998   1.584
 1063SOL    HW1 3317   7.052   6.988   1.525
 1063SOL    HW2 3318   7.189   6.931   1.555
 1064SOL     OW 3319   3.350   4.327   0.380
 1064SOL    HW1 3320   3.264   4.332   0.338
 1064SOL    HW2 3321   3.410   4.369   0.318
 1065SOL     OW 3322   6.944   5.672   4.527
 1065SOL    HW1 3323   6.909   5.722   4.453
 1065SOL    HW2 3324   6.905   5.585   4.518
 1066SOL     OW 3325   5.318   3.194   2.833
 1066SOL    HW1 3326   5.238   3.246   2.842
 1066SOL    HW2 3327   5.319   3.138   2.911
 1067SOL     OW 3328   7.151   1.860   3.958
 1067SOL    HW1 3329   7.127   1.813   4.038
 1067SOL    HW2 3330   7.136   1.798   3.887
 1068SOL     OW 3331   8.978   5.105   5.048
 1068SOL    HW1 3332   8.926   5.025   5.034
 1068SOL    HW2 3333   9.067   5.079   5.024
 1069SOL     OW 3334   1.210   5.225   0.276
 1069SOL    HW1 3335   1.240   5.137   0.297
 1069SOL    HW2 3336   1.248   5.244   0.190
 1070SOL     OW 3337   5.983   6.059   4.752
 1070SOL    HW1 3338   6.061   6.045   4.807
 1070SOL    HW2 3339   5.929   5.981   4.767
 1071SOL     OW 3340   5.646   2.001   4.536
 1071SOL    HW1 3341   5.676   2.075   4.588
 1071SOL    HW2 3342   5.551   2.015   4.527
 1072SOL     OW 3343   3.649   5.888   2.736
 1072SOL    HW1 3344   3.555   5.895   2.751
 1072SOL    HW2 3345   3.687   5.891   2.824
 1073SOL     OW 3346   2.134   2.530   2.184
 1073SOL    HW1 3347   2.066   2.462   2.184
 1073SOL    HW2 3348   2.214   2.484   2.157
 1074SOL     OW 3349   5.730   3.132   4.197
 1074SOL    HW1 3350   5.721   3.140   4.102
 1074SOL    HW2 3351   5.687   3.048   4.218
 1075SOL     OW 3352   5.249   5.780   2.067
 1075SOL    HW1 3353   5.285   5.823   2.145
 1075SOL    HW2 3354   5.306   5.807   1.995
 1076SOL     OW 3355   7.767   5.917   1.828
 1076SOL    HW1 3356   7.808   5.963   1.901
 1076SOL    HW2 3357   7.692   5.871   1.867
 1077SOL     OW 3358   5.024   6.042   1.588
 1077SOL    HW1 3359   5.073   6.120   1.562
 1077SOL    HW2 3360   5.090   5.973   1.594
 1078SOL     OW 3361   6.531   5.962   1.720
 1078SOL    HW1 3362   6.571   6.049   1.716
 1078SOL    HW2 3363   6.469   5.961   1.647
 1079SOL     OW 3364   8.948   6.143   2.405
 1079SOL    HW1 3365   9.008   6.215   2.384
 1079SOL    HW2 3366   9.003   6.065   2.406
 1080SOL     OW 3367   5.988   1.897   3.420
 1080SOL    HW1 3368   6.048   1.833   3.456
 1080SOL    HW2 3369   5.902   1.871   3.453
 1081SOL     OW 3370   6.069   4.061   5.164
 1081SOL    HW1 3371   6.116   3.984   5.131
 1081SOL    HW2 3372   6.059   4.117   5.088
 1082SOL     OW 3373   7.465   3.683   3.236
 1082SOL    HW1 3374   7.555   3.668   3.207
 1082SOL    HW2 3375   7.433   3.754   3.180
 1083SOL     OW 3376   9.378   1.062   4.825
 1083SOL    HW1 3377   9.458   1.102   4.857
 1083SOL    HW2 3378   9.354   1.113   4.748
 1084SOL     OW 3379   4.770   6.999   5.073
 1084SOL    HW1 3380   4.717   7.009   4.993
 1084SOL    HW2 3381   4.860   6.999   5.042
 1085SOL     OW 3382   5.574   0.947   1.254
 1085SOL    HW1 3383   5.666   0.948   1.279
 1085SOL    HW2 3384   5.539   0.867   1.293
 1086SOL     OW 3385   6.087   0.294   0.794
 1086SOL    HW1 3386   6.157   0.234   0.769
 1086SOL    HW2 3387   6.123   0.344   0.867
 1087SOL     OW 3388   7.646   1.290   4.531
 1087SOL    HW1 3389   7.553   1.270   4.531
 1087SOL    HW2 3390   7.652   1.381   4.503
 1088SOL     OW 3391   6.162   6.647   2.848
 1088SOL    HW1 3392   6.125   6.593   2.778
 1088SOL    HW2 3393   6.253   6.618   2.853
 1089SOL     OW 3394   5.011   4.689   2.087
 1089SOL    HW1 3395   5.033   4.619   2.026
 1089SOL    HW2 3396   4.959   4.751   2.036
 1090SOL     OW 3397   2.808   5.796   1.736
 1090SOL    HW1 3398   2.784   5.785   1.828
 1090SOL    HW2 3399   2.904   5.804   1.738
 1091SOL     OW 3400   6.001   3.051   4.679
 1091SOL    HW1 3401   6.077   3.017   4.632
 1091SOL    HW2 3402   5.977   2.981   4.740
 1092SOL     OW 3403   7.244   2.687   1.469
 1092SOL    HW1 3404   7.290   2.743   1.531
 1092SOL    HW2 3405   7.152   2.696   1.492
 1093SOL     OW 3406  10.308   1.836   4.368
 1093SOL    HW1 3407  10.255   1.820   4.290
 1093SOL    HW2 3408  10.394   1.860   4.334
 1094SOL     OW 3409   1.400   1.544   1.821
 1094SOL    HW1 3410   1.443   1.586   1.746
 1094SOL    HW2 3411   1.401   1.611   1.889
 1095SOL     OW 3412   3.429   5.152   4.772
 1095SOL    HW1 3413   3.423   5.073   4.825
 1095SOL    HW2 3414   3.511   5.143   4.724
 1096SOL     OW 3415   2.353   2.508   1.324
 1096SOL    HW1 3416   2.386   2.549   1.244
 1096SOL    HW2 3417   2.286   2.568   1.356
 1097SOL     OW 3418   8.301   6.209   3.452
 1097SOL    HW1 3419   8.223   6.179   3.499
 1097SOL    HW2 3420   8.287   6.181   3.362
 1098SOL     OW 3421   5.738   1.388   2.267
 1098SOL    HW1 3422   5.824   1.381   2.226
 1098SOL    HW2 3423   5.677   1.355   2.200
 1099SOL     OW 3424   9.589   4.818   4.895
 1099SOL    HW1 3425   9.608   4.725   4.903
 1099SOL    HW2 3426   9.550   4.827   4.808
 1100SOL     OW 3427   1.524   6.001   1.118
 1100SOL    HW1 3428   1.522   5.910   1.148
 1100SOL    HW2 3429   1.436   6.017   1.085
 1101SOL     OW 3430   7.667   0.558   4.730
 1101SOL    HW1 3431   7.702   0.641   4.761
 1101SOL    HW2 3432   7.591   0.541   4.785
 1102SOL     OW 3433   8.463   2.828   3.018
 1102SOL    HW1 3434   8.505   2.831   2.932
 1102SOL    HW2 3435   8.442   2.919   3.038
 1103SOL     OW 3436   0.515   5.729   0.386
 1103SOL    HW1 3437   0.574   5.803   0.369
 1103SOL    HW2 3438   0.427   5.769   0.386
 1104SOL     OW 3439   9.647   0.172   3.734
 1104SOL    HW1 3440   9.574   0.201   3.790
 1104SOL    HW2 3441   9.718   0.233   3.753
 1105SOL     OW 3442   4.954   2.370   2.883
 1105SOL    HW1 3443   4.864   2.368   2.851
 1105SOL    HW2 3444   4.974   2.464   2.891
 1106SOL     OW 3445   8.756   7.186   4.288
 1106SOL    HW1 3446   8.713   7.125   4.348
 1106SOL    HW2 3447   8.689   7.208   4.224
 1107SOL     OW 3448   5.931   6.737   0.528
 1107SOL    HW1 3449   5.836   6.737   0.514
 1107SOL    HW2 3450   5.950   6.826   0.558
 1108SOL     OW 3451   4.659   1.095   2.502
 1108SOL    HW1 3452   4.749   1.072   2.475
 1108SOL    HW2 3453   4.628   1.154   2.433
 1109SOL     OW 3454   6.420   6.132   1.043
 1109SOL    HW1 3455   6.336   6.164   1.009
 1109SOL    HW2 3456   6.476   6.125   0.965
 1110SOL     OW 3457   3.666   1.334   1.586
 1110SOL    HW1 3458   3.656   1.249   1.629
 1110SOL    HW2 3459   3.613   1.394   1.639
 1111SOL     OW 3460   1.793   0.126   1.926
 1111SOL    HW1 3461   1.717   0.093   1.974
 1111SOL    HW2 3462   1.846   0.048   1.908
 1112SOL     OW 3463   1.633   2.797   1.893
 1112SOL    HW1 3464   1.702   2.736   1.867
 1112SOL    HW2 3465   1.594   2.757   1.971
 1113SOL     OW 3466   6.907   5.794   3.887
 1113SOL    HW1 3467   7.000   5.774   3.874
 1113SOL    HW2 3468   6.899   5.809   3.981
 1114SOL     OW 3469   2.833   0.727   2.952
 1114SOL    HW1 3470   2.819   0.770   3.036
 1114SOL    HW2 3471   2.745   0.707   2.920
 1115SOL     OW 3472   8.653   1.976   3.570
 1115SOL    HW1 3473   8.709   1.917   3.620
 1115SOL    HW2 3474   8.646   2.054   3.625
 1116SOL     OW 3475   4.356   5.256   1.341
 1116SOL    HW1 3476   4.369   5.347   1.314
 1116SOL    HW2 3477   4.441   5.228   1.376
 1117SOL     OW 3478   7.043   2.903   4.401
 1117SOL    HW1 3479   6.963   2.903   4.350
 1117SOL    HW2 3480   7.034   2.978   4.460
 1118SOL     OW 3481   8.597   1.130   4.181
 1118SOL    HW1 3482   8.559   1.064   4.239
 1118SOL    HW2 3483   8.625   1.200   4.240
 1119SOL     OW 3484   3.966   0.471   5.233
 1119SOL    HW1 3485   3.993   0.526   5.306
 1119SOL    HW2 3486   4.035   0.406   5.225
 1120SOL     OW 3487   6.398   2.582   1.878
 1120SOL    HW1 3488   6.359   2.499   1.908
 1120SOL    HW2 3489   6.484   2.557   1.844
 1121SOL     OW 3490   8.972   0.034   3.964
 1121SOL    HW1 3491   9.045  -0.017   3.998
 1121SOL    HW2 3492   8.894  -0.006   4.003
 1122SOL     OW 3493   8.634   2.213   5.202
 1122SOL    HW1 3494   8.622   2.208   5.297
 1122SOL    HW2 3495   8.545   2.209   5.167
 1123SOL     OW 3496   0.549   5.054   0.642
 1123SOL    HW1 3497   0.540   5.105   0.562
 1123SOL    HW2 3498   0.467   5.070   0.690
 1124SOL     OW 3499   1.012   4.211   0.782
 1124SOL    HW1 3500   0.958   4.290   0.792
 1124SOL    HW2 3501   1.068   4.229   0.707
 1125SOL     OW 3502   2.431   6.404   2.924
 1125SOL    HW1 3503   2.397   6.389   3.013
 1125SOL    HW2 3504   2.524   6.382   2.931
 1126SOL     OW 3505   6.138   5.319   0.085
 1126SOL    HW1 3506   6.115   5.226   0.090
 1126SOL    HW2 3507   6.166   5.332  -0.006
 1127SOL     OW 3508   5.185   4.163   2.182
 1127SOL    HW1 3509   5.156   4.201   2.099
 1127SOL    HW2 3510   5.215   4.238   2.233
 1128SOL     OW 3511   8.354   2.243   2.785
 1128SOL    HW1 3512   8.307   2.313   2.830
 1128SOL    HW2 3513   8.333   2.256   2.693
 1129SOL     OW 3514   4.177   5.943   4.141
 1129SOL    HW1 3515   4.185   5.899   4.056
 1129SOL    HW2 3516   4.238   5.896   4.198
 1130SOL     OW 3517   5.977   7.037   1.189
 1130SOL    HW1 3518   5.885   7.011   1.180
 1130SOL    HW2 3519   5.976   7.108   1.253
 1131SOL     OW 3520   4.076   1.654   3.722
 1131SOL    HW1 3521   4.039   1.589   3.663
 1131SOL    HW2 3522   4.024   1.646   3.802
 1132SOL     OW 3523   5.663   1.196   1.842
 1132SOL    HW1 3524   5.757   1.212   1.848
 1132SOL    HW2 3525   5.636   1.242   1.763
 1133SOL     OW 3526   1.945   3.706   1.774
 1133SOL    HW1 3527   1.949   3.634   1.837
 1133SOL    HW2 3528   2.004   3.680   1.703
 1134SOL     OW 3529   3.993   2.871   4.347
 1134SOL    HW1 3530   3.996   2.858   4.441
 1134SOL    HW2 3531   4.005   2.783   4.310
 1135SOL     OW 3532   6.715   6.033   4.876
 1135SOL    HW1 3533   6.763   5.956   4.906
 1135SOL    HW2 3534   6.776   6.078   4.818
 1136SOL     OW 3535   8.503   2.603   4.385
 1136SOL    HW1 3536   8.453   2.655   4.448
 1136SOL    HW2 3537   8.559   2.548   4.440
 1137SOL     OW 3538   4.890   0.800   1.423
 1137SOL    HW1 3539   4.863   0.742   1.494
 1137SOL    HW2 3540   4.814   0.805   1.365
 1138SOL     OW 3541   3.508   0.822   3.696
 1138SOL    HW1 3542   3.578   0.757   3.706
 1138SOL    HW2 3543   3.501   0.835   3.601
 1139SOL     OW 3544   3.477   5.202   0.841
 1139SOL    HW1 3545   3.476   5.112   0.810
 1139SOL    HW2 3546   3.385   5.228   0.844
 1140SOL     OW 3547   1.363   1.936   0.460
 1140SOL    HW1 3548   1.338   2.028   0.466
 1140SOL    HW2 3549   1.356   1.902   0.549
 1141SOL     OW 3550   2.772   3.306   2.737
 1141SOL    HW1 3551   2.859   3.267   2.747
 1141SOL    HW2 3552   2.739   3.269   2.655
 1142SOL     OW 3553   7.063   3.666   3.799
 1142SOL    HW1 3554   7.127   3.629   3.738
 1142SOL    HW2 3555   7.115   3.699   3.872
 1143SOL     OW 3556   6.682   3.286   2.200
 1143SOL    HW1 3557   6.618   3.258   2.135
 1143SOL    HW2 3558   6.707   3.374   2.173
 1144SOL     OW 3559   2.497   2.134   2.818
 1144SOL    HW1 3560   2.504   2.227   2.839
 1144SOL    HW2 3561   2.465   2.132   2.728
 1145SOL     OW 3562   4.582   6.028   4.323
 1145SOL    HW1 3563   4.654   6.042   4.384
 1145SOL    HW2 3564   4.615   5.964   4.260
 1146SOL     OW 3565   3.476   2.217   1.401
 1146SOL    HW1 3566   3.567   2.246   1.406
 1146SOL    HW2 3567   3.430   2.291   1.360
 1147SOL     OW 3568   5.520   2.809   1.147
 1147SOL    HW1 3569   5.470   2.764   1.079
 1147SOL    HW2 3570   5.463   2.881   1.175
 1148SOL     OW 3571   6.847   4.314   1.759
 1148SOL    HW1 3572   6.823   4.228   1.792
 1148SOL    HW2 3573   6.773   4.341   1.705
 1149SOL     OW 3574   5.802   1.634   2.351
 1149SOL    HW1 3575   5.796   1.538   2.353
 1149SOL    HW2 3576   5.889   1.651   2.315
 1150SOL     OW 3577   9.134   6.871   2.697
 1150SOL    HW1 3578   9.177   6.902   2.618
 1150SOL    HW2 3579   9.204   6.830   2.748
 1151SOL     OW 3580   8.024   0.963   4.731
 1151SOL    HW1 3581   7.934   0.948   4.761
 1151SOL    HW2 3582   8.050   1.044   4.774
 1152SOL     OW 3583   6.526   5.533   1.509
 1152SOL    HW1 3584   6.470   5.588   1.563
 1152SOL    HW2 3585   6.464   5.477   1.461
 1153SOL     OW 3586   7.199   6.979   4.303
 1153SOL    HW1 3587   7.216   7.041   4.232
 1153SOL    HW2 3588   7.151   7.031   4.368
 1154SOL     OW 3589   9.482   6.986   4.927
 1154SOL    HW1 3590   9.461   7.011   5.017
 1154SOL    HW2 3591   9.425   6.912   4.909
 1155SOL     OW 3592   5.842   3.558   1.456
 1155SOL    HW1 3593   5.838   3.589   1.546
 1155SOL    HW2 3594   5.837   3.638   1.403
 1156SOL     OW 3595   9.902   1.062   4.645
 1156SOL    HW1 3596   9.852   0.984   4.667
 1156SOL    HW2 3597   9.994   1.034   4.648
 1157SOL     OW 3598   7.283   5.174   4.194
 1157SOL    HW1 3599   7.300   5.108   4.262
 1157SOL    HW2 3600   7.288   5.125   4.112
 1158SOL     OW 3601   8.186   2.443   4.816
 1158SOL    HW1 3602   8.182   2.442   4.720
 1158SOL    HW2 3603   8.246   2.372   4.838
 1159SOL     OW 3604   5.986   5.663   0.508
 1159SOL    HW1 3605   5.957   5.580   0.470
 1159SOL    HW2 3606   6.080   5.652   0.521
 1160SOL     OW 3607  10.888   4.338   5.072
 1160SOL    HW1 3608  10.885   4.343   5.168
 1160SOL    HW2 3609  10.891   4.244   5.053
 1161SOL     OW 3610   2.081   0.186   1.379
 1161SOL    HW1 3611   1.999   0.235   1.373
 1161SOL    HW2 3612   2.149   0.253   1.386
 1162SOL     OW 3613   7.866   2.592   2.431
 1162SOL    HW1 3614   7.772   2.603   2.418
 1162SOL    HW2 3615   7.880   2.497   2.430
 1163SOL     OW 3616   3.572   5.780   1.535
 1163SOL    HW1 3617   3.582   5.769   1.629
 1163SOL    HW2 3618   3.515   5.708   1.508
 1164SOL     OW 3619   2.777   6.887   3.723
 1164SOL    HW1 3620   2.824   6.967   3.702
 1164SOL    HW2 3621   2.801   6.867   3.814
 1165SOL     OW 3622   4.612   2.218   0.834
 1165SOL    HW1 3623   4.669   2.151   0.798
 1165SOL    HW2 3624   4.662   2.300   0.825
 1166SOL     OW 3625   6.904   0.189   4.153
 1166SOL    HW1 3626   6.980   0.142   4.188
 1166SOL    HW2 3627   6.940   0.267   4.112
 1167SOL     OW 3628   3.307   1.626   1.253
 1167SOL    HW1 3629   3.215   1.614   1.276
 1167SOL    HW2 3630   3.305   1.677   1.172
 1168SOL     OW 3631   0.856   0.145   0.935
 1168SOL    HW1 3632   0.951   0.146   0.924
 1168SOL    HW2 3633   0.822   0.128   0.847
 1169SOL     OW 3634   9.742   4.644   5.086
 1169SOL    HW1 3635   9.780   4.654   5.173
 1169SOL    HW2 3636   9.809   4.678   5.027
 1170SOL     OW 3637   0.909   2.178   0.669
 1170SOL    HW1 3638   0.907   2.155   0.762
 1170SOL    HW2 3639   0.990   2.138   0.637
 1171SOL     OW 3640   5.668   2.101   1.050
 1171SOL    HW1 3641   5.704   2.013   1.062
 1171SOL    HW2 3642   5.744   2.155   1.031
 1172SOL     OW 3643   3.414   5.613   1.368
 1172SOL    HW1 3644   3.327   5.625   1.329
 1172SOL    HW2 3645   3.448   5.533   1.329
 1173SOL     OW 3646   7.197   3.379   1.639
 1173SOL    HW1 3647   7.240   3.372   1.724
 1173SOL    HW2 3648   7.196   3.473   1.619
 1174SOL     OW 3649   4.185   2.351   2.952
 1174SOL    HW1 3650   4.111   2.408   2.970
 1174SOL    HW2 3651   4.154   2.291   2.884
 1175SOL     OW 3652   0.535   5.162   0.305
 1175SOL    HW1 3653   0.547   5.232   0.241
 1175SOL    HW2 3654   0.526   5.208   0.389
 1176SOL     OW 3655   7.889   3.545   4.007
 1176SOL    HW1 3656   7.840   3.492   4.069
 1176SOL    HW2 3657   7.946   3.599   4.061
 1177SOL     OW 3658   7.044   0.451   2.709
 1177SOL    HW1 3659   7.056   0.396   2.631
 1177SOL    HW2 3660   7.119   0.429   2.764
 1178SOL     OW 3661   3.112   5.820   1.206
 1178SOL    HW1 3662   3.102   5.729   1.234
 1178SOL    HW2 3663   3.193   5.849   1.247
 1179SOL     OW 3664   2.679   1.594   3.453
 1179SOL    HW1 3665   2.677   1.686   3.426
 1179SOL    HW2 3666   2.592   1.560   3.431
 1180SOL     OW 3667   5.839   4.172   4.512
 1180SOL    HW1 3668   5.853   4.087   4.555
 1180SOL    HW2 3669   5.927   4.210   4.505
 1181SOL     OW 3670   5.621   3.168   0.615
 1181SOL    HW1 3671   5.646   3.090   0.565
 1181SOL    HW2 3672   5.543   3.201   0.572
 1182SOL     OW 3673   4.068   2.954   2.702
 1182SOL    HW1 3674   4.164   2.957   2.703
 1182SOL    HW2 3675   4.047   2.881   2.644
 1183SOL     OW 3676   1.028   0.050   0.410
 1183SOL    HW1 3677   0.992   0.122   0.359
 1183SOL    HW2 3678   1.073   0.092   0.483
 1184SOL     OW 3679   2.433   4.646   0.609
 1184SOL    HW1 3680   2.416   4.741   0.615
 1184SOL    HW2 3681   2.375   4.616   0.539
 1185SOL     OW 3682   1.841   5.039   0.207
 1185SOL    HW1 3683   1.933   5.051   0.184
 1185SOL    HW2 3684   1.794   5.053   0.124
 1186SOL     OW 3685   1.669   6.263   1.355
 1186SOL    HW1 3686   1.587   6.277   1.308
 1186SOL    HW2 3687   1.674   6.336   1.416
 1187SOL     OW 3688   0.753   3.193   0.979
 1187SOL    HW1 3689   0.802   3.241   0.912
 1187SOL    HW2 3690   0.782   3.102   0.969
 1188SOL     OW 3691   9.649   0.872   4.036
 1188SOL    HW1 3692   9.720   0.899   4.094
 1188SOL    HW2 3693   9.584   0.832   4.094
 1189SOL     OW 3694   3.552   3.980   1.601
 1189SOL    HW1 3695   3.633   4.031   1.608
 1189SOL    HW2 3696   3.515   4.004   1.516
 1190SOL     OW 3697   6.178   4.242   3.025
 1190SOL    HW1 3698   6.208   4.194   3.102
 1190SOL    HW2 3699   6.181   4.334   3.051
 1191SOL     OW 3700   3.956   2.516   0.090
 1191SOL    HW1 3701   4.032   2.538   0.144
 1191SOL    HW2 3702   3.898   2.592   0.099
 1192SOL     OW 3703   6.893   3.536   1.152
 1192SOL    HW1 3704   6.979   3.577   1.156
 1192SOL    HW2 3705   6.847   3.583   1.083
 1193SOL     OW 3706   2.647   6.141   0.501
 1193SOL    HW1 3707   2.608   6.084   0.568
 1193SOL    HW2 3708   2.688   6.081   0.439
 1194SOL     OW 3709   1.492   4.906   0.044
 1194SOL    HW1 3710   1.579   4.937   0.068
 1194SOL    HW2 3711   1.456   4.976  -0.010
 1195SOL     OW 3712   6.833   1.274   4.480
 1195SOL    HW1 3713   6.819   1.362   4.516
 1195SOL    HW2 3714   6.805   1.281   4.389
 1196SOL     OW 3715   5.358   2.534   3.207
 1196SOL    HW1 3716   5.428   2.484   3.164
 1196SOL    HW2 3717   5.303   2.565   3.135
 1197SOL     OW 3718   6.452   3.320   0.493
 1197SOL    HW1 3719   6.401   3.245   0.524
 1197SOL    HW2 3720   6.542   3.300   0.517
 1198SOL     OW 3721   4.817   2.825   1.238
 1198SOL    HW1 3722   4.747   2.775   1.197
 1198SOL    HW2 3723   4.775   2.906   1.267
 1199SOL     OW 3724   1.837   7.074   1.945
 1199SOL    HW1 3725   1.866   6.999   1.998
 1199SOL    HW2 3726   1.751   7.096   1.980
 1200SOL     OW 3727   6.748   1.656   0.500
 1200SOL    HW1 3728   6.702   1.605   0.567
 1200SOL    HW2 3729   6.703   1.633   0.419
 1201SOL     OW 3730   6.281   1.731   3.966
 1201SOL    HW1 3731   6.240   1.704   4.048
 1201SOL    HW2 3732   6.246   1.670   3.901
 1202SOL     OW 3733   2.958   5.981   3.217
 1202SOL    HW1 3734   2.947   6.008   3.309
 1202SOL    HW2 3735   2.987   6.061   3.173
 1203SOL     OW 3736   7.616   1.074   4.234
 1203SOL    HW1 3737   7.563   1.151   4.257
 1203SOL    HW2 3738   7.559   1.000   4.254
 1204SOL     OW 3739   2.337   5.517   0.021
 1204SOL    HW1 3740   2.403   5.563  -0.031
 1204SOL    HW2 3741   2.318   5.575   0.094
 1205SOL     OW 3742   4.411   1.674   2.666
 1205SOL    HW1 3743   4.399   1.620   2.744
 1205SOL    HW2 3744   4.461   1.750   2.696
 1206SOL     OW 3745   3.791   3.411   2.554
 1206SOL    HW1 3746   3.846   3.446   2.484
 1206SOL    HW2 3747   3.827   3.324   2.571
 1207SOL     OW 3748   7.460   3.557   3.896
 1207SOL    HW1 3749   7.370   3.590   3.899
 1207SOL    HW2 3750   7.479   3.534   3.987
 1208SOL     OW 3751   8.923   5.721   2.344
 1208SOL    HW1 3752   8.830   5.703   2.353
 1208SOL    HW2 3753   8.967   5.642   2.375
 1209SOL     OW 3754  10.539   6.080   5.236
 1209SOL    HW1 3755  10.448   6.096   5.209
 1209SOL    HW2 3756  10.544   6.118   5.324
 1210SOL     OW 3757   5.416   5.695   2.902
 1210SOL    HW1 3758   5.409   5.786   2.931
 1210SOL    HW2 3759   5.366   5.692   2.821
 1211SOL     OW 3760   1.473   2.688   0.597
 1211SOL    HW1 3761   1.549   2.642   0.563
 1211SOL    HW2 3762   1.403   2.623   0.598
 1212SOL     OW 3763   2.569   4.062   0.078
 1212SOL    HW1 3764   2.659   4.074   0.049
 1212SOL    HW2 3765   2.563   3.968   0.098
 1213SOL     OW 3766   5.959   5.240   1.589
 1213SOL    HW1 3767   5.912   5.201   1.663
 1213SOL    HW2 3768   5.956   5.173   1.521
 1214SOL     OW 3769   4.002   7.424   0.402
 1214SOL    HW1 3770   4.081   7.437   0.455
 1214SOL    HW2 3771   3.979   7.512   0.371
 1215SOL     OW 3772   7.327   5.502   1.375
 1215SOL    HW1 3773   7.287   5.493   1.288
 1215SOL    HW2 3774   7.377   5.421   1.386
 1216SOL     OW 3775   4.027   1.712   0.706
 1216SOL    HW1 3776   4.071   1.788   0.668
 1216SOL    HW2 3777   4.042   1.641   0.643
 1217SOL     OW 3778   5.467   4.279   3.260
 1217SOL    HW1 3779   5.512   4.256   3.179
 1217SOL    HW2 3780   5.517   4.352   3.295
 1218SOL     OW 3781   7.594   6.158   1.010
 1218SOL    HW1 3782   7.610   6.154   1.104
 1218SOL    HW2 3783   7.610   6.249   0.986
 1219SOL     OW 3784   7.971   5.474   3.937
 1219SOL    HW1 3785   7.929   5.560   3.946
 1219SOL    HW2 3786   7.935   5.422   4.009
 1220SOL     OW 3787   3.697   2.962   4.968
 1220SOL    HW1 3788   3.679   2.890   5.028
 1220SOL    HW2 3789   3.611   2.992   4.939
 1221SOL     OW 3790   5.785   4.829   1.822
 1221SOL    HW1 3791   5.727   4.814   1.747
 1221SOL    HW2 3792   5.774   4.751   1.877
 1222SOL     OW 3793   8.023   6.010   1.001
 1222SOL    HW1 3794   7.980   5.926   1.019
 1222SOL    HW2 3795   7.982   6.071   1.063
 1223SOL     OW 3796   5.517   3.659   2.114
 1223SOL    HW1 3797   5.574   3.733   2.089
 1223SOL    HW2 3798   5.564   3.582   2.083
 1224SOL     OW 3799   7.755   6.254   0.725
 1224SOL    HW1 3800   7.796   6.234   0.809
 1224SOL    HW2 3801   7.668   6.286   0.747
 1225SOL     OW 3802   8.019   4.652   4.272
 1225SOL    HW1 3803   8.045   4.657   4.364
 1225SOL    HW2 3804   7.954   4.581   4.270
 1226SOL     OW 3805   5.831   1.046   2.344
 1226SOL    HW1 3806   5.798   1.111   2.282
 1226SOL    HW2 3807   5.885   1.096   2.404
 1227SOL     OW 3808   9.118   6.635   4.312
 1227SOL    HW1 3809   9.122   6.676   4.398
 1227SOL    HW2 3810   9.114   6.541   4.330
 1228SOL     OW 3811   4.374   2.192   3.970
 1228SOL    HW1 3812   4.435   2.229   3.907
 1228SOL    HW2 3813   4.428   2.142   4.031
 1229SOL     OW 3814   0.700   0.626   0.475
 1229SOL    HW1 3815   0.680   0.537   0.502
 1229SOL    HW2 3816   0.615   0.671   0.474
 1230SOL     OW 3817   6.543   0.139   1.984
 1230SOL    HW1 3818   6.457   0.177   1.969
 1230SOL    HW2 3819   6.546   0.062   1.927
 1231SOL     OW 3820   5.378   2.436   1.595
 1231SOL    HW1 3821   5.445   2.431   1.663
 1231SOL    HW2 3822   5.411   2.503   1.535
 1232SOL     OW 3823   6.894   5.986   4.140
 1232SOL    HW1 3824   6.875   6.033   4.221
 1232SOL    HW2 3825   6.972   6.029   4.105
 1233SOL     OW 3826   5.205   5.728   2.707
 1233SOL    HW1 3827   5.244   5.770   2.630
 1233SOL    HW2 3828   5.133   5.786   2.732
 1234SOL     OW 3829   4.662   6.469   0.269
 1234SOL    HW1 3830   4.708   6.551   0.250
 1234SOL    HW2 3831   4.637   6.435   0.184
 1235SOL     OW 3832   2.308   2.995   1.075
 1235SOL    HW1 3833   2.365   2.920   1.057
 1235SOL    HW2 3834   2.367   3.068   1.088
 1236SOL     OW 3835   7.037   6.555   3.929
 1236SOL    HW1 3836   6.987   6.482   3.964
 1236SOL    HW2 3837   6.974   6.627   3.920
 1237SOL     OW 3838   4.187   2.050   2.990
 1237SOL    HW1 3839   4.189   2.065   2.895
 1237SOL    HW2 3840   4.271   2.084   3.022
 1238SOL     OW 3841   9.537   2.049   3.696
 1238SOL    HW1 3842   9.461   2.064   3.640
 1238SOL    HW2 3843   9.511   2.081   3.782
 1239SOL     OW 3844   1.795   0.155   1.168
 1239SOL    HW1 3845   1.809   0.210   1.245
 1239SOL    HW2 3846   1.833   0.070   1.191
 1240SOL     OW 3847   2.221   5.278   1.134
 1240SOL    HW1 3848   2.130   5.297   1.113
 1240SOL    HW2 3849   2.244   5.204   1.078
 1241SOL     OW 3850   2.107   3.640   1.573
 1241SOL    HW1 3851   2.104   3.641   1.477
 1241SOL    HW2 3852   2.139   3.553   1.595
 1242SOL     OW 3853   3.005   1.909   1.416
 1242SOL    HW1 3854   2.911   1.892   1.406
 1242SOL    HW2 3855   3.012   2.005   1.418
 1243SOL     OW 3856   2.991   4.594   1.038
 1243SOL    HW1 3857   2.978   4.679   1.080
 1243SOL    HW2 3858   3.055   4.609   0.970
 1244SOL     OW 3859   4.729   5.875   4.137
 1244SOL    HW1 3860   4.660   5.871   4.070
 1244SOL    HW2 3861   4.770   5.789   4.133
 1245SOL     OW 3862   9.385   5.006   5.049
 1245SOL    HW1 3863   9.479   4.988   5.038
 1245SOL    HW2 3864   9.380   5.099   5.071
 1246SOL     OW 3865   5.507   6.967   4.958
 1246SOL    HW1 3866   5.595   6.971   4.995
 1246SOL    HW2 3867   5.459   7.037   5.002
 1247SOL     OW 3868   6.581   6.671   1.708
 1247SOL    HW1 3869   6.521   6.687   1.780
 1247SOL    HW2 3870   6.534   6.612   1.649
 1248SOL     OW 3871   5.379   1.639   4.979
 1248SOL    HW1 3872   5.349   1.555   4.943
 1248SOL    HW2 3873   5.473   1.628   4.990
 1249SOL     OW 3874   8.259   0.638   2.642
 1249SOL    HW1 3875   8.304   0.681   2.715
 1249SOL    HW2 3876   8.196   0.580   2.684
 1250SOL     OW 3877   1.895   7.285   1.791
 1250SOL    HW1 3878   1.877   7.200   1.831
 1250SOL    HW2 3879   1.981   7.309   1.826
 1251SOL     OW 3880   6.660   6.593   1.424
 1251SOL    HW1 3881   6.658   6.517   1.366
 1251SOL    HW2 3882   6.735   6.578   1.481
 1252SOL     OW 3883   3.724   5.524   4.248
 1252SOL    HW1 3884   3.682   5.499   4.166
 1252SOL    HW2 3885   3.656   5.568   4.299
 1253SOL     OW 3886   8.226   5.203   1.975
 1253SOL    HW1 3887   8.204   5.216   2.067
 1253SOL    HW2 3888   8.168   5.132   1.946
 1254SOL     OW 3889   5.538   3.017   3.872
 1254SOL    HW1 3890   5.499   2.934   3.901
 1254SOL    HW2 3891   5.585   2.995   3.792
 1255SOL     OW 3892   4.542   5.574   3.936
 1255SOL    HW1 3893   4.589   5.657   3.929
 1255SOL    HW2 3894   4.480   5.587   4.008
 1256SOL     OW 3895   7.640   0.181   2.897
 1256SOL    HW1 3896   7.664   0.190   2.805
 1256SOL    HW2 3897   7.723   0.176   2.943
 1257SOL     OW 3898   4.269   2.136   0.230
 1257SOL    HW1 3899   4.273   2.041   0.218
 1257SOL    HW2 3900   4.238   2.148   0.319
 1258SOL     OW 3901   6.211   2.902   4.562
 1258SOL    HW1 3902   6.304   2.885   4.580
 1258SOL    HW2 3903   6.165   2.836   4.614
 1259SOL     OW 3904   2.677   0.513   0.829
 1259SOL    HW1 3905   2.724   0.511   0.913
 1259SOL    HW2 3906   2.717   0.585   0.781
 1260SOL     OW 3907   4.588   3.780   3.389
 1260SOL    HW1 3908   4.672   3.822   3.371
 1260SOL    HW2 3909   4.564   3.812   3.476
 1261SOL     OW 3910   4.212   2.150   4.600
 1261SOL    HW1 3911   4.119   2.137   4.582
 1261SOL    HW2 3912   4.254   2.070   4.567
 1262SOL     OW 3913   1.233   0.689   0.610
 1262SOL    HW1 3914   1.152   0.730   0.640
 1262SOL    HW2 3915   1.265   0.748   0.541
 1263SOL     OW 3916   6.157   3.642   1.378
 1263SOL    HW1 3917   6.107   3.691   1.312
 1263SOL    HW2 3918   6.173   3.557   1.338
 1264SOL     OW 3919  10.930   1.083   5.201
 1264SOL    HW1 3920  10.951   1.039   5.284
 1264SOL    HW2 3921  10.850   1.132   5.220
 1265SOL     OW 3922   6.682   0.718   0.934
 1265SOL    HW1 3923   6.595   0.744   0.906
 1265SOL    HW2 3924   6.741   0.780   0.891
 1266SOL     OW 3925   5.801   5.098   1.773
 1266SOL    HW1 3926   5.829   5.015   1.811
 1266SOL    HW2 3927   5.713   5.082   1.741
 1267SOL     OW 3928   4.729   2.042   2.175
 1267SOL    HW1 3929   4.739   2.005   2.087
 1267SOL    HW2 3930   4.636   2.031   2.195
 1268SOL     OW 3931   2.708   0.199   3.243
 1268SOL    HW1 3932   2.645   0.190   3.315
 1268SOL    HW2 3933   2.743   0.288   3.253
 1269SOL     OW 3934   2.114   5.354   1.468
 1269SOL    HW1 3935   2.067   5.338   1.550
 1269SOL    HW2 3936   2.186   5.411   1.492
 1270SOL     OW 3937  10.470   1.771   4.981
 1270SOL    HW1 3938  10.520   1.689   4.976
 1270SOL    HW2 3939  10.529   1.832   5.024
 1271SOL     OW 3940   1.696   5.311   1.454
 1271SOL    HW1 3941   1.732   5.396   1.429
 1271SOL    HW2 3942   1.608   5.331   1.486
 1272SOL     OW 3943   5.619   7.387   2.684
 1272SOL    HW1 3944   5.629   7.439   2.604
 1272SOL    HW2 3945   5.709   7.363   2.708
 1273SOL     OW 3946   2.077   5.321   2.501
 1273SOL    HW1 3947   1.984   5.298   2.508
 1273SOL    HW2 3948   2.079   5.393   2.438
 1274SOL     OW 3949   5.071   6.095   1.294
 1274SOL    HW1 3950   5.152   6.145   1.295
 1274SOL    HW2 3951   5.098   6.005   1.308
 1275SOL     OW 3952   3.300   2.461   0.233
 1275SOL    HW1 3953   3.356   2.386   0.216
 1275SOL    HW2 3954   3.211   2.426   0.227
 1276SOL     OW 3955   3.430   6.256   4.437
 1276SOL    HW1 3956   3.382   6.174   4.440
 1276SOL    HW2 3957   3.522   6.230   4.441
 1277SOL     OW 3958   2.551   0.654   3.373
 1277SOL    HW1 3959   2.457   0.650   3.392
 1277SOL    HW2 3960   2.593   0.644   3.458
 1278SOL     OW 3961   2.915   3.145   3.271
 1278SOL    HW1 3962   2.972   3.084   3.223
 1278SOL    HW2 3963   2.827   3.111   3.255
 1279SOL     OW 3964   6.911   3.968   1.975
 1279SOL    HW1 3965   6.823   3.944   2.002
 1279SOL    HW2 3966   6.905   3.980   1.880
 1280SOL     OW 3967   4.931   5.461   0.745
 1280SOL    HW1 3968   4.977   5.397   0.692
 1280SOL    HW2 3969   4.896   5.411   0.819
 1281SOL     OW 3970   8.259   4.517   1.761
 1281SOL    HW1 3971   8.179   4.469   1.785
 1281SOL    HW2 3972   8.330   4.458   1.785
 1282SOL     OW 3973   3.660   0.808   2.857
 1282SOL    HW1 3974   3.601   0.876   2.890
 1282SOL    HW2 3975   3.602   0.737   2.830
 1283SOL     OW 3976   8.716   4.331   2.267
 1283SOL    HW1 3977   8.744   4.239   2.269
 1283SOL    HW2 3978   8.753   4.366   2.186
 1284SOL     OW 3979   6.418   3.505   3.748
 1284SOL    HW1 3980   6.420   3.544   3.660
 1284SOL    HW2 3981   6.445   3.576   3.806
 1285SOL     OW 3982   4.154   6.902   3.648
 1285SOL    HW1 3983   4.148   6.941   3.735
 1285SOL    HW2 3984   4.070   6.921   3.607
 1286SOL     OW 3985   6.869   2.172   5.200
 1286SOL    HW1 3986   6.777   2.198   5.203
 1286SOL    HW2 3987   6.877   2.101   5.264
 1287SOL     OW 3988   6.009   6.425   2.281
 1287SOL    HW1 3989   5.947   6.461   2.218
 1287SOL    HW2 3990   6.057   6.359   2.231
 1288SOL     OW 3991   5.390   4.695   2.654
 1288SOL    HW1 3992   5.373   4.750   2.730
 1288SOL    HW2 3993   5.477   4.719   2.625
 1289SOL     OW 3994   8.624   0.201   2.711
 1289SOL    HW1 3995   8.605   0.109   2.693
 1289SOL    HW2 3996   8.561   0.226   2.778
 1290SOL     OW 3997   3.212   5.756   3.862
 1290SOL    HW1 3998   3.150   5.707   3.915
 1290SOL    HW2 3999   3.205   5.846   3.894
 1291SOL     OW 4000   3.772   4.201   4.017
 1291SOL    HW1 4001   3.835   4.269   3.993
 1291SOL    HW2 4002   3.767   4.145   3.940
 1292SOL     OW 4003   5.039   0.364   5.224
 1292SOL    HW1 4004   4.943   0.366   5.228
 1292SOL    HW2 4005   5.065   0.455   5.240
 1293SOL     OW 4006   2.597   2.816   1.254
 1293SOL    HW1 4007   2.629   2.903   1.230
 1293SOL    HW2 4008   2.656   2.787   1.324
 1294SOL     OW 4009   9.054   1.516   5.012
 1294SOL    HW1 4010   9.016   1.515   5.100
 1294SOL    HW2 4011   9.020   1.437   4.970
 1295SOL     OW 4012   9.772   6.671   3.625
 1295SOL    HW1 4013   9.853   6.643   3.582
 1295SOL    HW2 4014   9.801   6.714   3.705
 1296SOL     OW 4015   4.499   2.103   4.656
 1296SOL    HW1 4016   4.416   2.141   4.627
 1296SOL    HW2 4017   4.566   2.161   4.620
 1297SOL     OW 4018   5.689   6.600   4.141
 1297SOL    HW1 4019   5.620   6.537   4.123
 1297SOL    HW2 4020   5.726   6.572   4.224
 1298SOL     OW 4021   9.859   0.999   3.602
 1298SOL    HW1 4022   9.870   1.095   3.605
 1298SOL    HW2 4023   9.930   0.969   3.545
 1299SOL     OW 4024   7.933   3.503   3.200
 1299SOL    HW1 4025   7.950   3.421   3.153
 1299SOL    HW2 4026   8.020   3.535   3.225
 1300SOL     OW 4027   5.637   1.979   3.422
 1300SOL    HW1 4028   5.573   1.909   3.434
 1300SOL    HW2 4029   5.614   2.019   3.339
 1301SOL     OW 4030   4.988   5.109   5.176
 1301SOL    HW1 4031   4.973   5.016   5.160
 1301SOL    HW2 4032   4.901   5.145   5.188
 1302SOL     OW 4033   5.609   5.485   1.240
 1302SOL    HW1 4034   5.699   5.491   1.271
 1302SOL    HW2 4035   5.561   5.443   1.311
 1303SOL     OW 4036   4.763   5.352   5.039
 1303SOL    HW1 4037   4.809   5.436   5.035
 1303SOL    HW2 4038   4.791   5.305   4.961
 1304SOL     OW 4039   0.693   0.114   0.706
 1304SOL    HW1 4040   0.682   0.159   0.622
 1304SOL    HW2 4041   0.611   0.130   0.752
 1305SOL     OW 4042   3.855   4.915   2.391
 1305SOL    HW1 4043   3.770   4.892   2.428
 1305SOL    HW2 4044   3.899   4.963   2.460
 1306SOL     OW 4045   3.564   5.946   3.589
 1306SOL    HW1 4046   3.495   6.002   3.624
 1306SOL    HW2 4047   3.614   6.004   3.530
 1307SOL     OW 4048   8.732   5.672   1.905
 1307SOL    HW1 4049   8.734   5.596   1.963
 1307SOL    HW2 4050   8.699   5.743   1.960
 1308SOL     OW 4051   1.914   3.334   1.792
 1308SOL    HW1 4052   1.909   3.357   1.885
 1308SOL    HW2 4053   1.827   3.355   1.757
 1309SOL     OW 4054   6.800   0.073   3.809
 1309SOL    HW1 4055   6.793   0.090   3.715
 1309SOL    HW2 4056   6.861   0.000   3.816
 1310SOL     OW 4057   5.552   4.220   2.396
 1310SOL    HW1 4058   5.597   4.228   2.312
 1310SOL    HW2 4059   5.519   4.308   2.415
 1311SOL     OW 4060   7.458   7.217   1.266
 1311SOL    HW1 4061   7.423   7.287   1.321
 1311SOL    HW2 4062   7.525   7.175   1.321
 1312SOL     OW 4063   7.040   1.935   5.277
 1312SOL    HW1 4064   7.098   1.864   5.302
 1312SOL    HW2 4065   6.971   1.892   5.225
 1313SOL     OW 4066   4.224   0.146   1.295
 1313SOL    HW1 4067   4.150   0.091   1.321
 1313SOL    HW2 4068   4.277   0.090   1.238
 1314SOL     OW 4069   3.635   3.206   3.506
 1314SOL    HW1 4070   3.613   3.136   3.567
 1314SOL    HW2 4071   3.683   3.270   3.559
 1315SOL     OW 4072   8.269   0.787   4.468
 1315SOL    HW1 4073   8.327   0.745   4.532
 1315SOL    HW2 4074   8.182   0.753   4.490
 1316SOL     OW 4075  10.441   2.423   4.584
 1316SOL    HW1 4076  10.488   2.429   4.667
 1316SOL    HW2 4077  10.430   2.514   4.556
 1317SOL     OW 4078   6.581   1.710   4.400
 1317SOL    HW1 4079   6.524   1.769   4.448
 1317SOL    HW2 4080   6.645   1.680   4.464
 1318SOL     OW 4081   7.013   2.867   0.269
 1318SOL    HW1 4082   6.981   2.784   0.233
 1318SOL    HW2 4083   7.091   2.843   0.319
 1319SOL     OW 4084   6.341   2.758   3.223
 1319SOL    HW1 4085   6.317   2.851   3.224
 1319SOL    HW2 4086   6.265   2.713   3.258
 1320SOL     OW 4087   5.125   6.237   3.443
 1320SOL    HW1 4088   5.152   6.327   3.428
 1320SOL    HW2 4089   5.152   6.218   3.533
 1321SOL     OW 4090   3.830   0.970   4.231
 1321SOL    HW1 4091   3.738   0.990   4.247
 1321SOL    HW2 4092   3.860   1.041   4.174
 1322SOL     OW 4093   2.339   2.172   2.604
 1322SOL    HW1 4094   2.270   2.143   2.663
 1322SOL    HW2 4095   2.305   2.252   2.564
 1323SOL     OW 4096   8.303   3.785   5.019
 1323SOL    HW1 4097   8.286   3.829   4.935
 1323SOL    HW2 4098   8.222   3.794   5.068
 1324SOL     OW 4099   7.043   0.600   0.614
 1324SOL    HW1 4100   7.052   0.620   0.707
 1324SOL    HW2 4101   7.088   0.517   0.602
 1325SOL     OW 4102   5.515   5.640   1.569
 1325SOL    HW1 4103   5.452   5.643   1.641
 1325SOL    HW2 4104   5.500   5.554   1.529
 1326SOL     OW 4105   5.429   6.950   2.212
 1326SOL    HW1 4106   5.382   6.898   2.146
 1326SOL    HW2 4107   5.409   6.908   2.295
 1327SOL     OW 4108   0.523   2.100   0.043
 1327SOL    HW1 4109   0.569   2.045   0.106
 1327SOL    HW2 4110   0.506   2.182   0.090
 1328SOL     OW 4111   8.237   1.429   5.246
 1328SOL    HW1 4112   8.184   1.389   5.178
 1328SOL    HW2 4113   8.305   1.364   5.265
 1329SOL     OW 4114   2.465   4.509   1.580
 1329SOL    HW1 4115   2.424   4.556   1.507
 1329SOL    HW2 4116   2.468   4.417   1.551
 1330SOL     OW 4117   4.167   5.368   4.927
 1330SOL    HW1 4118   4.222   5.289   4.926
 1330SOL    HW2 4119   4.086   5.341   4.883
 1331SOL     OW 4120   4.687   2.079   3.565
 1331SOL    HW1 4121   4.624   2.116   3.627
 1331SOL    HW2 4122   4.732   2.011   3.615
 1332SOL     OW 4123   5.793   4.671   0.446
 1332SOL    HW1 4124   5.862   4.735   0.434
 1332SOL    HW2 4125   5.820   4.620   0.523
 1333SOL     OW 4126   8.713   0.169   2.001
 1333SOL    HW1 4127   8.772   0.224   2.052
 1333SOL    HW2 4128   8.628   0.214   2.006
 1334SOL     OW 4129   2.817   3.215   1.590
 1334SOL    HW1 4130   2.775   3.159   1.656
 1334SOL    HW2 4131   2.907   3.183   1.587
 1335SOL     OW 4132   4.334   4.665   3.364
 1335SOL    HW1 4133   4.309   4.574   3.350
 1335SOL    HW2 4134   4.383   4.689   3.286
 1336SOL     OW 4135   5.299   5.134   4.201
 1336SOL    HW1 4136   5.289   5.055   4.253
 1336SOL    HW2 4137   5.229   5.192   4.231
 1337SOL     OW 4138   6.347   2.112   2.992
 1337SOL    HW1 4139   6.301   2.106   2.909
 1337SOL    HW2 4140   6.310   2.041   3.045
 1338SOL     OW 4141   5.354   2.669   2.413
 1338SOL    HW1 4142   5.287   2.601   2.423
 1338SOL    HW2 4143   5.415   2.653   2.485
 1339SOL     OW 4144   8.704   1.120   2.835
 1339SOL    HW1 4145   8.708   1.034   2.793
 1339SOL    HW2 4146   8.664   1.177   2.768
 1340SOL     OW 4147   6.299   1.421   0.164
 1340SOL    HW1 4148   6.315   1.405   0.071
 1340SOL    HW2 4149   6.243   1.499   0.166
 1341SOL     OW 4150   4.503   6.985   1.603
 1341SOL    HW1 4151   4.442   6.930   1.654
 1341SOL    HW2 4152   4.502   6.947   1.516
 1342SOL     OW 4153   6.632   6.582   3.378
 1342SOL    HW1 4154   6.695   6.565   3.448
 1342SOL    HW2 4155   6.678   6.641   3.318
 1343SOL     OW 4156   6.294   4.344   1.794
 1343SOL    HW1 4157   6.226   4.290   1.833
 1343SOL    HW2 4158   6.316   4.409   1.861
 1344SOL     OW 4159   6.818   2.021   4.848
 1344SOL    HW1 4160   6.840   1.933   4.878
 1344SOL    HW2 4161   6.759   2.055   4.915
 1345SOL     OW 4162   1.619   1.361   1.770
 1345SOL    HW1 4163   1.649   1.427   1.833
 1345SOL    HW2 4164   1.532   1.337   1.801
 1346SOL     OW 4165   1.062   4.827   1.510
 1346SOL    HW1 4166   1.146   4.783   1.493
 1346SOL    HW2 4167   1.001   4.755   1.524
 1347SOL     OW 4168   3.677   7.115   3.360
 1347SOL    HW1 4169   3.742   7.179   3.331
 1347SOL    HW2 4170   3.614   7.167   3.411
 1348SOL     OW 4171   5.401   5.509   3.145
 1348SOL    HW1 4172   5.494   5.516   3.123
 1348SOL    HW2 4173   5.357   5.564   3.080
 1349SOL     OW 4174   9.566   4.554   4.607
 1349SOL    HW1 4175   9.661   4.546   4.610
 1349SOL    HW2 4176   9.537   4.482   4.550
 1350SOL     OW 4177   3.368   2.748   2.954
 1350SOL    HW1 4178   3.350   2.717   2.865
 1350SOL    HW2 4179   3.396   2.670   3.001
 1351SOL     OW 4180   2.956   4.097   2.055
 1351SOL    HW1 4181   2.931   4.189   2.060
 1351SOL    HW2 4182   3.051   4.096   2.069
 1352SOL     OW 4183   7.530   1.840   2.634
 1352SOL    HW1 4184   7.595   1.886   2.580
 1352SOL    HW2 4185   7.547   1.747   2.619
 1353SOL     OW 4186   2.316   1.111   0.020
 1353SOL    HW1 4187   2.345   1.040   0.076
 1353SOL    HW2 4188   2.396   1.158  -0.004
 1354SOL     OW 4189   5.317   5.731   1.043
 1354SOL    HW1 4190   5.381   5.734   0.972
 1354SOL    HW2 4191   5.349   5.795   1.106
 1355SOL     OW 4192   4.235   7.033   0.644
 1355SOL    HW1 4193   4.195   7.120   0.645
 1355SOL    HW2 4194   4.175   6.980   0.592
 1356SOL     OW 4195   4.081   1.611   5.301
 1356SOL    HW1 4196   4.059   1.688   5.248
 1356SOL    HW2 4197   4.096   1.542   5.237
 1357SOL     OW 4198   5.696   4.821   3.164
 1357SOL    HW1 4199   5.624   4.821   3.227
 1357SOL    HW2 4200   5.682   4.901   3.112
 1358SOL     OW 4201   3.727   2.189   1.676
 1358SOL    HW1 4202   3.650   2.151   1.634
 1358SOL    HW2 4203   3.706   2.281   1.688
 1359SOL     OW 4204   3.574   5.613   4.814
 1359SOL    HW1 4205   3.536   5.532   4.780
 1359SOL    HW2 4206   3.555   5.611   4.908
 1360SOL     OW 4207   9.966   1.957   5.171
 1360SOL    HW1 4208  10.059   1.939   5.163
 1360SOL    HW2 4209   9.927   1.920   5.092
 1361SOL     OW 4210   8.930   7.197   3.902
 1361SOL    HW1 4211   8.948   7.148   3.822
 1361SOL    HW2 4212   8.856   7.253   3.880
 1362SOL     OW 4213   5.673   3.820   0.385
 1362SOL    HW1 4214   5.738   3.806   0.453
 1362SOL    HW2 4215   5.629   3.902   0.410
 1363SOL     OW 4216   5.262   0.141   0.674
 1363SOL    HW1 4217   5.347   0.100   0.656
 1363SOL    HW2 4218   5.198   0.074   0.650
 1364SOL     OW 4219   2.660   3.509   1.819
 1364SOL    HW1 4220   2.694   3.422   1.841
 1364SOL    HW2 4221   2.688   3.566   1.890
 1365SOL     OW 4222   4.240   6.097   0.864
 1365SOL    HW1 4223   4.317   6.055   0.826
 1365SOL    HW2 4224   4.245   6.074   0.957
 1366SOL     OW 4225   4.495   5.126   1.779
 1366SOL    HW1 4226   4.558   5.187   1.742
 1366SOL    HW2 4227   4.414   5.142   1.729
 1367SOL     OW 4228   7.031   6.993   0.266
 1367SOL    HW1 4229   6.970   6.937   0.217
 1367SOL    HW2 4230   7.117   6.970   0.232
 1368SOL     OW 4231   5.031   1.964   4.843
 1368SOL    HW1 4232   5.088   2.019   4.898
 1368SOL    HW2 4233   5.032   1.879   4.886
 1369SOL     OW 4234   2.647   2.581   3.391
 1369SOL    HW1 4235   2.640   2.606   3.299
 1369SOL    HW2 4236   2.600   2.650   3.438
 1370SOL     OW 4237   4.943   1.486   3.019
 1370SOL    HW1 4238   4.963   1.451   2.932
 1370SOL    HW2 4239   4.970   1.577   3.015
 1371SOL     OW 4240   5.898   1.127   0.082
 1371SOL    HW1 4241   5.830   1.194   0.085
 1371SOL    HW2 4242   5.971   1.169   0.036
 1372SOL     OW 4243   4.661   2.823   0.127
 1372SOL    HW1 4244   4.628   2.902   0.171
 1372SOL    HW2 4245   4.736   2.796   0.180
 1373SOL     OW 4246  10.906   2.157   5.072
 1373SOL    HW1 4247  10.960   2.091   5.116
 1373SOL    HW2 4248  10.839   2.107   5.027
 1374SOL     OW 4249   7.184   4.051   1.022
 1374SOL    HW1 4250   7.266   4.026   1.063
 1374SOL    HW2 4251   7.207   4.073   0.932
 1375SOL     OW 4252   3.665   1.181   3.008
 1375SOL    HW1 4253   3.759   1.195   3.009
 1375SOL    HW2 4254   3.630   1.246   3.069
 1376SOL     OW 4255   3.974   5.797   0.333
 1376SOL    HW1 4256   3.986   5.744   0.254
 1376SOL    HW2 4257   4.033   5.759   0.397
 1377SOL     OW 4258   8.555   6.446   5.092
 1377SOL    HW1 4259   8.545   6.503   5.169
 1377SOL    HW2 4260   8.554   6.507   5.018
 1378SOL     OW 4261   3.122   5.304   1.385
 1378SOL    HW1 4262   3.163   5.224   1.417
 1378SOL    HW2 4263   3.035   5.277   1.357
 1379SOL     OW 4264   7.175   7.291   0.842
 1379SOL    HW1 4265   7.208   7.234   0.911
 1379SOL    HW2 4266   7.082   7.270   0.836
 1380SOL     OW 4267   1.667   0.237   0.166
 1380SOL    HW1 4268   1.733   0.305   0.177
 1380SOL    HW2 4269   1.587   0.284   0.144
 1381SOL     OW 4270   2.758   2.377   3.120
 1381SOL    HW1 4271   2.790   2.289   3.100
 1381SOL    HW2 4272   2.700   2.365   3.195
 1382SOL     OW 4273   9.986   7.032   4.249
 1382SOL    HW1 4274  10.042   7.091   4.300
 1382SOL    HW2 4275   9.903   7.032   4.296
 1383SOL     OW 4276   2.879   2.699   0.441
 1383SOL    HW1 4277   2.970   2.706   0.412
 1383SOL    HW2 4278   2.827   2.714   0.362
 1384SOL     OW 4279   6.310   1.541   0.487
 1384SOL    HW1 4280   6.347   1.467   0.535
 1384SOL    HW2 4281   6.371   1.557   0.415
 1385SOL     OW 4282   8.310   2.787   1.490
 1385SOL    HW1 4283   8.298   2.767   1.582
 1385SOL    HW2 4284   8.404   2.775   1.475
 1386SOL     OW 4285   3.151   3.626   3.983
 1386SOL    HW1 4286   3.156   3.719   3.961
 1386SOL    HW2 4287   3.057   3.607   3.986
 1387SOL     OW 4288   7.304   7.182   0.032
 1387SOL    HW1 4289   7.241   7.236   0.079
 1387SOL    HW2 4290   7.386   7.232   0.035
 1388SOL     OW 4291   2.996   7.325   1.876
 1388SOL    HW1 4292   3.065   7.392   1.871
 1388SOL    HW2 4293   3.039   7.250   1.917
 1389SOL     OW 4294   4.946   1.296   3.838
 1389SOL    HW1 4295   4.905   1.285   3.923
 1389SOL    HW2 4296   4.954   1.391   3.827
 1390SOL     OW 4297   7.537   6.977   1.514
 1390SOL    HW1 4298   7.520   6.922   1.590
 1390SOL    HW2 4299   7.499   7.062   1.537
 1391SOL     OW 4300   5.474   4.056   4.968
 1391SOL    HW1 4301   5.467   4.012   5.052
 1391SOL    HW2 4302   5.431   3.997   4.906
 1392SOL     OW 4303   4.220   1.535   4.544
 1392SOL    HW1 4304   4.273   1.606   4.579
 1392SOL    HW2 4305   4.149   1.525   4.607
 1393SOL     OW 4306   9.496   3.025   4.938
 1393SOL    HW1 4307   9.426   3.082   4.969
 1393SOL    HW2 4308   9.522   2.975   5.016
 1394SOL     OW 4309   7.924   2.215   1.436
 1394SOL    HW1 4310   7.950   2.278   1.368
 1394SOL    HW2 4311   8.005   2.196   1.483
 1395SOL     OW 4312   1.747   1.731   1.306
 1395SOL    HW1 4313   1.768   1.783   1.383
 1395SOL    HW2 4314   1.744   1.641   1.338
 1396SOL     OW 4315   4.108   0.293   3.802
 1396SOL    HW1 4316   4.144   0.210   3.832
 1396SOL    HW2 4317   4.079   0.277   3.713
 1397SOL     OW 4318   8.634   5.852   3.915
 1397SOL    HW1 4319   8.540   5.867   3.920
 1397SOL    HW2 4320   8.660   5.833   4.005
 1398SOL     OW 4321   8.194   4.272   3.358
 1398SOL    HW1 4322   8.179   4.180   3.377
 1398SOL    HW2 4323   8.169   4.318   3.438
 1399SOL     OW 4324   4.244   7.211   4.955
 1399SOL    HW1 4325   4.273   7.129   4.994
 1399SOL    HW2 4326   4.257   7.199   4.861
 1400SOL     OW 4327   5.787   0.566   4.099
 1400SOL    HW1 4328   5.809   0.514   4.021
 1400SOL    HW2 4329   5.695   0.590   4.087
 1401SOL     OW 4330   6.557   5.088   3.305
 1401SOL    HW1 4331   6.567   5.008   3.255
 1401SOL    HW2 4332   6.645   5.126   3.308
 1402SOL     OW 4333   2.419   7.410   0.156
 1402SOL    HW1 4334   2.362   7.364   0.218
 1402SOL    HW2 4335   2.386   7.386   0.070
 1403SOL     OW 4336   5.454   7.032   1.865
 1403SOL    HW1 4337   5.448   7.024   1.960
 1403SOL    HW2 4338   5.547   7.020   1.846
 1404SOL     OW 4339   9.821   0.571   5.130
 1404SOL    HW1 4340   9.732   0.597   5.108
 1404SOL    HW2 4341   9.816   0.538   5.219
 1405SOL     OW 4342   8.470   0.893   4.314
 1405SOL    HW1 4343   8.487   0.840   4.236
 1405SOL    HW2 4344   8.396   0.850   4.357
 1406SOL     OW 4345   2.424   4.326   0.265
 1406SOL    HW1 4346   2.410   4.374   0.347
 1406SOL    HW2 4347   2.485   4.257   0.287
 1407SOL     OW 4348   5.105   2.535   3.857
 1407SOL    HW1 4349   5.078   2.598   3.790
 1407SOL    HW2 4350   5.087   2.579   3.940
 1408SOL     OW 4351   8.758   2.699   4.320
 1408SOL    HW1 4352   8.678   2.657   4.352
 1408SOL    HW2 4353   8.739   2.720   4.229
 1409SOL     OW 4354   8.250   1.221   2.794
 1409SOL    HW1 4355   8.283   1.132   2.790
 1409SOL    HW2 4356   8.310   1.271   2.738
 1410SOL     OW 4357   7.312   3.495   4.626
 1410SOL    HW1 4358   7.253   3.422   4.648
 1410SOL    HW2 4359   7.266   3.543   4.557
 1411SOL     OW 4360   3.457   5.228   2.691
 1411SOL    HW1 4361   3.369   5.229   2.730
 1411SOL    HW2 4362   3.508   5.175   2.751
 1412SOL     OW 4363   5.085   4.798   3.305
 1412SOL    HW1 4364   5.177   4.823   3.292
 1412SOL    HW2 4365   5.036   4.858   3.249
 1413SOL     OW 4366   9.138   2.837   5.095
 1413SOL    HW1 4367   9.046   2.856   5.073
 1413SOL    HW2 4368   9.139   2.743   5.114
 1414SOL     OW 4369   7.908   6.871   1.742
 1414SOL    HW1 4370   7.837   6.825   1.697
 1414SOL    HW2 4371   7.987   6.826   1.715
 1415SOL     OW 4372   6.308   3.286   0.226
 1415SOL    HW1 4373   6.312   3.226   0.301
 1415SOL    HW2 4374   6.225   3.265   0.183
 1416SOL     OW 4375   7.124   3.948   4.475
 1416SOL    HW1 4376   7.038   3.960   4.437
 1416SOL    HW2 4377   7.132   3.854   4.489
 1417SOL     OW 4378   7.262   5.899   3.004
 1417SOL    HW1 4379   7.295   5.813   2.976
 1417SOL    HW2 4380   7.248   5.947   2.923
 1418SOL     OW 4381   2.989   1.654   0.488
 1418SOL    HW1 4382   3.055   1.695   0.431
 1418SOL    HW2 4383   2.953   1.583   0.435
 1419SOL     OW 4384   9.335   2.695   3.662
 1419SOL    HW1 4385   9.378   2.655   3.737
 1419SOL    HW2 4386   9.275   2.627   3.629
 1420SOL     OW 4387   8.176   1.963   4.377
 1420SOL    HW1 4388   8.171   1.911   4.457
 1420SOL    HW2 4389   8.085   1.977   4.351
 1421SOL     OW 4390  10.041   3.750   4.184
 1421SOL    HW1 4391   9.991   3.829   4.200
 1421SOL    HW2 4392  10.122   3.780   4.142
 1422SOL     OW 4393   2.761   4.153   3.003
 1422SOL    HW1 4394   2.681   4.187   3.042
 1422SOL    HW2 4395   2.809   4.114   3.076
 1423SOL     OW 4396   3.852   5.390   0.189
 1423SOL    HW1 4397   3.912   5.371   0.261
 1423SOL    HW2 4398   3.800   5.310   0.180
 1424SOL     OW 4399   2.323   2.919   2.437
 1424SOL    HW1 4400   2.349   2.943   2.348
 1424SOL    HW2 4401   2.371   2.837   2.454
 1425SOL     OW 4402   4.184   4.544   0.070
 1425SOL    HW1 4403   4.189   4.593   0.153
 1425SOL    HW2 4404   4.217   4.457   0.092
 1426SOL     OW 4405   2.409   7.048   1.254
 1426SOL    HW1 4406   2.369   7.135   1.259
 1426SOL    HW2 4407   2.442   7.033   1.343
 1427SOL     OW 4408   5.511   2.014   0.846
 1427SOL    HW1 4409   5.537   2.044   0.933
 1427SOL    HW2 4410   5.463   1.933   0.863
 1428SOL     OW 4411   6.204   6.464   3.600
 1428SOL    HW1 4412   6.287   6.478   3.554
 1428SOL    HW2 4413   6.141   6.446   3.530
 1429SOL     OW 4414   2.162   0.664   2.821
 1429SOL    HW1 4415   2.215   0.654   2.900
 1429SOL    HW2 4416   2.099   0.733   2.843
 1430SOL     OW 4417   3.902   6.759   3.192
 1430SOL    HW1 4418   3.930   6.803   3.112
 1430SOL    HW2 4419   3.812   6.788   3.205
 1431SOL     OW 4420   2.846   1.251   1.687
 1431SOL    HW1 4421   2.821   1.159   1.687
 1431SOL    HW2 4422   2.941   1.250   1.672
 1432SOL     OW 4423   9.217   1.368   4.191
 1432SOL    HW1 4424   9.230   1.285   4.146
 1432SOL    HW2 4425   9.300   1.415   4.179
 1433SOL     OW 4426   8.997   5.122   4.492
 1433SOL    HW1 4427   8.956   5.036   4.483
 1433SOL    HW2 4428   8.988   5.144   4.584
 1434SOL     OW 4429   3.581   1.994   4.290
 1434SOL    HW1 4430   3.569   2.040   4.373
 1434SOL    HW2 4431   3.644   1.925   4.309
 1435SOL     OW 4432   4.509   0.630   3.754
 1435SOL    HW1 4433   4.577   0.571   3.786
 1435SOL    HW2 4434   4.427   0.589   3.782
 1436SOL     OW 4435   6.764   5.322   1.501
 1436SOL    HW1 4436   6.703   5.348   1.570
 1436SOL    HW2 4437   6.746   5.382   1.428
 1437SOL     OW 4438   3.781   3.129   3.925
 1437SOL    HW1 4439   3.692   3.165   3.929
 1437SOL    HW2 4440   3.769   3.037   3.901
 1438SOL     OW 4441   1.784   2.068   1.310
 1438SOL    HW1 4442   1.773   2.155   1.271
 1438SOL    HW2 4443   1.704   2.021   1.287
 1439SOL     OW 4444   5.697   0.358   1.633
 1439SOL    HW1 4445   5.749   0.367   1.554
 1439SOL    HW2 4446   5.606   0.354   1.602
 1440SOL     OW 4447   7.856   3.136   1.349
 1440SOL    HW1 4448   7.889   3.203   1.289
 1440SOL    HW2 4449   7.830   3.064   1.291
 1441SOL     OW 4450   3.458   2.896   1.786
 1441SOL    HW1 4451   3.523   2.874   1.852
 1441SOL    HW2 4452   3.495   2.971   1.739
 1442SOL     OW 4453   7.068   5.630   2.705
 1442SOL    HW1 4454   7.008   5.572   2.752
 1442SOL    HW2 4455   7.041   5.718   2.729
 1443SOL     OW 4456   6.463   7.125   5.181
 1443SOL    HW1 4457   6.377   7.165   5.193
 1443SOL    HW2 4458   6.444   7.032   5.164
 1444SOL     OW 4459   2.096   5.055   1.773
 1444SOL    HW1 4460   2.141   4.970   1.778
 1444SOL    HW2 4461   2.059   5.057   1.685
 1445SOL     OW 4462   3.979   6.476   2.134
 1445SOL    HW1 4463   3.979   6.504   2.226
 1445SOL    HW2 4464   4.028   6.545   2.088
 1446SOL     OW 4465   3.679   4.119   3.772
 1446SOL    HW1 4466   3.625   4.194   3.796
 1446SOL    HW2 4467   3.616   4.055   3.738
 1447SOL     OW 4468   2.143   1.223   1.922
 1447SOL    HW1 4469   2.193   1.144   1.943
 1447SOL    HW2 4470   2.207   1.293   1.927
 1448SOL     OW 4471   6.380   7.341   2.223
 1448SOL    HW1 4472   6.435   7.300   2.157
 1448SOL    HW2 4473   6.439   7.396   2.273
 1449SOL     OW 4474   9.935   0.510   4.897
 1449SOL    HW1 4475   9.892   0.500   4.982
 1449SOL    HW2 4476  10.026   0.531   4.919
 1450SOL     OW 4477   6.007   3.959   2.384
 1450SOL    HW1 4478   6.026   3.996   2.298
 1450SOL    HW2 4479   5.941   4.017   2.422
 1451SOL     OW 4480   6.293   5.097   2.371
 1451SOL    HW1 4481   6.224   5.106   2.305
 1451SOL    HW2 4482   6.252   5.050   2.443
 1452SOL     OW 4483   2.134   4.485   2.968
 1452SOL    HW1 4484   2.216   4.454   2.930
 1452SOL    HW2 4485   2.154   4.573   3.000
 1453SOL     OW 4486   4.335   5.424   1.859
 1453SOL    HW1 4487   4.244   5.434   1.887
 1453SOL    HW2 4488   4.367   5.350   1.911
 1454SOL     OW 4489   4.255   1.047   2.007
 1454SOL    HW1 4490   4.295   1.032   1.922
 1454SOL    HW2 4491   4.264   1.141   2.021
 1455SOL     OW 4492   3.060   4.977   0.236
 1455SOL    HW1 4493   3.100   5.041   0.295
 1455SOL    HW2 4494   2.970   4.968   0.268
 1456SOL     OW 4495   0.946   5.352   0.777
 1456SOL    HW1 4496   0.951   5.264   0.815
 1456SOL    HW2 4497   1.026   5.361   0.726
 1457SOL     OW 4498   6.183   5.355   0.762
 1457SOL    HW1 4499   6.202   5.340   0.669
 1457SOL    HW2 4500   6.236   5.431   0.785
 1458SOL     OW 4501   3.637   2.196   1.006
 1458SOL    HW1 4502   3.634   2.151   0.922
 1458SOL    HW2 4503   3.550   2.236   1.014
 1459SOL     OW 4504   5.179   1.760   4.447
 1459SOL    HW1 4505   5.172   1.836   4.506
 1459SOL    HW2 4506   5.106   1.704   4.473
 1460SOL     OW 4507   5.655   3.140   2.074
 1460SOL    HW1 4508   5.615   3.100   2.151
 1460SOL    HW2 4509   5.707   3.069   2.035
 1461SOL     OW 4510   2.479   3.909   2.772
 1461SOL    HW1 4511   2.412   3.901   2.704
 1461SOL    HW2 4512   2.429   3.924   2.852
 1462SOL     OW 4513   2.735   1.564   2.237
 1462SOL    HW1 4514   2.728   1.626   2.309
 1462SOL    HW2 4515   2.679   1.601   2.168
 1463SOL     OW 4516   3.057   1.847   1.702
 1463SOL    HW1 4517   2.980   1.903   1.696
 1463SOL    HW2 4518   3.077   1.823   1.611
 1464SOL     OW 4519   4.865   3.005   3.487
 1464SOL    HW1 4520   4.957   2.985   3.471
 1464SOL    HW2 4521   4.824   2.998   3.401
 1465SOL     OW 4522   4.144   0.165   0.995
 1465SOL    HW1 4523   4.103   0.227   0.935
 1465SOL    HW2 4524   4.078   0.097   1.008
 1466SOL     OW 4525   2.693   6.507   2.353
 1466SOL    HW1 4526   2.715   6.590   2.309
 1466SOL    HW2 4527   2.775   6.481   2.395
 1467SOL     OW 4528   8.051   4.254   4.390
 1467SOL    HW1 4529   7.981   4.189   4.380
 1467SOL    HW2 4530   8.111   4.236   4.318
 1468SOL     OW 4531   4.092   4.423   2.389
 1468SOL    HW1 4532   3.999   4.446   2.385
 1468SOL    HW2 4533   4.116   4.406   2.298
 1469SOL     OW 4534   9.033   2.252   3.761
 1469SOL    HW1 4535   8.990   2.306   3.828
 1469SOL    HW2 4536   9.098   2.201   3.810
 1470SOL     OW 4537   7.586   0.713   0.439
 1470SOL    HW1 4538   7.639   0.793   0.431
 1470SOL    HW2 4539   7.539   0.724   0.522
 1471SOL     OW 4540   2.684   4.744   3.580
 1471SOL    HW1 4541   2.777   4.741   3.557
 1471SOL    HW2 4542   2.676   4.822   3.635
 1472SOL     OW 4543   2.011   2.383   1.816
 1472SOL    HW1 4544   1.996   2.289   1.817
 1472SOL    HW2 4545   2.063   2.400   1.895
 1473SOL     OW 4546  10.806   6.597   5.192
 1473SOL    HW1 4547  10.745   6.668   5.210
 1473SOL    HW2 4548  10.835   6.568   5.278
 1474SOL     OW 4549   6.945   2.825   2.678
 1474SOL    HW1 4550   7.005   2.822   2.604
 1474SOL    HW2 4551   6.871   2.770   2.651
 1475SOL     OW 4552   4.958   5.572   3.854
 1475SOL    HW1 4553   4.879   5.518   3.844
 1475SOL    HW2 4554   4.943   5.619   3.937
 1476SOL     OW 4555   6.097   6.322   4.994
 1476SOL    HW1 4556   6.131   6.234   4.975
 1476SOL    HW2 4557   6.149   6.380   4.940
 1477SOL     OW 4558   7.423   0.883   1.036
 1477SOL    HW1 4559   7.455   0.795   1.059
 1477SOL    HW2 4560   7.498   0.940   1.052
 1478SOL     OW 4561   8.174   5.815   1.554
 1478SOL    HW1 4562   8.209   5.748   1.496
 1478SOL    HW2 4563   8.090   5.839   1.516
 1479SOL     OW 4564   3.805   2.713   3.765
 1479SOL    HW1 4565   3.721   2.742   3.800
 1479SOL    HW2 4566   3.824   2.775   3.694
 1480SOL     OW 4567   8.102   6.935   4.656
 1480SOL    HW1 4568   8.189   6.902   4.633
 1480SOL    HW2 4569   8.097   7.020   4.614
 1481SOL     OW 4570   7.942   6.427   3.161
 1481SOL    HW1 4571   7.937   6.391   3.073
 1481SOL    HW2 4572   7.919   6.353   3.218
 1482SOL     OW 4573   5.914   4.598   3.309
 1482SOL    HW1 4574   5.830   4.564   3.276
 1482SOL    HW2 4575   5.912   4.578   3.403
 1483SOL     OW 4576   4.252   0.501   4.808
 1483SOL    HW1 4577   4.239   0.534   4.719
 1483SOL    HW2 4578   4.203   0.561   4.863
 1484SOL     OW 4579  10.233   1.207   4.423
 1484SOL    HW1 4580  10.293   1.221   4.350
 1484SOL    HW2 4581  10.284   1.227   4.501
 1485SOL     OW 4582   6.802   7.160   3.227
 1485SOL    HW1 4583   6.723   7.207   3.198
 1485SOL    HW2 4584   6.830   7.111   3.150
 1486SOL     OW 4585   5.644   5.890   4.462
 1486SOL    HW1 4586   5.605   5.822   4.407
 1486SOL    HW2 4587   5.657   5.848   4.547
 1487SOL     OW 4588   8.408   3.186   3.364
 1487SOL    HW1 4589   8.348   3.116   3.389
 1487SOL    HW2 4590   8.491   3.163   3.408
 1488SOL     OW 4591   6.737   2.104   4.436
 1488SOL    HW1 4592   6.782   2.023   4.460
 1488SOL    HW2 4593   6.793   2.144   4.370
 1489SOL     OW 4594   6.305   4.841   0.563
 1489SOL    HW1 4595   6.395   4.822   0.536
 1489SOL    HW2 4596   6.311   4.855   0.657
 1490SOL     OW 4597  10.435   7.311   4.731
 1490SOL    HW1 4598  10.426   7.242   4.797
 1490SOL    HW2 4599  10.530   7.320   4.719
 1491SOL     OW 4600   2.572   6.045   1.511
 1491SOL    HW1 4601   2.512   5.972   1.523
 1491SOL    HW2 4602   2.640   6.012   1.452
 1492SOL     OW 4603   6.585   2.251   4.058
 1492SOL    HW1 4604   6.575   2.165   4.097
 1492SOL    HW2 4605   6.500   2.270   4.019
 1493SOL     OW 4606   4.701   6.059   5.133
 1493SOL    HW1 4607   4.635   6.125   5.157
 1493SOL    HW2 4608   4.735   6.027   5.216
 1494SOL     OW 4609   3.398   5.981   1.661
 1494SOL    HW1 4610   3.380   6.051   1.597
 1494SOL    HW2 4611   3.484   5.948   1.636
 1495SOL     OW 4612   2.562   0.327   1.321
 1495SOL    HW1 4613   2.655   0.310   1.338
 1495SOL    HW2 4614   2.557   0.422   1.309
 1496SOL     OW 4615   6.509   4.136   4.493
 1496SOL    HW1 4616   6.590   4.102   4.529
 1496SOL    HW2 4617   6.445   4.065   4.503
 1497SOL     OW 4618   2.878   6.438   2.762
 1497SOL    HW1 4619   2.809   6.413   2.700
 1497SOL    HW2 4620   2.832   6.455   2.844
 1498SOL     OW 4621   3.310   1.013   3.285
 1498SOL    HW1 4622   3.250   1.009   3.211
 1498SOL    HW2 4623   3.397   1.011   3.246
 1499SOL     OW 4624   6.827   7.209   0.738
 1499SOL    HW1 4625   6.767   7.136   0.753
 1499SOL    HW2 4626   6.772   7.287   0.743
 1500SOL     OW 4627   2.444   4.444   1.979
 1500SOL    HW1 4628   2.442   4.534   1.948
 1500SOL    HW2 4629   2.483   4.395   1.907
 1501SOL     OW 4630   5.821   3.657   1.836
 1501SOL    HW1 4631   5.761   3.691   1.770
 1501SOL    HW2 4632   5.829   3.564   1.814
 1502SOL     OW 4633   0.637   2.270   0.504
 1502SOL    HW1 4634   0.635   2.241   0.596
 1502SOL    HW2 4635   0.730   2.269   0.481
 1503SOL     OW 4636   6.935   4.185   4.736
 1503SOL    HW1 4637   6.906   4.274   4.721
 1503SOL    HW2 4638   6.860   4.141   4.777
 1504SOL     OW 4639   4.447   3.787   3.159
 1504SOL    HW1 4640   4.478   3.785   3.250
 1504SOL    HW2 4641   4.355   3.814   3.166
 1505SOL     OW 4642   0.385   3.369   0.017
 1505SOL    HW1 4643   0.363   3.320  -0.062
 1505SOL    HW2 4644   0.407   3.302   0.081
 1506SOL     OW 4645   2.382   5.269   1.931
 1506SOL    HW1 4646   2.383   5.192   1.988
 1506SOL    HW2 4647   2.297   5.310   1.946
 1507SOL     OW 4648   0.893   7.379   0.230
 1507SOL    HW1 4649   0.962   7.319   0.199
 1507SOL    HW2 4650   0.928   7.414   0.312
 1508SOL     OW 4651   1.899   4.526   2.498
 1508SOL    HW1 4652   1.938   4.578   2.569
 1508SOL    HW2 4653   1.807   4.553   2.497
 1509SOL     OW 4654   7.875   4.855   2.289
 1509SOL    HW1 4655   7.811   4.836   2.220
 1509SOL    HW2 4656   7.956   4.816   2.258
 1510SOL     OW 4657  10.442   5.868   4.409
 1510SOL    HW1 4658  10.476   5.869   4.498
 1510SOL    HW2 4659  10.382   5.943   4.405
 1511SOL     OW 4660   7.724   2.482   4.668
 1511SOL    HW1 4661   7.788   2.508   4.735
 1511SOL    HW2 4662   7.684   2.402   4.703
 1512SOL     OW 4663   4.442   2.689   2.413
 1512SOL    HW1 4664   4.471   2.756   2.475
 1512SOL    HW2 4665   4.468   2.724   2.327
 1513SOL     OW 4666   9.410   6.532   3.733
 1513SOL    HW1 4667   9.358   6.584   3.795
 1513SOL    HW2 4668   9.363   6.540   3.650
 1514SOL     OW 4669   3.022   1.653   2.226
 1514SOL    HW1 4670   2.955   1.718   2.246
 1514SOL    HW2 4671   2.979   1.568   2.240
 1515SOL     OW 4672   4.027   4.895   2.892
 1515SOL    HW1 4673   3.968   4.821   2.909
 1515SOL    HW2 4674   3.970   4.972   2.896
 1516SOL     OW 4675   1.746   2.340   2.441
 1516SOL    HW1 4676   1.823   2.360   2.494
 1516SOL    HW2 4677   1.727   2.248   2.461
 1517SOL     OW 4678   7.056   7.263   2.653
 1517SOL    HW1 4679   7.062   7.355   2.677
 1517SOL    HW2 4680   6.964   7.249   2.631
 1518SOL     OW 4681   3.816   4.715   3.658
 1518SOL    HW1 4682   3.894   4.752   3.701
 1518SOL    HW2 4683   3.772   4.791   3.620
 1519SOL     OW 4684   6.277   4.638   1.696
 1519SOL    HW1 4685   6.186   4.626   1.666
 1519SOL    HW2 4686   6.323   4.674   1.620
 1520SOL     OW 4687  10.191   0.463   4.307
 1520SOL    HW1 4688  10.239   0.471   4.225
 1520SOL    HW2 4689  10.254   0.489   4.374
 1521SOL     OW 4690   8.571   4.637   3.823
 1521SOL    HW1 4691   8.587   4.672   3.911
 1521SOL    HW2 4692   8.575   4.542   3.834
 1522SOL     OW 4693   4.639   0.964   1.169
 1522SOL    HW1 4694   4.571   0.954   1.101
 1522SOL    HW2 4695   4.618   1.047   1.212
 1523SOL     OW 4696   1.957   5.299   1.178
 1523SOL    HW1 4697   1.926   5.214   1.211
 1523SOL    HW2 4698   1.984   5.346   1.257
 1524SOL     OW 4699   4.012   6.978   5.058
 1524SOL    HW1 4700   3.949   6.975   4.986
 1524SOL    HW2 4701   3.977   6.918   5.123
 1525SOL     OW 4702   8.724   0.698   5.151
 1525SOL    HW1 4703   8.724   0.717   5.245
 1525SOL    HW2 4704   8.690   0.609   5.145
 1526SOL     OW 4705   2.396   6.185   1.298
 1526SOL    HW1 4706   2.469   6.183   1.360
 1526SOL    HW2 4707   2.411   6.264   1.246
 1527SOL     OW 4708   7.180   3.599   4.399
 1527SOL    HW1 4709   7.102   3.543   4.408
 1527SOL    HW2 4710   7.167   3.646   4.317
 1528SOL     OW 4711   8.729   4.971   3.773
 1528SOL    HW1 4712   8.660   4.956   3.709
 1528SOL    HW2 4713   8.810   4.953   3.725
 1529SOL     OW 4714  10.276   5.715   4.213
 1529SOL    HW1 4715  10.197   5.688   4.259
 1529SOL    HW2 4716  10.309   5.789   4.264
 1530SOL     OW 4717   4.854   5.974   2.442
 1530SOL    HW1 4718   4.851   5.894   2.495
 1530SOL    HW2 4719   4.771   6.017   2.459
 1531SOL     OW 4720   2.654   6.588   0.133
 1531SOL    HW1 4721   2.590   6.613   0.199
 1531SOL    HW2 4722   2.704   6.517   0.174
 1532SOL     OW 4723   3.951   4.014   3.308
 1532SOL    HW1 4724   3.867   4.012   3.353
 1532SOL    HW2 4725   4.014   4.042   3.374
 1533SOL     OW 4726   7.955   3.481   4.659
 1533SOL    HW1 4727   7.888   3.496   4.593
 1533SOL    HW2 4728   8.037   3.505   4.615
 1534SOL     OW 4729   4.372   6.334   0.639
 1534SOL    HW1 4730   4.463   6.342   0.669
 1534SOL    HW2 4731   4.329   6.283   0.708
 1535SOL     OW 4732   8.407   3.665   5.272
 1535SOL    HW1 4733   8.482   3.715   5.302
 1535SOL    HW2 4734   8.374   3.714   5.196
 1536SOL     OW 4735   3.893   0.154   1.169
 1536SOL    HW1 4736   3.843   0.230   1.200
 1536SOL    HW2 4737   3.974   0.191   1.135
 1537SOL     OW 4738   6.050   0.278   1.620
 1537SOL    HW1 4739   6.085   0.196   1.655
 1537SOL    HW2 4740   5.968   0.253   1.578
 1538SOL     OW 4741   2.021   4.658   0.873
 1538SOL    HW1 4742   2.103   4.608   0.872
 1538SOL    HW2 4743   2.008   4.682   0.781
 1539SOL     OW 4744   6.844   2.036   3.800
 1539SOL    HW1 4745   6.788   2.109   3.824
 1539SOL    HW2 4746   6.927   2.053   3.846
 1540SOL     OW 4747   6.071   5.775   0.819
 1540SOL    HW1 4748   6.043   5.688   0.790
 1540SOL    HW2 4749   6.009   5.800   0.887
 1541SOL     OW 4750   7.547   6.119   0.197
 1541SOL    HW1 4751   7.495   6.060   0.144
 1541SOL    HW2 4752   7.564   6.071   0.278
 1542SOL     OW 4753   2.291   1.985   1.492
 1542SOL    HW1 4754   2.292   2.080   1.497
 1542SOL    HW2 4755   2.199   1.962   1.487
 1543SOL     OW 4756   8.556   4.878   2.349
 1543SOL    HW1 4757   8.484   4.941   2.341
 1543SOL    HW2 4758   8.598   4.878   2.263
 1544SOL     OW 4759   5.663   7.372   1.427
 1544SOL    HW1 4760   5.585   7.426   1.417
 1544SOL    HW2 4761   5.632   7.292   1.468
 1545SOL     OW 4762   4.283   6.737   2.584
 1545SOL    HW1 4763   4.359   6.784   2.552
 1545SOL    HW2 4764   4.267   6.773   2.671
 1546SOL     OW 4765  10.967   3.427   4.970
 1546SOL    HW1 4766  11.045   3.374   4.985
 1546SOL    HW2 4767  10.948   3.465   5.056
 1547SOL     OW 4768   2.469   3.022   2.229
 1547SOL    HW1 4769   2.453   3.088   2.296
 1547SOL    HW2 4770   2.532   3.063   2.170
 1548SOL     OW 4771   2.981   7.133   0.430
 1548SOL    HW1 4772   3.020   7.180   0.504
 1548SOL    HW2 4773   3.000   7.188   0.354
 1549SOL     OW 4774   5.632   2.064   3.149
 1549SOL    HW1 4775   5.540   2.075   3.125
 1549SOL    HW2 4776   5.664   2.153   3.163
 1550SOL     OW 4777   9.487   3.726   3.914
 1550SOL    HW1 4778   9.470   3.689   4.001
 1550SOL    HW2 4779   9.561   3.675   3.881
 1551SOL     OW 4780   9.872   6.481   4.766
 1551SOL    HW1 4781   9.922   6.441   4.837
 1551SOL    HW2 4782   9.932   6.479   4.691
 1552SOL     OW 4783   4.289   2.636   4.776
 1552SOL    HW1 4784   4.217   2.625   4.715
 1552SOL    HW2 4785   4.282   2.727   4.805
 1553SOL     OW 4786   3.183   5.067   1.487
 1553SOL    HW1 4787   3.217   5.084   1.575
 1553SOL    HW2 4788   3.228   4.987   1.459
 1554SOL     OW 4789   2.679   6.743   2.916
 1554SOL    HW1 4790   2.643   6.766   2.830
 1554SOL    HW2 4791   2.638   6.805   2.976
 1555SOL     OW 4792   7.780   5.083   1.752
 1555SOL    HW1 4793   7.691   5.059   1.776
 1555SOL    HW2 4794   7.803   5.154   1.813
 1556SOL     OW 4795   6.495   7.453   2.747
 1556SOL    HW1 4796   6.440   7.375   2.752
 1556SOL    HW2 4797   6.573   7.425   2.700
 1557SOL     OW 4798   5.222   5.556   4.227
 1557SOL    HW1 4799   5.272   5.626   4.270
 1557SOL    HW2 4800   5.188   5.596   4.147
 1558SOL     OW 4801   1.023   6.135   0.282
 1558SOL    HW1 4802   1.076   6.212   0.262
 1558SOL    HW2 4803   1.050   6.071   0.217
 1559SOL     OW 4804   5.290   2.689   1.019
 1559SOL    HW1 4805   5.213   2.695   1.076
 1559SOL    HW2 4806   5.254   2.678   0.931
 1560SOL     OW 4807   6.084   6.626   1.257
 1560SOL    HW1 4808   6.090   6.532   1.274
 1560SOL    HW2 4809   6.086   6.633   1.161
 1561SOL     OW 4810   5.125   4.153   1.425
 1561SOL    HW1 4811   5.083   4.125   1.343
 1561SOL    HW2 4812   5.054   4.149   1.490
 1562SOL     OW 4813   0.733   4.936   0.112
 1562SOL    HW1 4814   0.804   4.987   0.151
 1562SOL    HW2 4815   0.696   4.994   0.045
 1563SOL     OW 4816   4.994   1.975   0.392
 1563SOL    HW1 4817   4.941   1.899   0.366
 1563SOL    HW2 4818   4.933   2.049   0.385
 1564SOL     OW 4819   3.127   2.084   1.910
 1564SOL    HW1 4820   3.141   2.006   1.964
 1564SOL    HW2 4821   3.185   2.071   1.835
 1565SOL     OW 4822   3.235   0.184   2.225
 1565SOL    HW1 4823   3.249   0.253   2.289
 1565SOL    HW2 4824   3.263   0.104   2.269
 1566SOL     OW 4825   5.370   3.738   2.900
 1566SOL    HW1 4826   5.330   3.782   2.975
 1566SOL    HW2 4827   5.356   3.798   2.827
 1567SOL     OW 4828   6.936   5.760   0.572
 1567SOL    HW1 4829   6.981   5.840   0.547
 1567SOL    HW2 4830   6.972   5.738   0.658
 1568SOL     OW 4831   4.684   2.482   3.058
 1568SOL    HW1 4832   4.697   2.452   3.149
 1568SOL    HW2 4833   4.645   2.407   3.014
 1569SOL     OW 4834   6.734   0.500   4.941
 1569SOL    HW1 4835   6.747   0.567   4.874
 1569SOL    HW2 4836   6.754   0.544   5.023
 1570SOL     OW 4837   8.348   1.429   3.103
 1570SOL    HW1 4838   8.317   1.340   3.117
 1570SOL    HW2 4839   8.382   1.430   3.014
 1571SOL     OW 4840   7.408   1.884   3.262
 1571SOL    HW1 4841   7.340   1.825   3.295
 1571SOL    HW2 4842   7.403   1.961   3.319
 1572SOL     OW 4843   6.156   2.860   1.107
 1572SOL    HW1 4844   6.245   2.892   1.091
 1572SOL    HW2 4845   6.122   2.839   1.020
 1573SOL     OW 4846   7.434   5.225   0.923
 1573SOL    HW1 4847   7.451   5.141   0.880
 1573SOL    HW2 4848   7.380   5.203   0.998
 1574SOL     OW 4849   9.199   0.261   3.648
 1574SOL    HW1 4850   9.186   0.262   3.743
 1574SOL    HW2 4851   9.130   0.204   3.616
 1575SOL     OW 4852   8.372   7.217   3.760
 1575SOL    HW1 4853   8.322   7.167   3.825
 1575SOL    HW2 4854   8.370   7.162   3.682
 1576SOL     OW 4855   2.933   6.883   0.775
 1576SOL    HW1 4856   2.986   6.841   0.842
 1576SOL    HW2 4857   2.994   6.939   0.728
 1577SOL     OW 4858   8.328   6.833   4.513
 1577SOL    HW1 4859   8.325   6.885   4.432
 1577SOL    HW2 4860   8.392   6.878   4.568
 1578SOL     OW 4861   6.321   2.499   4.641
 1578SOL    HW1 4862   6.396   2.525   4.588
 1578SOL    HW2 4863   6.247   2.547   4.603
 1579SOL     OW 4864   3.366   2.637   2.657
 1579SOL    HW1 4865   3.406   2.717   2.625
 1579SOL    HW2 4866   3.434   2.570   2.647
 1580SOL     OW 4867   4.775   4.580   5.115
 1580SOL    HW1 4868   4.816   4.502   5.154
 1580SOL    HW2 4869   4.794   4.573   5.022
 1581SOL     OW 4870   4.995   3.484   1.218
 1581SOL    HW1 4871   5.062   3.546   1.248
 1581SOL    HW2 4872   5.039   3.399   1.219
 1582SOL     OW 4873   3.785   2.385   0.789
 1582SOL    HW1 4874   3.776   2.301   0.744
 1582SOL    HW2 4875   3.697   2.406   0.818
 1583SOL     OW 4876   2.399   6.027   2.564
 1583SOL    HW1 4877   2.374   6.020   2.472
 1583SOL    HW2 4878   2.482   6.076   2.563
 1584SOL     OW 4879   8.338   1.974   4.966
 1584SOL    HW1 4880   8.394   1.901   4.992
 1584SOL    HW2 4881   8.395   2.031   4.914
 1585SOL     OW 4882   5.983   2.575   5.207
 1585SOL    HW1 4883   5.928   2.500   5.231
 1585SOL    HW2 4884   5.977   2.634   5.282
 1586SOL     OW 4885   3.545   1.249   3.891
 1586SOL    HW1 4886   3.558   1.154   3.897
 1586SOL    HW2 4887   3.450   1.260   3.888
 1587SOL     OW 4888   2.697   4.900   3.152
 1587SOL    HW1 4889   2.669   4.882   3.062
 1587SOL    HW2 4890   2.721   4.814   3.187
 1588SOL     OW 4891   1.931   7.078   1.343
 1588SOL    HW1 4892   1.946   7.104   1.252
 1588SOL    HW2 4893   1.891   6.992   1.337
 1589SOL     OW 4894   5.145   2.075   1.350
 1589SOL    HW1 4895   5.151   2.145   1.415
 1589SOL    HW2 4896   5.133   2.120   1.267
 1590SOL     OW 4897   3.573   4.072   3.509
 1590SOL    HW1 4898   3.487   4.076   3.468
 1590SOL    HW2 4899   3.591   4.163   3.535
 1591SOL     OW 4900   1.931   2.373   0.399
 1591SOL    HW1 4901   1.909   2.451   0.349
 1591SOL    HW2 4902   1.944   2.305   0.332
 1592SOL     OW 4903   7.662   0.287   4.605
 1592SOL    HW1 4904   7.672   0.372   4.649
 1592SOL    HW2 4905   7.572   0.288   4.572
 1593SOL     OW 4906   9.146   0.967   5.198
 1593SOL    HW1 4907   9.079   0.909   5.162
 1593SOL    HW2 4908   9.216   0.966   5.133
 1594SOL     OW 4909   6.394   6.015   2.223
 1594SOL    HW1 4910   6.436   6.063   2.152
 1594SOL    HW2 4911   6.464   5.963   2.262
 1595SOL     OW 4912   9.711   3.911   4.694
 1595SOL    HW1 4913   9.755   3.995   4.706
 1595SOL    HW2 4914   9.782   3.847   4.691
 1596SOL     OW 4915   8.147   1.280   4.756
 1596SOL    HW1 4916   8.213   1.218   4.724
 1596SOL    HW2 4917   8.076   1.274   4.692
 1597SOL     OW 4918   1.924   6.807   2.761
 1597SOL    HW1 4919   1.960   6.883   2.716
 1597SOL    HW2 4920   1.995   6.775   2.816
 1598SOL     OW 4921   7.276   2.008   2.655
 1598SOL    HW1 4922   7.233   1.924   2.637
 1598SOL    HW2 4923   7.208   2.061   2.696
 1599SOL     OW 4924   7.743   1.919   1.461
 1599SOL    HW1 4925   7.673   1.967   1.505
 1599SOL    HW2 4926   7.761   1.845   1.519
 1600SOL     OW 4927   3.793   4.143   1.468
 1600SOL    HW1 4928   3.749   4.223   1.437
 1600SOL    HW2 4929   3.827   4.102   1.389
 1601SOL     OW 4930   5.837   4.584   1.927
 1601SOL    HW1 4931   5.829   4.541   2.012
 1601SOL    HW2 4932   5.877   4.518   1.871
 1602SOL     OW 4933  10.668   5.471   4.963
 1602SOL    HW1 4934  10.639   5.426   4.884
 1602SOL    HW2 4935  10.764   5.463   4.961
 1603SOL     OW 4936   8.859   0.240   4.558
 1603SOL    HW1 4937   8.859   0.334   4.580
 1603SOL    HW2 4938   8.902   0.236   4.473
 1604SOL     OW 4939   7.554   4.399   1.391
 1604SOL    HW1 4940   7.646   4.417   1.370
 1604SOL    HW2 4941   7.515   4.486   1.403
 1605SOL     OW 4942   6.859   4.340   0.828
 1605SOL    HW1 4943   6.922   4.312   0.761
 1605SOL    HW2 4944   6.891   4.426   0.856
 1606SOL     OW 4945   8.439   4.053   2.359
 1606SOL    HW1 4946   8.353   4.066   2.318
 1606SOL    HW2 4947   8.420   4.005   2.439
 1607SOL     OW 4948   6.586   4.785   3.542
 1607SOL    HW1 4949   6.497   4.755   3.525
 1607SOL    HW2 4950   6.640   4.734   3.482
 1608SOL     OW 4951   7.354   4.313   3.295
 1608SOL    HW1 4952   7.282   4.371   3.269
 1608SOL    HW2 4953   7.432   4.355   3.260
 1609SOL     OW 4954   2.667   4.156   1.353
 1609SOL    HW1 4955   2.696   4.066   1.365
 1609SOL    HW2 4956   2.697   4.179   1.265
 1610SOL     OW 4957   4.176   0.363   3.409
 1610SOL    HW1 4958   4.209   0.448   3.437
 1610SOL    HW2 4959   4.109   0.384   3.343
 1611SOL     OW 4960   2.652   3.128   3.212
 1611SOL    HW1 4961   2.612   3.168   3.134
 1611SOL    HW2 4962   2.619   3.179   3.285
 1612SOL     OW 4963   1.330   1.843   0.714
 1612SOL    HW1 4964   1.274   1.799   0.778
 1612SOL    HW2 4965   1.327   1.935   0.739
 1613SOL     OW 4966   8.025   5.931   2.282
 1613SOL    HW1 4967   7.939   5.966   2.306
 1613SOL    HW2 4968   8.050   5.875   2.355
 1614SOL     OW 4969   7.847   3.426   4.241
 1614SOL    HW1 4970   7.929   3.397   4.281
 1614SOL    HW2 4971   7.801   3.472   4.311
 1615SOL     OW 4972   4.941   4.561   4.906
 1615SOL    HW1 4973   5.009   4.502   4.939
 1615SOL    HW2 4974   4.989   4.631   4.862
 1616SOL     OW 4975   2.653   5.364   1.064
 1616SOL    HW1 4976   2.686   5.434   1.121
 1616SOL    HW2 4977   2.563   5.388   1.046
 1617SOL     OW 4978   7.336   0.339   1.229
 1617SOL    HW1 4979   7.375   0.338   1.141
 1617SOL    HW2 4980   7.411   0.341   1.288
 1618SOL     OW 4981   4.365   3.401   2.298
 1618SOL    HW1 4982   4.405   3.476   2.341
 1618SOL    HW2 4983   4.314   3.439   2.226
 1619SOL     OW 4984   3.526   5.455   0.338
 1619SOL    HW1 4985   3.555   5.546   0.343
 1619SOL    HW2 4986   3.593   5.406   0.386
 1620SOL     OW 4987   4.012   0.676   3.817
 1620SOL    HW1 4988   4.101   0.696   3.847
 1620SOL    HW2 4989   3.955   0.720   3.879
 1621SOL     OW 4990   6.303   0.231   1.991
 1621SOL    HW1 4991   6.240   0.196   2.055
 1621SOL    HW2 4992   6.287   0.326   1.992
 1622SOL     OW 4993   0.487   2.407   0.009
 1622SOL    HW1 4994   0.485   2.383   0.101
 1622SOL    HW2 4995   0.533   2.335  -0.034
 1623SOL     OW 4996   1.855   5.893   0.310
 1623SOL    HW1 4997   1.844   5.975   0.359
 1623SOL    HW2 4998   1.807   5.828   0.361
 1624SOL     OW 4999   2.880   0.712   0.785
 1624SOL    HW1 5000   2.912   0.773   0.852
 1624SOL    HW2 5001   2.959   0.678   0.743
 1625SOL     OW 5002   4.826   2.189   1.060
 1625SOL    HW1 5003   4.866   2.189   0.973
 1625SOL    HW2 5004   4.886   2.136   1.113
 1626SOL     OW 5005   7.468   5.672   4.040
 1626SOL    HW1 5006   7.448   5.742   4.103
 1626SOL    HW2 5007   7.480   5.594   4.095
 1627SOL     OW 5008   1.929   2.512   0.671
 1627SOL    HW1 5009   1.914   2.457   0.594
 1627SOL    HW2 5010   1.890   2.596   0.648
 1628SOL     OW 5011   1.897   3.998   2.019
 1628SOL    HW1 5012   1.972   3.978   2.076
 1628SOL    HW2 5013   1.851   3.915   2.010
 1629SOL     OW 5014   5.938   1.066   4.057
 1629SOL    HW1 5015   6.018   1.014   4.064
 1629SOL    HW2 5016   5.867   1.004   4.071
 1630SOL     OW 5017   4.942   0.514   2.357
 1630SOL    HW1 5018   4.930   0.451   2.286
 1630SOL    HW2 5019   4.968   0.462   2.433
 1631SOL     OW 5020   3.461   5.314   4.128
 1631SOL    HW1 5021   3.455   5.360   4.212
 1631SOL    HW2 5022   3.446   5.383   4.063
 1632SOL     OW 5023   5.328   0.022   1.510
 1632SOL    HW1 5024   5.259   0.086   1.495
 1632SOL    HW2 5025   5.361   0.043   1.598
 1633SOL     OW 5026   3.885   1.959   2.940
 1633SOL    HW1 5027   3.888   1.951   2.845
 1633SOL    HW2 5028   3.955   2.022   2.961
 1634SOL     OW 5029   7.786   1.582   4.878
 1634SOL    HW1 5030   7.723   1.627   4.822
 1634SOL    HW2 5031   7.864   1.638   4.876
 1635SOL     OW 5032   2.939   6.214   0.520
 1635SOL    HW1 5033   2.924   6.305   0.546
 1635SOL    HW2 5034   2.851   6.180   0.500
 1636SOL     OW 5035   3.190   0.273   4.199
 1636SOL    HW1 5036   3.094   0.269   4.197
 1636SOL    HW2 5037   3.214   0.212   4.269
 1637SOL     OW 5038   2.493   0.965   2.173
 1637SOL    HW1 5039   2.475   0.997   2.261
 1637SOL    HW2 5040   2.470   0.873   2.175
 1638SOL     OW 5041   7.879   1.598   1.995
 1638SOL    HW1 5042   7.900   1.691   2.006
 1638SOL    HW2 5043   7.816   1.596   1.923
 1639SOL     OW 5044   2.211   4.841   1.865
 1639SOL    HW1 5045   2.171   4.801   1.942
 1639SOL    HW2 5046   2.301   4.807   1.864
 1640SOL     OW 5047   8.398   3.911   3.641
 1640SOL    HW1 5048   8.416   3.977   3.575
 1640SOL    HW2 5049   8.478   3.906   3.693
 1641SOL     OW 5050   9.777   4.608   3.742
 1641SOL    HW1 5051   9.814   4.617   3.654
 1641SOL    HW2 5052   9.693   4.564   3.728
 1642SOL     OW 5053   1.324   0.937   1.363
 1642SOL    HW1 5054   1.317   0.901   1.452
 1642SOL    HW2 5055   1.235   0.931   1.328
 1643SOL     OW 5056   9.487   1.157   3.087
 1643SOL    HW1 5057   9.541   1.219   3.136
 1643SOL    HW2 5058   9.416   1.211   3.051
 1644SOL     OW 5059   5.019   3.072   3.011
 1644SOL    HW1 5060   5.030   3.038   2.922
 1644SOL    HW2 5061   5.051   3.162   3.005
 1645SOL     OW 5062   6.117   5.663   2.880
 1645SOL    HW1 5063   6.163   5.697   2.803
 1645SOL    HW2 5064   6.152   5.575   2.892
 1646SOL     OW 5065   6.817   3.690   1.620
 1646SOL    HW1 5066   6.769   3.693   1.537
 1646SOL    HW2 5067   6.751   3.667   1.685
 1647SOL     OW 5068   5.859   6.481   0.597
 1647SOL    HW1 5069   5.903   6.417   0.541
 1647SOL    HW2 5070   5.895   6.565   0.569
 1648SOL     OW 5071   0.997   0.875   1.314
 1648SOL    HW1 5072   1.067   0.870   1.249
 1648SOL    HW2 5073   0.916   0.864   1.265
 1649SOL     OW 5074   8.442   1.430   1.430
 1649SOL    HW1 5075   8.366   1.457   1.481
 1649SOL    HW2 5076   8.417   1.344   1.394
 1650SOL     OW 5077   8.750   3.309   3.770
 1650SOL    HW1 5078   8.658   3.284   3.783
 1650SOL    HW2 5079   8.799   3.243   3.819
 1651SOL     OW 5080   5.082   6.805   3.942
 1651SOL    HW1 5081   5.068   6.775   4.032
 1651SOL    HW2 5082   5.054   6.897   3.943
 1652SOL     OW 5083   8.508   1.293   3.302
 1652SOL    HW1 5084   8.554   1.354   3.244
 1652SOL    HW2 5085   8.446   1.347   3.350
 1653SOL     OW 5086   4.130   6.770   1.402
 1653SOL    HW1 5087   4.046   6.796   1.365
 1653SOL    HW2 5088   4.158   6.845   1.454
 1654SOL     OW 5089   9.883   6.840   4.770
 1654SOL    HW1 5090   9.847   6.756   4.798
 1654SOL    HW2 5091   9.857   6.902   4.839
 1655SOL     OW 5092   5.623   0.941   4.923
 1655SOL    HW1 5093   5.535   0.972   4.901
 1655SOL    HW2 5094   5.663   1.014   4.970
 1656SOL     OW 5095   4.182   7.299   4.280
 1656SOL    HW1 5096   4.198   7.239   4.208
 1656SOL    HW2 5097   4.269   7.326   4.309
 1657SOL     OW 5098   6.899   6.966   0.948
 1657SOL    HW1 5099   6.891   7.043   1.005
 1657SOL    HW2 5100   6.847   6.898   0.991
 1658SOL     OW 5101   5.378   7.060   3.899
 1658SOL    HW1 5102   5.426   6.977   3.897
 1658SOL    HW2 5103   5.288   7.035   3.921
 1659SOL     OW 5104   5.857   3.516   3.732
 1659SOL    HW1 5105   5.763   3.506   3.717
 1659SOL    HW2 5106   5.872   3.477   3.818
 1660SOL     OW 5107   6.958   2.276   4.357
 1660SOL    HW1 5108   7.039   2.324   4.375
 1660SOL    HW2 5109   6.900   2.340   4.318
 1661SOL     OW 5110   8.933   2.496   4.587
 1661SOL    HW1 5111   8.925   2.469   4.496
 1661SOL    HW2 5112   8.961   2.418   4.634
 1662SOL     OW 5113   6.158   0.959   4.880
 1662SOL    HW1 5114   6.217   0.977   4.807
 1662SOL    HW2 5115   6.177   1.028   4.944
 1663SOL     OW 5116   8.581   6.557   4.695
 1663SOL    HW1 5117   8.575   6.464   4.719
 1663SOL    HW2 5118   8.519   6.568   4.624
 1664SOL     OW 5119   6.336   6.823   1.605
 1664SOL    HW1 5120   6.358   6.889   1.539
 1664SOL    HW2 5121   6.393   6.749   1.584
 1665SOL     OW 5122   9.086   2.598   2.507
 1665SOL    HW1 5123   9.010   2.563   2.554
 1665SOL    HW2 5124   9.115   2.525   2.451
 1666SOL     OW 5125   5.229   1.949  -0.011
 1666SOL    HW1 5126   5.259   1.991   0.069
 1666SOL    HW2 5127   5.135   1.935   0.003
 1667SOL     OW 5128   8.006   5.025   0.991
 1667SOL    HW1 5129   7.948   5.085   0.945
 1667SOL    HW2 5130   7.957   4.999   1.070
 1668SOL     OW 5131   6.294   5.234   5.209
 1668SOL    HW1 5132   6.312   5.263   5.298
 1668SOL    HW2 5133   6.229   5.165   5.219
 1669SOL     OW 5134   8.830   3.460   4.875
 1669SOL    HW1 5135   8.813   3.533   4.816
 1669SOL    HW2 5136   8.915   3.479   4.914
 1670SOL     OW 5137   3.229   0.490   0.398
 1670SOL    HW1 5138   3.142   0.457   0.376
 1670SOL    HW2 5139   3.277   0.413   0.427
 1671SOL     OW 5140   8.701   5.970   4.563
 1671SOL    HW1 5141   8.680   5.884   4.525
 1671SOL    HW2 5142   8.632   6.028   4.530
 1672SOL     OW 5143   8.978   7.383   2.246
 1672SOL    HW1 5144   8.976   7.463   2.194
 1672SOL    HW2 5145   9.070   7.356   2.245
 1673SOL     OW 5146   3.207   4.615   2.647
 1673SOL    HW1 5147   3.296   4.581   2.644
 1673SOL    HW2 5148   3.161   4.569   2.577
 1674SOL     OW 5149   5.168   0.998   4.881
 1674SOL    HW1 5150   5.130   1.044   4.956
 1674SOL    HW2 5151   5.097   0.944   4.847
 1675SOL     OW 5152   9.273   0.580   3.804
 1675SOL    HW1 5153   9.297   0.531   3.726
 1675SOL    HW2 5154   9.203   0.638   3.776
 1676SOL     OW 5155   8.915   4.555   3.787
 1676SOL    HW1 5156   8.929   4.613   3.713
 1676SOL    HW2 5157   8.905   4.614   3.862
 1677SOL     OW 5158   5.540   6.846   0.977
 1677SOL    HW1 5159   5.474   6.784   1.008
 1677SOL    HW2 5160   5.624   6.801   0.990
 1678SOL     OW 5161   6.456   0.996   4.365
 1678SOL    HW1 5162   6.431   1.067   4.423
 1678SOL    HW2 5163   6.440   1.030   4.277
 1679SOL     OW 5164   3.580   7.058   2.032
 1679SOL    HW1 5165   3.642   7.130   2.019
 1679SOL    HW2 5166   3.546   7.071   2.120
 1680SOL     OW 5167   9.257   5.662   4.121
 1680SOL    HW1 5168   9.283   5.754   4.126
 1680SOL    HW2 5169   9.169   5.659   4.159
 1681SOL     OW 5170   7.940   6.324   1.873
 1681SOL    HW1 5171   7.866   6.365   1.917
 1681SOL    HW2 5172   7.904   6.244   1.834
 1682SOL     OW 5173   6.777   0.618   2.886
 1682SOL    HW1 5174   6.705   0.557   2.869
 1682SOL    HW2 5175   6.787   0.666   2.804
 1683SOL     OW 5176   6.718   5.431   1.789
 1683SOL    HW1 5177   6.788   5.481   1.831
 1683SOL    HW2 5178   6.655   5.497   1.761
 1684SOL     OW 5179   9.348   4.813   3.978
 1684SOL    HW1 5180   9.339   4.807   3.883
 1684SOL    HW2 5181   9.441   4.832   3.992
 1685SOL     OW 5182   4.402   6.040   1.215
 1685SOL    HW1 5183   4.388   6.134   1.205
 1685SOL    HW2 5184   4.486   6.033   1.260
 1686SOL     OW 5185   1.660   7.338   1.508
 1686SOL    HW1 5186   1.660   7.300   1.420
 1686SOL    HW2 5187   1.743   7.385   1.514
 1687SOL     OW 5188   4.559   6.508   2.118
 1687SOL    HW1 5189   4.488   6.458   2.080
 1687SOL    HW2 5190   4.633   6.447   2.121
 1688SOL     OW 5191   5.489   2.059   4.794
 1688SOL    HW1 5192   5.466   1.975   4.754
 1688SOL    HW2 5193   5.577   2.078   4.762
 1689SOL     OW 5194   8.146   0.635   5.140
 1689SOL    HW1 5195   8.147   0.728   5.119
 1689SOL    HW2 5196   8.206   0.626   5.214
 1690SOL     OW 5197   6.291   2.404   3.224
 1690SOL    HW1 5198   6.245   2.483   3.195
 1690SOL    HW2 5199   6.384   2.428   3.220
 1691SOL     OW 5200   2.725   1.686   3.073
 1691SOL    HW1 5201   2.791   1.623   3.103
 1691SOL    HW2 5202   2.762   1.772   3.096
 1692SOL     OW 5203   7.675   2.207   1.245
 1692SOL    HW1 5204   7.598   2.192   1.300
 1692SOL    HW2 5205   7.718   2.283   1.284
 1693SOL     OW 5206   4.829   5.722   0.122
 1693SOL    HW1 5207   4.797   5.772   0.197
 1693SOL    HW2 5208   4.751   5.701   0.071
 1694SOL     OW 5209   5.833   3.452   3.426
 1694SOL    HW1 5210   5.865   3.465   3.516
 1694SOL    HW2 5211   5.754   3.506   3.421
 1695SOL     OW 5212   8.057   5.601   3.204
 1695SOL    HW1 5213   7.978   5.561   3.239
 1695SOL    HW2 5214   8.114   5.526   3.183
 1696SOL     OW 5215   5.416   2.875   1.461
 1696SOL    HW1 5216   5.495   2.923   1.438
 1696SOL    HW2 5217   5.345   2.935   1.438
 1697SOL     OW 5218   3.633   5.200   1.356
 1697SOL    HW1 5219   3.670   5.113   1.343
 1697SOL    HW2 5220   3.616   5.232   1.267
 1698SOL     OW 5221   8.307   5.841   2.151
 1698SOL    HW1 5222   8.302   5.767   2.212
 1698SOL    HW2 5223   8.310   5.918   2.207
 1699SOL     OW 5224   1.904   6.224   1.208
 1699SOL    HW1 5225   1.818   6.213   1.248
 1699SOL    HW2 5226   1.890   6.205   1.115
 1700SOL     OW 5227   1.154   3.719   0.065
 1700SOL    HW1 5228   1.173   3.662   0.139
 1700SOL    HW2 5229   1.165   3.664  -0.013
 1701SOL     OW 5230   6.806   4.016   0.118
 1701SOL    HW1 5231   6.839   4.077   0.184
 1701SOL    HW2 5232   6.801   3.932   0.162
 1702SOL     OW 5233   3.354   4.035   3.065
 1702SOL    HW1 5234   3.333   4.126   3.047
 1702SOL    HW2 5235   3.446   4.036   3.092
 1703SOL     OW 5236   4.490   5.134   2.701
 1703SOL    HW1 5237   4.526   5.165   2.617
 1703SOL    HW2 5238   4.481   5.040   2.690
 1704SOL     OW 5239   1.732   4.948   1.863
 1704SOL    HW1 5240   1.756   5.035   1.830
 1704SOL    HW2 5241   1.649   4.928   1.820
 1705SOL     OW 5242   8.484   0.894   5.201
 1705SOL    HW1 5243   8.440   0.824   5.249
 1705SOL    HW2 5244   8.577   0.877   5.216
 1706SOL     OW 5245   2.207   3.357   0.751
 1706SOL    HW1 5246   2.237   3.436   0.795
 1706SOL    HW2 5247   2.130   3.329   0.802
 1707SOL     OW 5248   1.965   1.324   1.487
 1707SOL    HW1 5249   1.999   1.243   1.448
 1707SOL    HW2 5250   1.928   1.296   1.571
 1708SOL     OW 5251   5.250   7.338   4.271
 1708SOL    HW1 5252   5.325   7.298   4.315
 1708SOL    HW2 5253   5.280   7.356   4.182
 1709SOL     OW 5254   5.845   1.350   3.813
 1709SOL    HW1 5255   5.786   1.277   3.835
 1709SOL    HW2 5256   5.788   1.415   3.771
 1710SOL     OW 5257   2.821   1.024   0.284
 1710SOL    HW1 5258   2.781   1.086   0.344
 1710SOL    HW2 5259   2.907   1.005   0.323
 1711SOL     OW 5260   8.392   4.432   2.836
 1711SOL    HW1 5261   8.414   4.366   2.902
 1711SOL    HW2 5262   8.460   4.423   2.769
 1712SOL     OW 5263   1.439   3.773   0.130
 1712SOL    HW1 5264   1.419   3.779   0.224
 1712SOL    HW2 5265   1.354   3.770   0.088
 1713SOL     OW 5266   6.692   6.309   4.229
 1713SOL    HW1 5267   6.698   6.215   4.245
 1713SOL    HW2 5268   6.601   6.331   4.249
 1714SOL     OW 5269   3.012   6.774   1.779
 1714SOL    HW1 5270   3.098   6.734   1.772
 1714SOL    HW2 5271   2.992   6.773   1.873
 1715SOL     OW 5272   4.816   0.610   0.323
 1715SOL    HW1 5273   4.724   0.638   0.326
 1715SOL    HW2 5274   4.813   0.521   0.289
 1716SOL     OW 5275   2.866   5.237   3.014
 1716SOL    HW1 5276   2.942   5.292   3.028
 1716SOL    HW2 5277   2.862   5.180   3.091
 1717SOL     OW 5278   2.502   5.676   1.277
 1717SOL    HW1 5279   2.447   5.599   1.266
 1717SOL    HW2 5280   2.442   5.746   1.303
 1718SOL     OW 5281   6.909   1.929   1.932
 1718SOL    HW1 5282   6.816   1.908   1.924
 1718SOL    HW2 5283   6.951   1.883   1.860
 1719SOL     OW 5284   4.738   2.806   4.576
 1719SOL    HW1 5285   4.702   2.758   4.650
 1719SOL    HW2 5286   4.733   2.898   4.602
 1720SOL     OW 5287   5.121   3.299   3.271
 1720SOL    HW1 5288   5.153   3.389   3.272
 1720SOL    HW2 5289   5.057   3.296   3.200
 1721SOL     OW 5290   3.886   6.569   1.334
 1721SOL    HW1 5291   3.956   6.573   1.270
 1721SOL    HW2 5292   3.928   6.540   1.415
 1722SOL     OW 5293   7.534   5.776   1.944
 1722SOL    HW1 5294   7.513   5.847   2.004
 1722SOL    HW2 5295   7.474   5.705   1.969
 1723SOL     OW 5296   5.679   0.858   1.642
 1723SOL    HW1 5297   5.702   0.831   1.731
 1723SOL    HW2 5298   5.674   0.776   1.593
 1724SOL     OW 5299   1.309   0.563   0.302
 1724SOL    HW1 5300   1.292   0.577   0.209
 1724SOL    HW2 5301   1.379   0.498   0.304
 1725SOL     OW 5302  10.250   4.500   4.022
 1725SOL    HW1 5303  10.285   4.447   4.093
 1725SOL    HW2 5304  10.317   4.498   3.954
 1726SOL     OW 5305   4.916   4.066   2.131
 1726SOL    HW1 5306   4.902   4.119   2.209
 1726SOL    HW2 5307   5.011   4.065   2.119
 1727SOL     OW 5308   3.215   1.829   0.398
 1727SOL    HW1 5309   3.309   1.832   0.414
 1727SOL    HW2 5310   3.176   1.877   0.472
 1728SOL     OW 5311   9.329   5.624   4.384
 1728SOL    HW1 5312   9.412   5.615   4.338
 1728SOL    HW2 5313   9.272   5.557   4.347
 1729SOL     OW 5314   1.944   5.626   0.937
 1729SOL    HW1 5315   1.884   5.607   0.864
 1729SOL    HW2 5316   1.919   5.713   0.966
 1730SOL     OW 5317  10.659   0.768   4.749
 1730SOL    HW1 5318  10.583   0.825   4.734
 1730SOL    HW2 5319  10.726   0.801   4.689
 1731SOL     OW 5320   1.897   7.334   0.194
 1731SOL    HW1 5321   1.843   7.392   0.248
 1731SOL    HW2 5322   1.880   7.246   0.229
 1732SOL     OW 5323   8.084   4.642   3.137
 1732SOL    HW1 5324   8.052   4.582   3.204
 1732SOL    HW2 5325   8.018   4.640   3.068
 1733SOL     OW 5326   9.242   6.686   3.955
 1733SOL    HW1 5327   9.201   6.600   3.957
 1733SOL    HW2 5328   9.222   6.725   4.040
 1734SOL     OW 5329   7.595   0.445   1.224
 1734SOL    HW1 5330   7.598   0.534   1.191
 1734SOL    HW2 5331   7.686   0.423   1.245
 1735SOL     OW 5332   7.762   4.059   2.382
 1735SOL    HW1 5333   7.670   4.045   2.407
 1735SOL    HW2 5334   7.777   4.152   2.398
 1736SOL     OW 5335   9.271   0.997   3.512
 1736SOL    HW1 5336   9.187   1.019   3.471
 1736SOL    HW2 5337   9.271   0.901   3.515
 1737SOL     OW 5338   6.123   4.516   3.096
 1737SOL    HW1 5339   6.032   4.543   3.095
 1737SOL    HW2 5340   6.166   4.571   3.030
 1738SOL     OW 5341   4.820   3.486   2.537
 1738SOL    HW1 5342   4.844   3.524   2.622
 1738SOL    HW2 5343   4.725   3.480   2.539
 1739SOL     OW 5344   5.280   7.054   0.859
 1739SOL    HW1 5345   5.348   7.048   0.926
 1739SOL    HW2 5346   5.322   7.101   0.787
 1740SOL     OW 5347   0.427   1.469   0.484
 1740SOL    HW1 5348   0.347   1.489   0.435
 1740SOL    HW2 5349   0.429   1.533   0.555
 1741SOL     OW 5350   7.425   1.690   2.341
 1741SOL    HW1 5351   7.428   1.782   2.314
 1741SOL    HW2 5352   7.506   1.652   2.307
 1742SOL     OW 5353   3.653   1.647   0.826
 1742SOL    HW1 5354   3.701   1.625   0.747
 1742SOL    HW2 5355   3.603   1.568   0.846
 1743SOL     OW 5356   8.599   0.029   1.785
 1743SOL    HW1 5357   8.654   0.081   1.844
 1743SOL    HW2 5358   8.653  -0.046   1.761
 1744SOL     OW 5359   5.170   4.545   0.759
 1744SOL    HW1 5360   5.077   4.531   0.775
 1744SOL    HW2 5361   5.177   4.638   0.737
 1745SOL     OW 5362   3.593   4.287   1.716
 1745SOL    HW1 5363   3.504   4.286   1.753
 1745SOL    HW2 5364   3.593   4.365   1.659
 1746SOL     OW 5365   6.706   6.946   4.440
 1746SOL    HW1 5366   6.654   6.888   4.383
 1746SOL    HW2 5367   6.649   6.962   4.515
 1747SOL     OW 5368   2.302   7.048   2.881
 1747SOL    HW1 5369   2.313   6.997   2.961
 1747SOL    HW2 5370   2.349   7.130   2.899
 1748SOL     OW 5371   9.379   7.454   4.997
 1748SOL    HW1 5372   9.422   7.482   4.916
 1748SOL    HW2 5373   9.425   7.374   5.022
 1749SOL     OW 5374   3.267   1.131   4.181
 1749SOL    HW1 5375   3.187   1.079   4.191
 1749SOL    HW2 5376   3.250   1.187   4.106
 1750SOL     OW 5377   1.772   1.607   2.339
 1750SOL    HW1 5378   1.768   1.584   2.246
 1750SOL    HW2 5379   1.864   1.628   2.354
 1751SOL     OW 5380   7.871   1.764   3.215
 1751SOL    HW1 5381   7.956   1.726   3.238
 1751SOL    HW2 5382   7.887   1.805   3.129
 1752SOL     OW 5383   3.245   4.054   1.527
 1752SOL    HW1 5384   3.176   4.006   1.484
 1752SOL    HW2 5385   3.322   4.041   1.472
 1753SOL     OW 5386   3.974   2.113   1.443
 1753SOL    HW1 5387   4.059   2.158   1.439
 1753SOL    HW2 5388   3.937   2.126   1.355
 1754SOL     OW 5389   7.078   3.081   2.527
 1754SOL    HW1 5390   7.050   3.167   2.497
 1754SOL    HW2 5391   7.032   3.068   2.610
 1755SOL     OW 5392   1.374   2.981   0.527
 1755SOL    HW1 5393   1.398   2.892   0.552
 1755SOL    HW2 5394   1.439   3.007   0.462
 1756SOL     OW 5395   7.671   1.342   4.016
 1756SOL    HW1 5396   7.600   1.349   4.080
 1756SOL    HW2 5397   7.750   1.333   4.068
 1757SOL     OW 5398   9.402   7.145   2.991
 1757SOL    HW1 5399   9.415   7.185   2.905
 1757SOL    HW2 5400   9.443   7.206   3.052
 1758SOL     OW 5401   3.421   1.892   4.082
 1758SOL    HW1 5402   3.446   1.957   4.148
 1758SOL    HW2 5403   3.326   1.904   4.073
 1759SOL     OW 5404   4.307   1.216   2.635
 1759SOL    HW1 5405   4.230   1.255   2.594
 1759SOL    HW2 5406   4.279   1.199   2.725
 1760SOL     OW 5407   5.659   2.751   3.236
 1760SOL    HW1 5408   5.704   2.766   3.319
 1760SOL    HW2 5409   5.568   2.776   3.254
 1761SOL     OW 5410   3.099   5.730   1.846
 1761SOL    HW1 5411   3.140   5.646   1.868
 1761SOL    HW2 5412   3.134   5.753   1.761
 1762SOL     OW 5413   7.976   1.398   2.161
 1762SOL    HW1 5414   7.931   1.473   2.123
 1762SOL    HW2 5415   8.055   1.389   2.107
 1763SOL     OW 5416   4.612   6.938   3.173
 1763SOL    HW1 5417   4.560   6.955   3.252
 1763SOL    HW2 5418   4.594   6.846   3.152
 1764SOL     OW 5419   5.509   1.279   3.803
 1764SOL    HW1 5420   5.552   1.298   3.886
 1764SOL    HW2 5421   5.580   1.263   3.741
 1765SOL     OW 5422   7.465   4.039   3.559
 1765SOL    HW1 5423   7.385   4.067   3.603
 1765SOL    HW2 5424   7.508   3.981   3.622
 1766SOL     OW 5425   4.310   7.445   4.684
 1766SOL    HW1 5426   4.253   7.517   4.658
 1766SOL    HW2 5427   4.293   7.377   4.619
 1767SOL     OW 5428   4.467   3.069   4.224
 1767SOL    HW1 5429   4.385   3.024   4.244
 1767SOL    HW2 5430   4.449   3.117   4.143
 1768SOL     OW 5431   1.336   4.162   0.442
 1768SOL    HW1 5432   1.411   4.105   0.429
 1768SOL    HW2 5433   1.356   4.240   0.391
 1769SOL     OW 5434   4.221   1.837   1.666
 1769SOL    HW1 5435   4.235   1.745   1.647
 1769SOL    HW2 5436   4.186   1.874   1.584
 1770SOL     OW 5437   1.647   1.325   0.320
 1770SOL    HW1 5438   1.607   1.381   0.254
 1770SOL    HW2 5439   1.688   1.386   0.381
 1771SOL     OW 5440   8.326   7.055   4.351
 1771SOL    HW1 5441   8.282   7.080   4.270
 1771SOL    HW2 5442   8.305   7.124   4.413
 1772SOL     OW 5443   4.459   7.389   0.788
 1772SOL    HW1 5444   4.428   7.418   0.874
 1772SOL    HW2 5445   4.496   7.467   0.748
 1773SOL     OW 5446   6.359   6.538   4.032
 1773SOL    HW1 5447   6.274   6.546   3.988
 1773SOL    HW2 5448   6.343   6.475   4.103
 1774SOL     OW 5449   5.847   1.276   2.595
 1774SOL    HW1 5450   5.788   1.212   2.636
 1774SOL    HW2 5451   5.789   1.347   2.567
 1775SOL     OW 5452   2.012   2.358   2.538
 1775SOL    HW1 5453   2.090   2.385   2.489
 1775SOL    HW2 5454   2.006   2.422   2.610
 1776SOL     OW 5455   5.400   0.319   3.799
 1776SOL    HW1 5456   5.478   0.360   3.836
 1776SOL    HW2 5457   5.406   0.227   3.825
 1777SOL     OW 5458   4.406   5.224   1.072
 1777SOL    HW1 5459   4.376   5.238   1.162
 1777SOL    HW2 5460   4.501   5.224   1.078
 1778SOL     OW 5461   5.798   2.555   4.884
 1778SOL    HW1 5462   5.750   2.500   4.946
 1778SOL    HW2 5463   5.890   2.543   4.908
 1779SOL     OW 5464   6.217   3.043   3.249
 1779SOL    HW1 5465   6.261   3.093   3.318
 1779SOL    HW2 5466   6.138   3.009   3.291
 1780SOL     OW 5467   2.491   1.367   1.062
 1780SOL    HW1 5468   2.458   1.279   1.050
 1780SOL    HW2 5469   2.561   1.358   1.127
 1781SOL     OW 5470   7.438   7.312   3.572
 1781SOL    HW1 5471   7.434   7.372   3.647
 1781SOL    HW2 5472   7.531   7.300   3.555
 1782SOL     OW 5473   5.003   4.372   2.926
 1782SOL    HW1 5474   4.940   4.327   2.981
 1782SOL    HW2 5475   4.957   4.384   2.842
 1783SOL     OW 5476   4.537   3.093   0.162
 1783SOL    HW1 5477   4.490   3.085   0.079
 1783SOL    HW2 5478   4.486   3.042   0.224
 1784SOL     OW 5479   4.177   2.726   2.460
 1784SOL    HW1 5480   4.261   2.761   2.432
 1784SOL    HW2 5481   4.171   2.640   2.419
 1785SOL     OW 5482   3.098   6.909   0.509
 1785SOL    HW1 5483   3.050   6.984   0.474
 1785SOL    HW2 5484   3.140   6.869   0.432
 1786SOL     OW 5485   7.247   6.480   2.374
 1786SOL    HW1 5486   7.276   6.424   2.446
 1786SOL    HW2 5487   7.186   6.426   2.324
 1787SOL     OW 5488   5.381   4.639   2.031
 1787SOL    HW1 5489   5.335   4.722   2.047
 1787SOL    HW2 5490   5.312   4.578   2.005
 1788SOL     OW 5491   9.720   5.450   4.112
 1788SOL    HW1 5492   9.642   5.397   4.092
 1788SOL    HW2 5493   9.748   5.483   4.026
 1789SOL     OW 5494   6.750   2.899   4.042
 1789SOL    HW1 5495   6.771   2.863   3.956
 1789SOL    HW2 5496   6.829   2.888   4.094
 1790SOL     OW 5497   4.033   0.123   0.094
 1790SOL    HW1 5498   3.941   0.099   0.086
 1790SOL    HW2 5499   4.081   0.045   0.066
 1791SOL     OW 5500   3.843   1.219   1.359
 1791SOL    HW1 5501   3.764   1.245   1.408
 1791SOL    HW2 5502   3.849   1.125   1.372
 1792SOL     OW 5503   4.530   7.249   4.761
 1792SOL    HW1 5504   4.599   7.311   4.788
 1792SOL    HW2 5505   4.452   7.303   4.751
 1793SOL     OW 5506   6.575   6.301   4.576
 1793SOL    HW1 5507   6.565   6.321   4.669
 1793SOL    HW2 5508   6.527   6.370   4.531
 1794SOL     OW 5509   7.665   2.823   4.883
 1794SOL    HW1 5510   7.730   2.773   4.932
 1794SOL    HW2 5511   7.661   2.780   4.798
 1795SOL     OW 5512   6.227   0.696   2.352
 1795SOL    HW1 5513   6.163   0.745   2.301
 1795SOL    HW2 5514   6.287   0.762   2.386
 1796SOL     OW 5515   4.629   3.536   3.868
 1796SOL    HW1 5516   4.557   3.544   3.930
 1796SOL    HW2 5517   4.708   3.545   3.922
 1797SOL     OW 5518   5.459   5.471   0.568
 1797SOL    HW1 5519   5.507   5.392   0.592
 1797SOL    HW2 5520   5.510   5.509   0.496
 1798SOL     OW 5521   3.579   5.634   1.064
 1798SOL    HW1 5522   3.650   5.693   1.089
 1798SOL    HW2 5523   3.566   5.650   0.971
 1799SOL     OW 5524   2.698   5.117   0.106
 1799SOL    HW1 5525   2.604   5.131   0.118
 1799SOL    HW2 5526   2.706   5.075   0.021
 1800SOL     OW 5527   4.422   5.311   0.688
 1800SOL    HW1 5528   4.358   5.240   0.697
 1800SOL    HW2 5529   4.370   5.388   0.666
 1801SOL     OW 5530   9.254   2.039   3.797
 1801SOL    HW1 5531   9.196   1.969   3.766
 1801SOL    HW2 5532   9.275   2.013   3.887
 1802SOL     OW 5533   4.734   3.686   4.701
 1802SOL    HW1 5534   4.655   3.641   4.732
 1802SOL    HW2 5535   4.770   3.729   4.778
 1803SOL     OW 5536   3.465   5.982   4.038
 1803SOL    HW1 5537   3.452   5.888   4.053
 1803SOL    HW2 5538   3.557   5.990   4.013
 1804SOL     OW 5539   6.589   6.950   3.322
 1804SOL    HW1 5540   6.646   7.019   3.288
 1804SOL    HW2 5541   6.542   6.918   3.245
 1805SOL     OW 5542  10.119   2.177   4.232
 1805SOL    HW1 5543  10.042   2.121   4.224
 1805SOL    HW2 5544  10.171   2.136   4.302
 1806SOL     OW 5545   8.718   4.224   5.162
 1806SOL    HW1 5546   8.655   4.261   5.100
 1806SOL    HW2 5547   8.789   4.288   5.164
 1807SOL     OW 5548  10.185   6.446   5.195
 1807SOL    HW1 5549  10.183   6.360   5.237
 1807SOL    HW2 5550  10.103   6.449   5.144
 1808SOL     OW 5551   5.954   4.870   3.287
 1808SOL    HW1 5552   5.864   4.902   3.293
 1808SOL    HW2 5553   5.945   4.777   3.267
 1809SOL     OW 5554   8.438   0.945   3.880
 1809SOL    HW1 5555   8.500   1.018   3.888
 1809SOL    HW2 5556   8.352   0.987   3.884
 1810SOL     OW 5557   9.137   6.130   5.121
 1810SOL    HW1 5558   9.063   6.160   5.173
 1810SOL    HW2 5559   9.106   6.131   5.031
 1811SOL     OW 5560   8.438   1.756   3.138
 1811SOL    HW1 5561   8.453   1.680   3.082
 1811SOL    HW2 5562   8.498   1.823   3.105
 1812SOL     OW 5563   5.845   6.636   2.629
 1812SOL    HW1 5564   5.856   6.725   2.663
 1812SOL    HW2 5565   5.771   6.643   2.569
 1813SOL     OW 5566   3.601   6.934   3.178
 1813SOL    HW1 5567   3.627   6.966   3.264
 1813SOL    HW2 5568   3.560   7.010   3.136
 1814SOL     OW 5569   7.282   0.022   0.248
 1814SOL    HW1 5570   7.291   0.117   0.255
 1814SOL    HW2 5571   7.345  -0.013   0.312
 1815SOL     OW 5572   4.184   0.414   1.156
 1815SOL    HW1 5573   4.211   0.339   1.209
 1815SOL    HW2 5574   4.242   0.413   1.081
 1816SOL     OW 5575   8.164   6.653   4.729
 1816SOL    HW1 5576   8.126   6.740   4.724
 1816SOL    HW2 5577   8.188   6.642   4.821
 1817SOL     OW 5578   5.154   2.444   1.762
 1817SOL    HW1 5579   5.203   2.451   1.680
 1817SOL    HW2 5580   5.208   2.490   1.826
 1818SOL     OW 5581   8.409   4.299   4.433
 1818SOL    HW1 5582   8.447   4.249   4.506
 1818SOL    HW2 5583   8.329   4.251   4.411
 1819SOL     OW 5584   4.472   1.457   3.159
 1819SOL    HW1 5585   4.544   1.402   3.129
 1819SOL    HW2 5586   4.408   1.395   3.195
 1820SOL     OW 5587   5.383   2.134   3.051
 1820SOL    HW1 5588   5.308   2.193   3.057
 1820SOL    HW2 5589   5.373   2.076   3.127
 1821SOL     OW 5590   5.686   0.075   5.017
 1821SOL    HW1 5591   5.674  -0.006   4.967
 1821SOL    HW2 5592   5.738   0.131   4.960
 1822SOL     OW 5593   7.263   1.371   3.913
 1822SOL    HW1 5594   7.305   1.389   3.997
 1822SOL    HW2 5595   7.335   1.370   3.850
 1823SOL     OW 5596   2.073   2.140   1.120
 1823SOL    HW1 5597   2.112   2.198   1.054
 1823SOL    HW2 5598   1.985   2.122   1.087
 1824SOL     OW 5599   2.764   0.864   2.669
 1824SOL    HW1 5600   2.699   0.794   2.673
 1824SOL    HW2 5601   2.730   0.924   2.602
 1825SOL     OW 5602   7.425   5.616   2.766
 1825SOL    HW1 5603   7.379   5.635   2.847
 1825SOL    HW2 5604   7.512   5.655   2.778
 1826SOL     OW 5605   5.893   3.423   1.196
 1826SOL    HW1 5606   5.845   3.454   1.273
 1826SOL    HW2 5607   5.864   3.332   1.185
 1827SOL     OW 5608   7.049   3.956   3.476
 1827SOL    HW1 5609   7.089   3.925   3.395
 1827SOL    HW2 5610   7.009   3.878   3.514
 1828SOL     OW 5611   3.426   2.831   0.804
 1828SOL    HW1 5612   3.398   2.803   0.891
 1828SOL    HW2 5613   3.404   2.924   0.800
 1829SOL     OW 5614   0.414   7.279   0.263
 1829SOL    HW1 5615   0.493   7.240   0.227
 1829SOL    HW2 5616   0.447   7.345   0.325
 1830SOL     OW 5617   4.489   1.311   1.286
 1830SOL    HW1 5618   4.573   1.329   1.243
 1830SOL    HW2 5619   4.424   1.320   1.216
 1831SOL     OW 5620   4.857   4.955   3.248
 1831SOL    HW1 5621   4.775   4.974   3.201
 1831SOL    HW2 5622   4.874   5.035   3.298
 1832SOL     OW 5623   6.829   4.995   0.206
 1832SOL    HW1 5624   6.884   4.996   0.285
 1832SOL    HW2 5625   6.742   4.973   0.238
 1833SOL     OW 5626   7.184   4.727   0.167
 1833SOL    HW1 5627   7.092   4.728   0.142
 1833SOL    HW2 5628   7.197   4.643   0.211
 1834SOL     OW 5629   9.787   6.990   4.986
 1834SOL    HW1 5630   9.708   7.025   4.945
 1834SOL    HW2 5631   9.839   7.068   5.009
 1835SOL     OW 5632   7.864   7.297   1.218
 1835SOL    HW1 5633   7.869   7.374   1.160
 1835SOL    HW2 5634   7.819   7.329   1.297
 1836SOL     OW 5635   5.738   6.251   2.553
 1836SOL    HW1 5636   5.794   6.244   2.476
 1836SOL    HW2 5637   5.799   6.251   2.627
 1837SOL     OW 5638   1.256   6.701   0.874
 1837SOL    HW1 5639   1.175   6.739   0.908
 1837SOL    HW2 5640   1.314   6.776   0.861
 1838SOL     OW 5641   4.082   6.330   4.069
 1838SOL    HW1 5642   4.084   6.397   4.138
 1838SOL    HW2 5643   4.008   6.356   4.014
 1839SOL     OW 5644   9.269   0.105   2.994
 1839SOL    HW1 5645   9.177   0.079   2.987
 1839SOL    HW2 5646   9.318   0.029   2.961
 1840SOL     OW 5647   7.403   3.567   1.485
 1840SOL    HW1 5648   7.387   3.630   1.415
 1840SOL    HW2 5649   7.382   3.614   1.566
 1841SOL     OW 5650   2.206   2.006   2.100
 1841SOL    HW1 5651   2.156   1.932   2.067
 1841SOL    HW2 5652   2.197   2.002   2.195
 1842SOL     OW 5653   8.418   0.928   1.943
 1842SOL    HW1 5654   8.347   0.984   1.973
 1842SOL    HW2 5655   8.388   0.892   1.860
 1843SOL     OW 5656   6.341   7.354   1.137
 1843SOL    HW1 5657   6.287   7.283   1.100
 1843SOL    HW2 5658   6.395   7.310   1.203
 1844SOL     OW 5659   5.849   2.546   1.053
 1844SOL    HW1 5660   5.778   2.572   1.111
 1844SOL    HW2 5661   5.859   2.452   1.067
 1845SOL     OW 5662   3.755   6.330   4.889
 1845SOL    HW1 5663   3.736   6.381   4.810
 1845SOL    HW2 5664   3.789   6.395   4.952
 1846SOL     OW 5665   0.579   7.141   0.100
 1846SOL    HW1 5666   0.490   7.135   0.066
 1846SOL    HW2 5667   0.622   7.206   0.045
 1847SOL     OW 5668   8.943   7.074   2.367
 1847SOL    HW1 5669   8.861   7.080   2.319
 1847SOL    HW2 5670   8.946   7.153   2.421
 1848SOL     OW 5671   8.943   0.455   4.732
 1848SOL    HW1 5672   8.977   0.447   4.642
 1848SOL    HW2 5673   8.963   0.546   4.756
 1849SOL     OW 5674   7.026   2.492   3.378
 1849SOL    HW1 5675   7.087   2.493   3.304
 1849SOL    HW2 5676   7.074   2.536   3.449
 1850SOL     OW 5677   4.818   5.682   2.353
 1850SOL    HW1 5678   4.747   5.640   2.304
 1850SOL    HW2 5679   4.773   5.734   2.419
 1851SOL     OW 5680   3.647   1.047   4.484
 1851SOL    HW1 5681   3.627   1.137   4.460
 1851SOL    HW2 5682   3.740   1.047   4.506
 1852SOL     OW 5683   7.294   6.445   3.943
 1852SOL    HW1 5684   7.307   6.447   4.038
 1852SOL    HW2 5685   7.218   6.501   3.928
 1853SOL     OW 5686   7.769   5.514   0.627
 1853SOL    HW1 5687   7.835   5.565   0.580
 1853SOL    HW2 5688   7.739   5.449   0.563
 1854SOL     OW 5689   4.058   7.011   4.715
 1854SOL    HW1 5690   4.143   7.054   4.708
 1854SOL    HW2 5691   4.055   6.951   4.640
 1855SOL     OW 5692   7.514   4.701   2.792
 1855SOL    HW1 5693   7.465   4.655   2.861
 1855SOL    HW2 5694   7.544   4.781   2.833
 1856SOL     OW 5695   2.636   0.248   0.472
 1856SOL    HW1 5696   2.588   0.263   0.391
 1856SOL    HW2 5697   2.669   0.158   0.465
 1857SOL     OW 5698   4.462   5.614   2.944
 1857SOL    HW1 5699   4.486   5.526   2.973
 1857SOL    HW2 5700   4.478   5.614   2.850
 1858SOL     OW 5701   1.702   3.359   2.335
 1858SOL    HW1 5702   1.684   3.368   2.429
 1858SOL    HW2 5703   1.784   3.406   2.321
 1859SOL     OW 5704   5.014   3.129   1.893
 1859SOL    HW1 5705   4.982   3.046   1.858
 1859SOL    HW2 5706   5.041   3.108   1.983
 1860SOL     OW 5707   4.036   5.150   3.607
 1860SOL    HW1 5708   4.098   5.096   3.557
 1860SOL    HW2 5709   4.007   5.217   3.544
 1861SOL     OW 5710   0.446   0.150   0.371
 1861SOL    HW1 5711   0.453   0.146   0.467
 1861SOL    HW2 5712   0.517   0.094   0.340
 1862SOL     OW 5713   2.821   1.337   3.423
 1862SOL    HW1 5714   2.768   1.412   3.449
 1862SOL    HW2 5715   2.882   1.324   3.495
 1863SOL     OW 5716   6.332   3.348   2.374
 1863SOL    HW1 5717   6.248   3.388   2.349
 1863SOL    HW2 5718   6.322   3.255   2.353
 1864SOL     OW 5719   5.729   4.181   5.092
 1864SOL    HW1 5720   5.651   4.224   5.058
 1864SOL    HW2 5721   5.720   4.187   5.187
 1865SOL     OW 5722   4.759   6.036   0.897
 1865SOL    HW1 5723   4.823   6.003   0.960
 1865SOL    HW2 5724   4.695   5.965   0.890
 1866SOL     OW 5725   4.956   1.121   5.042
 1866SOL    HW1 5726   4.988   1.165   4.963
 1866SOL    HW2 5727   4.894   1.182   5.081
 1867SOL     OW 5728   1.909   1.302   1.009
 1867SOL    HW1 5729   1.981   1.239   1.010
 1867SOL    HW2 5730   1.830   1.249   1.017
 1868SOL     OW 5731   4.119   0.248   4.867
 1868SOL    HW1 5732   4.192   0.306   4.847
 1868SOL    HW2 5733   4.152   0.192   4.937
 1869SOL     OW 5734   4.261   0.428   2.428
 1869SOL    HW1 5735   4.219   0.496   2.377
 1869SOL    HW2 5736   4.353   0.454   2.432
 1870SOL     OW 5737   3.490   5.039   1.519
 1870SOL    HW1 5738   3.519   5.121   1.478
 1870SOL    HW2 5739   3.502   5.055   1.613
 1871SOL     OW 5740   4.210   2.317   1.348
 1871SOL    HW1 5741   4.264   2.239   1.362
 1871SOL    HW2 5742   4.268   2.390   1.368
 1872SOL     OW 5743   7.353   7.139   4.684
 1872SOL    HW1 5744   7.334   7.211   4.742
 1872SOL    HW2 5745   7.449   7.141   4.673
 1873SOL     OW 5746   3.254   5.316   0.137
 1873SOL    HW1 5747   3.268   5.338   0.045
 1873SOL    HW2 5748   3.163   5.285   0.141
 1874SOL     OW 5749   7.440   5.447   0.514
 1874SOL    HW1 5750   7.447   5.474   0.423
 1874SOL    HW2 5751   7.400   5.521   0.559
 1875SOL     OW 5752   1.270   0.603   1.195
 1875SOL    HW1 5753   1.182   0.630   1.223
 1875SOL    HW2 5754   1.310   0.684   1.164
 1876SOL     OW 5755   8.682   5.226   4.010
 1876SOL    HW1 5756   8.663   5.188   3.924
 1876SOL    HW2 5757   8.774   5.251   4.006
 1877SOL     OW 5758   9.251   2.096   3.322
 1877SOL    HW1 5759   9.250   2.005   3.293
 1877SOL    HW2 5760   9.288   2.093   3.410
 1878SOL     OW 5761   5.502   3.848   2.356
 1878SOL    HW1 5762   5.541   3.848   2.443
 1878SOL    HW2 5763   5.575   3.868   2.297
 1879SOL     OW 5764   8.160   4.381   2.456
 1879SOL    HW1 5765   8.128   4.291   2.451
 1879SOL    HW2 5766   8.113   4.420   2.530
 1880SOL     OW 5767   6.642   5.619   0.626
 1880SOL    HW1 5768   6.734   5.629   0.603
 1880SOL    HW2 5769   6.615   5.538   0.583
 1881SOL     OW 5770   3.483   1.341   3.208
 1881SOL    HW1 5771   3.471   1.420   3.261
 1881SOL    HW2 5772   3.394   1.307   3.196
 1882SOL     OW 5773   1.947   6.769   1.269
 1882SOL    HW1 5774   1.933   6.750   1.362
 1882SOL    HW2 5775   2.014   6.706   1.241
 1883SOL     OW 5776   5.040   3.528   4.378
 1883SOL    HW1 5777   4.988   3.608   4.384
 1883SOL    HW2 5778   5.126   3.557   4.348
 1884SOL     OW 5779   4.947   2.737   1.780
 1884SOL    HW1 5780   4.918   2.754   1.691
 1884SOL    HW2 5781   5.034   2.699   1.770
 1885SOL     OW 5782   7.856   3.957   1.277
 1885SOL    HW1 5783   7.855   3.972   1.182
 1885SOL    HW2 5784   7.793   3.886   1.291
 1886SOL     OW 5785   1.661   1.935   0.270
 1886SOL    HW1 5786   1.681   1.924   0.363
 1886SOL    HW2 5787   1.704   2.017   0.245
 1887SOL     OW 5788   8.914   6.624   3.805
 1887SOL    HW1 5789   8.941   6.659   3.890
 1887SOL    HW2 5790   8.828   6.585   3.822
 1888SOL     OW 5791   6.344   1.175   0.530
 1888SOL    HW1 5792   6.279   1.227   0.483
 1888SOL    HW2 5793   6.429   1.205   0.496
 1889SOL     OW 5794   7.536   2.940   1.120
 1889SOL    HW1 5795   7.523   2.971   1.210
 1889SOL    HW2 5796   7.477   2.865   1.112
 1890SOL     OW 5797   2.998   4.086   3.141
 1890SOL    HW1 5798   3.034   4.000   3.120
 1890SOL    HW2 5799   3.061   4.148   3.103
 1891SOL     OW 5800   3.343   2.374   2.844
 1891SOL    HW1 5801   3.273   2.438   2.856
 1891SOL    HW2 5802   3.351   2.363   2.749
 1892SOL     OW 5803   6.040   3.799   2.829
 1892SOL    HW1 5804   6.118   3.791   2.775
 1892SOL    HW2 5805   6.005   3.709   2.835
 1893SOL     OW 5806   5.423   4.533   4.352
 1893SOL    HW1 5807   5.485   4.474   4.393
 1893SOL    HW2 5808   5.440   4.525   4.259
 1894SOL     OW 5809   5.764   5.577   1.878
 1894SOL    HW1 5810   5.785   5.547   1.966
 1894SOL    HW2 5811   5.672   5.605   1.883
 1895SOL     OW 5812   7.337   0.313   2.306
 1895SOL    HW1 5813   7.400   0.350   2.244
 1895SOL    HW2 5814   7.325   0.382   2.371
 1896SOL     OW 5815   0.132   5.568   0.029
 1896SOL    HW1 5816   0.103   5.551  -0.060
 1896SOL    HW2 5817   0.128   5.664   0.037
 1897SOL     OW 5818   8.001   3.407   1.717
 1897SOL    HW1 5819   8.074   3.415   1.656
 1897SOL    HW2 5820   7.981   3.498   1.741
 1898SOL     OW 5821   1.967   3.252   2.644
 1898SOL    HW1 5822   1.905   3.181   2.627
 1898SOL    HW2 5823   1.999   3.236   2.732
 1899SOL     OW 5824   6.672   1.783   2.453
 1899SOL    HW1 5825   6.604   1.754   2.514
 1899SOL    HW2 5826   6.731   1.836   2.506
 1900SOL     OW 5827   8.317   4.361   4.799
 1900SOL    HW1 5828   8.290   4.380   4.889
 1900SOL    HW2 5829   8.236   4.355   4.750
 1901SOL     OW 5830   5.386   4.709   0.421
 1901SOL    HW1 5831   5.319   4.647   0.392
 1901SOL    HW2 5832   5.436   4.728   0.342
 1902SOL     OW 5833   4.132   1.090   3.043
 1902SOL    HW1 5834   4.053   1.084   3.096
 1902SOL    HW2 5835   4.112   1.157   2.978
 1903SOL     OW 5836   4.969   3.864   3.217
 1903SOL    HW1 5837   5.034   3.794   3.221
 1903SOL    HW2 5838   4.926   3.851   3.132
 1904SOL     OW 5839   4.513   0.576   0.604
 1904SOL    HW1 5840   4.546   0.620   0.526
 1904SOL    HW2 5841   4.471   0.497   0.570
 1905SOL     OW 5842   9.508   7.188   4.496
 1905SOL    HW1 5843   9.562   7.147   4.428
 1905SOL    HW2 5844   9.512   7.127   4.570
 1906SOL     OW 5845   8.035   7.008   3.895
 1906SOL    HW1 5846   8.048   7.100   3.871
 1906SOL    HW2 5847   7.946   7.005   3.929
 1907SOL     OW 5848   3.788   7.087   2.990
 1907SOL    HW1 5849   3.712   7.121   3.036
 1907SOL    HW2 5850   3.782   7.125   2.902
 1908SOL     OW 5851   9.109   6.703   4.872
 1908SOL    HW1 5852   9.062   6.621   4.887
 1908SOL    HW2 5853   9.133   6.700   4.779
 1909SOL     OW 5854   7.621   4.350   3.163
 1909SOL    HW1 5855   7.607   4.287   3.234
 1909SOL    HW2 5856   7.624   4.296   3.084
 1910SOL     OW 5857   2.804   3.840   3.504
 1910SOL    HW1 5858   2.779   3.932   3.500
 1910SOL    HW2 5859   2.833   3.827   3.595
 1911SOL     OW 5860   5.167   6.571   2.509
 1911SOL    HW1 5861   5.082   6.528   2.520
 1911SOL    HW2 5862   5.231   6.500   2.516
 1912SOL     OW 5863   8.252   0.394   5.305
 1912SOL    HW1 5864   8.345   0.414   5.295
 1912SOL    HW2 5865   8.222   0.372   5.217
 1913SOL     OW 5866   9.338   0.526   3.244
 1913SOL    HW1 5867   9.266   0.558   3.189
 1913SOL    HW2 5868   9.340   0.432   3.227
 1914SOL     OW 5869   1.720   1.888   1.535
 1914SOL    HW1 5870   1.738   1.862   1.626
 1914SOL    HW2 5871   1.695   1.980   1.541
 1915SOL     OW 5872   6.247   2.781   5.171
 1915SOL    HW1 5873   6.294   2.811   5.249
 1915SOL    HW2 5874   6.164   2.747   5.205
 1916SOL     OW 5875   6.200   2.308   0.022
 1916SOL    HW1 5876   6.109   2.284   0.008
 1916SOL    HW2 5877   6.224   2.266   0.105
 1917SOL     OW 5878   9.822   4.465   4.605
 1917SOL    HW1 5879   9.846   4.435   4.692
 1917SOL    HW2 5880   9.902   4.507   4.572
 1918SOL     OW 5881   3.459   4.646   2.077
 1918SOL    HW1 5882   3.412   4.644   1.994
 1918SOL    HW2 5883   3.408   4.707   2.131
 1919SOL     OW 5884   8.100   4.898   2.511
 1919SOL    HW1 5885   8.145   4.846   2.444
 1919SOL    HW2 5886   8.093   4.839   2.586
 1920SOL     OW 5887   4.987   5.002   2.906
 1920SOL    HW1 5888   5.041   5.047   2.971
 1920SOL    HW2 5889   4.906   5.052   2.904
 1921SOL     OW 5890   7.498   4.076   4.887
 1921SOL    HW1 5891   7.429   4.048   4.827
 1921SOL    HW2 5892   7.529   4.160   4.851
 1922SOL     OW 5893   2.601   0.059   3.063
 1922SOL    HW1 5894   2.637   0.101   3.141
 1922SOL    HW2 5895   2.672   0.064   2.999
 1923SOL     OW 5896   3.486   4.929   0.821
 1923SOL    HW1 5897   3.469   4.857   0.761
 1923SOL    HW2 5898   3.578   4.919   0.846
 1924SOL     OW 5899   3.999  -0.032   1.597
 1924SOL    HW1 5900   3.948   0.041   1.633
 1924SOL    HW2 5901   4.016  -0.007   1.506
 1925SOL     OW 5902   3.025   0.946   0.008
 1925SOL    HW1 5903   2.950   1.004   0.002
 1925SOL    HW2 5904   3.090   0.996   0.058
 1926SOL     OW 5905   4.858   1.713   1.644
 1926SOL    HW1 5906   4.779   1.706   1.591
 1926SOL    HW2 5907   4.912   1.778   1.600
 1927SOL     OW 5908   4.980   0.203   3.312
 1927SOL    HW1 5909   5.060   0.166   3.274
 1927SOL    HW2 5910   4.935   0.128   3.350
 1928SOL     OW 5911   4.240   4.272   1.167
 1928SOL    HW1 5912   4.240   4.359   1.126
 1928SOL    HW2 5913   4.315   4.228   1.127
 1929SOL     OW 5914   4.734   1.273   1.132
 1929SOL    HW1 5915   4.680   1.277   1.053
 1929SOL    HW2 5916   4.820   1.305   1.103
 1930SOL     OW 5917   7.762   0.843   4.251
 1930SOL    HW1 5918   7.764   0.939   4.254
 1930SOL    HW2 5919   7.851   0.818   4.224
 1931SOL     OW 5920   6.573   7.221   4.322
 1931SOL    HW1 5921   6.615   7.159   4.381
 1931SOL    HW2 5922   6.490   7.244   4.364
 1932SOL     OW 5923   5.759   2.419   3.573
 1932SOL    HW1 5924   5.714   2.479   3.632
 1932SOL    HW2 5925   5.739   2.332   3.607
 1933SOL     OW 5926   5.251   0.353   2.658
 1933SOL    HW1 5927   5.303   0.289   2.707
 1933SOL    HW2 5928   5.256   0.324   2.567
 1934SOL     OW 5929   6.807   4.089   3.604
 1934SOL    HW1 5930   6.749   4.087   3.528
 1934SOL    HW2 5931   6.755   4.050   3.675
 1935SOL     OW 5932   8.141   3.152   5.121
 1935SOL    HW1 5933   8.202   3.107   5.063
 1935SOL    HW2 5934   8.168   3.127   5.210
 1936SOL     OW 5935   1.909   1.511   1.277
 1936SOL    HW1 5936   1.989   1.509   1.224
 1936SOL    HW2 5937   1.929   1.457   1.353
 1937SOL     OW 5938   2.478   0.142   1.832
 1937SOL    HW1 5939   2.460   0.089   1.910
 1937SOL    HW2 5940   2.446   0.229   1.855
 1938SOL     OW 5941   6.859   4.622   4.540
 1938SOL    HW1 5942   6.912   4.544   4.520
 1938SOL    HW2 5943   6.901   4.660   4.617
 1939SOL     OW 5944   3.411   6.807   0.824
 1939SOL    HW1 5945   3.388   6.834   0.735
 1939SOL    HW2 5946   3.336   6.834   0.878
 1940SOL     OW 5947   6.640   1.595   1.130
 1940SOL    HW1 5948   6.601   1.619   1.214
 1940SOL    HW2 5949   6.726   1.560   1.153
 1941SOL     OW 5950   9.948   3.437   4.114
 1941SOL    HW1 5951  10.024   3.380   4.123
 1941SOL    HW2 5952   9.984   3.522   4.087
 1942SOL     OW 5953   2.061   2.102   1.764
 1942SOL    HW1 5954   2.064   2.139   1.675
 1942SOL    HW2 5955   2.150   2.115   1.797
 1943SOL     OW 5956   2.361   3.741   0.034
 1943SOL    HW1 5957   2.340   3.833   0.045
 1943SOL    HW2 5958   2.281   3.695   0.059
 1944SOL     OW 5959   7.890   6.610   1.924
 1944SOL    HW1 5960   7.967   6.626   1.870
 1944SOL    HW2 5961   7.839   6.545   1.876
 1945SOL     OW 5962   4.496   1.952   2.680
 1945SOL    HW1 5963   4.575   1.974   2.630
 1945SOL    HW2 5964   4.518   1.975   2.770
 1946SOL     OW 5965   5.987   5.320   1.148
 1946SOL    HW1 5966   5.972   5.396   1.093
 1946SOL    HW2 5967   5.952   5.246   1.098
 1947SOL     OW 5968   5.658   3.270   0.205
 1947SOL    HW1 5969   5.634   3.329   0.277
 1947SOL    HW2 5970   5.605   3.299   0.131
 1948SOL     OW 5971   5.064   2.330   1.240
 1948SOL    HW1 5972   4.972   2.307   1.249
 1948SOL    HW2 5973   5.072   2.414   1.284
 1949SOL     OW 5974  11.105   5.681   5.133
 1949SOL    HW1 5975  11.167   5.753   5.143
 1949SOL    HW2 5976  11.028   5.708   5.184
 1950SOL     OW 5977   6.381   4.246   3.968
 1950SOL    HW1 5978   6.345   4.303   4.036
 1950SOL    HW2 5979   6.317   4.249   3.897
 1951SOL     OW 5980   8.203   6.089   1.867
 1951SOL    HW1 5981   8.223   6.154   1.800
 1951SOL    HW2 5982   8.287   6.049   1.888
 1952SOL     OW 5983   7.486   3.598   5.073
 1952SOL    HW1 5984   7.581   3.591   5.066
 1952SOL    HW2 5985   7.466   3.688   5.049
 1953SOL     OW 5986   5.077   2.526   3.228
 1953SOL    HW1 5987   5.024   2.536   3.308
 1953SOL    HW2 5988   5.163   2.499   3.261
 1954SOL     OW 5989  10.324   5.593   4.704
 1954SOL    HW1 5990  10.392   5.527   4.692
 1954SOL    HW2 5991  10.371   5.676   4.711
 1955SOL     OW 5992   9.863   5.433   3.731
 1955SOL    HW1 5993   9.895   5.520   3.753
 1955SOL    HW2 5994   9.812   5.444   3.651
 1956SOL     OW 5995   2.166   1.192   1.069
 1956SOL    HW1 5996   2.157   1.118   1.128
 1956SOL    HW2 5997   2.261   1.204   1.059
 1957SOL     OW 5998   7.679   7.081   5.234
 1957SOL    HW1 5999   7.736   7.004   5.227
 1957SOL    HW2 6000   7.621   7.073   5.158
 1958SOL     OW 6001   6.293   0.858   0.900
 1958SOL    HW1 6002   6.213   0.830   0.856
 1958SOL    HW2 6003   6.267   0.874   0.991
 1959SOL     OW 6004   0.484   0.795   0.486
 1959SOL    HW1 6005   0.451   0.810   0.574
 1959SOL    HW2 6006   0.421   0.837   0.429
 1960SOL     OW 6007   1.487   6.980   0.108
 1960SOL    HW1 6008   1.497   7.068   0.144
 1960SOL    HW2 6009   1.551   6.975   0.038
 1961SOL     OW 6010   5.868   6.671   1.415
 1961SOL    HW1 6011   5.869   6.586   1.460
 1961SOL    HW2 6012   5.939   6.665   1.351
 1962SOL     OW 6013   2.639   0.035   1.392
 1962SOL    HW1 6014   2.651  -0.045   1.443
 1962SOL    HW2 6015   2.711   0.034   1.329
 1963SOL     OW 6016   4.597   0.836   1.489
 1963SOL    HW1 6017   4.617   0.928   1.474
 1963SOL    HW2 6018   4.503   0.835   1.511
 1964SOL     OW 6019   8.954   7.233   2.593
 1964SOL    HW1 6020   8.934   7.320   2.558
 1964SOL    HW2 6021   8.932   7.238   2.686
 1965SOL     OW 6022   7.818   1.067   3.892
 1965SOL    HW1 6023   7.747   1.045   3.953
 1965SOL    HW2 6024   7.783   1.138   3.839
 1966SOL     OW 6025   6.186   6.146   1.856
 1966SOL    HW1 6026   6.107   6.096   1.839
 1966SOL    HW2 6027   6.177   6.225   1.802
 1967SOL     OW 6028   1.571   1.001   1.849
 1967SOL    HW1 6029   1.596   0.909   1.841
 1967SOL    HW2 6030   1.636   1.038   1.909
 1968SOL     OW 6031   8.839   7.445   4.652
 1968SOL    HW1 6032   8.901   7.392   4.601
 1968SOL    HW2 6033   8.879   7.531   4.656
 1969SOL     OW 6034   3.268   6.403   1.041
 1969SOL    HW1 6035   3.212   6.331   1.011
 1969SOL    HW2 6036   3.208   6.464   1.084
 1970SOL     OW 6037   6.817   2.413   0.242
 1970SOL    HW1 6038   6.824   2.408   0.337
 1970SOL    HW2 6039   6.824   2.322   0.212
 1971SOL     OW 6040   3.565   0.243   4.314
 1971SOL    HW1 6041   3.488   0.187   4.328
 1971SOL    HW2 6042   3.620   0.225   4.390
 1972SOL     OW 6043   5.576   5.991   0.060
 1972SOL    HW1 6044   5.643   6.007  -0.007
 1972SOL    HW2 6045   5.547   6.079   0.087
 1973SOL     OW 6046   9.301   4.664   4.915
 1973SOL    HW1 6047   9.345   4.596   4.965
 1973SOL    HW2 6048   9.296   4.630   4.826
 1974SOL     OW 6049   8.690   5.088   4.810
 1974SOL    HW1 6050   8.691   5.025   4.882
 1974SOL    HW2 6051   8.676   5.035   4.732
 1975SOL     OW 6052   8.080   4.974   3.592
 1975SOL    HW1 6053   8.090   4.953   3.499
 1975SOL    HW2 6054   8.141   4.915   3.637
 1976SOL     OW 6055   4.861   3.597   0.991
 1976SOL    HW1 6056   4.778   3.570   1.031
 1976SOL    HW2 6057   4.926   3.588   1.061
 1977SOL     OW 6058   2.833   4.103   1.106
 1977SOL    HW1 6059   2.792   4.125   1.022
 1977SOL    HW2 6060   2.893   4.176   1.123
 1978SOL     OW 6061  10.693   5.739   4.966
 1978SOL    HW1 6062  10.662   5.655   5.001
 1978SOL    HW2 6063  10.731   5.717   4.881
 1979SOL     OW 6064   7.873   4.123   4.769
 1979SOL    HW1 6065   7.964   4.136   4.743
 1979SOL    HW2 6066   7.849   4.204   4.813
 1980SOL     OW 6067   3.924   1.081   4.974
 1980SOL    HW1 6068   3.843   1.074   4.923
 1980SOL    HW2 6069   3.967   0.996   4.964
 1981SOL     OW 6070   8.055   3.215   2.155
 1981SOL    HW1 6071   8.108   3.150   2.108
 1981SOL    HW2 6072   8.052   3.290   2.096
 1982SOL     OW 6073   7.351   2.370   5.084
 1982SOL    HW1 6074   7.268   2.355   5.129
 1982SOL    HW2 6075   7.330   2.362   4.991
 1983SOL     OW 6076   6.704   4.003   2.211
 1983SOL    HW1 6077   6.627   3.958   2.177
 1983SOL    HW2 6078   6.695   4.093   2.179
 1984SOL     OW 6079   1.988   3.280   0.582
 1984SOL    HW1 6080   1.942   3.358   0.614
 1984SOL    HW2 6081   2.081   3.300   0.594
 1985SOL     OW 6082   5.965   5.863   2.155
 1985SOL    HW1 6083   6.026   5.936   2.142
 1985SOL    HW2 6084   5.933   5.843   2.067
 1986SOL     OW 6085  10.055   1.038   3.904
 1986SOL    HW1 6086   9.972   0.999   3.876
 1986SOL    HW2 6087  10.122   0.988   3.856
 1987SOL     OW 6088   4.725   4.933   1.683
 1987SOL    HW1 6089   4.798   4.871   1.678
 1987SOL    HW2 6090   4.674   4.903   1.759
 1988SOL     OW 6091   6.790   2.619   1.287
 1988SOL    HW1 6092   6.735   2.549   1.252
 1988SOL    HW2 6093   6.733   2.665   1.349
 1989SOL     OW 6094   3.617   2.462   1.680
 1989SOL    HW1 6095   3.531   2.499   1.659
 1989SOL    HW2 6096   3.655   2.441   1.595
 1990SOL     OW 6097   5.807   0.347   2.557
 1990SOL    HW1 6098   5.797   0.435   2.522
 1990SOL    HW2 6099   5.900   0.340   2.579
 1991SOL     OW 6100   6.818   0.985   2.017
 1991SOL    HW1 6101   6.753   1.056   2.012
 1991SOL    HW2 6102   6.766   0.908   2.041
 1992SOL     OW 6103   2.672   6.866   0.328
 1992SOL    HW1 6104   2.640   6.942   0.376
 1992SOL    HW2 6105   2.705   6.806   0.395
 1993SOL     OW 6106   6.288   2.646   1.578
 1993SOL    HW1 6107   6.346   2.667   1.651
 1993SOL    HW2 6108   6.246   2.564   1.603
 1994SOL     OW 6109   3.885   1.500   1.171
 1994SOL    HW1 6110   3.793   1.481   1.191
 1994SOL    HW2 6111   3.881   1.563   1.099
 1995SOL     OW 6112   3.037   2.658   0.133
 1995SOL    HW1 6113   3.086   2.583   0.100
 1995SOL    HW2 6114   2.945   2.636   0.116
 1996SOL     OW 6115   4.583   4.873   1.940
 1996SOL    HW1 6116   4.610   4.964   1.923
 1996SOL    HW2 6117   4.504   4.881   1.993
 1997SOL     OW 6118   7.366   5.050   1.456
 1997SOL    HW1 6119   7.395   5.061   1.547
 1997SOL    HW2 6120   7.444   5.065   1.404
 1998SOL     OW 6121   6.255   2.968   0.743
 1998SOL    HW1 6122   6.169   2.933   0.765
 1998SOL    HW2 6123   6.263   3.048   0.795
 1999SOL     OW 6124   5.648   0.348   1.975
 1999SOL    HW1 6125   5.613   0.429   2.011
 1999SOL    HW2 6126   5.584   0.321   1.909
 2000SOL     OW 6127   6.126   7.414   3.565
 2000SOL    HW1 6128   6.178   7.372   3.634
 2000SOL    HW2 6129   6.040   7.430   3.606
 2001SOL     OW 6130   2.734   1.298   1.260
 2001SOL    HW1 6131   2.818   1.253   1.266
 2001SOL    HW2 6132   2.732   1.357   1.335
 2002SOL     OW 6133   1.508   5.108   1.428
 2002SOL    HW1 6134   1.547   5.148   1.351
 2002SOL    HW2 6135   1.582   5.081   1.481
 2003SOL     OW 6136   2.063   4.051   0.393
 2003SOL    HW1 6137   2.037   3.962   0.368
 2003SOL    HW2 6138   2.035   4.105   0.319
 2004SOL     OW 6139   2.204   1.177   0.337
 2004SOL    HW1 6140   2.170   1.259   0.303
 2004SOL    HW2 6141   2.278   1.202   0.392
 2005SOL     OW 6142   7.618   4.977   2.833
 2005SOL    HW1 6143   7.641   5.063   2.798
 2005SOL    HW2 6144   7.579   4.995   2.918
 2006SOL     OW 6145   0.677   2.887   0.673
 2006SOL    HW1 6146   0.643   2.915   0.757
 2006SOL    HW2 6147   0.641   2.799   0.661
 2007SOL     OW 6148   7.432   2.252   4.059
 2007SOL    HW1 6149   7.365   2.276   3.994
 2007SOL    HW2 6150   7.464   2.167   4.028
 2008SOL     OW 6151   7.861   5.531   2.613
 2008SOL    HW1 6152   7.768   5.515   2.599
 2008SOL    HW2 6153   7.892   5.455   2.661
 2009SOL     OW 6154   7.504   5.560   1.066
 2009SOL    HW1 6155   7.511   5.507   1.145
 2009SOL    HW2 6156   7.558   5.515   1.001
 2010SOL     OW 6157   5.862   5.552   2.163
 2010SOL    HW1 6158   5.924   5.528   2.233
 2010SOL    HW2 6159   5.858   5.648   2.167
 2011SOL     OW 6160   3.158   4.111   1.783
 2011SOL    HW1 6161   3.073   4.074   1.761
 2011SOL    HW2 6162   3.205   4.113   1.699
 2012SOL     OW 6163   2.994   6.753   2.076
 2012SOL    HW1 6164   2.983   6.660   2.058
 2012SOL    HW2 6165   3.080   6.761   2.116
 2013SOL     OW 6166   8.857   6.325   5.132
 2013SOL    HW1 6167   8.865   6.294   5.222
 2013SOL    HW2 6168   8.771   6.293   5.104
 2014SOL     OW 6169   6.618   4.169   0.839
 2014SOL    HW1 6170   6.687   4.235   0.845
 2014SOL    HW2 6171   6.661   4.093   0.801
 2015SOL     OW 6172   5.938   2.892   3.233
 2015SOL    HW1 6173   5.893   2.928   3.310
 2015SOL    HW2 6174   5.955   2.968   3.177
 2016SOL     OW 6175   2.898   5.332   0.939
 2016SOL    HW1 6176   2.812   5.344   0.980
 2016SOL    HW2 6177   2.939   5.418   0.944
 2017SOL     OW 6178   5.529   0.600   3.074
 2017SOL    HW1 6179   5.531   0.518   3.025
 2017SOL    HW2 6180   5.584   0.660   3.023
 2018SOL     OW 6181   7.256   0.549   2.435
 2018SOL    HW1 6182   7.184   0.573   2.376
 2018SOL    HW2 6183   7.274   0.629   2.484
 2019SOL     OW 6184   4.209   0.291   1.751
 2019SOL    HW1 6185   4.263   0.215   1.775
 2019SOL    HW2 6186   4.168   0.265   1.668
 2020SOL     OW 6187   5.969   3.332   1.968
 2020SOL    HW1 6188   5.969   3.367   1.879
 2020SOL    HW2 6189   5.930   3.402   2.021
 2021SOL     OW 6190   3.318   4.433   0.681
 2021SOL    HW1 6191   3.232   4.395   0.659
 2021SOL    HW2 6192   3.380   4.362   0.666
 2022SOL     OW 6193   7.715   1.027   3.540
 2022SOL    HW1 6194   7.723   0.937   3.572
 2022SOL    HW2 6195   7.796   1.070   3.569
 2023SOL     OW 6196   7.898   7.060   3.181
 2023SOL    HW1 6197   7.979   7.011   3.195
 2023SOL    HW2 6198   7.882   7.104   3.265
 2024SOL     OW 6199   4.003   3.084   2.320
 2024SOL    HW1 6200   3.984   3.063   2.229
 2024SOL    HW2 6201   3.917   3.092   2.362
 2025SOL     OW 6202   2.027   5.692   0.246
 2025SOL    HW1 6203   2.117   5.724   0.252
 2025SOL    HW2 6204   1.973   5.771   0.251
 2026SOL     OW 6205   4.349   4.577   1.246
 2026SOL    HW1 6206   4.397   4.643   1.196
 2026SOL    HW2 6207   4.416   4.515   1.275
 2027SOL     OW 6208   6.009   1.158   1.157
 2027SOL    HW1 6209   6.080   1.159   1.093
 2027SOL    HW2 6210   6.032   1.227   1.219
 2028SOL     OW 6211   7.061   0.206   5.061
 2028SOL    HW1 6212   7.057   0.282   5.003
 2028SOL    HW2 6213   7.130   0.151   5.024
 2029SOL     OW 6214   6.387   6.632   1.107
 2029SOL    HW1 6215   6.380   6.597   1.018
 2029SOL    HW2 6216   6.380   6.555   1.164
 2030SOL     OW 6217   3.102   4.972   2.973
 2030SOL    HW1 6218   3.007   4.963   2.965
 2030SOL    HW2 6219   3.136   4.945   2.887
 2031SOL     OW 6220   3.970   3.226   1.220
 2031SOL    HW1 6221   3.986   3.197   1.309
 2031SOL    HW2 6222   3.930   3.312   1.230
 2032SOL     OW 6223   6.315   0.224   3.863
 2032SOL    HW1 6224   6.388   0.163   3.862
 2032SOL    HW2 6225   6.255   0.191   3.930
 2033SOL     OW 6226   9.478   2.906   3.546
 2033SOL    HW1 6227   9.505   2.848   3.474
 2033SOL    HW2 6228   9.438   2.848   3.610
 2034SOL     OW 6229   7.911   6.295   2.145
 2034SOL    HW1 6230   7.898   6.252   2.229
 2034SOL    HW2 6231   7.912   6.224   2.081
 2035SOL     OW 6232   7.784   7.063   3.948
 2035SOL    HW1 6233   7.731   7.098   3.877
 2035SOL    HW2 6234   7.721   7.036   4.015
 2036SOL     OW 6235   6.015   0.992   2.641
 2036SOL    HW1 6236   6.087   1.006   2.702
 2036SOL    HW2 6237   6.051   0.937   2.572
 2037SOL     OW 6238   9.588   0.576   4.475
 2037SOL    HW1 6239   9.577   0.634   4.400
 2037SOL    HW2 6240   9.499   0.558   4.505
 2038SOL     OW 6241   2.187   5.616   1.077
 2038SOL    HW1 6242   2.218   5.706   1.065
 2038SOL    HW2 6243   2.100   5.615   1.037
 2039SOL     OW 6244   7.239   2.897   3.547
 2039SOL    HW1 6245   7.198   2.817   3.513
 2039SOL    HW2 6246   7.259   2.877   3.638
 2040SOL     OW 6247   8.145   4.186   5.165
 2040SOL    HW1 6248   8.233   4.186   5.127
 2040SOL    HW2 6249   8.122   4.093   5.171
 2041SOL     OW 6250   5.588   6.077   3.059
 2041SOL    HW1 6251   5.531   6.153   3.044
 2041SOL    HW2 6252   5.547   6.007   3.009
 2042SOL     OW 6253   6.197   5.415   3.599
 2042SOL    HW1 6254   6.188   5.483   3.532
 2042SOL    HW2 6255   6.111   5.372   3.601
 2043SOL     OW 6256   7.175   7.393   4.373
 2043SOL    HW1 6257   7.153   7.482   4.345
 2043SOL    HW2 6258   7.093   7.356   4.403
 2044SOL     OW 6259   8.181   6.416   2.059
 2044SOL    HW1 6260   8.093   6.380   2.056
 2044SOL    HW2 6261   8.234   6.355   2.007
 2045SOL     OW 6262   2.157   0.709   1.871
 2045SOL    HW1 6263   2.126   0.796   1.847
 2045SOL    HW2 6264   2.167   0.663   1.788
 2046SOL     OW 6265   4.488   3.838   0.973
 2046SOL    HW1 6266   4.573   3.837   1.017
 2046SOL    HW2 6267   4.495   3.909   0.909
 2047SOL     OW 6268   7.483   2.238   1.762
 2047SOL    HW1 6269   7.559   2.268   1.711
 2047SOL    HW2 6270   7.425   2.314   1.764
 2048SOL     OW 6271   7.295   0.466   0.563
 2048SOL    HW1 6272   7.237   0.390   0.572
 2048SOL    HW2 6273   7.380   0.428   0.540
 2049SOL     OW 6274  10.348   3.658   4.284
 2049SOL    HW1 6275  10.271   3.712   4.302
 2049SOL    HW2 6276  10.400   3.664   4.364
 2050SOL     OW 6277   4.432   6.175   2.184
 2050SOL    HW1 6278   4.458   6.084   2.201
 2050SOL    HW2 6279   4.365   6.193   2.250
 2051SOL     OW 6280   8.396   3.601   4.212
 2051SOL    HW1 6281   8.326   3.608   4.277
 2051SOL    HW2 6282   8.442   3.685   4.217
 2052SOL     OW 6283   0.273   3.725   0.306
 2052SOL    HW1 6284   0.205   3.712   0.240
 2052SOL    HW2 6285   0.280   3.821   0.313
 2053SOL     OW 6286   0.935   4.946   0.335
 2053SOL    HW1 6287   0.947   4.967   0.427
 2053SOL    HW2 6288   0.882   4.866   0.335
 2054SOL     OW 6289   6.164   5.206   1.321
 2054SOL    HW1 6290   6.090   5.240   1.272
 2054SOL    HW2 6291   6.177   5.117   1.287
 2055SOL     OW 6292   5.621   4.243   3.971
 2055SOL    HW1 6293   5.598   4.329   3.937
 2055SOL    HW2 6294   5.657   4.260   4.058
 2056SOL     OW 6295   4.304   3.497   0.919
 2056SOL    HW1 6296   4.224   3.525   0.964
 2056SOL    HW2 6297   4.364   3.571   0.927
 2057SOL     OW 6298   7.450   6.565   1.648
 2057SOL    HW1 6299   7.427   6.655   1.668
 2057SOL    HW2 6300   7.377   6.534   1.594
 2058SOL     OW 6301   2.986   1.104   0.659
 2058SOL    HW1 6302   3.074   1.082   0.687
 2058SOL    HW2 6303   2.935   1.109   0.740
 2059SOL     OW 6304   2.709   5.444   2.872
 2059SOL    HW1 6305   2.706   5.356   2.910
 2059SOL    HW2 6306   2.744   5.499   2.942
 2060SOL     OW 6307   3.933   2.506   2.332
 2060SOL    HW1 6308   3.866   2.445   2.301
 2060SOL    HW2 6309   3.974   2.539   2.252
 2061SOL     OW 6310   9.397   6.501   3.448
 2061SOL    HW1 6311   9.332   6.533   3.385
 2061SOL    HW2 6312   9.429   6.420   3.409
 2062SOL     OW 6313   7.550   6.108   1.706
 2062SOL    HW1 6314   7.566   6.056   1.785
 2062SOL    HW2 6315   7.570   6.049   1.634
 2063SOL     OW 6316   4.426   1.737   0.046
 2063SOL    HW1 6317   4.351   1.738   0.105
 2063SOL    HW2 6318   4.394   1.696  -0.034
 2064SOL     OW 6319   1.388   0.938   0.516
 2064SOL    HW1 6320   1.328   0.990   0.462
 2064SOL    HW2 6321   1.474   0.953   0.477
 2065SOL     OW 6322   7.470   5.168   3.365
 2065SOL    HW1 6323   7.462   5.263   3.363
 2065SOL    HW2 6324   7.559   5.150   3.335
 2066SOL     OW 6325   8.284   5.953   2.553
 2066SOL    HW1 6326   8.263   6.042   2.524
 2066SOL    HW2 6327   8.343   5.919   2.485
 2067SOL     OW 6328   2.736   4.102   3.715
 2067SOL    HW1 6329   2.679   4.029   3.742
 2067SOL    HW2 6330   2.825   4.066   3.720
 2068SOL     OW 6331   3.323   5.767   3.445
 2068SOL    HW1 6332   3.323   5.672   3.449
 2068SOL    HW2 6333   3.395   5.794   3.503
 2069SOL     OW 6334   7.957   0.043   1.958
 2069SOL    HW1 6335   7.929   0.001   2.040
 2069SOL    HW2 6336   8.052   0.047   1.964
 2070SOL     OW 6337   5.271   6.633   1.650
 2070SOL    HW1 6338   5.260   6.631   1.555
 2070SOL    HW2 6339   5.207   6.698   1.681
 2071SOL     OW 6340   9.143   0.131   2.396
 2071SOL    HW1 6341   9.124   0.190   2.470
 2071SOL    HW2 6342   9.099   0.049   2.420
 2072SOL     OW 6343   4.597   0.568   4.652
 2072SOL    HW1 6344   4.656   0.575   4.726
 2072SOL    HW2 6345   4.554   0.484   4.662
 2073SOL     OW 6346   6.026   0.124   3.018
 2073SOL    HW1 6347   6.039   0.219   3.019
 2073SOL    HW2 6348   5.962   0.108   3.088
 2074SOL     OW 6349   1.232   0.349   1.689
 2074SOL    HW1 6350   1.282   0.429   1.667
 2074SOL    HW2 6351   1.293   0.278   1.671
 2075SOL     OW 6352   3.811   5.376   1.455
 2075SOL    HW1 6353   3.750   5.311   1.420
 2075SOL    HW2 6354   3.818   5.441   1.386
 2076SOL     OW 6355   1.713   3.836   0.897
 2076SOL    HW1 6356   1.674   3.751   0.878
 2076SOL    HW2 6357   1.641   3.898   0.889
 2077SOL     OW 6358   3.894   2.084   4.949
 2077SOL    HW1 6359   3.810   2.119   4.979
 2077SOL    HW2 6360   3.936   2.052   5.029
 2078SOL     OW 6361   2.256   6.828   1.155
 2078SOL    HW1 6362   2.332   6.878   1.183
 2078SOL    HW2 6363   2.245   6.760   1.222
 2079SOL     OW 6364   8.017   2.642   2.646
 2079SOL    HW1 6365   7.985   2.640   2.556
 2079SOL    HW2 6366   7.941   2.666   2.699
 2080SOL     OW 6367   6.214   2.519   2.310
 2080SOL    HW1 6368   6.282   2.493   2.249
 2080SOL    HW2 6369   6.146   2.558   2.256
 2081SOL     OW 6370   4.954   1.070   1.521
 2081SOL    HW1 6371   5.015   1.016   1.471
 2081SOL    HW2 6372   4.878   1.012   1.535
 2082SOL     OW 6373   9.767   4.312   4.231
 2082SOL    HW1 6374   9.775   4.359   4.148
 2082SOL    HW2 6375   9.712   4.236   4.211
 2083SOL     OW 6376   4.478   7.385   0.235
 2083SOL    HW1 6377   4.564   7.401   0.274
 2083SOL    HW2 6378   4.497   7.344   0.151
 2084SOL     OW 6379   2.567   5.469   3.511
 2084SOL    HW1 6380   2.641   5.421   3.473
 2084SOL    HW2 6381   2.509   5.486   3.437
 2085SOL     OW 6382   7.695   0.391   0.919
 2085SOL    HW1 6383   7.774   0.420   0.966
 2085SOL    HW2 6384   7.654   0.329   0.979
 2086SOL     OW 6385   6.231   1.170   5.051
 2086SOL    HW1 6386   6.236   1.263   5.029
 2086SOL    HW2 6387   6.322   1.142   5.059
 2087SOL     OW 6388   4.976   3.025   0.103
 2087SOL    HW1 6389   4.927   3.083   0.161
 2087SOL    HW2 6390   4.988   3.076   0.023
 2088SOL     OW 6391   4.126   6.653   3.830
 2088SOL    HW1 6392   4.168   6.712   3.894
 2088SOL    HW2 6393   4.091   6.581   3.884
 2089SOL     OW 6394   5.616   3.527   0.354
 2089SOL    HW1 6395   5.547   3.533   0.288
 2089SOL    HW2 6396   5.635   3.618   0.377
 2090SOL     OW 6397  10.192   3.014   4.097
 2090SOL    HW1 6398  10.229   3.036   4.012
 2090SOL    HW2 6399  10.258   2.959   4.140
 2091SOL     OW 6400   5.354   4.930   0.655
 2091SOL    HW1 6401   5.342   5.024   0.641
 2091SOL    HW2 6402   5.332   4.891   0.570
 2092SOL     OW 6403   4.832   3.430   0.739
 2092SOL    HW1 6404   4.798   3.504   0.789
 2092SOL    HW2 6405   4.843   3.360   0.804
 2093SOL     OW 6406   7.610   5.532   2.235
 2093SOL    HW1 6407   7.684   5.593   2.237
 2093SOL    HW2 6408   7.561   5.552   2.315
 2094SOL     OW 6409   6.591   4.620   1.917
 2094SOL    HW1 6410   6.670   4.631   1.863
 2094SOL    HW2 6411   6.608   4.540   1.967
 2095SOL     OW 6412   6.050   6.271   4.065
 2095SOL    HW1 6413   6.133   6.237   4.100
 2095SOL    HW2 6414   5.989   6.263   4.138
 2096SOL     OW 6415   6.634   5.489   0.315
 2096SOL    HW1 6416   6.607   5.565   0.263
 2096SOL    HW2 6417   6.577   5.491   0.392
 2097SOL     OW 6418   5.906   6.210   3.002
 2097SOL    HW1 6419   5.909   6.275   2.933
 2097SOL    HW2 6420   5.872   6.257   3.078
 2098SOL     OW 6421   7.570   0.845   3.995
 2098SOL    HW1 6422   7.499   0.827   4.055
 2098SOL    HW2 6423   7.631   0.772   4.007
 2099SOL     OW 6424   3.640   6.189   0.442
 2099SOL    HW1 6425   3.709   6.123   0.451
 2099SOL    HW2 6426   3.589   6.181   0.522
 2100SOL     OW 6427   4.876   7.236   4.749
 2100SOL    HW1 6428   4.968   7.260   4.759
 2100SOL    HW2 6429   4.877   7.151   4.706
 2101SOL     OW 6430   2.109   2.108   2.394
 2101SOL    HW1 6431   2.126   2.030   2.446
 2101SOL    HW2 6432   2.044   2.157   2.444
 2102SOL     OW 6433   6.362   5.321   2.699
 2102SOL    HW1 6434   6.370   5.242   2.645
 2102SOL    HW2 6435   6.353   5.392   2.636
 2103SOL     OW 6436   8.310   6.734   3.116
 2103SOL    HW1 6437   8.333   6.750   3.024
 2103SOL    HW2 6438   8.245   6.664   3.113
 2104SOL     OW 6439  10.477   3.237   5.164
 2104SOL    HW1 6440  10.537   3.166   5.140
 2104SOL    HW2 6441  10.492   3.249   5.258
 2105SOL     OW 6442   2.651   4.400   1.815
 2105SOL    HW1 6443   2.665   4.362   1.728
 2105SOL    HW2 6444   2.708   4.476   1.818
 2106SOL     OW 6445   3.157   4.491   4.006
 2106SOL    HW1 6446   3.127   4.411   4.049
 2106SOL    HW2 6447   3.217   4.460   3.938
 2107SOL     OW 6448   3.879   1.301   3.445
 2107SOL    HW1 6449   3.946   1.366   3.466
 2107SOL    HW2 6450   3.809   1.317   3.509
 2108SOL     OW 6451  10.365   6.327   4.643
 2108SOL    HW1 6452  10.322   6.296   4.723
 2108SOL    HW2 6453  10.418   6.401   4.670
 2109SOL     OW 6454   8.592   5.305   5.136
 2109SOL    HW1 6455   8.610   5.218   5.171
 2109SOL    HW2 6456   8.664   5.323   5.077
 2110SOL     OW 6457   5.161   1.284   4.620
 2110SOL    HW1 6458   5.138   1.209   4.566
 2110SOL    HW2 6459   5.116   1.358   4.579
 2111SOL     OW 6460   4.403   6.995   5.110
 2111SOL    HW1 6461   4.480   6.989   5.054
 2111SOL    HW2 6462   4.396   6.909   5.150
 2112SOL     OW 6463   5.510   2.556   2.655
 2112SOL    HW1 6464   5.506   2.625   2.721
 2112SOL    HW2 6465   5.597   2.566   2.615
 2113SOL     OW 6466   5.347   4.308   4.998
 2113SOL    HW1 6467   5.382   4.219   4.995
 2113SOL    HW2 6468   5.304   4.319   4.913
 2114SOL     OW 6469   3.960   0.911   0.500
 2114SOL    HW1 6470   4.006   0.904   0.416
 2114SOL    HW2 6471   4.025   0.880   0.564
 2115SOL     OW 6472   6.472   3.835   4.797
 2115SOL    HW1 6473   6.531   3.794   4.734
 2115SOL    HW2 6474   6.394   3.780   4.796
 2116SOL     OW 6475   3.452   3.774   2.485
 2116SOL    HW1 6476   3.409   3.747   2.566
 2116SOL    HW2 6477   3.544   3.787   2.510
 2117SOL     OW 6478   3.693   0.256   5.115
 2117SOL    HW1 6479   3.734   0.177   5.152
 2117SOL    HW2 6480   3.766   0.309   5.084
 2118SOL     OW 6481   7.580   0.116   1.277
 2118SOL    HW1 6482   7.542   0.069   1.203
 2118SOL    HW2 6483   7.515   0.106   1.347
 2119SOL     OW 6484   1.069   4.928   1.127
 2119SOL    HW1 6485   0.988   4.882   1.147
 2119SOL    HW2 6486   1.090   4.976   1.207
 2120SOL     OW 6487   4.832   1.245   0.629
 2120SOL    HW1 6488   4.927   1.234   0.618
 2120SOL    HW2 6489   4.794   1.174   0.578
 2121SOL     OW 6490   3.970   4.441   3.829
 2121SOL    HW1 6491   3.939   4.470   3.915
 2121SOL    HW2 6492   3.965   4.519   3.774
 2122SOL     OW 6493   1.684   0.044   0.586
 2122SOL    HW1 6494   1.619   0.003   0.643
 2122SOL    HW2 6495   1.669   0.138   0.596
 2123SOL     OW 6496   5.934   7.048   0.588
 2123SOL    HW1 6497   5.851   7.075   0.627
 2123SOL    HW2 6498   5.935   7.089   0.502
 2124SOL     OW 6499   4.967   6.443   2.637
 2124SOL    HW1 6500   4.931   6.363   2.598
 2124SOL    HW2 6501   4.901   6.472   2.699
 2125SOL     OW 6502   1.991   4.752   0.616
 2125SOL    HW1 6503   1.969   4.688   0.549
 2125SOL    HW2 6504   1.971   4.836   0.577
 2126SOL     OW 6505   7.937   6.376   2.694
 2126SOL    HW1 6506   7.993   6.399   2.768
 2126SOL    HW2 6507   7.848   6.385   2.729
 2127SOL     OW 6508   2.491   3.713   0.371
 2127SOL    HW1 6509   2.543   3.637   0.345
 2127SOL    HW2 6510   2.516   3.730   0.462
 2128SOL     OW 6511  10.081   5.316   4.155
 2128SOL    HW1 6512   9.991   5.317   4.187
 2128SOL    HW2 6513  10.114   5.230   4.179
 2129SOL     OW 6514   4.451   7.147   3.041
 2129SOL    HW1 6515   4.488   7.096   3.112
 2129SOL    HW2 6516   4.476   7.100   2.962
 2130SOL     OW 6517   3.968   6.768   4.552
 2130SOL    HW1 6518   3.874   6.774   4.568
 2130SOL    HW2 6519   3.982   6.817   4.471
 2131SOL     OW 6520   5.556   1.390   3.133
 2131SOL    HW1 6521   5.634   1.445   3.139
 2131SOL    HW2 6522   5.516   1.413   3.049
 2132SOL     OW 6523   6.725   4.045   4.871
 2132SOL    HW1 6524   6.784   4.017   4.941
 2132SOL    HW2 6525   6.640   4.055   4.914
 2133SOL     OW 6526   7.296   7.262   4.178
 2133SOL    HW1 6527   7.262   7.283   4.265
 2133SOL    HW2 6528   7.338   7.342   4.148
 2134SOL     OW 6529   4.243   1.238   0.822
 2134SOL    HW1 6530   4.175   1.261   0.885
 2134SOL    HW2 6531   4.324   1.269   0.862
 2135SOL     OW 6532   3.969   7.468   3.357
 2135SOL    HW1 6533   4.053   7.426   3.339
 2135SOL    HW2 6534   3.946   7.512   3.275
 2136SOL     OW 6535   6.667   0.510   0.643
 2136SOL    HW1 6536   6.603   0.561   0.692
 2136SOL    HW2 6537   6.730   0.480   0.708
 2137SOL     OW 6538   3.627   3.426   1.869
 2137SOL    HW1 6539   3.697   3.368   1.902
 2137SOL    HW2 6540   3.550   3.370   1.865
 2138SOL     OW 6541   7.438   1.889   4.656
 2138SOL    HW1 6542   7.427   1.803   4.615
 2138SOL    HW2 6543   7.485   1.871   4.737
 2139SOL     OW 6544   9.329   0.974   2.654
 2139SOL    HW1 6545   9.324   1.011   2.566
 2139SOL    HW2 6546   9.238   0.964   2.681
 2140SOL     OW 6547   8.188   0.448   3.350
 2140SOL    HW1 6548   8.222   0.457   3.261
 2140SOL    HW2 6549   8.180   0.538   3.382
 2141SOL     OW 6550   7.514   3.087   2.718
 2141SOL    HW1 6551   7.456   3.139   2.663
 2141SOL    HW2 6552   7.548   3.150   2.783
 2142SOL     OW 6553   5.098   6.264   3.791
 2142SOL    HW1 6554   5.180   6.250   3.838
 2142SOL    HW2 6555   5.057   6.339   3.835
 2143SOL     OW 6556   8.866   1.914   3.749
 2143SOL    HW1 6557   8.925   1.896   3.675
 2143SOL    HW2 6558   8.798   1.848   3.741
 2144SOL     OW 6559   7.495   2.287   2.043
 2144SOL    HW1 6560   7.540   2.370   2.058
 2144SOL    HW2 6561   7.526   2.257   1.958
 2145SOL     OW 6562   1.858   5.226   0.921
 2145SOL    HW1 6563   1.879   5.224   1.015
 2145SOL    HW2 6564   1.854   5.134   0.895
 2146SOL     OW 6565   4.112   7.382   1.964
 2146SOL    HW1 6566   4.042   7.430   2.006
 2146SOL    HW2 6567   4.189   7.439   1.971
 2147SOL     OW 6568   2.689   6.286   2.998
 2147SOL    HW1 6569   2.695   6.227   3.073
 2147SOL    HW2 6570   2.771   6.336   3.000
 2148SOL     OW 6571   8.968   3.880   4.852
 2148SOL    HW1 6572   8.921   3.902   4.932
 2148SOL    HW2 6573   9.029   3.811   4.878
 2149SOL     OW 6574   5.798   1.305   2.878
 2149SOL    HW1 6575   5.822   1.318   2.787
 2149SOL    HW2 6576   5.854   1.366   2.927
 2150SOL     OW 6577   5.980   3.032   4.225
 2150SOL    HW1 6578   5.889   3.059   4.234
 2150SOL    HW2 6579   5.995   3.030   4.130
 2151SOL     OW 6580   2.836   3.102   3.851
 2151SOL    HW1 6581   2.817   3.172   3.789
 2151SOL    HW2 6582   2.921   3.068   3.825
 2152SOL     OW 6583   6.647   5.766   0.890
 2152SOL    HW1 6584   6.639   5.717   0.807
 2152SOL    HW2 6585   6.564   5.813   0.897
 2153SOL     OW 6586   1.289   4.474   0.618
 2153SOL    HW1 6587   1.345   4.399   0.599
 2153SOL    HW2 6588   1.251   4.499   0.534
 2154SOL     OW 6589   6.186   1.279   1.625
 2154SOL    HW1 6590   6.226   1.349   1.678
 2154SOL    HW2 6591   6.209   1.301   1.535
 2155SOL     OW 6592   7.348   6.674   3.189
 2155SOL    HW1 6593   7.265   6.661   3.235
 2155SOL    HW2 6594   7.402   6.723   3.251
 2156SOL     OW 6595   3.281   3.757   0.746
 2156SOL    HW1 6596   3.318   3.837   0.710
 2156SOL    HW2 6597   3.351   3.692   0.737
 2157SOL     OW 6598   8.595   6.638   3.304
 2157SOL    HW1 6599   8.652   6.562   3.305
 2157SOL    HW2 6600   8.521   6.612   3.249
 2158SOL     OW 6601   2.089   5.496   2.858
 2158SOL    HW1 6602   2.039   5.415   2.850
 2158SOL    HW2 6603   2.180   5.469   2.846
 2159SOL     OW 6604   1.984   3.625   0.081
 2159SOL    HW1 6605   1.892   3.635   0.103
 2159SOL    HW2 6606   2.005   3.700   0.026
 2160SOL     OW 6607   3.505   5.145   2.071
 2160SOL    HW1 6608   3.507   5.234   2.036
 2160SOL    HW2 6609   3.433   5.146   2.134
 2161SOL     OW 6610   1.214   1.450   0.556
 2161SOL    HW1 6611   1.285   1.489   0.505
 2161SOL    HW2 6612   1.140   1.510   0.545
 2162SOL     OW 6613   4.269   4.009   1.862
 2162SOL    HW1 6614   4.182   4.030   1.896
 2162SOL    HW2 6615   4.306   4.094   1.836
 2163SOL     OW 6616   4.839   4.514   0.972
 2163SOL    HW1 6617   4.919   4.559   0.997
 2163SOL    HW2 6618   4.833   4.526   0.877
 2164SOL     OW 6619   3.623   2.882   3.874
 2164SOL    HW1 6620   3.548   2.941   3.868
 2164SOL    HW2 6621   3.603   2.826   3.948
 2165SOL     OW 6622   8.014   5.871   4.825
 2165SOL    HW1 6623   7.954   5.922   4.879
 2165SOL    HW2 6624   7.984   5.886   4.735
 2166SOL     OW 6625   5.752   0.690   3.789
 2166SOL    HW1 6626   5.845   0.705   3.805
 2166SOL    HW2 6627   5.726   0.761   3.730
 2167SOL     OW 6628   5.737   0.865   4.089
 2167SOL    HW1 6629   5.729   0.808   4.013
 2167SOL    HW2 6630   5.690   0.819   4.158
 2168SOL     OW 6631   6.961   5.237  -0.034
 2168SOL    HW1 6632   6.878   5.273  -0.003
 2168SOL    HW2 6633   7.019   5.238   0.042
 2169SOL     OW 6634   4.836   1.950   4.636
 2169SOL    HW1 6635   4.916   1.901   4.656
 2169SOL    HW2 6636   4.843   2.030   4.688
 2170SOL     OW 6637   4.335   4.876   0.770
 2170SOL    HW1 6638   4.352   4.783   0.782
 2170SOL    HW2 6639   4.239   4.883   0.770
 2171SOL     OW 6640   4.920   4.019   0.229
 2171SOL    HW1 6641   4.906   3.925   0.227
 2171SOL    HW2 6642   4.849   4.052   0.286
 2172SOL     OW 6643   3.468   0.519   3.562
 2172SOL    HW1 6644   3.425   0.506   3.477
 2172SOL    HW2 6645   3.553   0.556   3.540
 2173SOL     OW 6646   5.015   0.770   3.940
 2173SOL    HW1 6647   5.048   0.721   3.865
 2173SOL    HW2 6648   4.925   0.792   3.917
 2174SOL     OW 6649   2.046   0.948   1.812
 2174SOL    HW1 6650   2.062   0.988   1.897
 2174SOL    HW2 6651   1.979   1.003   1.771
 2175SOL     OW 6652   6.890   7.235   3.583
 2175SOL    HW1 6653   6.848   7.320   3.571
 2175SOL    HW2 6654   6.926   7.214   3.497
 2176SOL     OW 6655   4.761   5.439   3.405
 2176SOL    HW1 6656   4.851   5.443   3.437
 2176SOL    HW2 6657   4.729   5.529   3.412
 2177SOL     OW 6658   6.695   3.900   2.759
 2177SOL    HW1 6659   6.638   3.865   2.828
 2177SOL    HW2 6660   6.634   3.937   2.695
 2178SOL     OW 6661   3.540   0.911   3.170
 2178SOL    HW1 6662   3.522   0.921   3.077
 2178SOL    HW2 6663   3.578   0.824   3.178
 2179SOL     OW 6664   5.774   7.034   4.832
 2179SOL    HW1 6665   5.753   7.099   4.898
 2179SOL    HW2 6666   5.704   7.044   4.766
 2180SOL     OW 6667   6.798   3.065   2.055
 2180SOL    HW1 6668   6.797   2.979   2.098
 2180SOL    HW2 6669   6.781   3.127   2.126
 2181SOL     OW 6670   5.197   2.902   3.685
 2181SOL    HW1 6671   5.183   2.974   3.624
 2181SOL    HW2 6672   5.146   2.926   3.763
 2182SOL     OW 6673   5.260   4.281   0.714
 2182SOL    HW1 6674   5.245   4.375   0.712
 2182SOL    HW2 6675   5.197   4.248   0.778
 2183SOL     OW 6676   4.763   6.339   1.953
 2183SOL    HW1 6677   4.818   6.265   1.980
 2183SOL    HW2 6678   4.681   6.299   1.925
 2184SOL     OW 6679   5.336   1.854   2.929
 2184SOL    HW1 6680   5.386   1.934   2.908
 2184SOL    HW2 6681   5.247   1.873   2.900
 2185SOL     OW 6682   6.944   1.227   5.274
 2185SOL    HW1 6683   6.887   1.197   5.203
 2185SOL    HW2 6684   6.884   1.254   5.343
 2186SOL     OW 6685  10.130   1.496   4.048
 2186SOL    HW1 6686  10.118   1.401   4.043
 2186SOL    HW2 6687  10.068   1.524   4.115
 2187SOL     OW 6688   8.603   5.001   5.223
 2187SOL    HW1 6689   8.590   4.990   5.317
 2187SOL    HW2 6690   8.526   4.962   5.182
 2188SOL     OW 6691   8.237   1.116   3.563
 2188SOL    HW1 6692   8.326   1.148   3.582
 2188SOL    HW2 6693   8.180   1.184   3.599
 2189SOL     OW 6694   4.796   4.179   0.039
 2189SOL    HW1 6695   4.817   4.115  -0.028
 2189SOL    HW2 6696   4.849   4.154   0.114
 2190SOL     OW 6697   7.561   1.648   0.226
 2190SOL    HW1 6698   7.552   1.633   0.132
 2190SOL    HW2 6699   7.554   1.560   0.265
 2191SOL     OW 6700   7.876   0.545   2.973
 2191SOL    HW1 6701   7.873   0.631   3.013
 2191SOL    HW2 6702   7.834   0.487   3.037
 2192SOL     OW 6703   8.863   0.706   3.482
 2192SOL    HW1 6704   8.795   0.645   3.454
 2192SOL    HW2 6705   8.845   0.786   3.432
 2193SOL     OW 6706   7.492   2.077   5.275
 2193SOL    HW1 6707   7.421   2.093   5.338
 2193SOL    HW2 6708   7.450   2.088   5.190
 2194SOL     OW 6709   5.850   5.538   4.852
 2194SOL    HW1 6710   5.884   5.558   4.938
 2194SOL    HW2 6711   5.761   5.507   4.868
 2195SOL     OW 6712   2.632   6.619   1.623
 2195SOL    HW1 6713   2.537   6.630   1.620
 2195SOL    HW2 6714   2.655   6.632   1.715
 2196SOL     OW 6715   5.478   0.176   1.035
 2196SOL    HW1 6716   5.384   0.158   1.032
 2196SOL    HW2 6717   5.489   0.254   0.981
 2197SOL     OW 6718   7.650   2.675   3.089
 2197SOL    HW1 6719   7.676   2.665   3.180
 2197SOL    HW2 6720   7.700   2.609   3.042
 2198SOL     OW 6721   6.437   1.306   4.895
 2198SOL    HW1 6722   6.496   1.286   4.968
 2198SOL    HW2 6723   6.408   1.395   4.911
 2199SOL     OW 6724  10.184   3.744   4.480
 2199SOL    HW1 6725  10.116   3.799   4.519
 2199SOL    HW2 6726  10.144   3.657   4.475
 2200SOL     OW 6727   8.545   7.100   4.073
 2200SOL    HW1 6728   8.538   7.073   4.165
 2200SOL    HW2 6729   8.623   7.054   4.040
 2201SOL     OW 6730  10.321   4.573   4.805
 2201SOL    HW1 6731  10.232   4.587   4.774
 2201SOL    HW2 6732  10.347   4.656   4.845
 2202SOL     OW 6733   4.958   1.528   4.228
 2202SOL    HW1 6734   4.940   1.450   4.175
 2202SOL    HW2 6735   4.903   1.596   4.190
 2203SOL     OW 6736   7.340   4.704   1.768
 2203SOL    HW1 6737   7.286   4.626   1.754
 2203SOL    HW2 6738   7.277   4.773   1.789
 2204SOL     OW 6739   6.868   0.784   0.257
 2204SOL    HW1 6740   6.801   0.777   0.189
 2204SOL    HW2 6741   6.879   0.695   0.289
 2205SOL     OW 6742   7.106   2.422   1.849
 2205SOL    HW1 6743   7.075   2.347   1.798
 2205SOL    HW2 6744   7.066   2.411   1.935
 2206SOL     OW 6745   9.042   7.392   2.871
 2206SOL    HW1 6746   9.133   7.367   2.859
 2206SOL    HW2 6747   9.004   7.319   2.921
 2207SOL     OW 6748   5.988   1.304   2.138
 2207SOL    HW1 6749   6.065   1.329   2.190
 2207SOL    HW2 6750   6.024   1.260   2.061
 2208SOL     OW 6751   6.611   5.814   4.497
 2208SOL    HW1 6752   6.574   5.825   4.584
 2208SOL    HW2 6753   6.543   5.770   4.446
 2209SOL     OW 6754   3.418   0.482   0.989
 2209SOL    HW1 6755   3.339   0.460   1.038
 2209SOL    HW2 6756   3.398   0.455   0.899
 2210SOL     OW 6757   9.318   0.527   4.605
 2210SOL    HW1 6758   9.240   0.485   4.642
 2210SOL    HW2 6759   9.319   0.614   4.645
 2211SOL     OW 6760   8.036   7.025   5.027
 2211SOL    HW1 6761   7.984   7.098   4.994
 2211SOL    HW2 6762   7.972   6.963   5.061
 2212SOL     OW 6763   5.108   5.777   2.365
 2212SOL    HW1 6764   5.014   5.778   2.384
 2212SOL    HW2 6765   5.116   5.723   2.287
 2213SOL     OW 6766   9.988   2.243   4.519
 2213SOL    HW1 6767   9.984   2.155   4.556
 2213SOL    HW2 6768   9.997   2.229   4.425
 2214SOL     OW 6769   9.026   7.199   4.917
 2214SOL    HW1 6770   9.064   7.262   4.856
 2214SOL    HW2 6771   9.031   7.243   5.002
 2215SOL     OW 6772   6.933   2.272   0.753
 2215SOL    HW1 6773   6.853   2.235   0.715
 2215SOL    HW2 6774   7.004   2.223   0.713
 2216SOL     OW 6775   2.024   0.704   0.639
 2216SOL    HW1 6776   1.967   0.647   0.690
 2216SOL    HW2 6777   1.983   0.790   0.644
 2217SOL     OW 6778   7.738   1.778   2.445
 2217SOL    HW1 6779   7.782   1.703   2.485
 2217SOL    HW2 6780   7.763   1.774   2.353
 2218SOL     OW 6781   2.679   2.620   3.072
 2218SOL    HW1 6782   2.605   2.607   3.013
 2218SOL    HW2 6783   2.728   2.539   3.067
 2219SOL     OW 6784   6.150   3.726   2.562
 2219SOL    HW1 6785   6.072   3.680   2.592
 2219SOL    HW2 6786   6.119   3.814   2.541
 2220SOL     OW 6787   2.710   1.860   1.364
 2220SOL    HW1 6788   2.645   1.900   1.422
 2220SOL    HW2 6789   2.688   1.893   1.277
 2221SOL     OW 6790   9.269   3.263   4.937
 2221SOL    HW1 6791   9.251   3.220   5.021
 2221SOL    HW2 6792   9.205   3.224   4.877
 2222SOL     OW 6793   2.291   1.778   1.132
 2222SOL    HW1 6794   2.201   1.749   1.118
 2222SOL    HW2 6795   2.338   1.750   1.053
 2223SOL     OW 6796   4.232   4.749   5.131
 2223SOL    HW1 6797   4.164   4.681   5.131
 2223SOL    HW2 6798   4.206   4.809   5.062
 2224SOL     OW 6799   9.310   2.366   2.802
 2224SOL    HW1 6800   9.341   2.456   2.814
 2224SOL    HW2 6801   9.316   2.327   2.889
 2225SOL     OW 6802   7.605   1.551   0.929
 2225SOL    HW1 6803   7.570   1.598   0.853
 2225SOL    HW2 6804   7.547   1.576   1.001
 2226SOL     OW 6805   3.533   3.788   4.159
 2226SOL    HW1 6806   3.548   3.880   4.181
 2226SOL    HW2 6807   3.438   3.777   4.167
 2227SOL     OW 6808   5.720   5.851   2.305
 2227SOL    HW1 6809   5.698   5.907   2.231
 2227SOL    HW2 6810   5.815   5.840   2.300
 2228SOL     OW 6811   6.095   1.367   2.794
 2228SOL    HW1 6812   6.058   1.391   2.878
 2228SOL    HW2 6813   6.049   1.421   2.730
 2229SOL     OW 6814   5.353   4.910   3.439
 2229SOL    HW1 6815   5.438   4.953   3.447
 2229SOL    HW2 6816   5.358   4.835   3.497
 2230SOL     OW 6817   5.399   4.723   4.778
 2230SOL    HW1 6818   5.460   4.656   4.747
 2230SOL    HW2 6819   5.453   4.800   4.796
 2231SOL     OW 6820   5.609   3.229   0.918
 2231SOL    HW1 6821   5.680   3.294   0.911
 2231SOL    HW2 6822   5.621   3.172   0.841
 2232SOL     OW 6823   6.031   5.688   3.559
 2232SOL    HW1 6824   6.106   5.670   3.502
 2232SOL    HW2 6825   5.963   5.629   3.529
 2233SOL     OW 6826   2.511   3.362   1.405
 2233SOL    HW1 6827   2.595   3.356   1.451
 2233SOL    HW2 6828   2.447   3.325   1.466
 2234SOL     OW 6829   6.090   3.316   1.403
 2234SOL    HW1 6830   6.038   3.395   1.388
 2234SOL    HW2 6831   6.079   3.264   1.323
 2235SOL     OW 6832   2.917   2.562   1.008
 2235SOL    HW1 6833   2.916   2.651   0.972
 2235SOL    HW2 6834   2.844   2.517   0.964
 2236SOL     OW 6835   8.113   7.437   5.013
 2236SOL    HW1 6836   8.141   7.463   5.100
 2236SOL    HW2 6837   8.058   7.360   5.027
 2237SOL     OW 6838   3.901   2.377   4.758
 2237SOL    HW1 6839   3.967   2.339   4.701
 2237SOL    HW2 6840   3.879   2.307   4.820
 2238SOL     OW 6841   6.498   0.533   4.093
 2238SOL    HW1 6842   6.536   0.509   4.008
 2238SOL    HW2 6843   6.506   0.628   4.097
 2239SOL     OW 6844   8.173   4.088   4.902
 2239SOL    HW1 6845   8.179   4.078   4.807
 2239SOL    HW2 6846   8.137   4.176   4.914
 2240SOL     OW 6847   3.197   0.316   1.501
 2240SOL    HW1 6848   3.220   0.294   1.591
 2240SOL    HW2 6849   3.114   0.271   1.486
 2241SOL     OW 6850  10.433   2.353   4.312
 2241SOL    HW1 6851  10.467   2.343   4.401
 2241SOL    HW2 6852  10.339   2.337   4.320
 2242SOL     OW 6853   7.653   5.957   0.843
 2242SOL    HW1 6854   7.642   6.045   0.879
 2242SOL    HW2 6855   7.578   5.908   0.875
 2243SOL     OW 6856   5.288   6.629   3.840
 2243SOL    HW1 6857   5.243   6.622   3.756
 2243SOL    HW2 6858   5.280   6.722   3.863
 2244SOL     OW 6859   5.462   2.165   1.461
 2244SOL    HW1 6860   5.430   2.225   1.528
 2244SOL    HW2 6861   5.451   2.213   1.379
 2245SOL     OW 6862   6.487   2.272   2.499
 2245SOL    HW1 6863   6.452   2.209   2.562
 2245SOL    HW2 6864   6.424   2.272   2.427
 2246SOL     OW 6865   7.898   0.821   1.210
 2246SOL    HW1 6866   7.875   0.833   1.118
 2246SOL    HW2 6867   7.836   0.875   1.258
 2247SOL     OW 6868   6.087   0.157   2.201
 2247SOL    HW1 6869   6.112   0.241   2.238
 2247SOL    HW2 6870   5.995   0.167   2.179
 2248SOL     OW 6871   3.504   6.418   3.576
 2248SOL    HW1 6872   3.465   6.505   3.570
 2248SOL    HW2 6873   3.443   6.361   3.529
 2249SOL     OW 6874   8.213   2.745   2.775
 2249SOL    HW1 6875   8.170   2.722   2.858
 2249SOL    HW2 6876   8.154   2.714   2.707
 2250SOL     OW 6877   5.799   2.790   0.572
 2250SOL    HW1 6878   5.886   2.812   0.537
 2250SOL    HW2 6879   5.754   2.747   0.499
 2251SOL     OW 6880   1.764   0.427   0.432
 2251SOL    HW1 6881   1.826   0.370   0.386
 2251SOL    HW2 6882   1.796   0.516   0.416
 2252SOL     OW 6883   5.542   4.268   3.639
 2252SOL    HW1 6884   5.621   4.222   3.612
 2252SOL    HW2 6885   5.475   4.200   3.647
 2253SOL     OW 6886   2.293   6.378   2.225
 2253SOL    HW1 6887   2.214   6.409   2.180
 2253SOL    HW2 6888   2.345   6.457   2.240
 2254SOL     OW 6889   3.570   5.503   2.268
 2254SOL    HW1 6890   3.490   5.556   2.269
 2254SOL    HW2 6891   3.621   5.535   2.342
 2255SOL     OW 6892   8.789   5.568   4.725
 2255SOL    HW1 6893   8.814   5.523   4.806
 2255SOL    HW2 6894   8.738   5.503   4.677
 2256SOL     OW 6895   6.087   2.125   1.943
 2256SOL    HW1 6896   6.134   2.085   1.869
 2256SOL    HW2 6897   5.999   2.087   1.939
 2257SOL     OW 6898   6.719   0.756   4.014
 2257SOL    HW1 6899   6.744   0.681   3.960
 2257SOL    HW2 6900   6.772   0.747   4.093
 2258SOL     OW 6901   6.443   4.952   0.128
 2258SOL    HW1 6902   6.511   4.926   0.190
 2258SOL    HW2 6903   6.365   4.964   0.182
 2259SOL     OW 6904   7.729   3.672   3.220
 2259SOL    HW1 6905   7.747   3.715   3.304
 2259SOL    HW2 6906   7.797   3.606   3.212
 2260SOL     OW 6907   4.220   4.275   3.669
 2260SOL    HW1 6908   4.294   4.292   3.728
 2260SOL    HW2 6909   4.161   4.220   3.720
 2261SOL     OW 6910   9.056   2.063   2.429
 2261SOL    HW1 6911   9.034   2.047   2.521
 2261SOL    HW2 6912   8.977   2.101   2.391
 2262SOL     OW 6913   5.476   5.595   3.610
 2262SOL    HW1 6914   5.394   5.624   3.649
 2262SOL    HW2 6915   5.543   5.651   3.649
 2263SOL     OW 6916   6.102   0.133   2.729
 2263SOL    HW1 6917   6.100   0.107   2.822
 2263SOL    HW2 6918   6.101   0.228   2.730
 2264SOL     OW 6919   2.775   0.082   1.025
 2264SOL    HW1 6920   2.741   0.171   1.024
 2264SOL    HW2 6921   2.698   0.026   1.022
 2265SOL     OW 6922   8.191   6.095   4.942
 2265SOL    HW1 6923   8.257   6.120   4.877
 2265SOL    HW2 6924   8.134   6.034   4.895
 2266SOL     OW 6925   5.885   6.443   1.560
 2266SOL    HW1 6926   5.901   6.351   1.539
 2266SOL    HW2 6927   5.791   6.449   1.574
 2267SOL     OW 6928   1.499   5.592   0.034
 2267SOL    HW1 6929   1.497   5.687   0.024
 2267SOL    HW2 6930   1.592   5.571   0.042
 2268SOL     OW 6931   1.608   2.715   0.314
 2268SOL    HW1 6932   1.523   2.672   0.316
 2268SOL    HW2 6933   1.663   2.657   0.262
 2269SOL     OW 6934   6.277   6.572   2.264
 2269SOL    HW1 6935   6.258   6.549   2.355
 2269SOL    HW2 6936   6.197   6.616   2.234
 2270SOL     OW 6937   6.241   0.809   0.384
 2270SOL    HW1 6938   6.310   0.764   0.433
 2270SOL    HW2 6939   6.288   0.855   0.315
 2271SOL     OW 6940   7.824   6.368   4.130
 2271SOL    HW1 6941   7.733   6.384   4.107
 2271SOL    HW2 6942   7.821   6.330   4.217
 2272SOL     OW 6943   5.216   1.277   3.459
 2272SOL    HW1 6944   5.208   1.285   3.363
 2272SOL    HW2 6945   5.307   1.302   3.477
 2273SOL     OW 6946   8.595   5.799   4.799
 2273SOL    HW1 6947   8.642   5.787   4.717
 2273SOL    HW2 6948   8.506   5.767   4.780
 2274SOL     OW 6949   6.707   1.549   2.679
 2274SOL    HW1 6950   6.618   1.579   2.701
 2274SOL    HW2 6951   6.707   1.545   2.583
 2275SOL     OW 6952   2.505   0.428   3.130
 2275SOL    HW1 6953   2.484   0.469   3.214
 2275SOL    HW2 6954   2.597   0.404   3.137
 2276SOL     OW 6955   7.606   1.431   2.342
 2276SOL    HW1 6956   7.614   1.516   2.299
 2276SOL    HW2 6957   7.597   1.369   2.270
 2277SOL     OW 6958   8.044   1.450   1.131
 2277SOL    HW1 6959   8.109   1.514   1.100
 2277SOL    HW2 6960   8.054   1.451   1.227
 2278SOL     OW 6961   9.715   3.408   3.369
 2278SOL    HW1 6962   9.684   3.320   3.391
 2278SOL    HW2 6963   9.660   3.434   3.294
 2279SOL     OW 6964   6.150   2.625   0.083
 2279SOL    HW1 6965   6.171   2.708   0.041
 2279SOL    HW2 6966   6.087   2.583   0.024
 2280SOL     OW 6967   6.961   1.165   3.016
 2280SOL    HW1 6968   6.885   1.221   3.001
 2280SOL    HW2 6969   7.035   1.226   3.019
 2281SOL     OW 6970   3.182   5.716   3.102
 2281SOL    HW1 6971   3.210   5.806   3.117
 2281SOL    HW2 6972   3.109   5.724   3.041
 2282SOL     OW 6973   7.700   3.682   4.873
 2282SOL    HW1 6974   7.719   3.590   4.857
 2282SOL    HW2 6975   7.742   3.701   4.957
 2283SOL     OW 6976   4.921   3.233   3.659
 2283SOL    HW1 6977   4.831   3.265   3.668
 2283SOL    HW2 6978   4.918   3.176   3.582
 2284SOL     OW 6979   0.289   5.071   0.236
 2284SOL    HW1 6980   0.282   4.987   0.190
 2284SOL    HW2 6981   0.383   5.087   0.241
 2285SOL     OW 6982   8.778   2.732   1.929
 2285SOL    HW1 6983   8.790   2.712   1.837
 2285SOL    HW2 6984   8.762   2.827   1.932
 2286SOL     OW 6985   8.284   2.088   1.372
 2286SOL    HW1 6986   8.208   2.086   1.431
 2286SOL    HW2 6987   8.337   2.013   1.400
 2287SOL     OW 6988   5.728   2.914   3.686
 2287SOL    HW1 6989   5.663   2.917   3.616
 2287SOL    HW2 6990   5.777   2.833   3.670
 2288SOL     OW 6991   5.850   4.789   1.105
 2288SOL    HW1 6992   5.762   4.799   1.143
 2288SOL    HW2 6993   5.877   4.879   1.086
 2289SOL     OW 6994   1.561   4.055   0.065
 2289SOL    HW1 6995   1.486   4.099   0.024
 2289SOL    HW2 6996   1.547   3.962   0.049
 2290SOL     OW 6997   8.524   6.539   2.274
 2290SOL    HW1 6998   8.620   6.534   2.270
 2290SOL    HW2 6999   8.502   6.503   2.360
 2291SOL     OW 7000   2.260   5.910   1.278
 2291SOL    HW1 7001   2.319   5.969   1.231
 2291SOL    HW2 7002   2.306   5.890   1.360
 2292SOL     OW 7003   3.789   3.152   5.253
 2292SOL    HW1 7004   3.742   3.191   5.180
 2292SOL    HW2 7005   3.721   3.126   5.315
 2293SOL     OW 7006   3.055   5.661   0.587
 2293SOL    HW1 7007   3.120   5.726   0.560
 2293SOL    HW2 7008   3.099   5.577   0.571
 2294SOL     OW 7009   5.154   4.187   4.793
 2294SOL    HW1 7010   5.107   4.105   4.803
 2294SOL    HW2 7011   5.229   4.165   4.737
 2295SOL     OW 7012   1.539   1.646   0.653
 2295SOL    HW1 7013   1.467   1.695   0.693
 2295SOL    HW2 7014   1.618   1.690   0.683
 2296SOL     OW 7015   7.736   1.548   1.181
 2296SOL    HW1 7016   7.667   1.529   1.118
 2296SOL    HW2 7017   7.745   1.643   1.179
 2297SOL     OW 7018   7.814   0.081   4.033
 2297SOL    HW1 7019   7.735   0.116   3.991
 2297SOL    HW2 7020   7.855   0.026   3.966
 2298SOL     OW 7021   4.778   1.557   4.518
 2298SOL    HW1 7022   4.800   1.538   4.427
 2298SOL    HW2 7023   4.695   1.604   4.513
 2299SOL     OW 7024   5.927   1.316   4.189
 2299SOL    HW1 7025   5.971   1.299   4.272
 2299SOL    HW2 7026   5.921   1.230   4.148
 2300SOL     OW 7027   7.440   1.075   0.218
 2300SOL    HW1 7028   7.472   1.143   0.159
 2300SOL    HW2 7029   7.433   0.997   0.163
 2301SOL     OW 7030   7.777   1.386   2.734
 2301SOL    HW1 7031   7.683   1.387   2.748
 2301SOL    HW2 7032   7.800   1.292   2.731
 2302SOL     OW 7033   1.408   7.234   1.015
 2302SOL    HW1 7034   1.364   7.262   1.096
 2302SOL    HW2 7035   1.500   7.225   1.040
 2303SOL     OW 7036   3.414   3.946   4.608
 2303SOL    HW1 7037   3.468   3.880   4.564
 2303SOL    HW2 7038   3.439   3.939   4.701
 2304SOL     OW 7039   1.484   6.677   1.439
 2304SOL    HW1 7040   1.492   6.621   1.362
 2304SOL    HW2 7041   1.402   6.649   1.480
 2305SOL     OW 7042   9.406   2.631   2.838
 2305SOL    HW1 7043   9.378   2.705   2.892
 2305SOL    HW2 7044   9.358   2.640   2.756
 2306SOL     OW 7045   7.819   4.136   4.314
 2306SOL    HW1 7046   7.802   4.224   4.282
 2306SOL    HW2 7047   7.745   4.116   4.373
 2307SOL     OW 7048   5.247   4.529   0.284
 2307SOL    HW1 7049   5.183   4.578   0.232
 2307SOL    HW2 7050   5.193   4.474   0.342
 2308SOL     OW 7051   6.950   4.444   2.129
 2308SOL    HW1 7052   6.983   4.379   2.190
 2308SOL    HW2 7053   6.995   4.525   2.154
 2309SOL     OW 7054   5.801   2.865   1.360
 2309SOL    HW1 7055   5.850   2.810   1.420
 2309SOL    HW2 7056   5.820   2.829   1.273
 2310SOL     OW 7057   1.294   5.433   0.571
 2310SOL    HW1 7058   1.380   5.475   0.561
 2310SOL    HW2 7059   1.287   5.414   0.665
 2311SOL     OW 7060   8.823   2.394   4.180
 2311SOL    HW1 7061   8.819   2.316   4.124
 2311SOL    HW2 7062   8.739   2.437   4.167
 2312SOL     OW 7063   7.454   0.297   0.980
 2312SOL    HW1 7064   7.434   0.206   1.002
 2312SOL    HW2 7065   7.503   0.291   0.898
 2313SOL     OW 7066   7.774   5.550   3.153
 2313SOL    HW1 7067   7.791   5.482   3.218
 2313SOL    HW2 7068   7.771   5.504   3.069
 2314SOL     OW 7069   5.438   7.331   3.537
 2314SOL    HW1 7070   5.422   7.252   3.485
 2314SOL    HW2 7071   5.405   7.309   3.624
 2315SOL     OW 7072   5.579   1.957   1.562
 2315SOL    HW1 7073   5.544   2.037   1.523
 2315SOL    HW2 7074   5.572   1.972   1.657
 2316SOL     OW 7075   7.544   1.666   1.383
 2316SOL    HW1 7076   7.612   1.688   1.319
 2316SOL    HW2 7077   7.477   1.734   1.372
 2317SOL     OW 7078   7.897   2.448   4.876
 2317SOL    HW1 7079   7.859   2.367   4.909
 2317SOL    HW2 7080   7.983   2.421   4.841
 2318SOL     OW 7081   6.059   6.917   1.711
 2318SOL    HW1 7082   6.084   6.826   1.694
 2318SOL    HW2 7083   6.054   6.957   1.625
 2319SOL     OW 7084   1.057   4.331   1.164
 2319SOL    HW1 7085   1.117   4.322   1.090
 2319SOL    HW2 7086   1.115   4.342   1.240
 2320SOL     OW 7087   5.181   1.181   3.793
 2320SOL    HW1 7088   5.087   1.196   3.801
 2320SOL    HW2 7089   5.214   1.192   3.882
 2321SOL     OW 7090   4.661   6.386   4.062
 2321SOL    HW1 7091   4.693   6.378   3.973
 2321SOL    HW2 7092   4.598   6.458   4.059
 2322SOL     OW 7093   2.654   2.913   2.824
 2322SOL    HW1 7094   2.598   2.843   2.791
 2322SOL    HW2 7095   2.601   2.957   2.891
 2323SOL     OW 7096   9.135   1.882   2.864
 2323SOL    HW1 7097   9.214   1.933   2.847
 2323SOL    HW2 7098   9.064   1.939   2.834
 2324SOL     OW 7099   8.607   4.607   3.550
 2324SOL    HW1 7100   8.586   4.614   3.643
 2324SOL    HW2 7101   8.701   4.592   3.547
 2325SOL     OW 7102   6.013   2.402   0.523
 2325SOL    HW1 7103   5.990   2.390   0.431
 2325SOL    HW2 7104   6.059   2.486   0.525
 2326SOL     OW 7105   6.475   3.710   2.917
 2326SOL    HW1 7106   6.431   3.793   2.898
 2326SOL    HW2 7107   6.418   3.668   2.982
 2327SOL     OW 7108   5.280   6.109   0.886
 2327SOL    HW1 7109   5.202   6.164   0.880
 2327SOL    HW2 7110   5.246   6.019   0.878
 2328SOL     OW 7111   2.360   5.584   3.277
 2328SOL    HW1 7112   2.347   5.676   3.299
 2328SOL    HW2 7113   2.427   5.585   3.208
 2329SOL     OW 7114   6.231   4.839   3.377
 2329SOL    HW1 7115   6.144   4.810   3.350
 2329SOL    HW2 7116   6.231   4.934   3.361
 2330SOL     OW 7117   8.316   4.811   1.227
 2330SOL    HW1 7118   8.350   4.798   1.316
 2330SOL    HW2 7119   8.303   4.722   1.194
 2331SOL     OW 7120   3.250   6.284   2.459
 2331SOL    HW1 7121   3.331   6.234   2.459
 2331SOL    HW2 7122   3.222   6.284   2.551
 2332SOL     OW 7123   5.700   1.743   4.948
 2332SOL    HW1 7124   5.699   1.697   4.863
 2332SOL    HW2 7125   5.793   1.758   4.966
 2333SOL     OW 7126   5.181   6.182   4.367
 2333SOL    HW1 7127   5.271   6.149   4.375
 2333SOL    HW2 7128   5.135   6.144   4.442
 2334SOL     OW 7129   7.900   6.021   2.759
 2334SOL    HW1 7130   7.814   6.058   2.779
 2334SOL    HW2 7131   7.914   6.040   2.666
 2335SOL     OW 7132   6.792   5.284   0.585
 2335SOL    HW1 7133   6.856   5.284   0.657
 2335SOL    HW2 7134   6.707   5.294   0.629
 2336SOL     OW 7135   5.638   5.294   2.015
 2336SOL    HW1 7136   5.584   5.366   1.983
 2336SOL    HW2 7137   5.722   5.304   1.970
 2337SOL     OW 7138   8.272   0.889   3.352
 2337SOL    HW1 7139   8.277   0.966   3.408
 2337SOL    HW2 7140   8.205   0.834   3.392
 2338SOL     OW 7141   2.855   6.065   2.550
 2338SOL    HW1 7142   2.915   6.055   2.624
 2338SOL    HW2 7143   2.912   6.065   2.473
 2339SOL     OW 7144   3.803   5.979   4.498
 2339SOL    HW1 7145   3.863   5.970   4.572
 2339SOL    HW2 7146   3.857   5.960   4.421
 2340SOL     OW 7147   3.418   7.333   0.222
 2340SOL    HW1 7148   3.514   7.333   0.224
 2340SOL    HW2 7149   3.393   7.388   0.296
 2341SOL     OW 7150   3.044   0.018   0.534
 2341SOL    HW1 7151   3.037   0.051   0.623
 2341SOL    HW2 7152   2.973  -0.046   0.526
 2342SOL     OW 7153   4.562   7.016   3.461
 2342SOL    HW1 7154   4.535   7.007   3.552
 2342SOL    HW2 7155   4.643   6.965   3.455
 2343SOL     OW 7156   4.180   3.340   4.279
 2343SOL    HW1 7157   4.124   3.348   4.202
 2343SOL    HW2 7158   4.150   3.409   4.338
 2344SOL     OW 7159   3.098   0.877   4.186
 2344SOL    HW1 7160   3.145   0.805   4.145
 2344SOL    HW2 7161   3.095   0.855   4.279
 2345SOL     OW 7162   2.363   5.481   2.827
 2345SOL    HW1 7163   2.440   5.473   2.884
 2345SOL    HW2 7164   2.370   5.569   2.790
 2346SOL     OW 7165   3.784   0.653   0.669
 2346SOL    HW1 7166   3.769   0.600   0.591
 2346SOL    HW2 7167   3.846   0.720   0.642
 2347SOL     OW 7168   5.192   5.757   1.535
 2347SOL    HW1 7169   5.226   5.718   1.616
 2347SOL    HW2 7170   5.097   5.756   1.546
 2348SOL     OW 7171   6.368   6.370   2.665
 2348SOL    HW1 7172   6.422   6.313   2.610
 2348SOL    HW2 7173   6.289   6.318   2.683
 2349SOL     OW 7174   9.497   4.491   4.019
 2349SOL    HW1 7175   9.402   4.502   4.019
 2349SOL    HW2 7176   9.519   4.472   3.928
 2350SOL     OW 7177   5.447   7.196   5.088
 2350SOL    HW1 7178   5.388   7.234   5.153
 2350SOL    HW2 7179   5.520   7.162   5.139
 2351SOL     OW 7180   6.383   6.844   0.875
 2351SOL    HW1 7181   6.309   6.799   0.916
 2351SOL    HW2 7182   6.427   6.776   0.823
 2352SOL     OW 7183   2.547   1.579   1.629
 2352SOL    HW1 7184   2.523   1.664   1.592
 2352SOL    HW2 7185   2.643   1.584   1.637
 2353SOL     OW 7186   5.017   1.530   3.670
 2353SOL    HW1 7187   5.022   1.605   3.611
 2353SOL    HW2 7188   5.106   1.494   3.671
 2354SOL     OW 7189   4.069   4.796   4.107
 2354SOL    HW1 7190   3.974   4.788   4.118
 2354SOL    HW2 7191   4.102   4.811   4.195
 2355SOL     OW 7192   6.798   4.083   5.168
 2355SOL    HW1 7193   6.793   4.108   5.260
 2355SOL    HW2 7194   6.822   4.163   5.122
 2356SOL     OW 7195   6.628   4.888   3.840
 2356SOL    HW1 7196   6.577   4.819   3.884
 2356SOL    HW2 7197   6.629   4.861   3.748
 2357SOL     OW 7198   7.024   7.348   3.283
 2357SOL    HW1 7199   6.958   7.292   3.243
 2357SOL    HW2 7200   7.107   7.308   3.260
 2358SOL     OW 7201   3.902   0.363   1.380
 2358SOL    HW1 7202   3.846   0.438   1.400
 2358SOL    HW2 7203   3.983   0.380   1.428
 2359SOL     OW 7204   6.507   5.209   1.836
 2359SOL    HW1 7205   6.513   5.152   1.912
 2359SOL    HW2 7206   6.568   5.280   1.854
 2360SOL     OW 7207   8.567   7.296   3.021
 2360SOL    HW1 7208   8.595   7.377   3.065
 2360SOL    HW2 7209   8.484   7.319   2.980
 2361SOL     OW 7210   5.985   0.710   4.828
 2361SOL    HW1 7211   6.030   0.751   4.901
 2361SOL    HW2 7212   6.054   0.665   4.779
 2362SOL     OW 7213   4.154   3.001   3.814
 2362SOL    HW1 7214   4.249   2.993   3.816
 2362SOL    HW2 7215   4.126   2.941   3.745
 2363SOL     OW 7216   7.375   2.611   4.917
 2363SOL    HW1 7217   7.406   2.522   4.899
 2363SOL    HW2 7218   7.380   2.618   5.013
 2364SOL     OW 7219   7.247   5.593   5.021
 2364SOL    HW1 7220   7.320   5.564   5.075
 2364SOL    HW2 7221   7.249   5.688   5.027
 2365SOL     OW 7222   5.345   5.315   3.985
 2365SOL    HW1 7223   5.363   5.278   4.071
 2365SOL    HW2 7224   5.408   5.386   3.975
 2366SOL     OW 7225   1.608   0.813   0.662
 2366SOL    HW1 7226   1.527   0.849   0.624
 2366SOL    HW2 7227   1.627   0.737   0.608
 2367SOL     OW 7228   2.862   0.618   4.098
 2367SOL    HW1 7229   2.875   0.713   4.101
 2367SOL    HW2 7230   2.932   0.586   4.041
 2368SOL     OW 7231   8.743   4.921   2.545
 2368SOL    HW1 7232   8.685   4.885   2.478
 2368SOL    HW2 7233   8.786   4.845   2.583
 2369SOL     OW 7234   9.399   2.203   3.531
 2369SOL    HW1 7235   9.370   2.259   3.603
 2369SOL    HW2 7236   9.483   2.168   3.560
 2370SOL     OW 7237   3.869   3.733   2.578
 2370SOL    HW1 7238   3.904   3.762   2.663
 2370SOL    HW2 7239   3.783   3.697   2.600
 2371SOL     OW 7240   1.813   4.184   0.966
 2371SOL    HW1 7241   1.838   4.092   0.962
 2371SOL    HW2 7242   1.884   4.231   0.922
 2372SOL     OW 7243   4.101   0.613   1.444
 2372SOL    HW1 7244   4.171   0.548   1.432
 2372SOL    HW2 7245   4.056   0.585   1.524
 2373SOL     OW 7246   6.030   0.836   2.250
 2373SOL    HW1 7247   5.943   0.831   2.213
 2373SOL    HW2 7248   6.064   0.921   2.222
 2374SOL     OW 7249   4.440   6.541   4.690
 2374SOL    HW1 7250   4.433   6.464   4.634
 2374SOL    HW2 7251   4.403   6.612   4.638
 2375SOL     OW 7252   9.294   5.313   3.217
 2375SOL    HW1 7253   9.222   5.278   3.270
 2375SOL    HW2 7254   9.366   5.324   3.279
 2376SOL     OW 7255   9.939   1.455   5.119
 2376SOL    HW1 7256  10.014   1.457   5.179
 2376SOL    HW2 7257   9.956   1.379   5.064
 2377SOL     OW 7258   6.046   3.335   2.533
 2377SOL    HW1 7259   6.010   3.258   2.577
 2377SOL    HW2 7260   6.011   3.409   2.581
 2378SOL     OW 7261   4.242   1.286   1.128
 2378SOL    HW1 7262   4.148   1.278   1.109
 2378SOL    HW2 7263   4.275   1.196   1.123
 2379SOL     OW 7264   6.985   2.209   1.434
 2379SOL    HW1 7265   7.034   2.291   1.424
 2379SOL    HW2 7266   6.895   2.232   1.408
 2380SOL     OW 7267   9.514   2.505   4.656
 2380SOL    HW1 7268   9.560   2.458   4.586
 2380SOL    HW2 7269   9.522   2.448   4.733
 2381SOL     OW 7270   9.121   6.939   5.029
 2381SOL    HW1 7271   9.080   6.856   5.004
 2381SOL    HW2 7272   9.116   6.993   4.949
 2382SOL     OW 7273   2.972   5.260   0.142
 2382SOL    HW1 7274   2.887   5.222   0.119
 2382SOL    HW2 7275   2.954   5.354   0.152
 2383SOL     OW 7276  10.237   1.858   5.143
 2383SOL    HW1 7277  10.207   1.775   5.106
 2383SOL    HW2 7278  10.227   1.847   5.237
 2384SOL     OW 7279   6.452   0.804   4.068
 2384SOL    HW1 7280   6.539   0.805   4.030
 2384SOL    HW2 7281   6.458   0.864   4.143
 2385SOL     OW 7282   3.961   7.315   4.133
 2385SOL    HW1 7283   3.883   7.329   4.188
 2385SOL    HW2 7284   4.029   7.289   4.195
 2386SOL     OW 7285   7.852   5.276   4.951
 2386SOL    HW1 7286   7.915   5.315   4.890
 2386SOL    HW2 7287   7.793   5.225   4.895
 2387SOL     OW 7288   2.375   1.071   1.936
 2387SOL    HW1 7289   2.455   1.124   1.926
 2387SOL    HW2 7290   2.389   1.022   2.017
 2388SOL     OW 7291   8.437   7.052   3.537
 2388SOL    HW1 7292   8.416   7.046   3.444
 2388SOL    HW2 7293   8.467   6.964   3.561
 2389SOL     OW 7294   6.863   2.219   2.933
 2389SOL    HW1 7295   6.803   2.206   3.007
 2389SOL    HW2 7296   6.806   2.245   2.861
 2390SOL     OW 7297   7.759   1.282   3.719
 2390SOL    HW1 7298   7.688   1.244   3.667
 2390SOL    HW2 7299   7.718   1.353   3.767
 2391SOL     OW 7300   5.849   1.950   3.873
 2391SOL    HW1 7301   5.891   1.922   3.792
 2391SOL    HW2 7302   5.785   1.881   3.892
 2392SOL     OW 7303   3.018   1.662   1.040
 2392SOL    HW1 7304   2.950   1.711   0.994
 2392SOL    HW2 7305   3.035   1.586   0.984
 2393SOL     OW 7306   6.184   4.932   1.592
 2393SOL    HW1 7307   6.194   4.890   1.677
 2393SOL    HW2 7308   6.265   4.983   1.581
 2394SOL     OW 7309   6.157   3.131   1.717
 2394SOL    HW1 7310   6.173   3.141   1.811
 2394SOL    HW2 7311   6.088   3.064   1.712
 2395SOL     OW 7312   0.827   1.354   0.557
 2395SOL    HW1 7313   0.773   1.432   0.571
 2395SOL    HW2 7314   0.884   1.377   0.484
 2396SOL     OW 7315   9.246   6.429   4.854
 2396SOL    HW1 7316   9.322   6.443   4.798
 2396SOL    HW2 7317   9.235   6.334   4.858
 2397SOL     OW 7318   8.887   6.957   3.761
 2397SOL    HW1 7319   8.846   6.920   3.683
 2397SOL    HW2 7320   8.829   6.931   3.833
 2398SOL     OW 7321   4.746   0.302   3.189
 2398SOL    HW1 7322   4.839   0.317   3.205
 2398SOL    HW2 7323   4.724   0.228   3.246
 2399SOL     OW 7324   6.969   5.379   0.313
 2399SOL    HW1 7325   6.950   5.460   0.266
 2399SOL    HW2 7326   6.930   5.392   0.400
 2400SOL     OW 7327   5.883   4.351   3.840
 2400SOL    HW1 7328   5.812   4.286   3.835
 2400SOL    HW2 7329   5.919   4.341   3.928
 2401SOL     OW 7330   4.980   0.544   1.986
 2401SOL    HW1 7331   5.036   0.617   1.961
 2401SOL    HW2 7332   4.911   0.584   2.039
 2402SOL     OW 7333   5.620   6.069   4.119
 2402SOL    HW1 7334   5.534   6.056   4.079
 2402SOL    HW2 7335   5.626   6.164   4.132
 2403SOL     OW 7336   4.850   1.768   4.151
 2403SOL    HW1 7337   4.813   1.844   4.106
 2403SOL    HW2 7338   4.894   1.805   4.228
 2404SOL     OW 7339   0.460   1.949   0.616
 2404SOL    HW1 7340   0.472   1.991   0.702
 2404SOL    HW2 7341   0.446   2.022   0.556
 2405SOL     OW 7342   8.487   1.604   2.881
 2405SOL    HW1 7343   8.472   1.561   2.797
 2405SOL    HW2 7344   8.579   1.586   2.901
 2406SOL     OW 7345   7.058   5.723   1.806
 2406SOL    HW1 7346   7.140   5.683   1.832
 2406SOL    HW2 7347   6.991   5.661   1.833
 2407SOL     OW 7348   5.393   7.237   4.745
 2407SOL    HW1 7349   5.317   7.294   4.741
 2407SOL    HW2 7350   5.359   7.153   4.776
 2408SOL     OW 7351   4.944   4.070   2.849
 2408SOL    HW1 7352   4.898   4.074   2.933
 2408SOL    HW2 7353   4.933   3.980   2.820
 2409SOL     OW 7354   5.663   1.531   0.163
 2409SOL    HW1 7355   5.753   1.556   0.183
 2409SOL    HW2 7356   5.639   1.468   0.231
 2410SOL     OW 7357   2.069   1.320   2.170
 2410SOL    HW1 7358   2.161   1.316   2.197
 2410SOL    HW2 7359   2.067   1.278   2.084
 2411SOL     OW 7360   2.334   4.882   2.582
 2411SOL    HW1 7361   2.281   4.937   2.524
 2411SOL    HW2 7362   2.395   4.943   2.624
 2412SOL     OW 7363   8.106   2.120   5.002
 2412SOL    HW1 7364   8.188   2.071   4.991
 2412SOL    HW2 7365   8.079   2.141   4.913
 2413SOL     OW 7366   3.920   6.306   3.519
 2413SOL    HW1 7367   3.886   6.341   3.601
 2413SOL    HW2 7368   3.917   6.379   3.458
 2414SOL     OW 7369   2.071   5.211   0.343
 2414SOL    HW1 7370   1.978   5.193   0.354
 2414SOL    HW2 7371   2.082   5.301   0.372
 2415SOL     OW 7372  10.609   6.201   4.598
 2415SOL    HW1 7373  10.636   6.279   4.549
 2415SOL    HW2 7374  10.515   6.213   4.614
 2416SOL     OW 7375   6.175   1.066   2.267
 2416SOL    HW1 7376   6.156   1.153   2.303
 2416SOL    HW2 7377   6.233   1.026   2.331
 2417SOL     OW 7378   7.133   2.426   1.484
 2417SOL    HW1 7379   7.132   2.460   1.574
 2417SOL    HW2 7380   7.189   2.486   1.436
 2418SOL     OW 7381   6.746   2.110   1.618
 2418SOL    HW1 7382   6.716   2.186   1.568
 2418SOL    HW2 7383   6.737   2.037   1.558
 2419SOL     OW 7384   2.022   0.408   0.096
 2419SOL    HW1 7385   2.112   0.430   0.119
 2419SOL    HW2 7386   1.978   0.397   0.180
 2420SOL     OW 7387   3.519   7.161   1.505
 2420SOL    HW1 7388   3.611   7.186   1.512
 2420SOL    HW2 7389   3.522   7.066   1.493
 2421SOL     OW 7390   5.856   4.496   5.142
 2421SOL    HW1 7391   5.882   4.545   5.065
 2421SOL    HW2 7392   5.771   4.458   5.119
 2422SOL     OW 7393   7.425   1.370   0.077
 2422SOL    HW1 7394   7.341   1.417   0.077
 2422SOL    HW2 7395   7.489   1.437   0.052
 2423SOL     OW 7396   5.704   6.628   0.141
 2423SOL    HW1 7397   5.696   6.584   0.226
 2423SOL    HW2 7398   5.634   6.693   0.141
 2424SOL     OW 7399   7.456   5.002   3.662
 2424SOL    HW1 7400   7.365   4.972   3.670
 2424SOL    HW2 7401   7.487   4.963   3.581
 2425SOL     OW 7402   8.396   1.665   4.810
 2425SOL    HW1 7403   8.486   1.697   4.818
 2425SOL    HW2 7404   8.365   1.658   4.900
 2426SOL     OW 7405   5.625   3.309   1.744
 2426SOL    HW1 7406   5.705   3.260   1.727
 2426SOL    HW2 7407   5.557   3.242   1.751
 2427SOL     OW 7408   3.436   1.613   3.375
 2427SOL    HW1 7409   3.367   1.637   3.436
 2427SOL    HW2 7410   3.496   1.687   3.376
 2428SOL     OW 7411   5.783   5.035   2.407
 2428SOL    HW1 7412   5.791   4.989   2.491
 2428SOL    HW2 7413   5.712   5.097   2.420
 2429SOL     OW 7414   3.945   2.497   3.690
 2429SOL    HW1 7415   3.883   2.569   3.699
 2429SOL    HW2 7416   3.954   2.461   3.779
 2430SOL     OW 7417   3.899   0.905   1.404
 2430SOL    HW1 7418   3.890   0.838   1.471
 2430SOL    HW2 7419   3.855   0.868   1.327
 2431SOL     OW 7420   2.355   6.371   0.647
 2431SOL    HW1 7421   2.441   6.371   0.690
 2431SOL    HW2 7422   2.368   6.322   0.566
 2432SOL     OW 7423   8.196   3.703   3.523
 2432SOL    HW1 7424   8.193   3.708   3.618
 2432SOL    HW2 7425   8.289   3.691   3.503
 2433SOL     OW 7426   3.510   4.678   2.871
 2433SOL    HW1 7427   3.443   4.745   2.882
 2433SOL    HW2 7428   3.564   4.710   2.799
 2434SOL     OW 7429   3.845   4.114   3.546
 2434SOL    HW1 7430   3.768   4.086   3.595
 2434SOL    HW2 7431   3.825   4.203   3.518
 2435SOL     OW 7432   3.774   4.969   3.547
 2435SOL    HW1 7433   3.785   5.053   3.591
 2435SOL    HW2 7434   3.772   4.990   3.454
 2436SOL     OW 7435   7.275   1.170   5.164
 2436SOL    HW1 7436   7.352   1.186   5.218
 2436SOL    HW2 7437   7.203   1.164   5.227
 2437SOL     OW 7438   7.187   2.148   0.895
 2437SOL    HW1 7439   7.140   2.212   0.948
 2437SOL    HW2 7440   7.141   2.065   0.910
 2438SOL     OW 7441   4.918   5.625   1.720
 2438SOL    HW1 7442   4.899   5.667   1.636
 2438SOL    HW2 7443   4.970   5.548   1.697
 2439SOL     OW 7444   4.199   7.307   3.407
 2439SOL    HW1 7445   4.239   7.258   3.479
 2439SOL    HW2 7446   4.259   7.296   3.334
 2440SOL     OW 7447   8.667   2.410   1.952
 2440SOL    HW1 7448   8.676   2.350   2.026
 2440SOL    HW2 7449   8.697   2.494   1.985
 2441SOL     OW 7450   6.796   1.266   0.587
 2441SOL    HW1 7451   6.795   1.172   0.573
 2441SOL    HW2 7452   6.874   1.282   0.640
 2442SOL     OW 7453   8.114   2.161   1.972
 2442SOL    HW1 7454   8.056   2.189   1.901
 2442SOL    HW2 7455   8.107   2.065   1.972
 2443SOL     OW 7456   9.479   3.521   3.504
 2443SOL    HW1 7457   9.573   3.512   3.489
 2443SOL    HW2 7458   9.448   3.578   3.433
 2444SOL     OW 7459   6.899   1.770   4.855
 2444SOL    HW1 7460   6.878   1.678   4.869
 2444SOL    HW2 7461   6.995   1.773   4.860
 2445SOL     OW 7462   5.106   7.431   3.157
 2445SOL    HW1 7463   5.189   7.477   3.165
 2445SOL    HW2 7464   5.097   7.414   3.063
 2446SOL     OW 7465  10.505   0.054   4.937
 2446SOL    HW1 7466  10.489   0.105   4.858
 2446SOL    HW2 7467  10.480   0.113   5.009
 2447SOL     OW 7468   4.189   2.905   0.095
 2447SOL    HW1 7469   4.267   2.924   0.147
 2447SOL    HW2 7470   4.126   2.972   0.122
 2448SOL     OW 7471   2.064   2.701   1.881
 2448SOL    HW1 7472   2.107   2.646   1.946
 2448SOL    HW2 7473   2.121   2.698   1.805
 2449SOL     OW 7474   6.850   2.255   4.067
 2449SOL    HW1 7475   6.759   2.269   4.040
 2449SOL    HW2 7476   6.898   2.328   4.030
 2450SOL     OW 7477   2.786   6.066   0.255
 2450SOL    HW1 7478   2.833   5.983   0.255
 2450SOL    HW2 7479   2.697   6.044   0.225
 2451SOL     OW 7480   8.593   5.481   1.726
 2451SOL    HW1 7481   8.652   5.413   1.759
 2451SOL    HW2 7482   8.619   5.560   1.773
 2452SOL     OW 7483   2.223   6.115   1.991
 2452SOL    HW1 7484   2.173   6.136   2.069
 2452SOL    HW2 7485   2.306   6.080   2.024
 2453SOL     OW 7486   6.213   3.718   4.201
 2453SOL    HW1 7487   6.262   3.730   4.283
 2453SOL    HW2 7488   6.274   3.744   4.132
 2454SOL     OW 7489   3.981   4.479   2.670
 2454SOL    HW1 7490   4.021   4.402   2.629
 2454SOL    HW2 7491   3.992   4.465   2.764
 2455SOL     OW 7492   7.523   6.315   3.423
 2455SOL    HW1 7493   7.503   6.314   3.329
 2455SOL    HW2 7494   7.519   6.223   3.449
 2456SOL     OW 7495   9.808   2.517   4.283
 2456SOL    HW1 7496   9.798   2.463   4.204
 2456SOL    HW2 7497   9.895   2.494   4.317
 2457SOL     OW 7498   6.014   6.911   2.995
 2457SOL    HW1 7499   5.922   6.893   3.011
 2457SOL    HW2 7500   6.041   6.845   2.931
 2458SOL     OW 7501   3.376   4.206   4.502
 2458SOL    HW1 7502   3.464   4.241   4.513
 2458SOL    HW2 7503   3.371   4.134   4.565
 2459SOL     OW 7504   5.430   4.412   1.034
 2459SOL    HW1 7505   5.388   4.390   0.951
 2459SOL    HW2 7506   5.420   4.334   1.089
 2460SOL     OW 7507   7.755   3.657   2.941
 2460SOL    HW1 7508   7.842   3.616   2.938
 2460SOL    HW2 7509   7.719   3.642   2.854
 2461SOL     OW 7510   2.874   1.254   2.540
 2461SOL    HW1 7511   2.805   1.223   2.599
 2461SOL    HW2 7512   2.953   1.254   2.594
 2462SOL     OW 7513   3.029   2.149   3.806
 2462SOL    HW1 7514   3.063   2.076   3.755
 2462SOL    HW2 7515   3.102   2.210   3.813
 2463SOL     OW 7516   2.495   3.495   2.632
 2463SOL    HW1 7517   2.522   3.534   2.549
 2463SOL    HW2 7518   2.572   3.503   2.689
 2464SOL     OW 7519   7.923   2.057   2.192
 2464SOL    HW1 7520   7.990   2.125   2.188
 2464SOL    HW2 7521   7.840   2.105   2.201
 2465SOL     OW 7522   5.923   0.611   2.471
 2465SOL    HW1 7523   6.010   0.622   2.433
 2465SOL    HW2 7524   5.870   0.579   2.398
 2466SOL     OW 7525   6.260   4.653   4.708
 2466SOL    HW1 7526   6.319   4.583   4.735
 2466SOL    HW2 7527   6.233   4.630   4.619
 2467SOL     OW 7528   9.520   1.470   4.757
 2467SOL    HW1 7529   9.541   1.488   4.665
 2467SOL    HW2 7530   9.490   1.379   4.757
 2468SOL     OW 7531   4.305   6.505   2.865
 2468SOL    HW1 7532   4.383   6.537   2.912
 2468SOL    HW2 7533   4.323   6.413   2.849
 2469SOL     OW 7534   6.395   0.912   5.065
 2469SOL    HW1 7535   6.329   0.937   5.129
 2469SOL    HW2 7536   6.456   0.986   5.062
 2470SOL     OW 7537   3.364   4.719   0.396
 2470SOL    HW1 7538   3.367   4.747   0.304
 2470SOL    HW2 7539   3.349   4.624   0.391
 2471SOL     OW 7540   7.712   0.859   1.638
 2471SOL    HW1 7541   7.781   0.919   1.667
 2471SOL    HW2 7542   7.732   0.776   1.683
 2472SOL     OW 7543   3.153   6.836   0.961
 2472SOL    HW1 7544   3.150   6.918   1.011
 2472SOL    HW2 7545   3.131   6.768   1.026
 2473SOL     OW 7546   8.765   5.643   3.827
 2473SOL    HW1 7547   8.741   5.728   3.862
 2473SOL    HW2 7548   8.749   5.649   3.733
 2474SOL     OW 7549   6.336   6.507   0.859
 2474SOL    HW1 7550   6.243   6.532   0.860
 2474SOL    HW2 7551   6.359   6.503   0.766
 2475SOL     OW 7552   5.596   1.026   4.489
 2475SOL    HW1 7553   5.565   1.090   4.425
 2475SOL    HW2 7554   5.516   0.984   4.521
 2476SOL     OW 7555   1.606   3.302   0.069
 2476SOL    HW1 7556   1.700   3.322   0.063
 2476SOL    HW2 7557   1.597   3.219   0.022
 2477SOL     OW 7558   7.492   3.708   2.067
 2477SOL    HW1 7559   7.485   3.691   1.973
 2477SOL    HW2 7560   7.416   3.763   2.087
 2478SOL     OW 7561   7.510   1.204   3.822
 2478SOL    HW1 7562   7.586   1.251   3.854
 2478SOL    HW2 7563   7.463   1.177   3.902
 2479SOL     OW 7564   3.039   3.419   1.525
 2479SOL    HW1 7565   3.034   3.353   1.456
 2479SOL    HW2 7566   2.958   3.409   1.575
 2480SOL     OW 7567   7.833   0.416   4.408
 2480SOL    HW1 7568   7.803   0.382   4.492
 2480SOL    HW2 7569   7.873   0.340   4.364
 2481SOL     OW 7570   0.957   3.539   1.216
 2481SOL    HW1 7571   0.963   3.628   1.250
 2481SOL    HW2 7572   0.934   3.549   1.124
 2482SOL     OW 7573   6.757   5.009   4.110
 2482SOL    HW1 7574   6.771   4.916   4.130
 2482SOL    HW2 7575   6.675   5.012   4.061
 2483SOL     OW 7576   8.208   2.991   2.220
 2483SOL    HW1 7577   8.290   2.997   2.269
 2483SOL    HW2 7578   8.150   2.941   2.277
 2484SOL     OW 7579   6.912   1.751   4.296
 2484SOL    HW1 7580   6.847   1.698   4.251
 2484SOL    HW2 7581   6.904   1.838   4.255
 2485SOL     OW 7582   3.228   2.399   3.580
 2485SOL    HW1 7583   3.236   2.468   3.645
 2485SOL    HW2 7584   3.306   2.408   3.526
 2486SOL     OW 7585   6.014   4.675   2.471
 2486SOL    HW1 7586   5.925   4.640   2.466
 2486SOL    HW2 7587   6.017   4.744   2.405
 2487SOL     OW 7588   8.300   1.536   2.278
 2487SOL    HW1 7589   8.349   1.459   2.250
 2487SOL    HW2 7590   8.361   1.609   2.268
 2488SOL     OW 7591   8.434   5.031   3.791
 2488SOL    HW1 7592   8.477   4.985   3.864
 2488SOL    HW2 7593   8.423   4.964   3.724
 2489SOL     OW 7594   6.774   6.862   5.025
 2489SOL    HW1 7595   6.731   6.850   5.110
 2489SOL    HW2 7596   6.729   6.800   4.967
 2490SOL     OW 7597   7.306   1.059   0.778
 2490SOL    HW1 7598   7.364   1.133   0.795
 2490SOL    HW2 7599   7.360   0.982   0.793
 2491SOL     OW 7600   2.607   6.967   1.859
 2491SOL    HW1 7601   2.614   6.873   1.848
 2491SOL    HW2 7602   2.640   7.004   1.777
 2492SOL     OW 7603   7.636   4.617   4.390
 2492SOL    HW1 7604   7.693   4.693   4.404
 2492SOL    HW2 7605   7.636   4.605   4.295
 2493SOL     OW 7606   7.557   1.404   0.455
 2493SOL    HW1 7607   7.606   1.368   0.529
 2493SOL    HW2 7608   7.481   1.346   0.446
 2494SOL     OW 7609   9.831   1.330   4.801
 2494SOL    HW1 7610   9.786   1.261   4.850
 2494SOL    HW2 7611   9.812   1.311   4.710
 2495SOL     OW 7612   4.757   0.684   2.126
 2495SOL    HW1 7613   4.752   0.732   2.043
 2495SOL    HW2 7614   4.752   0.751   2.193
 2496SOL     OW 7615   5.274   2.260   3.297
 2496SOL    HW1 7616   5.231   2.265   3.212
 2496SOL    HW2 7617   5.256   2.344   3.339
 2497SOL     OW 7618   6.271   2.926   4.034
 2497SOL    HW1 7619   6.288   2.948   4.125
 2497SOL    HW2 7620   6.350   2.954   3.988
 2498SOL     OW 7621   6.851   5.071   1.532
 2498SOL    HW1 7622   6.838   5.166   1.525
 2498SOL    HW2 7623   6.944   5.058   1.516
 2499SOL     OW 7624   4.365   5.929   2.796
 2499SOL    HW1 7625   4.372   5.869   2.722
 2499SOL    HW2 7626   4.271   5.946   2.805
 2500SOL     OW 7627   7.284   2.730   4.524
 2500SOL    HW1 7628   7.246   2.723   4.612
 2500SOL    HW2 7629   7.209   2.741   4.466
 2501SOL     OW 7630   6.882   5.776   0.273
 2501SOL    HW1 7631   6.876   5.871   0.258
 2501SOL    HW2 7632   6.906   5.768   0.365
 2502SOL     OW 7633   8.845   1.254   4.594
 2502SOL    HW1 7634   8.931   1.247   4.554
 2502SOL    HW2 7635   8.851   1.330   4.651
 2503SOL     OW 7636   2.790   1.397   1.964
 2503SOL    HW1 7637   2.812   1.479   2.008
 2503SOL    HW2 7638   2.855   1.388   1.895
 2504SOL     OW 7639   3.859   3.683   2.271
 2504SOL    HW1 7640   3.882   3.751   2.207
 2504SOL    HW2 7641   3.943   3.655   2.307
 2505SOL     OW 7642   3.873   6.415   4.381
 2505SOL    HW1 7643   3.883   6.474   4.455
 2505SOL    HW2 7644   3.907   6.464   4.306
 2506SOL     OW 7645   4.970   1.430   1.195
 2506SOL    HW1 7646   4.956   1.387   1.110
 2506SOL    HW2 7647   4.958   1.359   1.259
 2507SOL     OW 7648   1.764   3.526   0.299
 2507SOL    HW1 7649   1.802   3.564   0.378
 2507SOL    HW2 7650   1.821   3.451   0.279
 2508SOL     OW 7651   4.669   0.111   4.443
 2508SOL    HW1 7652   4.673   0.016   4.458
 2508SOL    HW2 7653   4.603   0.122   4.375
 2509SOL     OW 7654   2.851   0.583   2.615
 2509SOL    HW1 7655   2.799   0.543   2.544
 2509SOL    HW2 7656   2.870   0.671   2.583
 2510SOL     OW 7657   2.401   1.986   0.575
 2510SOL    HW1 7658   2.408   2.035   0.656
 2510SOL    HW2 7659   2.452   2.036   0.512
 2511SOL     OW 7660   3.657   4.330   0.494
 2511SOL    HW1 7661   3.690   4.302   0.409
 2511SOL    HW2 7662   3.697   4.416   0.508
 2512SOL     OW 7663   6.675   4.986   2.220
 2512SOL    HW1 7664   6.667   4.893   2.243
 2512SOL    HW2 7665   6.684   4.985   2.124
 2513SOL     OW 7666   2.007   0.679   1.075
 2513SOL    HW1 7667   1.950   0.688   0.999
 2513SOL    HW2 7668   2.010   0.584   1.091
 2514SOL     OW 7669   5.375   1.099   3.250
 2514SOL    HW1 7670   5.336   1.115   3.165
 2514SOL    HW2 7671   5.398   1.006   3.249
 2515SOL     OW 7672   7.883   7.455   2.836
 2515SOL    HW1 7673   7.797   7.415   2.825
 2515SOL    HW2 7674   7.945   7.388   2.806
 2516SOL     OW 7675   5.197   5.623   1.275
 2516SOL    HW1 7676   5.231   5.671   1.200
 2516SOL    HW2 7677   5.192   5.688   1.346
 2517SOL     OW 7678   2.399   2.703   2.062
 2517SOL    HW1 7679   2.446   2.619   2.055
 2517SOL    HW2 7680   2.460   2.761   2.107
 2518SOL     OW 7681   3.681   7.266   4.292
 2518SOL    HW1 7682   3.590   7.290   4.276
 2518SOL    HW2 7683   3.680   7.222   4.377
 2519SOL     OW 7684   8.356   4.657   4.769
 2519SOL    HW1 7685   8.440   4.624   4.800
 2519SOL    HW2 7686   8.297   4.582   4.776
 2520SOL     OW 7687   4.805   1.511   0.536
 2520SOL    HW1 7688   4.842   1.446   0.596
 2520SOL    HW2 7689   4.725   1.540   0.580
 2521SOL     OW 7690   8.945   1.843   3.507
 2521SOL    HW1 7691   9.036   1.869   3.492
 2521SOL    HW2 7692   8.893   1.899   3.449
 2522SOL     OW 7693   6.417   3.552   1.020
 2522SOL    HW1 7694   6.359   3.561   1.096
 2522SOL    HW2 7695   6.371   3.597   0.950
 2523SOL     OW 7696   9.815   2.993   3.456
 2523SOL    HW1 7697   9.751   3.038   3.401
 2523SOL    HW2 7698   9.788   2.901   3.454
 2524SOL     OW 7699   4.058   5.304   1.540
 2524SOL    HW1 7700   4.056   5.279   1.633
 2524SOL    HW2 7701   3.965   5.312   1.517
 2525SOL     OW 7702   0.573   4.004   0.379
 2525SOL    HW1 7703   0.525   3.982   0.459
 2525SOL    HW2 7704   0.657   4.037   0.410
 2526SOL     OW 7705   8.496   6.380   2.839
 2526SOL    HW1 7706   8.567   6.316   2.847
 2526SOL    HW2 7707   8.494   6.402   2.746
 2527SOL     OW 7708   2.936   4.203   2.800
 2527SOL    HW1 7709   2.875   4.174   2.869
 2527SOL    HW2 7710   2.960   4.292   2.827
 2528SOL     OW 7711   4.389   3.655   1.271
 2528SOL    HW1 7712   4.476   3.670   1.232
 2528SOL    HW2 7713   4.405   3.589   1.338
 2529SOL     OW 7714   6.173   1.742   0.628
 2529SOL    HW1 7715   6.101   1.680   0.636
 2529SOL    HW2 7716   6.237   1.697   0.573
 2530SOL     OW 7717   5.632   5.747   2.632
 2530SOL    HW1 7718   5.675   5.831   2.619
 2530SOL    HW2 7719   5.703   5.686   2.653
 2531SOL     OW 7720   5.986   3.102   3.579
 2531SOL    HW1 7721   5.986   3.006   3.573
 2531SOL    HW2 7722   6.010   3.120   3.670
 2532SOL     OW 7723   6.422   3.299   2.904
 2532SOL    HW1 7724   6.489   3.249   2.950
 2532SOL    HW2 7725   6.405   3.374   2.962
 2533SOL     OW 7726   7.977   4.798   4.041
 2533SOL    HW1 7727   7.982   4.748   4.123
 2533SOL    HW2 7728   7.922   4.744   3.984
 2534SOL     OW 7729   3.155   3.647   1.537
 2534SOL    HW1 7730   3.149   3.669   1.630
 2534SOL    HW2 7731   3.116   3.560   1.531
 2535SOL     OW 7732   7.163   3.386   1.377
 2535SOL    HW1 7733   7.155   3.451   1.307
 2535SOL    HW2 7734   7.252   3.396   1.409
 2536SOL     OW 7735   4.083   7.090   4.437
 2536SOL    HW1 7736   4.154   7.082   4.500
 2536SOL    HW2 7737   4.100   7.173   4.393
 2537SOL     OW 7738   5.601   4.737   0.924
 2537SOL    HW1 7739   5.529   4.800   0.934
 2537SOL    HW2 7740   5.680   4.789   0.933
 2538SOL     OW 7741   7.904   5.452   3.385
 2538SOL    HW1 7742   7.988   5.475   3.424
 2538SOL    HW2 7743   7.844   5.445   3.459
 2539SOL     OW 7744   6.646   6.853   1.379
 2539SOL    HW1 7745   6.565   6.872   1.333
 2539SOL    HW2 7746   6.638   6.761   1.406
 2540SOL     OW 7747   7.834   3.839   2.537
 2540SOL    HW1 7748   7.824   3.916   2.480
 2540SOL    HW2 7749   7.897   3.783   2.491
 2541SOL     OW 7750   3.215   1.887   1.104
 2541SOL    HW1 7751   3.222   1.819   1.037
 2541SOL    HW2 7752   3.283   1.950   1.082
 2542SOL     OW 7753   9.115   6.472   5.096
 2542SOL    HW1 7754   9.138   6.479   5.003
 2542SOL    HW2 7755   9.039   6.413   5.097
 2543SOL     OW 7756   8.813   3.189   2.882
 2543SOL    HW1 7757   8.780   3.204   2.794
 2543SOL    HW2 7758   8.891   3.245   2.888
 2544SOL     OW 7759   4.087   4.129   4.269
 2544SOL    HW1 7760   4.078   4.041   4.235
 2544SOL    HW2 7761   3.997   4.162   4.275
 2545SOL     OW 7762   6.730   6.795   1.096
 2545SOL    HW1 7763   6.647   6.770   1.056
 2545SOL    HW2 7764   6.707   6.826   1.183
 2546SOL     OW 7765   2.978   4.409   1.547
 2546SOL    HW1 7766   2.997   4.317   1.564
 2546SOL    HW2 7767   3.063   4.448   1.528
 2547SOL     OW 7768   5.921   1.090   0.413
 2547SOL    HW1 7769   5.863   1.116   0.485
 2547SOL    HW2 7770   5.866   1.096   0.335
 2548SOL     OW 7771   7.549   3.734   2.709
 2548SOL    HW1 7772   7.477   3.729   2.773
 2548SOL    HW2 7773   7.574   3.827   2.708
 2549SOL     OW 7774   1.852   4.504   2.179
 2549SOL    HW1 7775   1.862   4.411   2.199
 2549SOL    HW2 7776   1.941   4.538   2.180
 2550SOL     OW 7777   5.768   7.406   0.860
 2550SOL    HW1 7778   5.855   7.397   0.899
 2550SOL    HW2 7779   5.764   7.497   0.830
 2551SOL     OW 7780   7.028   5.406   3.150
 2551SOL    HW1 7781   7.118   5.381   3.128
 2551SOL    HW2 7782   7.036   5.493   3.190
 2552SOL     OW 7783   8.774   1.834   2.948
 2552SOL    HW1 7784   8.806   1.888   3.020
 2552SOL    HW2 7785   8.679   1.844   2.950
 2553SOL     OW 7786   9.609   2.968   3.928
 2553SOL    HW1 7787   9.572   3.043   3.974
 2553SOL    HW2 7788   9.593   2.985   3.836
 2554SOL     OW 7789   8.380   0.861   3.071
 2554SOL    HW1 7790   8.326   0.850   3.150
 2554SOL    HW2 7791   8.431   0.940   3.088
 2555SOL     OW 7792   4.725   4.364   2.835
 2555SOL    HW1 7793   4.687   4.438   2.882
 2555SOL    HW2 7794   4.659   4.295   2.842
 2556SOL     OW 7795   3.026   3.239   2.679
 2556SOL    HW1 7796   2.997   3.154   2.648
 2556SOL    HW2 7797   3.045   3.289   2.599
 2557SOL     OW 7798   5.533   3.303   4.292
 2557SOL    HW1 7799   5.607   3.246   4.273
 2557SOL    HW2 7800   5.460   3.264   4.245
 2558SOL     OW 7801   1.546   0.613   0.490
 2558SOL    HW1 7802   1.593   0.531   0.475
 2558SOL    HW2 7803   1.455   0.586   0.503
 2559SOL     OW 7804   5.095   0.952   2.673
 2559SOL    HW1 7805   5.060   1.028   2.626
 2559SOL    HW2 7806   5.177   0.983   2.710
 2560SOL     OW 7807   2.039   5.623   0.667
 2560SOL    HW1 7808   1.982   5.545   0.665
 2560SOL    HW2 7809   2.060   5.635   0.759
 2561SOL     OW 7810   4.099   2.452   1.732
 2561SOL    HW1 7811   4.183   2.483   1.699
 2561SOL    HW2 7812   4.053   2.531   1.759
 2562SOL     OW 7813   8.497   5.535   4.800
 2562SOL    HW1 7814   8.548   5.473   4.748
 2562SOL    HW2 7815   8.534   5.528   4.888
 2563SOL     OW 7816   1.305   0.529   0.856
 2563SOL    HW1 7817   1.253   0.517   0.936
 2563SOL    HW2 7818   1.241   0.543   0.787
 2564SOL     OW 7819   0.864   4.919   0.631
 2564SOL    HW1 7820   0.825   4.832   0.630
 2564SOL    HW2 7821   0.905   4.926   0.717
 2565SOL     OW 7822   8.360   2.794   5.091
 2565SOL    HW1 7823   8.287   2.823   5.036
 2565SOL    HW2 7824   8.318   2.742   5.160
 2566SOL     OW 7825   6.671   1.487   3.427
 2566SOL    HW1 7826   6.578   1.479   3.448
 2566SOL    HW2 7827   6.702   1.557   3.484
 2567SOL     OW 7828   3.165   5.254   0.862
 2567SOL    HW1 7829   3.072   5.267   0.846
 2567SOL    HW2 7830   3.208   5.323   0.811
 2568SOL     OW 7831   2.332   5.907   1.553
 2568SOL    HW1 7832   2.376   5.901   1.638
 2568SOL    HW2 7833   2.270   5.979   1.563
 2569SOL     OW 7834   6.080   6.509   2.641
 2569SOL    HW1 7835   6.103   6.435   2.584
 2569SOL    HW2 7836   5.996   6.540   2.608
 2570SOL     OW 7837   3.111   5.006   1.851
 2570SOL    HW1 7838   3.121   5.052   1.768
 2570SOL    HW2 7839   3.135   5.071   1.917
 2571SOL     OW 7840   6.666   4.641   0.021
 2571SOL    HW1 7841   6.756   4.672   0.035
 2571SOL    HW2 7842   6.676   4.560  -0.028
 2572SOL     OW 7843   3.828   2.978   0.936
 2572SOL    HW1 7844   3.764   2.955   0.868
 2572SOL    HW2 7845   3.898   2.913   0.926
 2573SOL     OW 7846   7.202   3.193   1.864
 2573SOL    HW1 7847   7.235   3.107   1.889
 2573SOL    HW2 7848   7.108   3.189   1.884
 2574SOL     OW 7849   5.014   7.358   4.417
 2574SOL    HW1 7850   5.098   7.370   4.371
 2574SOL    HW2 7851   5.025   7.406   4.499
 2575SOL     OW 7852   4.256   2.947   5.169
 2575SOL    HW1 7853   4.168   2.969   5.200
 2575SOL    HW2 7854   4.315   2.982   5.236
 2576SOL     OW 7855   9.027   2.616   3.414
 2576SOL    HW1 7856   9.116   2.644   3.437
 2576SOL    HW2 7857   8.982   2.696   3.387
 2577SOL     OW 7858   4.963   4.383   2.197
 2577SOL    HW1 7859   4.871   4.370   2.171
 2577SOL    HW2 7860   4.981   4.474   2.175
 2578SOL     OW 7861   2.927   5.727   3.414
 2578SOL    HW1 7862   2.891   5.807   3.452
 2578SOL    HW2 7863   2.943   5.748   3.322
 2579SOL     OW 7864   5.743   5.564   4.464
 2579SOL    HW1 7865   5.776   5.644   4.423
 2579SOL    HW2 7866   5.705   5.514   4.392
 2580SOL     OW 7867   2.254   5.025   0.438
 2580SOL    HW1 7868   2.203   5.103   0.414
 2580SOL    HW2 7869   2.249   4.968   0.361
 2581SOL     OW 7870  10.176   5.101   4.966
 2581SOL    HW1 7871  10.248   5.164   4.961
 2581SOL    HW2 7872  10.149   5.089   4.875
 2582SOL     OW 7873   6.547   2.258   0.440
 2582SOL    HW1 7874   6.523   2.345   0.470
 2582SOL    HW2 7875   6.467   2.206   0.448
 2583SOL     OW 7876   2.800   3.013   1.769
 2583SOL    HW1 7877   2.876   3.034   1.822
 2583SOL    HW2 7878   2.795   2.917   1.770
 2584SOL     OW 7879   3.467   5.151   0.201
 2584SOL    HW1 7880   3.507   5.186   0.281
 2584SOL    HW2 7881   3.385   5.200   0.192
 2585SOL     OW 7882   4.791   5.794   0.372
 2585SOL    HW1 7883   4.848   5.850   0.425
 2585SOL    HW2 7884   4.737   5.747   0.436
 2586SOL     OW 7885   4.360   6.944   0.879
 2586SOL    HW1 7886   4.323   6.974   0.796
 2586SOL    HW2 7887   4.350   6.849   0.877
 2587SOL     OW 7888   6.500   4.386   5.211
 2587SOL    HW1 7889   6.419   4.407   5.165
 2587SOL    HW2 7890   6.471   4.350   5.295
 2588SOL     OW 7891   5.887   1.189   0.699
 2588SOL    HW1 7892   5.964   1.134   0.686
 2588SOL    HW2 7893   5.850   1.159   0.782
 2589SOL     OW 7894   3.233   3.169   1.179
 2589SOL    HW1 7895   3.140   3.147   1.171
 2589SOL    HW2 7896   3.239   3.224   1.256
 2590SOL     OW 7897   3.400   6.859   1.875
 2590SOL    HW1 7898   3.447   6.943   1.873
 2590SOL    HW2 7899   3.469   6.794   1.879
 2591SOL     OW 7900   7.879   7.211   4.930
 2591SOL    HW1 7901   7.841   7.274   4.868
 2591SOL    HW2 7902   7.849   7.241   5.016
 2592SOL     OW 7903  10.501   5.456   5.170
 2592SOL    HW1 7904  10.567   5.474   5.103
 2592SOL    HW2 7905  10.488   5.540   5.214
 2593SOL     OW 7906   6.115   3.331   4.284
 2593SOL    HW1 7907   6.055   3.392   4.240
 2593SOL    HW2 7908   6.057   3.274   4.335
 2594SOL     OW 7909   6.765   0.222   2.736
 2594SOL    HW1 7910   6.795   0.243   2.824
 2594SOL    HW2 7911   6.744   0.307   2.697
 2595SOL     OW 7912   6.127   2.403   3.973
 2595SOL    HW1 7913   6.182   2.330   4.001
 2595SOL    HW2 7914   6.049   2.361   3.936
 2596SOL     OW 7915  10.059   2.794   4.300
 2596SOL    HW1 7916   9.967   2.790   4.325
 2596SOL    HW2 7917  10.093   2.707   4.321
 2597SOL     OW 7918   6.918   4.849   5.014
 2597SOL    HW1 7919   6.932   4.794   5.091
 2597SOL    HW2 7920   6.864   4.922   5.046
 2598SOL     OW 7921   4.791   2.896   0.488
 2598SOL    HW1 7922   4.775   2.802   0.476
 2598SOL    HW2 7923   4.713   2.929   0.532
 2599SOL     OW 7924   9.568   2.700   3.365
 2599SOL    HW1 7925   9.620   2.682   3.444
 2599SOL    HW2 7926   9.607   2.645   3.297
 2600SOL     OW 7927   7.895   5.723   1.665
 2600SOL    HW1 7928   7.918   5.660   1.733
 2600SOL    HW2 7929   7.859   5.798   1.712
 2601SOL     OW 7930   4.556   7.461   2.538
 2601SOL    HW1 7931   4.515   7.418   2.463
 2601SOL    HW2 7932   4.482   7.486   2.595
 2602SOL     OW 7933   6.272   5.768   2.681
 2602SOL    HW1 7934   6.243   5.820   2.605
 2602SOL    HW2 7935   6.345   5.717   2.647
 2603SOL     OW 7936   2.133   1.435   1.169
 2603SOL    HW1 7937   2.103   1.347   1.149
 2603SOL    HW2 7938   2.207   1.423   1.229
 2604SOL     OW 7939   6.289   6.190   3.641
 2604SOL    HW1 7940   6.362   6.196   3.580
 2604SOL    HW2 7941   6.252   6.278   3.644
 2605SOL     OW 7942  10.127   6.726   3.944
 2605SOL    HW1 7943  10.098   6.817   3.933
 2605SOL    HW2 7944  10.126   6.690   3.856
 2606SOL     OW 7945   7.573   0.255   0.706
 2606SOL    HW1 7946   7.558   0.316   0.634
 2606SOL    HW2 7947   7.658   0.281   0.743
 2607SOL     OW 7948   7.884   6.623   0.609
 2607SOL    HW1 7949   7.852   6.585   0.691
 2607SOL    HW2 7950   7.947   6.689   0.636
 2608SOL     OW 7951   5.245   1.577   0.409
 2608SOL    HW1 7952   5.281   1.645   0.466
 2608SOL    HW2 7953   5.298   1.580   0.330
 2609SOL     OW 7954   2.046   2.959   2.114
 2609SOL    HW1 7955   2.085   2.894   2.055
 2609SOL    HW2 7956   1.974   2.998   2.063
 2610SOL     OW 7957   4.203   6.673   0.363
 2610SOL    HW1 7958   4.263   6.704   0.431
 2610SOL    HW2 7959   4.164   6.594   0.399
 2611SOL     OW 7960   3.541   0.942   1.099
 2611SOL    HW1 7961   3.527   1.037   1.106
 2611SOL    HW2 7962   3.599   0.932   1.024
 2612SOL     OW 7963   6.570   1.291   1.189
 2612SOL    HW1 7964   6.627   1.331   1.255
 2612SOL    HW2 7965   6.626   1.286   1.111
 2613SOL     OW 7966   4.543   6.656   2.715
 2613SOL    HW1 7967   4.519   6.594   2.646
 2613SOL    HW2 7968   4.627   6.625   2.748
 2614SOL     OW 7969   5.749   1.720   0.746
 2614SOL    HW1 7970   5.790   1.802   0.771
 2614SOL    HW2 7971   5.812   1.653   0.773
 2615SOL     OW 7972   7.213   3.965   2.451
 2615SOL    HW1 7973   7.120   3.946   2.463
 2615SOL    HW2 7974   7.258   3.893   2.495
 2616SOL     OW 7975   7.361   4.415   5.299
 2616SOL    HW1 7976   7.288   4.362   5.330
 2616SOL    HW2 7977   7.372   4.391   5.207
 2617SOL     OW 7978   5.281   2.782   1.866
 2617SOL    HW1 7979   5.353   2.719   1.869
 2617SOL    HW2 7980   5.245   2.782   1.955
 2618SOL     OW 7981   2.231   0.479   2.051
 2618SOL    HW1 7982   2.207   0.456   1.961
 2618SOL    HW2 7983   2.149   0.473   2.100
 2619SOL     OW 7984   5.614   6.674   4.638
 2619SOL    HW1 7985   5.551   6.746   4.647
 2619SOL    HW2 7986   5.690   6.714   4.596
 2620SOL     OW 7987   7.644   4.137   2.992
 2620SOL    HW1 7988   7.713   4.097   3.044
 2620SOL    HW2 7989   7.578   4.068   2.982
 2621SOL     OW 7990   3.868   7.354   2.673
 2621SOL    HW1 7991   3.809   7.280   2.689
 2621SOL    HW2 7992   3.952   7.325   2.709
 2622SOL     OW 7993   5.347   5.067   0.418
 2622SOL    HW1 7994   5.286   5.070   0.345
 2622SOL    HW2 7995   5.376   4.976   0.422
 2623SOL     OW 7996   3.666   2.497   1.132
 2623SOL    HW1 7997   3.712   2.568   1.087
 2623SOL    HW2 7998   3.680   2.420   1.077
 2624SOL     OW 7999   9.016   0.664   3.767
 2624SOL    HW1 8000   8.957   0.734   3.796
 2624SOL    HW2 8001   8.960   0.587   3.760
 2625SOL     OW 8002   4.704   0.378   0.510
 2625SOL    HW1 8003   4.719   0.469   0.539
 2625SOL    HW2 8004   4.654   0.339   0.581
 2626SOL     OW 8005   6.441   5.539   1.851
 2626SOL    HW1 8006   6.387   5.602   1.802
 2626SOL    HW2 8007   6.389   5.459   1.852
 2627SOL     OW 8008   1.836   5.926   0.031
 2627SOL    HW1 8009   1.843   5.853  -0.031
 2627SOL    HW2 8010   1.843   5.886   0.117
 2628SOL     OW 8011   6.290   1.534   5.040
 2628SOL    HW1 8012   6.361   1.596   5.022
 2628SOL    HW2 8013   6.214   1.570   4.995
 2629SOL     OW 8014   9.061   1.840   4.398
 2629SOL    HW1 8015   9.075   1.853   4.304
 2629SOL    HW2 8016   9.055   1.745   4.408
 2630SOL     OW 8017  10.441   0.661   5.229
 2630SOL    HW1 8018  10.509   0.607   5.189
 2630SOL    HW2 8019  10.407   0.608   5.300
 2631SOL     OW 8020   6.566   7.387   5.265
 2631SOL    HW1 8021   6.534   7.309   5.219
 2631SOL    HW2 8022   6.487   7.426   5.303
 2632SOL     OW 8023   0.687   3.416   0.049
 2632SOL    HW1 8024   0.689   3.372  -0.035
 2632SOL    HW2 8025   0.598   3.453   0.055
 2633SOL     OW 8026   6.904   2.496   4.631
 2633SOL    HW1 8027   6.910   2.405   4.658
 2633SOL    HW2 8028   6.969   2.542   4.684
 2634SOL     OW 8029   5.251   7.128   0.081
 2634SOL    HW1 8030   5.167   7.158   0.047
 2634SOL    HW2 8031   5.241   7.132   0.176
 2635SOL     OW 8032  10.251   0.346   3.972
 2635SOL    HW1 8033  10.302   0.314   3.898
 2635SOL    HW2 8034  10.223   0.267   4.018
 2636SOL     OW 8035   5.066   3.984   0.790
 2636SOL    HW1 8036   5.035   4.073   0.776
 2636SOL    HW2 8037   5.105   3.985   0.878
 2637SOL     OW 8038   6.103   1.637   1.332
 2637SOL    HW1 8039   6.060   1.567   1.380
 2637SOL    HW2 8040   6.172   1.668   1.391
 2638SOL     OW 8041   6.273   1.394   4.208
 2638SOL    HW1 8042   6.232   1.480   4.198
 2638SOL    HW2 8043   6.258   1.350   4.125
 2639SOL     OW 8044  10.423   4.019   5.185
 2639SOL    HW1 8045  10.468   3.952   5.236
 2639SOL    HW2 8046  10.332   4.015   5.216
 2640SOL     OW 8047   3.431   1.796   2.517
 2640SOL    HW1 8048   3.429   1.771   2.610
 2640SOL    HW2 8049   3.457   1.717   2.471
 2641SOL     OW 8050   7.676   4.221   2.732
 2641SOL    HW1 8051   7.591   4.194   2.695
 2641SOL    HW2 8052   7.658   4.238   2.824
 2642SOL     OW 8053   7.503   4.706   5.080
 2642SOL    HW1 8054   7.511   4.689   4.987
 2642SOL    HW2 8055   7.478   4.798   5.086
 2643SOL     OW 8056   3.113   1.733   2.538
 2643SOL    HW1 8057   3.170   1.676   2.590
 2643SOL    HW2 8058   3.148   1.821   2.552
 2644SOL     OW 8059   1.558   6.052   2.079
 2644SOL    HW1 8060   1.482   5.997   2.061
 2644SOL    HW2 8061   1.603   6.059   1.995
 2645SOL     OW 8062   2.492   4.978   1.249
 2645SOL    HW1 8063   2.524   4.929   1.172
 2645SOL    HW2 8064   2.566   4.980   1.308
 2646SOL     OW 8065   5.658   5.519   2.983
 2646SOL    HW1 8066   5.746   5.547   2.961
 2646SOL    HW2 8067   5.603   5.594   2.961
 2647SOL     OW 8068   2.863   4.837   2.509
 2647SOL    HW1 8069   2.849   4.927   2.539
 2647SOL    HW2 8070   2.818   4.783   2.573
 2648SOL     OW 8071   5.047   6.458   0.018
 2648SOL    HW1 8072   5.023   6.372  -0.015
 2648SOL    HW2 8073   5.010   6.462   0.106
 2649SOL     OW 8074   4.208   4.919   3.446
 2649SOL    HW1 8075   4.243   4.830   3.438
 2649SOL    HW2 8076   4.128   4.919   3.393
 2650SOL     OW 8077   9.740   3.593   3.906
 2650SOL    HW1 8078   9.781   3.524   3.853
 2650SOL    HW2 8079   9.776   3.674   3.872
 2651SOL     OW 8080   7.064   3.092   4.149
 2651SOL    HW1 8081   7.102   3.027   4.207
 2651SOL    HW2 8082   7.125   3.166   4.153
 2652SOL     OW 8083   7.992   7.250   2.376
 2652SOL    HW1 8084   8.056   7.319   2.358
 2652SOL    HW2 8085   8.013   7.180   2.314
 2653SOL     OW 8086   4.616   2.448   3.354
 2653SOL    HW1 8087   4.563   2.372   3.331
 2653SOL    HW2 8088   4.694   2.411   3.396
 2654SOL     OW 8089   3.929   0.676   4.840
 2654SOL    HW1 8090   3.924   0.590   4.882
 2654SOL    HW2 8091   3.838   0.706   4.838
 2655SOL     OW 8092   4.623   3.305   2.031
 2655SOL    HW1 8093   4.693   3.362   1.999
 2655SOL    HW2 8094   4.563   3.297   1.956
 2656SOL     OW 8095   9.279   2.402   4.931
 2656SOL    HW1 8096   9.277   2.476   4.870
 2656SOL    HW2 8097   9.365   2.408   4.973
 2657SOL     OW 8098   0.483   6.457   0.351
 2657SOL    HW1 8099   0.492   6.497   0.438
 2657SOL    HW2 8100   0.477   6.363   0.368
 2658SOL     OW 8101   5.500   4.344   0.519
 2658SOL    HW1 8102   5.406   4.355   0.505
 2658SOL    HW2 8103   5.536   4.432   0.515
 2659SOL     OW 8104   3.884   2.711   2.521
 2659SOL    HW1 8105   3.971   2.672   2.519
 2659SOL    HW2 8106   3.863   2.727   2.429
 2660SOL     OW 8107   6.948   7.287   2.008
 2660SOL    HW1 8108   6.981   7.339   2.081
 2660SOL    HW2 8109   6.892   7.221   2.048
 2661SOL     OW 8110   2.528   2.007   0.203
 2661SOL    HW1 8111   2.510   2.029   0.294
 2661SOL    HW2 8112   2.617   1.972   0.204
 2662SOL     OW 8113   6.956   7.192   4.939
 2662SOL    HW1 8114   6.924   7.275   4.904
 2662SOL    HW2 8115   6.958   7.204   5.034
 2663SOL     OW 8116   3.492   6.576   0.956
 2663SOL    HW1 8117   3.459   6.644   0.897
 2663SOL    HW2 8118   3.414   6.538   0.996
 2664SOL     OW 8119   8.192   0.457   1.870
 2664SOL    HW1 8120   8.110   0.414   1.896
 2664SOL    HW2 8121   8.177   0.550   1.888
 2665SOL     OW 8122   4.807   7.294   1.041
 2665SOL    HW1 8123   4.894   7.335   1.041
 2665SOL    HW2 8124   4.746   7.367   1.040
 2666SOL     OW 8125   6.306   6.605   2.528
 2666SOL    HW1 8126   6.224   6.626   2.574
 2666SOL    HW2 8127   6.341   6.529   2.575
 2667SOL     OW 8128   4.989   6.126   5.090
 2667SOL    HW1 8129   4.896   6.140   5.108
 2667SOL    HW2 8130   5.008   6.185   5.017
 2668SOL     OW 8131   5.943   6.825   3.513
 2668SOL    HW1 8132   5.925   6.769   3.588
 2668SOL    HW2 8133   5.861   6.827   3.464
 2669SOL     OW 8134   6.686   6.636   3.728
 2669SOL    HW1 8135   6.712   6.659   3.818
 2669SOL    HW2 8136   6.657   6.545   3.735
 2670SOL     OW 8137   4.194   3.672   0.509
 2670SOL    HW1 8138   4.154   3.678   0.596
 2670SOL    HW2 8139   4.286   3.694   0.523
 2671SOL     OW 8140   0.426   6.695   0.190
 2671SOL    HW1 8141   0.407   6.762   0.255
 2671SOL    HW2 8142   0.445   6.616   0.242
 2672SOL     OW 8143   7.126   2.075   4.235
 2672SOL    HW1 8144   7.079   2.147   4.278
 2672SOL    HW2 8145   7.068   2.049   4.164
 2673SOL     OW 8146   6.657   6.826   2.479
 2673SOL    HW1 8147   6.746   6.835   2.515
 2673SOL    HW2 8148   6.603   6.804   2.555
 2674SOL     OW 8149   3.917   4.541   2.977
 2674SOL    HW1 8150   3.833   4.546   2.931
 2674SOL    HW2 8151   3.911   4.460   3.028
 2675SOL     OW 8152   4.071   5.275   1.810
 2675SOL    HW1 8153   4.033   5.351   1.854
 2675SOL    HW2 8154   4.106   5.221   1.882
 2676SOL     OW 8155   2.339   0.151   0.649
 2676SOL    HW1 8156   2.306   0.071   0.608
 2676SOL    HW2 8157   2.356   0.210   0.575
 2677SOL     OW 8158   2.751   4.422   3.496
 2677SOL    HW1 8159   2.676   4.470   3.531
 2677SOL    HW2 8160   2.816   4.424   3.566
 2678SOL     OW 8161   2.734   1.580   1.317
 2678SOL    HW1 8162   2.736   1.674   1.336
 2678SOL    HW2 8163   2.646   1.565   1.281
 2679SOL     OW 8164   6.253   3.523   2.764
 2679SOL    HW1 8165   6.252   3.516   2.859
 2679SOL    HW2 8166   6.162   3.509   2.738
 2680SOL     OW 8167   4.414   4.931   1.124
 2680SOL    HW1 8168   4.470   4.915   1.047
 2680SOL    HW2 8169   4.422   5.025   1.140
 2681SOL     OW 8170   8.220   2.881   4.164
 2681SOL    HW1 8171   8.274   2.925   4.229
 2681SOL    HW2 8172   8.179   2.951   4.114
 2682SOL     OW 8173   6.496   5.131   3.572
 2682SOL    HW1 8174   6.544   5.064   3.621
 2682SOL    HW2 8175   6.519   5.114   3.481
 2683SOL     OW 8176   4.897   6.469   4.328
 2683SOL    HW1 8177   4.937   6.425   4.253
 2683SOL    HW2 8178   4.812   6.426   4.338
 2684SOL     OW 8179   9.022   1.117   3.400
 2684SOL    HW1 8180   9.073   1.148   3.325
 2684SOL    HW2 8181   8.943   1.171   3.400
 2685SOL     OW 8182   1.899   6.783   0.764
 2685SOL    HW1 8183   1.865   6.716   0.705
 2685SOL    HW2 8184   1.982   6.747   0.797
 2686SOL     OW 8185   3.056   2.207   2.815
 2686SOL    HW1 8186   3.113   2.131   2.802
 2686SOL    HW2 8187   3.101   2.278   2.769
 2687SOL     OW 8188   5.982   3.073   5.052
 2687SOL    HW1 8189   5.903   3.098   5.005
 2687SOL    HW2 8190   5.968   2.981   5.076
 2688SOL     OW 8191   5.373   0.747   1.580
 2688SOL    HW1 8192   5.430   0.815   1.544
 2688SOL    HW2 8193   5.295   0.748   1.523
 2689SOL     OW 8194   3.371   3.194   1.529
 2689SOL    HW1 8195   3.441   3.248   1.490
 2689SOL    HW2 8196   3.368   3.221   1.621
 2690SOL     OW 8197   9.187   3.172   4.653
 2690SOL    HW1 8198   9.128   3.190   4.580
 2690SOL    HW2 8199   9.161   3.085   4.684
 2691SOL     OW 8200   3.754   3.533   0.683
 2691SOL    HW1 8201   3.684   3.534   0.617
 2691SOL    HW2 8202   3.717   3.581   0.757
 2692SOL     OW 8203  10.975   2.511   5.076
 2692SOL    HW1 8204  11.025   2.562   5.013
 2692SOL    HW2 8205  10.894   2.561   5.089
 2693SOL     OW 8206   8.194   4.021   3.427
 2693SOL    HW1 8207   8.227   3.951   3.483
 2693SOL    HW2 8208   8.102   3.997   3.411
 2694SOL     OW 8209   3.293   3.396   2.982
 2694SOL    HW1 8210   3.329   3.480   2.954
 2694SOL    HW2 8211   3.223   3.419   3.043
 2695SOL     OW 8212   3.712   6.335   1.767
 2695SOL    HW1 8213   3.650   6.349   1.839
 2695SOL    HW2 8214   3.711   6.241   1.753
 2696SOL     OW 8215   8.031   2.034   0.905
 2696SOL    HW1 8216   8.073   2.023   0.990
 2696SOL    HW2 8217   7.941   2.005   0.918
 2697SOL     OW 8218   4.943   6.531   3.819
 2697SOL    HW1 8219   5.001   6.595   3.859
 2697SOL    HW2 8220   4.856   6.572   3.821
 2698SOL     OW 8221   8.852   0.400   2.164
 2698SOL    HW1 8222   8.816   0.457   2.232
 2698SOL    HW2 8223   8.935   0.441   2.140
 2699SOL     OW 8224   5.742   0.600   4.385
 2699SOL    HW1 8225   5.828   0.630   4.355
 2699SOL    HW2 8226   5.756   0.508   4.408
 2700SOL     OW 8227   0.603   0.372   0.220
 2700SOL    HW1 8228   0.542   0.319   0.271
 2700SOL    HW2 8229   0.581   0.463   0.243
 2701SOL     OW 8230   7.662   4.027   4.579
 2701SOL    HW1 8231   7.730   4.064   4.636
 2701SOL    HW2 8232   7.649   3.938   4.612
 2702SOL     OW 8233   5.084   4.034   0.466
 2702SOL    HW1 8234   5.029   3.994   0.532
 2702SOL    HW2 8235   5.025   4.057   0.394
 2703SOL     OW 8236   7.419   5.219   3.843
 2703SOL    HW1 8237   7.373   5.283   3.789
 2703SOL    HW2 8238   7.451   5.154   3.781
 2704SOL     OW 8239   7.151   6.093   4.057
 2704SOL    HW1 8240   7.168   6.067   3.967
 2704SOL    HW2 8241   7.238   6.103   4.096
 2705SOL     OW 8242   2.881   5.354   3.480
 2705SOL    HW1 8243   2.956   5.410   3.501
 2705SOL    HW2 8244   2.816   5.374   3.547
 2706SOL     OW 8245   3.695   3.453   3.325
 2706SOL    HW1 8246   3.724   3.436   3.414
 2706SOL    HW2 8247   3.628   3.387   3.309
 2707SOL     OW 8248   6.052   4.024   3.310
 2707SOL    HW1 8249   6.072   3.932   3.327
 2707SOL    HW2 8250   6.135   4.062   3.282
 2708SOL     OW 8251   2.845   6.454   0.330
 2708SOL    HW1 8252   2.873   6.480   0.418
 2708SOL    HW2 8253   2.924   6.459   0.277
 2709SOL     OW 8254   4.427   0.243   2.302
 2709SOL    HW1 8255   4.507   0.250   2.353
 2709SOL    HW2 8256   4.370   0.311   2.337
 2710SOL     OW 8257   7.973   3.039   4.882
 2710SOL    HW1 8258   7.988   3.133   4.889
 2710SOL    HW2 8259   7.904   3.030   4.817
 2711SOL     OW 8260   2.315   4.750   1.155
 2711SOL    HW1 8261   2.321   4.845   1.155
 2711SOL    HW2 8262   2.246   4.730   1.092
 2712SOL     OW 8263   5.177   3.981   1.038
 2712SOL    HW1 8264   5.126   3.938   1.106
 2712SOL    HW2 8265   5.241   3.916   1.010
 2713SOL     OW 8266   6.165   4.923   1.283
 2713SOL    HW1 8267   6.123   4.842   1.255
 2713SOL    HW2 8268   6.233   4.939   1.217
 2714SOL     OW 8269   8.159   1.445   1.493
 2714SOL    HW1 8270   8.131   1.384   1.561
 2714SOL    HW2 8271   8.078   1.480   1.457
 2715SOL     OW 8272   7.340   6.231   1.415
 2715SOL    HW1 8273   7.352   6.198   1.504
 2715SOL    HW2 8274   7.387   6.169   1.359
 2716SOL     OW 8275   4.165   6.176   0.040
 2716SOL    HW1 8276   4.163   6.271   0.039
 2716SOL    HW2 8277   4.075   6.150   0.055
 2717SOL     OW 8278   5.770   3.993   3.235
 2717SOL    HW1 8279   5.856   4.011   3.271
 2717SOL    HW2 8280   5.769   3.898   3.220
 2718SOL     OW 8281   9.468   2.152   3.213
 2718SOL    HW1 8282   9.521   2.175   3.290
 2718SOL    HW2 8283   9.380   2.137   3.249
 2719SOL     OW 8284   7.604   6.551   1.438
 2719SOL    HW1 8285   7.563   6.546   1.524
 2719SOL    HW2 8286   7.673   6.485   1.441
 2720SOL     OW 8287   9.659   5.806   3.300
 2720SOL    HW1 8288   9.610   5.779   3.222
 2720SOL    HW2 8289   9.595   5.802   3.371
 2721SOL     OW 8290   8.320   1.660   1.914
 2721SOL    HW1 8291   8.377   1.710   1.973
 2721SOL    HW2 8292   8.381   1.606   1.863
 2722SOL     OW 8293   3.153   4.502   3.512
 2722SOL    HW1 8294   3.155   4.406   3.517
 2722SOL    HW2 8295   3.241   4.529   3.540
 2723SOL     OW 8296   6.909   1.277   2.140
 2723SOL    HW1 8297   6.902   1.218   2.215
 2723SOL    HW2 8298   6.939   1.221   2.068
 2724SOL     OW 8299   6.023   6.436   0.080
 2724SOL    HW1 8300   6.002   6.415   0.171
 2724SOL    HW2 8301   6.019   6.352   0.034
 2725SOL     OW 8302   8.064   1.369   4.006
 2725SOL    HW1 8303   7.995   1.304   3.996
 2725SOL    HW2 8304   8.145   1.319   4.009
 2726SOL     OW 8305   4.834   6.390   1.468
 2726SOL    HW1 8306   4.910   6.332   1.474
 2726SOL    HW2 8307   4.811   6.390   1.375
 2727SOL     OW 8308   8.509   0.765   2.554
 2727SOL    HW1 8309   8.512   0.829   2.483
 2727SOL    HW2 8310   8.418   0.734   2.555
 2728SOL     OW 8311   3.337   7.005   4.106
 2728SOL    HW1 8312   3.301   6.985   4.019
 2728SOL    HW2 8313   3.373   7.093   4.097
 2729SOL     OW 8314   7.528   5.839   1.323
 2729SOL    HW1 8315   7.476   5.759   1.326
 2729SOL    HW2 8316   7.480   5.897   1.264
 2730SOL     OW 8317   2.808   3.916   1.305
 2730SOL    HW1 8318   2.722   3.880   1.325
 2730SOL    HW2 8319   2.793   3.975   1.231
 2731SOL     OW 8320   2.454   3.191   1.133
 2731SOL    HW1 8321   2.451   3.284   1.111
 2731SOL    HW2 8322   2.469   3.188   1.227
 2732SOL     OW 8323   8.250   4.214   2.145
 2732SOL    HW1 8324   8.325   4.161   2.115
 2732SOL    HW2 8325   8.289   4.297   2.173
 2733SOL     OW 8326   5.807   0.186   2.125
 2733SOL    HW1 8327   5.787   0.261   2.069
 2733SOL    HW2 8328   5.743   0.120   2.102
 2734SOL     OW 8329   5.129   1.204   2.888
 2734SOL    HW1 8330   5.120   1.131   2.949
 2734SOL    HW2 8331   5.040   1.219   2.856
 2735SOL     OW 8332   4.473   1.905   4.453
 2735SOL    HW1 8333   4.449   1.875   4.365
 2735SOL    HW2 8334   4.533   1.978   4.438
 2736SOL     OW 8335   1.542   3.683   2.203
 2736SOL    HW1 8336   1.540   3.651   2.113
 2736SOL    HW2 8337   1.593   3.619   2.251
 2737SOL     OW 8338   6.901   5.398   4.430
 2737SOL    HW1 8339   6.885   5.305   4.415
 2737SOL    HW2 8340   6.858   5.442   4.357
 2738SOL     OW 8341   5.810   1.781   3.631
 2738SOL    HW1 8342   5.904   1.772   3.647
 2738SOL    HW2 8343   5.781   1.693   3.610
 2739SOL     OW 8344   5.674   7.400   2.286
 2739SOL    HW1 8345   5.596   7.456   2.290
 2739SOL    HW2 8346   5.690   7.388   2.192
 2740SOL     OW 8347  10.269   5.387   4.010
 2740SOL    HW1 8348  10.197   5.389   4.074
 2740SOL    HW2 8349  10.340   5.343   4.056
 2741SOL     OW 8350   7.235   6.045   1.649
 2741SOL    HW1 8351   7.283   5.986   1.707
 2741SOL    HW2 8352   7.198   5.988   1.582
 2742SOL     OW 8353   3.363   1.279   2.108
 2742SOL    HW1 8354   3.296   1.314   2.166
 2742SOL    HW2 8355   3.442   1.331   2.128
 2743SOL     OW 8356   6.657   0.084   4.072
 2743SOL    HW1 8357   6.672   0.087   3.977
 2743SOL    HW2 8358   6.739   0.112   4.111
 2744SOL     OW 8359   6.480   3.069   5.082
 2744SOL    HW1 8360   6.490   2.975   5.093
 2744SOL    HW2 8361   6.386   3.081   5.065
 2745SOL     OW 8362   7.750   4.329   1.922
 2745SOL    HW1 8363   7.742   4.424   1.911
 2745SOL    HW2 8364   7.751   4.295   1.832
 2746SOL     OW 8365   3.756   0.448   4.218
 2746SOL    HW1 8366   3.781   0.377   4.160
 2746SOL    HW2 8367   3.686   0.412   4.272
 2747SOL     OW 8368   3.668   3.961   4.805
 2747SOL    HW1 8369   3.736   3.926   4.863
 2747SOL    HW2 8370   3.709   3.962   4.718
 2748SOL     OW 8371   7.649   4.523   3.475
 2748SOL    HW1 8372   7.685   4.500   3.389
 2748SOL    HW2 8373   7.688   4.460   3.535
 2749SOL     OW 8374   6.569   4.236   0.169
 2749SOL    HW1 8375   6.479   4.218   0.140
 2749SOL    HW2 8376   6.608   4.149   0.181
 2750SOL     OW 8377   4.712   4.359   2.116
 2750SOL    HW1 8378   4.657   4.428   2.078
 2750SOL    HW2 8379   4.704   4.285   2.055
 2751SOL     OW 8380   2.019   3.637   1.232
 2751SOL    HW1 8381   2.076   3.578   1.183
 2751SOL    HW2 8382   2.042   3.725   1.201
 2752SOL     OW 8383   3.018   3.531   3.316
 2752SOL    HW1 8384   2.937   3.582   3.325
 2752SOL    HW2 8385   3.042   3.540   3.224
 2753SOL     OW 8386   4.268   2.482   2.312
 2753SOL    HW1 8387   4.341   2.543   2.322
 2753SOL    HW2 8388   4.226   2.509   2.230
 2754SOL     OW 8389   4.307   1.316   2.241
 2754SOL    HW1 8390   4.368   1.356   2.303
 2754SOL    HW2 8391   4.241   1.275   2.297
 2755SOL     OW 8392   9.244   1.148   4.047
 2755SOL    HW1 8393   9.206   1.063   4.070
 2755SOL    HW2 8394   9.265   1.141   3.954
 2756SOL     OW 8395   7.026   3.265   2.309
 2756SOL    HW1 8396   7.063   3.190   2.263
 2756SOL    HW2 8397   7.102   3.321   2.328
 2757SOL     OW 8398   5.653   4.785   4.566
 2757SOL    HW1 8399   5.665   4.710   4.624
 2757SOL    HW2 8400   5.740   4.803   4.531
 2758SOL     OW 8401   2.362   2.937   1.921
 2758SOL    HW1 8402   2.390   3.010   1.977
 2758SOL    HW2 8403   2.391   2.859   1.967
 2759SOL     OW 8404   3.841   3.006   3.309
 2759SOL    HW1 8405   3.808   2.988   3.221
 2759SOL    HW2 8406   3.897   3.083   3.299
 2760SOL     OW 8407   4.717   1.800   5.084
 2760SOL    HW1 8408   4.807   1.813   5.056
 2760SOL    HW2 8409   4.665   1.848   5.019
 2761SOL     OW 8410   4.911   4.425   1.223
 2761SOL    HW1 8411   4.821   4.457   1.221
 2761SOL    HW2 8412   4.964   4.502   1.199
 2762SOL     OW 8413   8.546   5.490   4.011
 2762SOL    HW1 8414   8.617   5.539   3.969
 2762SOL    HW2 8415   8.564   5.399   3.988
 2763SOL     OW 8416   6.067   7.280   2.114
 2763SOL    HW1 8417   6.002   7.209   2.115
 2763SOL    HW2 8418   6.093   7.287   2.023
 2764SOL     OW 8419   3.606   5.578   0.776
 2764SOL    HW1 8420   3.515   5.576   0.746
 2764SOL    HW2 8421   3.621   5.490   0.810
 2765SOL     OW 8422   3.295   0.680   1.501
 2765SOL    HW1 8423   3.260   0.698   1.413
 2765SOL    HW2 8424   3.390   0.671   1.487
 2766SOL     OW 8425   8.365   1.762   4.481
 2766SOL    HW1 8426   8.299   1.694   4.499
 2766SOL    HW2 8427   8.344   1.792   4.392
 2767SOL     OW 8428   8.660   3.841   1.731
 2767SOL    HW1 8429   8.581   3.794   1.761
 2767SOL    HW2 8430   8.684   3.797   1.650
 2768SOL     OW 8431   3.639   1.026   4.988
 2768SOL    HW1 8432   3.616   1.079   5.064
 2768SOL    HW2 8433   3.558   1.020   4.938
 2769SOL     OW 8434   9.782   2.730   3.915
 2769SOL    HW1 8435   9.770   2.823   3.932
 2769SOL    HW2 8436   9.732   2.685   3.982
 2770SOL     OW 8437   6.575   0.433   3.858
 2770SOL    HW1 8438   6.516   0.373   3.811
 2770SOL    HW2 8439   6.650   0.444   3.799
 2771SOL     OW 8440   4.731   1.892   1.931
 2771SOL    HW1 8441   4.796   1.821   1.935
 2771SOL    HW2 8442   4.680   1.873   1.853
 2772SOL     OW 8443  10.484   0.225   5.142
 2772SOL    HW1 8444  10.489   0.252   5.233
 2772SOL    HW2 8445  10.524   0.297   5.094
 2773SOL     OW 8446   6.914   6.654   2.730
 2773SOL    HW1 8447   6.977   6.582   2.728
 2773SOL    HW2 8448   6.963   6.730   2.698
 2774SOL     OW 8449   8.092   0.489   2.446
 2774SOL    HW1 8450   8.143   0.562   2.482
 2774SOL    HW2 8451   8.004   0.525   2.434
 2775SOL     OW 8452   4.089   0.997   0.265
 2775SOL    HW1 8453   4.062   0.918   0.218
 2775SOL    HW2 8454   4.096   1.064   0.197
 2776SOL     OW 8455   7.926   0.379   3.438
 2776SOL    HW1 8456   8.015   0.360   3.407
 2776SOL    HW2 8457   7.927   0.474   3.455
 2777SOL     OW 8458   2.783   4.112   1.806
 2777SOL    HW1 8459   2.836   4.096   1.884
 2777SOL    HW2 8460   2.812   4.046   1.743
 2778SOL     OW 8461   3.201   6.832   4.465
 2778SOL    HW1 8462   3.130   6.836   4.401
 2778SOL    HW2 8463   3.245   6.749   4.449
 2779SOL     OW 8464  10.701   7.368   4.677
 2779SOL    HW1 8465  10.765   7.410   4.733
 2779SOL    HW2 8466  10.725   7.275   4.679
 2780SOL     OW 8467   2.469   2.578   1.089
 2780SOL    HW1 8468   2.530   2.631   1.140
 2780SOL    HW2 8469   2.522   2.539   1.020
 2781SOL     OW 8470   5.080   0.471   4.874
 2781SOL    HW1 8471   5.123   0.391   4.906
 2781SOL    HW2 8472   5.152   0.532   4.857
 2782SOL     OW 8473   5.824   1.079   0.964
 2782SOL    HW1 8474   5.867   1.031   0.894
 2782SOL    HW2 8475   5.895   1.115   1.016
 2783SOL     OW 8476   6.092   0.419   2.613
 2783SOL    HW1 8477   6.175   0.443   2.654
 2783SOL    HW2 8478   6.033   0.492   2.634
 2784SOL     OW 8479   5.812   3.598   0.598
 2784SOL    HW1 8480   5.844   3.685   0.576
 2784SOL    HW2 8481   5.853   3.540   0.534
 2785SOL     OW 8482   5.200   5.466   1.983
 2785SOL    HW1 8483   5.212   5.530   2.053
 2785SOL    HW2 8484   5.134   5.406   2.017
 2786SOL     OW 8485   3.787   6.697   4.037
 2786SOL    HW1 8486   3.739   6.614   4.045
 2786SOL    HW2 8487   3.719   6.764   4.029
 2787SOL     OW 8488   6.187   6.967   5.051
 2787SOL    HW1 8489   6.170   7.001   4.963
 2787SOL    HW2 8490   6.142   6.882   5.052
 2788SOL     OW 8491   2.625   2.352   1.942
 2788SOL    HW1 8492   2.581   2.306   2.012
 2788SOL    HW2 8493   2.647   2.285   1.878
 2789SOL     OW 8494   7.035   1.129   4.076
 2789SOL    HW1 8495   7.113   1.183   4.066
 2789SOL    HW2 8496   7.039   1.069   4.001
 2790SOL     OW 8497   3.435   3.534   4.408
 2790SOL    HW1 8498   3.438   3.596   4.481
 2790SOL    HW2 8499   3.446   3.449   4.450
 2791SOL     OW 8500   4.863   2.488   2.126
 2791SOL    HW1 8501   4.773   2.472   2.157
 2791SOL    HW2 8502   4.857   2.568   2.075
 2792SOL     OW 8503   9.414   0.754   4.934
 2792SOL    HW1 8504   9.405   0.817   5.005
 2792SOL    HW2 8505   9.418   0.807   4.855
 2793SOL     OW 8506   2.714   5.700   0.959
 2793SOL    HW1 8507   2.660   5.769   0.996
 2793SOL    HW2 8508   2.726   5.637   1.030
 2794SOL     OW 8509   3.396   1.947   1.832
 2794SOL    HW1 8510   3.348   1.865   1.819
 2794SOL    HW2 8511   3.398   1.987   1.745
 2795SOL     OW 8512   2.822   6.646   1.358
 2795SOL    HW1 8513   2.768   6.675   1.284
 2795SOL    HW2 8514   2.856   6.726   1.396
 2796SOL     OW 8515   1.239   5.984   1.067
 2796SOL    HW1 8516   1.246   6.058   1.007
 2796SOL    HW2 8517   1.182   5.921   1.022
 2797SOL     OW 8518   7.602   0.034   1.542
 2797SOL    HW1 8519   7.590   0.129   1.548
 2797SOL    HW2 8520   7.693   0.023   1.515
 2798SOL     OW 8521   7.367   2.745   1.111
 2798SOL    HW1 8522   7.294   2.715   1.165
 2798SOL    HW2 8523   7.351   2.707   1.024
 2799SOL     OW 8524   5.378   5.161   1.402
 2799SOL    HW1 8525   5.325   5.099   1.352
 2799SOL    HW2 8526   5.320   5.193   1.470
 2800SOL     OW 8527   8.518   5.802   5.090
 2800SOL    HW1 8528   8.576   5.805   5.014
 2800SOL    HW2 8529   8.453   5.735   5.067
 2801SOL     OW 8530   3.391   3.056   3.733
 2801SOL    HW1 8531   3.376   3.108   3.653
 2801SOL    HW2 8532   3.393   2.966   3.703
 2802SOL     OW 8533   8.337   1.123   4.584
 2802SOL    HW1 8534   8.310   1.188   4.519
 2802SOL    HW2 8535   8.414   1.081   4.546
 2803SOL     OW 8536   7.285   0.610   3.355
 2803SOL    HW1 8537   7.290   0.705   3.345
 2803SOL    HW2 8538   7.339   0.576   3.283
 2804SOL     OW 8539   9.130   5.968   2.568
 2804SOL    HW1 8540   9.172   5.898   2.618
 2804SOL    HW2 8541   9.165   5.959   2.480
 2805SOL     OW 8542   4.783   4.705   3.314
 2805SOL    HW1 8543   4.837   4.783   3.304
 2805SOL    HW2 8544   4.818   4.644   3.249
 2806SOL     OW 8545   8.438   3.590   3.494
 2806SOL    HW1 8546   8.401   3.580   3.581
 2806SOL    HW2 8547   8.506   3.523   3.488
 2807SOL     OW 8548   5.236   0.740   2.067
 2807SOL    HW1 8549   5.239   0.789   2.149
 2807SOL    HW2 8550   5.189   0.797   2.007
 2808SOL     OW 8551   4.571   1.067   3.157
 2808SOL    HW1 8552   4.651   1.114   3.183
 2808SOL    HW2 8553   4.500   1.116   3.197
 2809SOL     OW 8554   6.293   1.570   4.686
 2809SOL    HW1 8555   6.240   1.576   4.766
 2809SOL    HW2 8556   6.272   1.649   4.637
 2810SOL     OW 8557   7.857   1.588   2.578
 2810SOL    HW1 8558   7.939   1.604   2.623
 2810SOL    HW2 8559   7.820   1.511   2.621
 2811SOL     OW 8560   3.782   5.943   0.454
 2811SOL    HW1 8561   3.847   5.875   0.435
 2811SOL    HW2 8562   3.770   5.939   0.549
 2812SOL     OW 8563   5.666   1.137   3.159
 2812SOL    HW1 8564   5.629   1.225   3.166
 2812SOL    HW2 8565   5.737   1.146   3.095
 2813SOL     OW 8566   1.375   3.600   0.967
 2813SOL    HW1 8567   1.454   3.587   1.019
 2813SOL    HW2 8568   1.348   3.690   0.986
 2814SOL     OW 8569   7.820   1.816   2.784
 2814SOL    HW1 8570   7.737   1.861   2.796
 2814SOL    HW2 8571   7.797   1.734   2.739
 2815SOL     OW 8572   9.886   4.741   4.302
 2815SOL    HW1 8573   9.823   4.737   4.229
 2815SOL    HW2 8574   9.843   4.797   4.367
 2816SOL     OW 8575   8.793   7.481   4.181
 2816SOL    HW1 8576   8.825   7.397   4.214
 2816SOL    HW2 8577   8.767   7.529   4.260
 2817SOL     OW 8578   7.214   1.404   3.319
 2817SOL    HW1 8579   7.179   1.400   3.408
 2817SOL    HW2 8580   7.300   1.444   3.328
 2818SOL     OW 8581   1.935   3.306   0.316
 2818SOL    HW1 8582   1.900   3.295   0.405
 2818SOL    HW2 8583   2.030   3.302   0.327
 2819SOL     OW 8584   4.402   1.699   1.154
 2819SOL    HW1 8585   4.328   1.651   1.192
 2819SOL    HW2 8586   4.407   1.780   1.205
 2820SOL     OW 8587   2.158   0.361   1.709
 2820SOL    HW1 8588   2.164   0.397   1.621
 2820SOL    HW2 8589   2.199   0.274   1.703
 2821SOL     OW 8590   2.284   6.880   0.093
 2821SOL    HW1 8591   2.292   6.976   0.097
 2821SOL    HW2 8592   2.375   6.849   0.095
 2822SOL     OW 8593   6.881   3.763   3.604
 2822SOL    HW1 8594   6.862   3.679   3.562
 2822SOL    HW2 8595   6.944   3.742   3.672
 2823SOL     OW 8596   3.742   6.505   0.656
 2823SOL    HW1 8597   3.648   6.513   0.672
 2823SOL    HW2 8598   3.752   6.520   0.562
 2824SOL     OW 8599   2.500   7.369   0.847
 2824SOL    HW1 8600   2.413   7.382   0.887
 2824SOL    HW2 8601   2.527   7.458   0.822
 2825SOL     OW 8602   4.315   3.176   2.902
 2825SOL    HW1 8603   4.251   3.204   2.836
 2825SOL    HW2 8604   4.343   3.257   2.944
 2826SOL     OW 8605   6.647   5.326   2.891
 2826SOL    HW1 8606   6.597   5.341   2.811
 2826SOL    HW2 8607   6.615   5.392   2.952
 2827SOL     OW 8608   4.934   6.771   2.919
 2827SOL    HW1 8609   4.902   6.815   2.997
 2827SOL    HW2 8610   4.899   6.821   2.846
 2828SOL     OW 8611   7.532   1.276   5.205
 2828SOL    HW1 8612   7.480   1.353   5.225
 2828SOL    HW2 8613   7.601   1.275   5.272
 2829SOL     OW 8614   3.871   4.634   2.381
 2829SOL    HW1 8615   3.944   4.668   2.433
 2829SOL    HW2 8616   3.832   4.712   2.342
 2830SOL     OW 8617  10.071   0.742   4.186
 2830SOL    HW1 8618  10.134   0.672   4.204
 2830SOL    HW2 8619  10.113   0.796   4.120
 2831SOL     OW 8620   6.617   6.763   4.825
 2831SOL    HW1 8621   6.684   6.799   4.768
 2831SOL    HW2 8622   6.573   6.696   4.772
 2832SOL     OW 8623   4.297   1.696   0.303
 2832SOL    HW1 8624   4.343   1.691   0.387
 2832SOL    HW2 8625   4.213   1.653   0.320
 2833SOL     OW 8626   3.202   2.166   0.226
 2833SOL    HW1 8627   3.228   2.124   0.307
 2833SOL    HW2 8628   3.154   2.244   0.253
 2834SOL     OW 8629   6.780   5.255   2.429
 2834SOL    HW1 8630   6.864   5.218   2.455
 2834SOL    HW2 8631   6.741   5.189   2.372
 2835SOL     OW 8632   4.627   5.832   3.883
 2835SOL    HW1 8633   4.571   5.841   3.806
 2835SOL    HW2 8634   4.683   5.910   3.882
 2836SOL     OW 8635   4.762   2.316   4.729
 2836SOL    HW1 8636   4.818   2.393   4.732
 2836SOL    HW2 8637   4.679   2.348   4.695
 2837SOL     OW 8638   2.899   6.193   1.585
 2837SOL    HW1 8639   2.837   6.171   1.515
 2837SOL    HW2 8640   2.877   6.284   1.609
 2838SOL     OW 8641   4.587   1.674   1.535
 2838SOL    HW1 8642   4.502   1.640   1.563
 2838SOL    HW2 8643   4.594   1.759   1.579
 2839SOL     OW 8644   8.870   2.920   5.103
 2839SOL    HW1 8645   8.841   2.839   5.143
 2839SOL    HW2 8646   8.865   2.985   5.173
 2840SOL     OW 8647   5.904   5.295   1.933
 2840SOL    HW1 8648   5.943   5.368   1.886
 2840SOL    HW2 8649   5.919   5.219   1.876
 2841SOL     OW 8650   7.118   5.380   2.327
 2841SOL    HW1 8651   7.114   5.359   2.234
 2841SOL    HW2 8652   7.186   5.448   2.333
 2842SOL     OW 8653   8.145   4.599   3.795
 2842SOL    HW1 8654   8.156   4.623   3.887
 2842SOL    HW2 8655   8.204   4.524   3.783
 2843SOL     OW 8656   6.871   3.996   3.995
 2843SOL    HW1 8657   6.784   4.001   3.954
 2843SOL    HW2 8658   6.879   4.078   4.044
 2844SOL     OW 8659   4.184   4.026   2.340
 2844SOL    HW1 8660   4.172   4.007   2.433
 2844SOL    HW2 8661   4.106   3.989   2.298
 2845SOL     OW 8662   4.862   2.486   4.243
 2845SOL    HW1 8663   4.879   2.399   4.280
 2845SOL    HW2 8664   4.790   2.472   4.181
 2846SOL     OW 8665   8.077   5.742   1.942
 2846SOL    HW1 8666   8.100   5.831   1.915
 2846SOL    HW2 8667   8.146   5.688   1.904
 2847SOL     OW 8668   1.715   3.119   1.673
 2847SOL    HW1 8669   1.639   3.097   1.620
 2847SOL    HW2 8670   1.785   3.134   1.609
 2848SOL     OW 8671   6.908   1.257   3.725
 2848SOL    HW1 8672   6.833   1.249   3.784
 2848SOL    HW2 8673   6.971   1.191   3.756
 2849SOL     OW 8674   3.335   3.527   2.288
 2849SOL    HW1 8675   3.305   3.597   2.230
 2849SOL    HW2 8676   3.351   3.571   2.372
 2850SOL     OW 8677   5.736   6.947   1.760
 2850SOL    HW1 8678   5.809   6.969   1.702
 2850SOL    HW2 8679   5.699   6.867   1.722
 2851SOL     OW 8680   9.177   2.515   4.077
 2851SOL    HW1 8681   9.193   2.511   4.171
 2851SOL    HW2 8682   9.165   2.608   4.058
 2852SOL     OW 8683   6.376   0.917   2.423
 2852SOL    HW1 8684   6.369   0.933   2.517
 2852SOL    HW2 8685   6.462   0.875   2.413
 2853SOL     OW 8686   3.260   5.980   3.115
 2853SOL    HW1 8687   3.252   5.998   3.209
 2853SOL    HW2 8688   3.245   6.064   3.073
 2854SOL     OW 8689   6.893   5.467   2.847
 2854SOL    HW1 8690   6.895   5.490   2.940
 2854SOL    HW2 8691   6.805   5.434   2.831
 2855SOL     OW 8692   8.460   0.656   2.893
 2855SOL    HW1 8693   8.467   0.739   2.939
 2855SOL    HW2 8694   8.543   0.612   2.909
 2856SOL     OW 8695   4.225   1.961   3.874
 2856SOL    HW1 8696   4.259   1.940   3.786
 2856SOL    HW2 8697   4.261   2.047   3.893
 2857SOL     OW 8698   6.573   5.718   4.901
 2857SOL    HW1 8699   6.576   5.743   4.993
 2857SOL    HW2 8700   6.657   5.677   4.884
 2858SOL     OW 8701   1.326   5.515   0.284
 2858SOL    HW1 8702   1.362   5.525   0.196
 2858SOL    HW2 8703   1.267   5.440   0.277
 2859SOL     OW 8704   8.494   0.644   3.353
 2859SOL    HW1 8705   8.524   0.560   3.386
 2859SOL    HW2 8706   8.479   0.697   3.431
 2860SOL     OW 8707   5.167   0.033   2.388
 2860SOL    HW1 8708   5.186   0.114   2.436
 2860SOL    HW2 8709   5.128  -0.024   2.454
 2861SOL     OW 8710   3.835   2.294   2.178
 2861SOL    HW1 8711   3.905   2.243   2.140
 2861SOL    HW2 8712   3.769   2.301   2.109
 2862SOL     OW 8713   5.117   0.210   4.237
 2862SOL    HW1 8714   5.037   0.171   4.273
 2862SOL    HW2 8715   5.144   0.150   4.168
 2863SOL     OW 8716   4.297   6.909   3.376
 2863SOL    HW1 8717   4.387   6.926   3.404
 2863SOL    HW2 8718   4.250   6.888   3.457
 2864SOL     OW 8719   9.173   4.175   4.465
 2864SOL    HW1 8720   9.099   4.149   4.519
 2864SOL    HW2 8721   9.233   4.220   4.525
 2865SOL     OW 8722   1.021   5.232   1.077
 2865SOL    HW1 8723   1.019   5.322   1.110
 2865SOL    HW2 8724   0.930   5.207   1.067
 2866SOL     OW 8725   1.732   3.942   0.326
 2866SOL    HW1 8726   1.718   3.995   0.404
 2866SOL    HW2 8727   1.655   3.957   0.272
 2867SOL     OW 8728   7.857   5.300   1.926
 2867SOL    HW1 8729   7.810   5.382   1.911
 2867SOL    HW2 8730   7.834   5.274   2.015
 2868SOL     OW 8731   5.054   1.168   1.116
 2868SOL    HW1 8732   5.080   1.157   1.207
 2868SOL    HW2 8733   4.982   1.106   1.104
 2869SOL     OW 8734   2.363   0.633   2.227
 2869SOL    HW1 8735   2.287   0.691   2.226
 2869SOL    HW2 8736   2.337   0.558   2.172
 2870SOL     OW 8737   4.034   6.985   2.691
 2870SOL    HW1 8738   3.949   7.016   2.659
 2870SOL    HW2 8739   4.022   6.891   2.706
 2871SOL     OW 8740   3.412   4.888   0.177
 2871SOL    HW1 8741   3.456   4.970   0.200
 2871SOL    HW2 8742   3.341   4.914   0.119
 2872SOL     OW 8743   6.415   4.642   3.302
 2872SOL    HW1 8744   6.466   4.678   3.230
 2872SOL    HW2 8745   6.346   4.706   3.317
 2873SOL     OW 8746   1.797   5.309   0.015
 2873SOL    HW1 8747   1.871   5.312   0.075
 2873SOL    HW2 8748   1.747   5.388   0.034
 2874SOL     OW 8749   5.156   6.069   2.393
 2874SOL    HW1 8750   5.145   5.981   2.358
 2874SOL    HW2 8751   5.088   6.078   2.460
 2875SOL     OW 8752   5.767   1.663   4.299
 2875SOL    HW1 8753   5.758   1.615   4.381
 2875SOL    HW2 8754   5.837   1.726   4.315
 2876SOL     OW 8755   9.230   6.647   5.296
 2876SOL    HW1 8756   9.319   6.617   5.280
 2876SOL    HW2 8757   9.176   6.594   5.238
 2877SOL     OW 8758   1.083   5.996   0.802
 2877SOL    HW1 8759   1.012   5.997   0.866
 2877SOL    HW2 8760   1.044   6.031   0.722
 2878SOL     OW 8761   8.065   3.745   1.299
 2878SOL    HW1 8762   7.999   3.814   1.290
 2878SOL    HW2 8763   8.149   3.792   1.292
 2879SOL     OW 8764   5.197   3.159   4.522
 2879SOL    HW1 8765   5.180   3.232   4.462
 2879SOL    HW2 8766   5.124   3.100   4.507
 2880SOL     OW 8767   3.593   1.223   2.690
 2880SOL    HW1 8768   3.610   1.210   2.783
 2880SOL    HW2 8769   3.515   1.171   2.672
 2881SOL     OW 8770   3.054   5.811   2.240
 2881SOL    HW1 8771   2.971   5.859   2.238
 2881SOL    HW2 8772   3.033   5.724   2.208
 2882SOL     OW 8773   1.371   2.637   0.179
 2882SOL    HW1 8774   1.425   2.665   0.105
 2882SOL    HW2 8775   1.309   2.708   0.192
 2883SOL     OW 8776   5.816   5.371   2.650
 2883SOL    HW1 8777   5.732   5.416   2.651
 2883SOL    HW2 8778   5.878   5.434   2.687
 2884SOL     OW 8779   2.975   4.757   3.198
 2884SOL    HW1 8780   2.928   4.678   3.224
 2884SOL    HW2 8781   2.982   4.808   3.279
 2885SOL     OW 8782   5.674   0.822   0.771
 2885SOL    HW1 8783   5.651   0.744   0.719
 2885SOL    HW2 8784   5.656   0.797   0.861
 2886SOL     OW 8785   2.092   4.293   2.040
 2886SOL    HW1 8786   2.087   4.197   2.033
 2886SOL    HW2 8787   2.026   4.325   1.979
 2887SOL     OW 8788   9.576   4.351   4.414
 2887SOL    HW1 8789   9.619   4.271   4.442
 2887SOL    HW2 8790   9.633   4.387   4.347
 2888SOL     OW 8791   6.376   0.360   4.931
 2888SOL    HW1 8792   6.378   0.266   4.950
 2888SOL    HW2 8793   6.351   0.400   5.015
 2889SOL     OW 8794   5.074   2.131   3.392
 2889SOL    HW1 8795   5.074   2.039   3.365
 2889SOL    HW2 8796   5.162   2.162   3.371
 2890SOL     OW 8797   1.258   1.344   0.896
 2890SOL    HW1 8798   1.290   1.420   0.943
 2890SOL    HW2 8799   1.227   1.284   0.964
 2891SOL     OW 8800   1.689  -0.024   0.322
 2891SOL    HW1 8801   1.687  -0.002   0.415
 2891SOL    HW2 8802   1.654   0.054   0.278
 2892SOL     OW 8803   5.395   2.517   1.915
 2892SOL    HW1 8804   5.461   2.467   1.867
 2892SOL    HW2 8805   5.441   2.546   1.994
 2893SOL     OW 8806   0.903   2.293   0.918
 2893SOL    HW1 8807   0.978   2.349   0.899
 2893SOL    HW2 8808   0.931   2.240   0.993
 2894SOL     OW 8809   4.965   2.260   4.042
 2894SOL    HW1 8810   5.060   2.275   4.039
 2894SOL    HW2 8811   4.946   2.210   3.963
 2895SOL     OW 8812   8.805   6.395   2.899
 2895SOL    HW1 8813   8.834   6.330   2.836
 2895SOL    HW2 8814   8.878   6.457   2.907
 2896SOL     OW 8815   3.117   3.742   1.123
 2896SOL    HW1 8816   3.156   3.767   1.039
 2896SOL    HW2 8817   3.024   3.758   1.112
 2897SOL     OW 8818   3.356   2.679   3.804
 2897SOL    HW1 8819   3.318   2.727   3.731
 2897SOL    HW2 8820   3.413   2.614   3.763
 2898SOL     OW 8821   5.183   5.776   3.167
 2898SOL    HW1 8822   5.212   5.826   3.243
 2898SOL    HW2 8823   5.156   5.691   3.204
 2899SOL     OW 8824   6.077   2.660   3.285
 2899SOL    HW1 8825   6.015   2.731   3.268
 2899SOL    HW2 8826   6.032   2.581   3.254
 2900SOL     OW 8827   1.144   6.552   0.575
 2900SOL    HW1 8828   1.164   6.608   0.651
 2900SOL    HW2 8829   1.221   6.558   0.520
 2901SOL     OW 8830   6.697   7.391   1.888
 2901SOL    HW1 8831   6.717   7.354   1.802
 2901SOL    HW2 8832   6.775   7.373   1.940
 2902SOL     OW 8833   7.342   3.116   4.017
 2902SOL    HW1 8834   7.380   3.130   4.104
 2902SOL    HW2 8835   7.418   3.114   3.959
 2903SOL     OW 8836   8.442   5.978   1.632
 2903SOL    HW1 8837   8.516   5.980   1.693
 2903SOL    HW2 8838   8.376   5.924   1.676
 2904SOL     OW 8839   1.956   4.601   1.638
 2904SOL    HW1 8840   1.940   4.650   1.719
 2904SOL    HW2 8841   2.025   4.539   1.662
 2905SOL     OW 8842  10.221   6.663   4.617
 2905SOL    HW1 8843  10.199   6.576   4.583
 2905SOL    HW2 8844  10.149   6.719   4.586
 2906SOL     OW 8845   1.855   1.924   1.820
 2906SOL    HW1 8846   1.891   2.011   1.807
 2906SOL    HW2 8847   1.913   1.883   1.884
 2907SOL     OW 8848   4.497   4.139   5.252
 2907SOL    HW1 8849   4.429   4.161   5.315
 2907SOL    HW2 8850   4.482   4.047   5.231
 2908SOL     OW 8851   1.129   5.747   0.192
 2908SOL    HW1 8852   1.061   5.744   0.125
 2908SOL    HW2 8853   1.185   5.671   0.174
 2909SOL     OW 8854   8.592   1.868   2.369
 2909SOL    HW1 8855   8.584   1.788   2.318
 2909SOL    HW2 8856   8.605   1.937   2.304
 2910SOL     OW 8857   1.719   3.287   2.072
 2910SOL    HW1 8858   1.661   3.319   2.141
 2910SOL    HW2 8859   1.677   3.314   1.990
 2911SOL     OW 8860   7.037   3.993   5.226
 2911SOL    HW1 8861   6.964   4.034   5.180
 2911SOL    HW2 8862   7.095   3.963   5.156
 2912SOL     OW 8863   2.040   5.178   0.073
 2912SOL    HW1 8864   2.112   5.123   0.101
 2912SOL    HW2 8865   2.078   5.233   0.004
 2913SOL     OW 8866   5.912   7.031   4.482
 2913SOL    HW1 8867   5.943   7.098   4.420
 2913SOL    HW2 8868   5.827   7.005   4.448
 2914SOL     OW 8869   3.447   5.561   3.617
 2914SOL    HW1 8870   3.388   5.588   3.686
 2914SOL    HW2 8871   3.461   5.467   3.632
 2915SOL     OW 8872   7.374   3.618   2.495
 2915SOL    HW1 8873   7.285   3.643   2.519
 2915SOL    HW2 8874   7.429   3.655   2.564
 2916SOL     OW 8875   6.634   7.024   0.751
 2916SOL    HW1 8876   6.685   6.944   0.758
 2916SOL    HW2 8877   6.543   6.997   0.764
 2917SOL     OW 8878   4.380   2.470   3.132
 2917SOL    HW1 8879   4.364   2.564   3.145
 2917SOL    HW2 8880   4.320   2.446   3.061
 2918SOL     OW 8881   4.729   3.511   3.333
 2918SOL    HW1 8882   4.702   3.603   3.332
 2918SOL    HW2 8883   4.730   3.487   3.425
 2919SOL     OW 8884   6.148   4.820   1.845
 2919SOL    HW1 8885   6.183   4.746   1.795
 2919SOL    HW2 8886   6.075   4.784   1.894
 2920SOL     OW 8887   4.018   6.095   5.028
 2920SOL    HW1 8888   4.019   6.159   4.957
 2920SOL    HW2 8889   4.019   6.147   5.108
 2921SOL     OW 8890   4.318   2.909   3.199
 2921SOL    HW1 8891   4.301   2.981   3.260
 2921SOL    HW2 8892   4.406   2.927   3.165
 2922SOL     OW 8893   3.757   3.683   5.142
 2922SOL    HW1 8894   3.826   3.695   5.208
 2922SOL    HW2 8895   3.781   3.602   5.097
 2923SOL     OW 8896   5.211   3.923   2.354
 2923SOL    HW1 8897   5.135   3.942   2.409
 2923SOL    HW2 8898   5.208   3.988   2.284
 2924SOL     OW 8899   2.991   2.018   3.407
 2924SOL    HW1 8900   2.973   2.109   3.383
 2924SOL    HW2 8901   2.986   1.969   3.325
 2925SOL     OW 8902   8.710   0.567   2.356
 2925SOL    HW1 8903   8.624   0.535   2.386
 2925SOL    HW2 8904   8.690   0.648   2.309
 2926SOL     OW 8905   6.292   0.472   2.806
 2926SOL    HW1 8906   6.371   0.434   2.845
 2926SOL    HW2 8907   6.325   0.534   2.741
 2927SOL     OW 8908   9.473   0.227   4.667
 2927SOL    HW1 8909   9.441   0.263   4.749
 2927SOL    HW2 8910   9.523   0.298   4.627
 2928SOL     OW 8911   7.541   1.663   3.427
 2928SOL    HW1 8912   7.636   1.660   3.416
 2928SOL    HW2 8913   7.518   1.756   3.416
 2929SOL     OW 8914   2.448   0.178   0.912
 2929SOL    HW1 8915   2.454   0.271   0.935
 2929SOL    HW2 8916   2.394   0.176   0.833
 2930SOL     OW 8917   7.773   1.804   1.208
 2930SOL    HW1 8918   7.815   1.831   1.290
 2930SOL    HW2 8919   7.754   1.886   1.163
 2931SOL     OW 8920   7.347   7.028   3.687
 2931SOL    HW1 8921   7.401   7.006   3.611
 2931SOL    HW2 8922   7.257   7.016   3.658
 2932SOL     OW 8923   2.296   1.339   0.788
 2932SOL    HW1 8924   2.302   1.291   0.871
 2932SOL    HW2 8925   2.271   1.273   0.724
 2933SOL     OW 8926   9.882   4.741   3.492
 2933SOL    HW1 8927   9.821   4.815   3.498
 2933SOL    HW2 8928   9.965   4.776   3.524
 2934SOL     OW 8929   5.029   5.035   0.156
 2934SOL    HW1 8930   5.089   5.096   0.199
 2934SOL    HW2 8931   4.942   5.067   0.178
 2935SOL     OW 8932   6.107   6.092   1.469
 2935SOL    HW1 8933   6.122   6.181   1.437
 2935SOL    HW2 8934   6.065   6.047   1.396
 2936SOL     OW 8935   2.346   2.734   0.499
 2936SOL    HW1 8936   2.301   2.665   0.547
 2936SOL    HW2 8937   2.416   2.764   0.558
 2937SOL     OW 8938   6.818   0.628   3.787
 2937SOL    HW1 8939   6.846   0.544   3.824
 2937SOL    HW2 8940   6.864   0.633   3.703
 2938SOL     OW 8941   5.241   0.390   1.219
 2938SOL    HW1 8942   5.254   0.461   1.156
 2938SOL    HW2 8943   5.234   0.434   1.304
 2939SOL     OW 8944   7.614   3.755   4.064
 2939SOL    HW1 8945   7.615   3.690   4.134
 2939SOL    HW2 8946   7.523   3.759   4.036
 2940SOL     OW 8947   6.343   6.499   0.598
 2940SOL    HW1 8948   6.411   6.564   0.578
 2940SOL    HW2 8949   6.265   6.532   0.554
 2941SOL     OW 8950   1.420   1.565   1.442
 2941SOL    HW1 8951   1.487   1.589   1.505
 2941SOL    HW2 8952   1.424   1.633   1.375
 2942SOL     OW 8953   3.051   0.241   3.552
 2942SOL    HW1 8954   3.041   0.171   3.617
 2942SOL    HW2 8955   3.050   0.195   3.468
 2943SOL     OW 8956   3.577   2.087   2.286
 2943SOL    HW1 8957   3.606   2.102   2.376
 2943SOL    HW2 8958   3.510   2.153   2.272
 2944SOL     OW 8959   1.367   4.693   0.856
 2944SOL    HW1 8960   1.382   4.652   0.941
 2944SOL    HW2 8961   1.422   4.643   0.795
 2945SOL     OW 8962   8.504   1.674   2.193
 2945SOL    HW1 8963   8.503   1.746   2.130
 2945SOL    HW2 8964   8.560   1.608   2.152
 2946SOL     OW 8965   9.099   3.391   3.289
 2946SOL    HW1 8966   9.049   3.444   3.227
 2946SOL    HW2 8967   9.075   3.425   3.375
 2947SOL     OW 8968   4.870   6.135   2.150
 2947SOL    HW1 8969   4.959   6.127   2.186
 2947SOL    HW2 8970   4.813   6.130   2.227
 2948SOL     OW 8971   6.869   2.045   1.172
 2948SOL    HW1 8972   6.781   2.081   1.180
 2948SOL    HW2 8973   6.924   2.108   1.219
 2949SOL     OW 8974   6.787   4.418   3.387
 2949SOL    HW1 8975   6.720   4.391   3.450
 2949SOL    HW2 8976   6.832   4.337   3.364
 2950SOL     OW 8977   6.503   6.131   5.117
 2950SOL    HW1 8978   6.423   6.094   5.080
 2950SOL    HW2 8979   6.473   6.183   5.191
 2951SOL     OW 8980   2.852   4.910   1.773
 2951SOL    HW1 8981   2.878   4.823   1.744
 2951SOL    HW2 8982   2.928   4.944   1.819
 2952SOL     OW 8983   2.663   2.403   0.343
 2952SOL    HW1 8984   2.636   2.456   0.418
 2952SOL    HW2 8985   2.690   2.467   0.277
 2953SOL     OW 8986   3.509   2.734   1.278
 2953SOL    HW1 8987   3.493   2.731   1.372
 2953SOL    HW2 8988   3.591   2.686   1.266
 2954SOL     OW 8989   5.696   6.858   4.393
 2954SOL    HW1 8990   5.779   6.811   4.406
 2954SOL    HW2 8991   5.688   6.866   4.298
 2955SOL     OW 8992   3.915   5.379   4.807
 2955SOL    HW1 8993   3.898   5.424   4.725
 2955SOL    HW2 8994   3.829   5.364   4.845
 2956SOL     OW 8995   4.868   1.409   1.831
 2956SOL    HW1 8996   4.837   1.339   1.776
 2956SOL    HW2 8997   4.793   1.434   1.884
 2957SOL     OW 8998   7.852   2.926   2.886
 2957SOL    HW1 8999   7.875   2.987   2.816
 2957SOL    HW2 9000   7.807   2.979   2.951
 2958SOL     OW 9001   7.323   3.915   2.059
 2958SOL    HW1 9002   7.359   3.964   1.986
 2958SOL    HW2 9003   7.261   3.974   2.100
 2959SOL     OW 9004   1.184   2.821   0.242
 2959SOL    HW1 9005   1.095   2.845   0.218
 2959SOL    HW2 9006   1.176   2.783   0.329
 2960SOL     OW 9007   3.377   3.903   3.725
 2960SOL    HW1 9008   3.438   3.859   3.666
 2960SOL    HW2 9009   3.306   3.934   3.669
 2961SOL     OW 9010   6.873   3.481   0.110
 2961SOL    HW1 9011   6.834   3.405   0.068
 2961SOL    HW2 9012   6.900   3.450   0.197
 2962SOL     OW 9013   8.987   5.439   5.003
 2962SOL    HW1 9014   9.020   5.504   5.065
 2962SOL    HW2 9015   9.059   5.426   4.941
 2963SOL     OW 9016   5.017   6.448   4.589
 2963SOL    HW1 9017   5.022   6.461   4.494
 2963SOL    HW2 9018   4.929   6.414   4.603
 2964SOL     OW 9019   4.436   5.102   3.128
 2964SOL    HW1 9020   4.353   5.145   3.105
 2964SOL    HW2 9021   4.469   5.152   3.203
 2965SOL     OW 9022   7.850   4.878   3.691
 2965SOL    HW1 9023   7.935   4.911   3.663
 2965SOL    HW2 9024   7.790   4.952   3.677
 2966SOL     OW 9025   9.164   6.121   4.558
 2966SOL    HW1 9026   9.249   6.111   4.515
 2966SOL    HW2 9027   9.185   6.126   4.651
 2967SOL     OW 9028   7.104   3.103   0.185
 2967SOL    HW1 9029   7.020   3.139   0.154
 2967SOL    HW2 9030   7.081   3.015   0.216
 2968SOL     OW 9031   3.529   2.613   4.567
 2968SOL    HW1 9032   3.526   2.522   4.599
 2968SOL    HW2 9033   3.623   2.634   4.567
 2969SOL     OW 9034   7.760   0.330   4.996
 2969SOL    HW1 9035   7.789   0.416   5.026
 2969SOL    HW2 9036   7.788   0.325   4.904
 2970SOL     OW 9037   7.600   2.028   1.055
 2970SOL    HW1 9038   7.663   1.988   0.995
 2970SOL    HW2 9039   7.630   2.118   1.065
 2971SOL     OW 9040   6.834   6.309   5.127
 2971SOL    HW1 9041   6.859   6.392   5.088
 2971SOL    HW2 9042   6.911   6.280   5.176
 2972SOL     OW 9043   7.734   3.190   2.936
 2972SOL    HW1 9044   7.679   3.261   2.968
 2972SOL    HW2 9045   7.823   3.215   2.961
 2973SOL     OW 9046   5.831   1.758   4.674
 2973SOL    HW1 9047   5.857   1.685   4.618
 2973SOL    HW2 9048   5.793   1.822   4.615
 2974SOL     OW 9049   9.660   5.978   5.286
 2974SOL    HW1 9050   9.584   6.012   5.238
 2974SOL    HW2 9051   9.633   5.890   5.313
 2975SOL     OW 9052   5.811   3.997   4.228
 2975SOL    HW1 9053   5.722   3.962   4.227
 2975SOL    HW2 9054   5.836   3.996   4.320
 2976SOL     OW 9055   7.814   3.741   2.054
 2976SOL    HW1 9056   7.744   3.685   2.088
 2976SOL    HW2 9057   7.778   3.829   2.057
 2977SOL     OW 9058   6.095   1.636   2.506
 2977SOL    HW1 9059   6.116   1.706   2.444
 2977SOL    HW2 9060   6.102   1.677   2.592
 2978SOL     OW 9061   2.301   7.161   3.188
 2978SOL    HW1 9062   2.280   7.252   3.208
 2978SOL    HW2 9063   2.390   7.149   3.223
 2979SOL     OW 9064   2.638   1.879   3.381
 2979SOL    HW1 9065   2.641   1.906   3.289
 2979SOL    HW2 9066   2.604   1.955   3.427
 2980SOL     OW 9067   8.223   2.292   3.992
 2980SOL    HW1 9068   8.231   2.345   4.071
 2980SOL    HW2 9069   8.187   2.352   3.927
 2981SOL     OW 9070   9.748   2.462   3.585
 2981SOL    HW1 9071   9.764   2.413   3.665
 2981SOL    HW2 9072   9.816   2.432   3.525
 2982SOL     OW 9073   8.765   1.676   4.434
 2982SOL    HW1 9074   8.847   1.703   4.393
 2982SOL    HW2 9075   8.791   1.618   4.506
 2983SOL     OW 9076   6.527   5.904   3.520
 2983SOL    HW1 9077   6.436   5.872   3.526
 2983SOL    HW2 9078   6.565   5.882   3.605
 2984SOL     OW 9079   2.391   5.740   2.672
 2984SOL    HW1 9080   2.412   5.819   2.622
 2984SOL    HW2 9081   2.396   5.767   2.763
 2985SOL     OW 9082   5.411   1.111   1.541
 2985SOL    HW1 9083   5.406   1.147   1.629
 2985SOL    HW2 9084   5.503   1.087   1.530
 2986SOL     OW 9085   6.348   1.412   2.425
 2986SOL    HW1 9086   6.255   1.389   2.427
 2986SOL    HW2 9087   6.383   1.378   2.506
 2987SOL     OW 9088   9.440   6.253   3.937
 2987SOL    HW1 9089   9.350   6.285   3.947
 2987SOL    HW2 9090   9.494   6.323   3.975
 2988SOL     OW 9091   1.781   5.587   0.134
 2988SOL    HW1 9092   1.763   5.552   0.221
 2988SOL    HW2 9093   1.864   5.635   0.143
 2989SOL     OW 9094   3.117   1.390   3.374
 2989SOL    HW1 9095   3.168   1.345   3.441
 2989SOL    HW2 9096   3.026   1.370   3.397
 2990SOL     OW 9097   7.460   6.351   1.158
 2990SOL    HW1 9098   7.364   6.356   1.154
 2990SOL    HW2 9099   7.483   6.407   1.233
 2991SOL     OW 9100   7.692   6.547   2.198
 2991SOL    HW1 9101   7.618   6.591   2.241
 2991SOL    HW2 9102   7.761   6.613   2.195
 2992SOL     OW 9103   3.684   6.156   2.678
 2992SOL    HW1 9104   3.600   6.190   2.645
 2992SOL    HW2 9105   3.675   6.061   2.672
 2993SOL     OW 9106   5.226   3.156   2.499
 2993SOL    HW1 9107   5.168   3.229   2.521
 2993SOL    HW2 9108   5.312   3.197   2.487
 2994SOL     OW 9109  10.494   5.953   4.906
 2994SOL    HW1 9110  10.497   5.859   4.920
 2994SOL    HW2 9111  10.406   5.979   4.935
 2995SOL     OW 9112   5.150   6.806   4.792
 2995SOL    HW1 9113   5.137   6.747   4.717
 2995SOL    HW2 9114   5.061   6.833   4.816
 2996SOL     OW 9115   4.359   0.446   0.934
 2996SOL    HW1 9116   4.430   0.385   0.914
 2996SOL    HW2 9117   4.386   0.528   0.892
 2997SOL     OW 9118   6.005   1.605   1.671
 2997SOL    HW1 9119   5.994   1.551   1.750
 2997SOL    HW2 9120   5.970   1.551   1.600
 2998SOL     OW 9121   6.949   0.729   2.666
 2998SOL    HW1 9122   7.027   0.675   2.673
 2998SOL    HW2 9123   6.921   0.718   2.575
 2999SOL     OW 9124   3.820   5.598   2.826
 2999SOL    HW1 9125   3.792   5.675   2.777
 2999SOL    HW2 9126   3.864   5.634   2.903
 3000SOL     OW 9127   0.777   4.856   0.932
 3000SOL    HW1 9128   0.799   4.867   1.024
 3000SOL    HW2 9129   0.710   4.923   0.915
 3001SOL     OW 9130   4.528   6.414   3.812
 3001SOL    HW1 9131   4.433   6.427   3.811
 3001SOL    HW2 9132   4.564   6.502   3.823
 3002SOL     OW 9133   9.007   0.162   3.017
 3002SOL    HW1 9134   8.990   0.075   2.981
 3002SOL    HW2 9135   8.980   0.155   3.108
 3003SOL     OW 9136   6.847   5.421   4.709
 3003SOL    HW1 9137   6.890   5.435   4.625
 3003SOL    HW2 9138   6.765   5.377   4.687
 3004SOL     OW 9139   9.368   1.692   3.006
 3004SOL    HW1 9140   9.392   1.706   2.914
 3004SOL    HW2 9141   9.431   1.745   3.056
 3005SOL     OW 9142   3.668   2.838   0.420
 3005SOL    HW1 9143   3.638   2.927   0.404
 3005SOL    HW2 9144   3.598   2.782   0.387
 3006SOL     OW 9145   3.082   3.921   2.862
 3006SOL    HW1 9146   3.037   4.000   2.831
 3006SOL    HW2 9147   3.012   3.859   2.882
 3007SOL     OW 9148   6.172   5.384   0.476
 3007SOL    HW1 9149   6.216   5.469   0.469
 3007SOL    HW2 9150   6.215   5.330   0.409
 3008SOL     OW 9151   4.559   6.984   4.081
 3008SOL    HW1 9152   4.574   6.936   4.163
 3008SOL    HW2 9153   4.647   7.004   4.050
 3009SOL     OW 9154   3.685   4.478   4.153
 3009SOL    HW1 9155   3.663   4.562   4.110
 3009SOL    HW2 9156   3.780   4.480   4.163
 3010SOL     OW 9157  10.234   4.789   4.573
 3010SOL    HW1 9158  10.267   4.820   4.489
 3010SOL    HW2 9159  10.246   4.862   4.633
 3011SOL     OW 9160   4.073   1.188   2.771
 3011SOL    HW1 9161   4.009   1.224   2.710
 3011SOL    HW2 9162   4.024   1.122   2.821
 3012SOL     OW 9163   1.409   0.548   1.430
 3012SOL    HW1 9164   1.373   0.572   1.344
 3012SOL    HW2 9165   1.423   0.632   1.473
 3013SOL     OW 9166   1.596   5.504   2.133
 3013SOL    HW1 9167   1.575   5.494   2.226
 3013SOL    HW2 9168   1.515   5.537   2.094
 3014SOL     OW 9169   7.225   1.772   3.400
 3014SOL    HW1 9170   7.153   1.812   3.351
 3014SOL    HW2 9171   7.199   1.779   3.492
 3015SOL     OW 9172   5.110   0.045   3.615
 3015SOL    HW1 9173   5.203   0.068   3.610
 3015SOL    HW2 9174   5.064   0.120   3.579
 3016SOL     OW 9175   7.430   4.726   0.643
 3016SOL    HW1 9176   7.477   4.652   0.605
 3016SOL    HW2 9177   7.362   4.686   0.697
 3017SOL     OW 9178   5.145   6.864   1.341
 3017SOL    HW1 9179   5.144   6.769   1.331
 3017SOL    HW2 9180   5.119   6.898   1.256
 3018SOL     OW 9181   5.085   4.322   0.152
 3018SOL    HW1 9182   5.069   4.338   0.245
 3018SOL    HW2 9183   5.175   4.353   0.138
 3019SOL     OW 9184   1.749   5.731   2.096
 3019SOL    HW1 9185   1.710   5.661   2.149
 3019SOL    HW2 9186   1.717   5.714   2.008
 3020SOL     OW 9187   6.082   2.509   1.254
 3020SOL    HW1 9188   6.176   2.525   1.247
 3020SOL    HW2 9189   6.049   2.525   1.166
 3021SOL     OW 9190   3.853   1.520   4.433
 3021SOL    HW1 9191   3.906   1.480   4.501
 3021SOL    HW2 9192   3.826   1.447   4.377
 3022SOL     OW 9193   6.195   2.547   4.186
 3022SOL    HW1 9194   6.164   2.514   4.102
 3022SOL    HW2 9195   6.138   2.621   4.205
 3023SOL     OW 9196   3.237   1.216   3.534
 3023SOL    HW1 9197   3.187   1.142   3.570
 3023SOL    HW2 9198   3.326   1.183   3.524
 3024SOL     OW 9199   6.777   4.536   3.040
 3024SOL    HW1 9200   6.734   4.454   3.019
 3024SOL    HW2 9201   6.804   4.572   2.956
 3025SOL     OW 9202   6.793   1.311   4.198
 3025SOL    HW1 9203   6.878   1.355   4.201
 3025SOL    HW2 9204   6.788   1.275   4.110
 3026SOL     OW 9205   3.363   6.152   2.768
 3026SOL    HW1 9206   3.360   6.207   2.847
 3026SOL    HW2 9207   3.421   6.199   2.708
 3027SOL     OW 9208   6.241   3.238   5.101
 3027SOL    HW1 9209   6.250   3.201   5.189
 3027SOL    HW2 9210   6.150   3.266   5.096
 3028SOL     OW 9211   3.130   1.708   3.294
 3028SOL    HW1 9212   3.162   1.618   3.297
 3028SOL    HW2 9213   3.173   1.751   3.368
 3029SOL     OW 9214   6.861   5.031   4.659
 3029SOL    HW1 9215   6.835   5.037   4.567
 3029SOL    HW2 9216   6.779   5.016   4.706
 3030SOL     OW 9217  10.108   5.519   4.542
 3030SOL    HW1 9218  10.032   5.495   4.596
 3030SOL    HW2 9219  10.170   5.555   4.605
 3031SOL     OW 9220   6.545   3.171   1.190
 3031SOL    HW1 9221   6.584   3.175   1.277
 3031SOL    HW2 9222   6.619   3.172   1.130
 3032SOL     OW 9223   3.978   2.359   3.450
 3032SOL    HW1 9224   3.942   2.408   3.523
 3032SOL    HW2 9225   4.043   2.419   3.410
 3033SOL     OW 9226   6.684   3.738   2.360
 3033SOL    HW1 9227   6.614   3.674   2.361
 3033SOL    HW2 9228   6.659   3.802   2.427
 3034SOL     OW 9229   8.570   2.477   2.366
 3034SOL    HW1 9230   8.475   2.489   2.357
 3034SOL    HW2 9231   8.603   2.565   2.384
 3035SOL     OW 9232   7.528   7.278   2.332
 3035SOL    HW1 9233   7.553   7.224   2.256
 3035SOL    HW2 9234   7.458   7.228   2.375
 3036SOL     OW 9235  10.300   6.112   5.103
 3036SOL    HW1 9236  10.248   6.120   5.023
 3036SOL    HW2 9237  10.256   6.169   5.166
 3037SOL     OW 9238   6.422   1.865   0.098
 3037SOL    HW1 9239   6.495   1.811   0.127
 3037SOL    HW2 9240   6.450   1.955   0.115
 3038SOL     OW 9241   1.486   4.596   1.861
 3038SOL    HW1 9242   1.456   4.594   1.770
 3038SOL    HW2 9243   1.499   4.504   1.884
 3039SOL     OW 9244   7.379   5.515   3.573
 3039SOL    HW1 9245   7.324   5.439   3.594
 3039SOL    HW2 9246   7.450   5.512   3.638
 3040SOL     OW 9247   1.933   5.768   2.338
 3040SOL    HW1 9248   1.970   5.847   2.376
 3040SOL    HW2 9249   1.839   5.787   2.329
 3041SOL     OW 9250   9.631   1.105   4.538
 3041SOL    HW1 9251   9.658   1.014   4.553
 3041SOL    HW2 9252   9.684   1.134   4.464
 3042SOL     OW 9253   1.476   4.832   1.221
 3042SOL    HW1 9254   1.483   4.882   1.140
 3042SOL    HW2 9255   1.492   4.741   1.195
 3043SOL     OW 9256   8.172   6.735   1.741
 3043SOL    HW1 9257   8.250   6.780   1.709
 3043SOL    HW2 9258   8.206   6.658   1.787
 3044SOL     OW 9259   4.302   3.707   5.288
 3044SOL    HW1 9260   4.253   3.788   5.270
 3044SOL    HW2 9261   4.260   3.641   5.232
 3045SOL     OW 9262  10.409   7.073   4.884
 3045SOL    HW1 9263  10.358   7.003   4.926
 3045SOL    HW2 9264  10.500   7.046   4.896
 3046SOL     OW 9265   2.341   1.392   1.962
 3046SOL    HW1 9266   2.429   1.396   1.925
 3046SOL    HW2 9267   2.291   1.456   1.911
 3047SOL     OW 9268   3.580   0.367   1.165
 3047SOL    HW1 9269   3.626   0.304   1.109
 3047SOL    HW2 9270   3.523   0.415   1.105
 3048SOL     OW 9271   1.521   1.733   0.011
 3048SOL    HW1 9272   1.516   1.791  -0.065
 3048SOL    HW2 9273   1.455   1.767   0.072
 3049SOL     OW 9274   8.749   1.654   3.634
 3049SOL    HW1 9275   8.791   1.709   3.568
 3049SOL    HW2 9276   8.822   1.616   3.684
 3050SOL     OW 9277   1.090   4.605   0.084
 3050SOL    HW1 9278   1.159   4.614   0.149
 3050SOL    HW2 9279   1.078   4.693   0.050
 3051SOL     OW 9280   2.392   5.437   1.279
 3051SOL    HW1 9281   2.336   5.366   1.249
 3051SOL    HW2 9282   2.382   5.437   1.375
 3052SOL     OW 9283   2.952   5.329   1.717
 3052SOL    HW1 9284   3.030   5.372   1.681
 3052SOL    HW2 9285   2.986   5.267   1.781
 3053SOL     OW 9286   3.066   0.124   1.044
 3053SOL    HW1 9287   3.105   0.071   1.114
 3053SOL    HW2 9288   2.977   0.089   1.034
 3054SOL     OW 9289   6.577   5.016   0.648
 3054SOL    HW1 9290   6.581   4.942   0.708
 3054SOL    HW2 9291   6.617   5.088   0.696
 3055SOL     OW 9292   4.514   4.150   1.601
 3055SOL    HW1 9293   4.435   4.188   1.639
 3055SOL    HW2 9294   4.484   4.108   1.521
 3056SOL     OW 9295   3.710   3.522   0.113
 3056SOL    HW1 9296   3.784   3.463   0.126
 3056SOL    HW2 9297   3.644   3.469   0.068
 3057SOL     OW 9298   0.219   2.537   0.053
 3057SOL    HW1 9299   0.154   2.468   0.068
 3057SOL    HW2 9300   0.301   2.490   0.036
 3058SOL     OW 9301   4.873   3.868   1.632
 3058SOL    HW1 9302   4.876   3.780   1.594
 3058SOL    HW2 9303   4.781   3.884   1.650
 3059SOL     OW 9304   8.836   3.618   3.233
 3059SOL    HW1 9305   8.830   3.548   3.298
 3059SOL    HW2 9306   8.777   3.686   3.267
 3060SOL     OW 9307   5.411   1.087   2.115
 3060SOL    HW1 9308   5.340   1.100   2.052
 3060SOL    HW2 9309   5.377   1.021   2.175
 3061SOL     OW 9310   5.785   0.741   5.110
 3061SOL    HW1 9311   5.878   0.761   5.124
 3061SOL    HW2 9312   5.772   0.755   5.016
 3062SOL     OW 9313   6.983   3.704   2.010
 3062SOL    HW1 9314   7.061   3.701   2.066
 3062SOL    HW2 9315   6.964   3.798   2.002
 3063SOL     OW 9316   2.800   0.156   1.877
 3063SOL    HW1 9317   2.831   0.133   1.964
 3063SOL    HW2 9318   2.756   0.241   1.889
 3064SOL     OW 9319   5.811   7.005   3.261
 3064SOL    HW1 9320   5.829   7.066   3.332
 3064SOL    HW2 9321   5.760   6.935   3.302
 3065SOL     OW 9322   3.451   5.343   1.550
 3065SOL    HW1 9323   3.516   5.409   1.575
 3065SOL    HW2 9324   3.487   5.303   1.471
 3066SOL     OW 9325   5.584   1.580   3.788
 3066SOL    HW1 9326   5.527   1.566   3.864
 3066SOL    HW2 9327   5.651   1.641   3.819
 3067SOL     OW 9328   5.081   2.582   0.885
 3067SOL    HW1 9329   5.033   2.571   0.803
 3067SOL    HW2 9330   5.108   2.494   0.910
 3068SOL     OW 9331   5.891   3.694   2.359
 3068SOL    HW1 9332   5.882   3.789   2.362
 3068SOL    HW2 9333   5.908   3.669   2.450
 3069SOL     OW 9334   8.312   3.593   2.003
 3069SOL    HW1 9335   8.343   3.529   2.066
 3069SOL    HW2 9336   8.222   3.565   1.983
 3070SOL     OW 9337   2.032   0.175   1.034
 3070SOL    HW1 9338   1.940   0.195   1.053
 3070SOL    HW2 9339   2.061   0.121   1.107
 3071SOL     OW 9340   7.143   0.427   2.975
 3071SOL    HW1 9341   7.161   0.520   2.975
 3071SOL    HW2 9342   7.051   0.420   3.001
 3072SOL     OW 9343   4.011   0.404   0.851
 3072SOL    HW1 9344   3.947   0.398   0.781
 3072SOL    HW2 9345   3.959   0.424   0.929
 3073SOL     OW 9346   6.507   5.175   5.044
 3073SOL    HW1 9347   6.560   5.248   5.013
 3073SOL    HW2 9348   6.428   5.216   5.081
 3074SOL     OW 9349   5.927   3.994   1.104
 3074SOL    HW1 9350   5.875   3.929   1.151
 3074SOL    HW2 9351   5.987   3.942   1.050
 3075SOL     OW 9352   3.937   5.983   3.642
 3075SOL    HW1 9353   3.897   5.989   3.729
 3075SOL    HW2 9354   3.954   6.074   3.617
 3076SOL     OW 9355   8.440   3.713   1.784
 3076SOL    HW1 9356   8.379   3.665   1.840
 3076SOL    HW2 9357   8.386   3.742   1.710
 3077SOL     OW 9358   3.743   5.216   3.384
 3077SOL    HW1 9359   3.762   5.201   3.291
 3077SOL    HW2 9360   3.665   5.272   3.384
 3078SOL     OW 9361   2.110   7.055   2.434
 3078SOL    HW1 9362   2.176   7.097   2.380
 3078SOL    HW2 9363   2.097   7.115   2.508
 3079SOL     OW 9364   4.016   0.364   4.628
 3079SOL    HW1 9365   4.050   0.331   4.711
 3079SOL    HW2 9366   4.078   0.432   4.602
 3080SOL     OW 9367   4.802   1.767   2.726
 3080SOL    HW1 9368   4.767   1.688   2.685
 3080SOL    HW2 9369   4.896   1.752   2.729
 3081SOL     OW 9370   4.902   5.308   1.473
 3081SOL    HW1 9371   4.961   5.233   1.480
 3081SOL    HW2 9372   4.936   5.359   1.400
 3082SOL     OW 9373   1.960   1.784   2.757
 3082SOL    HW1 9374   1.889   1.722   2.740
 3082SOL    HW2 9375   1.976   1.827   2.673
 3083SOL     OW 9376   4.462   0.696   0.008
 3083SOL    HW1 9377   4.482   0.725   0.097
 3083SOL    HW2 9378   4.454   0.601   0.015
 3084SOL     OW 9379   2.829   4.387   2.294
 3084SOL    HW1 9380   2.750   4.440   2.290
 3084SOL    HW2 9381   2.875   4.419   2.372
 3085SOL     OW 9382   4.802   7.085   3.988
 3085SOL    HW1 9383   4.741   7.122   3.924
 3085SOL    HW2 9384   4.809   7.151   4.056
 3086SOL     OW 9385   8.502   6.323   3.155
 3086SOL    HW1 9386   8.420   6.367   3.138
 3086SOL    HW2 9387   8.525   6.280   3.073
 3087SOL     OW 9388   5.488   3.366   4.842
 3087SOL    HW1 9389   5.525   3.417   4.914
 3087SOL    HW2 9390   5.415   3.418   4.810
 3088SOL     OW 9391   8.819   4.861   5.102
 3088SOL    HW1 9392   8.734   4.905   5.108
 3088SOL    HW2 9393   8.797   4.769   5.085
 3089SOL     OW 9394   4.189   3.756   0.181
 3089SOL    HW1 9395   4.181   3.800   0.265
 3089SOL    HW2 9396   4.159   3.821   0.117
 3090SOL     OW 9397   9.181   5.794   4.782
 3090SOL    HW1 9398   9.157   5.769   4.693
 3090SOL    HW2 9399   9.162   5.717   4.835
 3091SOL     OW 9400   3.930   2.321   4.371
 3091SOL    HW1 9401   3.845   2.319   4.327
 3091SOL    HW2 9402   3.921   2.260   4.444
 3092SOL     OW 9403   3.496   5.733   4.181
 3092SOL    HW1 9404   3.415   5.732   4.232
 3092SOL    HW2 9405   3.565   5.738   4.247
 3093SOL     OW 9406   5.445   0.602   1.806
 3093SOL    HW1 9407   5.507   0.637   1.870
 3093SOL    HW2 9408   5.436   0.671   1.741
 3094SOL     OW 9409   5.433   4.074   0.748
 3094SOL    HW1 9410   5.365   4.141   0.753
 3094SOL    HW2 9411   5.515   4.123   0.755
 3095SOL     OW 9412   7.550   3.487   4.161
 3095SOL    HW1 9413   7.480   3.427   4.188
 3095SOL    HW2 9414   7.630   3.446   4.195
 3096SOL     OW 9415   0.247   0.407   0.169
 3096SOL    HW1 9416   0.315   0.394   0.102
 3096SOL    HW2 9417   0.297   0.423   0.249
 3097SOL     OW 9418   2.908   6.705   3.569
 3097SOL    HW1 9419   2.881   6.738   3.654
 3097SOL    HW2 9420   2.941   6.781   3.522
 3098SOL     OW 9421   8.339   3.488   4.918
 3098SOL    HW1 9422   8.415   3.518   4.968
 3098SOL    HW2 9423   8.305   3.567   4.876
 3099SOL     OW 9424   6.419   3.626   2.418
 3099SOL    HW1 9425   6.333   3.639   2.458
 3099SOL    HW2 9426   6.418   3.535   2.389
 3100SOL     OW 9427   1.991   7.135   1.102
 3100SOL    HW1 9428   2.076   7.102   1.072
 3100SOL    HW2 9429   1.984   7.222   1.063
 3101SOL     OW 9430   5.285   0.341   5.052
 3101SOL    HW1 9431   5.193   0.330   5.078
 3101SOL    HW2 9432   5.334   0.286   5.113
 3102SOL     OW 9433   4.901   2.534   4.734
 3102SOL    HW1 9434   4.965   2.601   4.709
 3102SOL    HW2 9435   4.819   2.582   4.746
 3103SOL     OW 9436   6.242   7.305   3.798
 3103SOL    HW1 9437   6.309   7.273   3.858
 3103SOL    HW2 9438   6.181   7.233   3.789
 3104SOL     OW 9439   6.368   3.449   4.192
 3104SOL    HW1 9440   6.288   3.398   4.188
 3104SOL    HW2 9441   6.339   3.540   4.181
 3105SOL     OW 9442   6.471   0.720   4.914
 3105SOL    HW1 9443   6.448   0.787   4.978
 3105SOL    HW2 9444   6.471   0.638   4.964
 3106SOL     OW 9445   2.882   1.617   0.162
 3106SOL    HW1 9446   2.827   1.556   0.113
 3106SOL    HW2 9447   2.971   1.584   0.150
 3107SOL     OW 9448   5.222   2.480   2.874
 3107SOL    HW1 9449   5.242   2.393   2.840
 3107SOL    HW2 9450   5.199   2.532   2.796
 3108SOL     OW 9451   6.677   6.097   1.367
 3108SOL    HW1 9452   6.584   6.113   1.357
 3108SOL    HW2 9453   6.690   6.008   1.335
 3109SOL     OW 9454   3.808   1.412   4.017
 3109SOL    HW1 9455   3.763   1.342   3.969
 3109SOL    HW2 9456   3.900   1.401   3.995
 3110SOL     OW 9457   3.302   2.014   0.035
 3110SOL    HW1 9458   3.288   2.075   0.107
 3110SOL    HW2 9459   3.235   1.946   0.048
 3111SOL     OW 9460   6.000   5.822   1.862
 3111SOL    HW1 9461   5.978   5.730   1.845
 3111SOL    HW2 9462   6.093   5.828   1.843
 3112SOL     OW 9463   7.907   3.599   2.743
 3112SOL    HW1 9464   7.874   3.527   2.689
 3112SOL    HW2 9465   7.879   3.678   2.696
 3113SOL     OW 9466   5.986   6.975   3.820
 3113SOL    HW1 9467   5.965   6.936   3.735
 3113SOL    HW2 9468   5.965   7.068   3.810
 3114SOL     OW 9469   6.647   5.206   0.354
 3114SOL    HW1 9470   6.677   5.199   0.444
 3114SOL    HW2 9471   6.690   5.285   0.321
 3115SOL     OW 9472   6.758   1.098   1.728
 3115SOL    HW1 9473   6.754   1.002   1.733
 3115SOL    HW2 9474   6.837   1.116   1.677
 3116SOL     OW 9475   6.549   0.514   2.161
 3116SOL    HW1 9476   6.537   0.427   2.200
 3116SOL    HW2 9477   6.590   0.496   2.076
 3117SOL     OW 9478   9.297   3.569   3.704
 3117SOL    HW1 9479   9.336   3.551   3.618
 3117SOL    HW2 9480   9.337   3.651   3.731
 3118SOL     OW 9481   9.301   2.560   4.366
 3118SOL    HW1 9482   9.373   2.616   4.393
 3118SOL    HW2 9483   9.225   2.617   4.364
 3119SOL     OW 9484   6.556   3.242   4.106
 3119SOL    HW1 9485   6.624   3.288   4.057
 3119SOL    HW2 9486   6.498   3.312   4.136
 3120SOL     OW 9487   8.258   7.293   4.158
 3120SOL    HW1 9488   8.333   7.240   4.130
 3120SOL    HW2 9489   8.288   7.336   4.239
 3121SOL     OW 9490   3.516   3.561   1.643
 3121SOL    HW1 9491   3.462   3.627   1.688
 3121SOL    HW2 9492   3.523   3.489   1.706
 3122SOL     OW 9493   3.890   6.427   3.920
 3122SOL    HW1 9494   3.877   6.403   3.828
 3122SOL    HW2 9495   3.803   6.450   3.952
 3123SOL     OW 9496   8.042   7.388   0.988
 3123SOL    HW1 9497   8.124   7.359   0.949
 3123SOL    HW2 9498   7.985   7.311   0.984
 3124SOL     OW 9499   1.906   2.991   0.426
 3124SOL    HW1 9500   1.933   3.005   0.336
 3124SOL    HW2 9501   1.966   3.046   0.478
 3125SOL     OW 9502   7.652   6.275   4.834
 3125SOL    HW1 9503   7.724   6.330   4.803
 3125SOL    HW2 9504   7.576   6.332   4.832
 3126SOL     OW 9505   4.502   1.484   0.992
 3126SOL    HW1 9506   4.584   1.516   1.029
 3126SOL    HW2 9507   4.436   1.546   1.023
 3127SOL     OW 9508   5.943   0.465   1.785
 3127SOL    HW1 9509   5.861   0.422   1.763
 3127SOL    HW2 9510   6.008   0.425   1.727
 3128SOL     OW 9511   2.739   4.539   0.440
 3128SOL    HW1 9512   2.659   4.560   0.392
 3128SOL    HW2 9513   2.715   4.551   0.532
 3129SOL     OW 9514   2.771   0.501   0.185
 3129SOL    HW1 9515   2.681   0.524   0.208
 3129SOL    HW2 9516   2.825   0.567   0.228
 3130SOL     OW 9517   6.928   1.520   0.052
 3130SOL    HW1 9518   6.956   1.550   0.139
 3130SOL    HW2 9519   6.839   1.553   0.043
 3131SOL     OW 9520   5.675   4.116   1.386
 3131SOL    HW1 9521   5.716   4.037   1.351
 3131SOL    HW2 9522   5.652   4.167   1.309
 3132SOL     OW 9523   2.102   6.904   1.740
 3132SOL    HW1 9524   2.111   6.911   1.645
 3132SOL    HW2 9525   2.146   6.982   1.774
 3133SOL     OW 9526   2.221   7.183   0.087
 3133SOL    HW1 9527   2.244   7.198  -0.005
 3133SOL    HW2 9528   2.148   7.243   0.104
 3134SOL     OW 9529   7.640   6.387   1.779
 3134SOL    HW1 9530   7.575   6.452   1.752
 3134SOL    HW2 9531   7.609   6.305   1.740
 3135SOL     OW 9532   5.411   3.069   4.880
 3135SOL    HW1 9533   5.371   3.156   4.885
 3135SOL    HW2 9534   5.397   3.032   4.967
 3136SOL     OW 9535   4.471   2.251   4.319
 3136SOL    HW1 9536   4.554   2.290   4.292
 3136SOL    HW2 9537   4.494   2.164   4.352
 3137SOL     OW 9538   1.742   6.451   2.055
 3137SOL    HW1 9539   1.790   6.507   1.994
 3137SOL    HW2 9540   1.686   6.511   2.104
 3138SOL     OW 9541   5.859   4.138   0.605
 3138SOL    HW1 9542   5.777   4.153   0.651
 3138SOL    HW2 9543   5.838   4.073   0.538
 3139SOL     OW 9544   3.528   2.363   4.734
 3139SOL    HW1 9545   3.595   2.323   4.789
 3139SOL    HW2 9546   3.447   2.318   4.758
 3140SOL     OW 9547   2.407   3.241   0.091
 3140SOL    HW1 9548   2.349   3.298   0.040
 3140SOL    HW2 9549   2.362   3.157   0.093
 3141SOL     OW 9550   5.150   4.179   4.299
 3141SOL    HW1 9551   5.186   4.227   4.374
 3141SOL    HW2 9552   5.221   4.177   4.235
 3142SOL     OW 9553   4.839   5.393   4.261
 3142SOL    HW1 9554   4.832   5.357   4.350
 3142SOL    HW2 9555   4.863   5.319   4.206
 3143SOL     OW 9556   4.736   6.717   0.558
 3143SOL    HW1 9557   4.655   6.709   0.608
 3143SOL    HW2 9558   4.714   6.778   0.487
 3144SOL     OW 9559   2.678   5.360   3.282
 3144SOL    HW1 9560   2.677   5.264   3.280
 3144SOL    HW2 9561   2.768   5.382   3.306
 3145SOL     OW 9562   5.005   2.678   4.391
 3145SOL    HW1 9563   4.973   2.643   4.308
 3145SOL    HW2 9564   4.928   2.674   4.449
 3146SOL     OW 9565   7.716   6.741   2.973
 3146SOL    HW1 9566   7.706   6.792   3.054
 3146SOL    HW2 9567   7.795   6.776   2.932
 3147SOL     OW 9568   3.642   6.192   3.797
 3147SOL    HW1 9569   3.659   6.275   3.752
 3147SOL    HW2 9570   3.551   6.172   3.777
 3148SOL     OW 9571   2.242   6.193   0.905
 3148SOL    HW1 9572   2.290   6.275   0.891
 3148SOL    HW2 9573   2.183   6.212   0.978
 3149SOL     OW 9574   4.267   5.735   0.203
 3149SOL    HW1 9575   4.306   5.821   0.217
 3149SOL    HW2 9576   4.279   5.718   0.110
 3150SOL     OW 9577   7.490   7.132   3.143
 3150SOL    HW1 9578   7.442   7.208   3.108
 3150SOL    HW2 9579   7.503   7.153   3.235
 3151SOL     OW 9580   4.984   4.738   3.003
 3151SOL    HW1 9581   4.927   4.734   2.926
 3151SOL    HW2 9582   4.977   4.828   3.034
 3152SOL     OW 9583   3.608   4.939   2.489
 3152SOL    HW1 9584   3.561   5.023   2.480
 3152SOL    HW2 9585   3.553   4.877   2.441
 3153SOL     OW 9586   5.340   6.783   4.102
 3153SOL    HW1 9587   5.246   6.762   4.108
 3153SOL    HW2 9588   5.378   6.744   4.181
 3154SOL     OW 9589   7.868   4.787   1.988
 3154SOL    HW1 9590   7.890   4.708   2.038
 3154SOL    HW2 9591   7.774   4.799   2.002
 3155SOL     OW 9592   6.241   3.992   2.469
 3155SOL    HW1 9593   6.158   3.963   2.430
 3155SOL    HW2 9594   6.222   4.080   2.503
 3156SOL     OW 9595   5.395   6.607   2.310
 3156SOL    HW1 9596   5.317   6.553   2.324
 3156SOL    HW2 9597   5.404   6.659   2.390
 3157SOL     OW 9598   1.817   1.966   2.301
 3157SOL    HW1 9599   1.864   2.016   2.368
 3157SOL    HW2 9600   1.725   1.972   2.328
 3158SOL     OW 9601   4.252   1.749   0.918
 3158SOL    HW1 9602   4.312   1.726   0.847
 3158SOL    HW2 9603   4.299   1.729   0.998
 3159SOL     OW 9604   4.878   1.682   1.348
 3159SOL    HW1 9605   4.919   1.596   1.357
 3159SOL    HW2 9606   4.940   1.743   1.390
 3160SOL     OW 9607   5.011   6.890   0.539
 3160SOL    HW1 9608   4.939   6.835   0.571
 3160SOL    HW2 9609   5.089   6.835   0.551
 3161SOL     OW 9610   1.637   2.991   0.842
 3161SOL    HW1 9611   1.636   2.896   0.838
 3161SOL    HW2 9612   1.684   3.011   0.923
 3162SOL     OW 9613   8.534   1.513   4.344
 3162SOL    HW1 9614   8.498   1.538   4.259
 3162SOL    HW2 9615   8.582   1.590   4.373
 3163SOL     OW 9616   6.732   5.842   1.436
 3163SOL    HW1 9617   6.802   5.822   1.499
 3163SOL    HW2 9618   6.660   5.784   1.461
 3164SOL     OW 9619   7.254   4.279   0.512
 3164SOL    HW1 9620   7.251   4.371   0.488
 3164SOL    HW2 9621   7.215   4.234   0.437
 3165SOL     OW 9622   8.859   1.325   5.137
 3165SOL    HW1 9623   8.817   1.242   5.160
 3165SOL    HW2 9624   8.939   1.327   5.189
 3166SOL     OW 9625   5.808   2.464   2.500
 3166SOL    HW1 9626   5.772   2.381   2.470
 3166SOL    HW2 9627   5.805   2.521   2.422
 3167SOL     OW 9628   7.871   6.213   2.494
 3167SOL    HW1 9629   7.913   6.271   2.557
 3167SOL    HW2 9630   7.800   6.266   2.457
 3168SOL     OW 9631   5.994   2.380   1.510
 3168SOL    HW1 9632   5.921   2.332   1.550
 3168SOL    HW2 9633   5.954   2.427   1.437
 3169SOL     OW 9634   5.507   1.516   2.352
 3169SOL    HW1 9635   5.496   1.577   2.279
 3169SOL    HW2 9636   5.593   1.477   2.339
 3170SOL     OW 9637   6.283   2.871   3.693
 3170SOL    HW1 9638   6.341   2.810   3.647
 3170SOL    HW2 9639   6.342   2.929   3.741
 3171SOL     OW 9640   2.130   4.881   2.214
 3171SOL    HW1 9641   2.119   4.972   2.186
 3171SOL    HW2 9642   2.051   4.862   2.265
 3172SOL     OW 9643   0.641   7.042   0.602
 3172SOL    HW1 9644   0.680   7.030   0.516
 3172SOL    HW2 9645   0.661   7.133   0.625
 3173SOL     OW 9646   5.339   0.695   5.280
 3173SOL    HW1 9647   5.312   0.655   5.197
 3173SOL    HW2 9648   5.435   0.694   5.276
 3174SOL     OW 9649   8.650   6.272   4.443
 3174SOL    HW1 9650   8.655   6.252   4.536
 3174SOL    HW2 9651   8.741   6.268   4.413
 3175SOL     OW 9652   3.551   0.303   3.228
 3175SOL    HW1 9653   3.470   0.256   3.248
 3175SOL    HW2 9654   3.535   0.392   3.257
 3176SOL     OW 9655   7.664   2.015   3.640
 3176SOL    HW1 9656   7.651   2.107   3.661
 3176SOL    HW2 9657   7.679   2.013   3.546
 3177SOL     OW 9658   7.408   3.948   1.705
 3177SOL    HW1 9659   7.497   3.950   1.741
 3177SOL    HW2 9660   7.400   4.032   1.660
 3178SOL     OW 9661  10.041   0.719   4.536
 3178SOL    HW1 9662  10.018   0.742   4.626
 3178SOL    HW2 9663  10.096   0.791   4.506
 3179SOL     OW 9664   8.308   7.012   4.922
 3179SOL    HW1 9665   8.217   7.007   4.953
 3179SOL    HW2 9666   8.304   6.980   4.831
 3180SOL     OW 9667   6.440   6.913   1.211
 3180SOL    HW1 9668   6.440   7.001   1.174
 3180SOL    HW2 9669   6.388   6.861   1.149
 3181SOL     OW 9670   6.641   3.841   4.363
 3181SOL    HW1 9671   6.716   3.900   4.359
 3181SOL    HW2 9672   6.621   3.835   4.457
 3182SOL     OW 9673   4.825   6.380   5.178
 3182SOL    HW1 9674   4.851   6.450   5.117
 3182SOL    HW2 9675   4.730   6.387   5.181
 3183SOL     OW 9676   4.362   2.141   1.133
 3183SOL    HW1 9677   4.273   2.156   1.101
 3183SOL    HW2 9678   4.418   2.190   1.073
 3184SOL     OW 9679   2.105   0.348   0.827
 3184SOL    HW1 9680   2.064   0.268   0.860
 3184SOL    HW2 9681   2.189   0.319   0.791
 3185SOL     OW 9682   9.726   2.205   4.334
 3185SOL    HW1 9683   9.756   2.270   4.398
 3185SOL    HW2 9684   9.662   2.153   4.381
 3186SOL     OW 9685   2.367   1.832   3.377
 3186SOL    HW1 9686   2.440   1.806   3.321
 3186SOL    HW2 9687   2.399   1.815   3.466
 3187SOL     OW 9688   9.226   7.260   3.659
 3187SOL    HW1 9689   9.139   7.224   3.646
 3187SOL    HW2 9690   9.211   7.353   3.675
 3188SOL     OW 9691   2.993   3.080   1.958
 3188SOL    HW1 9692   2.957   3.109   2.041
 3188SOL    HW2 9693   3.088   3.090   1.968
 3189SOL     OW 9694   2.859   3.980   0.278
 3189SOL    HW1 9695   2.766   3.985   0.301
 3189SOL    HW2 9696   2.904   4.007   0.357
 3190SOL     OW 9697   2.310   3.753   1.120
 3190SOL    HW1 9698   2.319   3.733   1.213
 3190SOL    HW2 9699   2.231   3.806   1.114
 3191SOL     OW 9700   3.334   7.098   3.783
 3191SOL    HW1 9701   3.408   7.119   3.727
 3191SOL    HW2 9702   3.278   7.175   3.779
 3192SOL     OW 9703   8.349   3.784   2.820
 3192SOL    HW1 9704   8.427   3.837   2.837
 3192SOL    HW2 9705   8.301   3.833   2.754
 3193SOL     OW 9706   3.833   1.407   2.371
 3193SOL    HW1 9707   3.873   1.420   2.286
 3193SOL    HW2 9708   3.785   1.488   2.388
 3194SOL     OW 9709   5.283   6.054   0.060
 3194SOL    HW1 9710   5.225   5.979   0.072
 3194SOL    HW2 9711   5.368   6.016   0.039
 3195SOL     OW 9712   4.449   6.239   5.108
 3195SOL    HW1 9713   4.429   6.267   5.019
 3195SOL    HW2 9714   4.366   6.243   5.154
 3196SOL     OW 9715   7.909   2.772   5.298
 3196SOL    HW1 9716   7.984   2.829   5.316
 3196SOL    HW2 9717   7.916   2.751   5.205
 3197SOL     OW 9718   8.478   6.003   2.764
 3197SOL    HW1 9719   8.408   5.966   2.710
 3197SOL    HW2 9720   8.558   5.984   2.715
 3198SOL     OW 9721   7.511   2.810   3.997
 3198SOL    HW1 9722   7.497   2.771   4.083
 3198SOL    HW2 9723   7.559   2.743   3.948
 3199SOL     OW 9724   2.426   6.308   3.213
 3199SOL    HW1 9725   2.424   6.212   3.209
 3199SOL    HW2 9726   2.513   6.329   3.246
 3200SOL     OW 9727   7.137   3.756   4.822
 3200SOL    HW1 9728   7.158   3.775   4.914
 3200SOL    HW2 9729   7.151   3.661   4.814
 3201SOL     OW 9730   1.051   4.127   0.431
 3201SOL    HW1 9731   1.146   4.128   0.441
 3201SOL    HW2 9732   1.028   4.034   0.426
 3202SOL     OW 9733   9.987   0.272   4.771
 3202SOL    HW1 9734   9.940   0.355   4.785
 3202SOL    HW2 9735   9.966   0.248   4.681
 3203SOL     OW 9736  10.954   1.750   5.190
 3203SOL    HW1 9737  10.949   1.689   5.264
 3203SOL    HW2 9738  11.045   1.748   5.163
 3204SOL     OW 9739   5.774   2.796   4.533
 3204SOL    HW1 9740   5.790   2.801   4.628
 3204SOL    HW2 9741   5.758   2.886   4.506
 3205SOL     OW 9742   5.832   4.041   1.775
 3205SOL    HW1 9743   5.862   3.975   1.712
 3205SOL    HW2 9744   5.738   4.049   1.757
 3206SOL     OW 9745   4.007   4.172   3.821
 3206SOL    HW1 9746   3.990   4.264   3.839
 3206SOL    HW2 9747   3.948   4.151   3.748
 3207SOL     OW 9748   3.049   5.949   0.864
 3207SOL    HW1 9749   3.086   5.867   0.898
 3207SOL    HW2 9750   2.976   5.922   0.810
 3208SOL     OW 9751   8.409   1.170   5.238
 3208SOL    HW1 9752   8.403   1.091   5.184
 3208SOL    HW2 9753   8.426   1.137   5.326
 3209SOL     OW 9754   7.694   2.289   2.720
 3209SOL    HW1 9755   7.668   2.206   2.679
 3209SOL    HW2 9756   7.783   2.304   2.688
 3210SOL     OW 9757   5.031   2.797   0.275
 3210SOL    HW1 9758   5.009   2.876   0.226
 3210SOL    HW2 9759   5.126   2.800   0.284
 3211SOL     OW 9760   0.781   2.468   0.208
 3211SOL    HW1 9761   0.819   2.454   0.295
 3211SOL    HW2 9762   0.695   2.504   0.225
 3212SOL     OW 9763   4.065   4.887   0.741
 3212SOL    HW1 9764   4.064   4.980   0.762
 3212SOL    HW2 9765   4.006   4.878   0.667
 3213SOL     OW 9766   3.139   3.445   4.217
 3213SOL    HW1 9767   3.164   3.515   4.156
 3213SOL    HW2 9768   3.101   3.491   4.292
 3214SOL     OW 9769   3.906   0.606   3.053
 3214SOL    HW1 9770   3.876   0.643   2.970
 3214SOL    HW2 9771   3.988   0.561   3.031
 3215SOL     OW 9772  10.458   5.761   5.217
 3215SOL    HW1 9773  10.405   5.821   5.269
 3215SOL    HW2 9774  10.543   5.803   5.210
 3216SOL     OW 9775   5.873   6.917   2.727
 3216SOL    HW1 9776   5.875   6.943   2.635
 3216SOL    HW2 9777   5.894   6.997   2.775
 3217SOL     OW 9778   6.931   6.861   1.399
 3217SOL    HW1 9779   6.849   6.874   1.351
 3217SOL    HW2 9780   6.943   6.767   1.402
 3218SOL     OW 9781   6.563   5.245   2.216
 3218SOL    HW1 9782   6.516   5.316   2.173
 3218SOL    HW2 9783   6.626   5.216   2.150
 3219SOL     OW 9784   6.757   0.504   2.651
 3219SOL    HW1 9785   6.843   0.503   2.693
 3219SOL    HW2 9786   6.777   0.492   2.558
 3220SOL     OW 9787   3.784   4.614   0.402
 3220SOL    HW1 9788   3.787   4.698   0.357
 3220SOL    HW2 9789   3.855   4.563   0.362
 3221SOL     OW 9790   5.515   2.493   4.027
 3221SOL    HW1 9791   5.468   2.429   4.080
 3221SOL    HW2 9792   5.483   2.577   4.058
 3222SOL     OW 9793   9.309   5.242   4.800
 3222SOL    HW1 9794   9.349   5.208   4.719
 3222SOL    HW2 9795   9.377   5.231   4.866
 3223SOL     OW 9796   4.536   3.004   1.422
 3223SOL    HW1 9797   4.538   2.940   1.350
 3223SOL    HW2 9798   4.488   2.960   1.491
 3224SOL     OW 9799   8.091   2.380   1.773
 3224SOL    HW1 9800   8.174   2.371   1.820
 3224SOL    HW2 9801   8.116   2.374   1.680
 3225SOL     OW 9802   4.280   1.781   4.619
 3225SOL    HW1 9803   4.272   1.849   4.687
 3225SOL    HW2 9804   4.337   1.820   4.553
 3226SOL     OW 9805   2.140   5.455   0.451
 3226SOL    HW1 9806   2.126   5.474   0.544
 3226SOL    HW2 9807   2.093   5.524   0.405
 3227SOL     OW 9808   1.183   3.136   0.356
 3227SOL    HW1 9809   1.228   3.052   0.363
 3227SOL    HW2 9810   1.111   3.120   0.295
 3228SOL     OW 9811   8.839   6.239   2.622
 3228SOL    HW1 9812   8.878   6.323   2.599
 3228SOL    HW2 9813   8.867   6.179   2.553
 3229SOL     OW 9814   0.224   3.381   0.277
 3229SOL    HW1 9815   0.269   3.461   0.302
 3229SOL    HW2 9816   0.290   3.312   0.286
 3230SOL     OW 9817   7.111   5.300   2.605
 3230SOL    HW1 9818   7.151   5.385   2.619
 3230SOL    HW2 9819   7.126   5.281   2.513
 3231SOL     OW 9820   5.649   2.254   3.887
 3231SOL    HW1 9821   5.646   2.236   3.793
 3231SOL    HW2 9822   5.592   2.330   3.899
 3232SOL     OW 9823   2.845   4.345   2.032
 3232SOL    HW1 9824   2.841   4.341   2.128
 3232SOL    HW2 9825   2.798   4.426   2.010
 3233SOL     OW 9826   4.264   0.275   2.660
 3233SOL    HW1 9827   4.248   0.326   2.581
 3233SOL    HW2 9828   4.266   0.341   2.730
 3234SOL     OW 9829  10.154   7.416   4.460
 3234SOL    HW1 9830  10.191   7.457   4.381
 3234SOL    HW2 9831  10.123   7.489   4.513
 3235SOL     OW 9832   2.791   0.085   2.860
 3235SOL    HW1 9833   2.829   0.171   2.840
 3235SOL    HW2 9834   2.722   0.074   2.794
 3236SOL     OW 9835   0.754   1.663   1.064
 3236SOL    HW1 9836   0.839   1.705   1.046
 3236SOL    HW2 9837   0.701   1.733   1.102
 3237SOL     OW 9838   9.349   0.047   3.576
 3237SOL    HW1 9839   9.444   0.046   3.585
 3237SOL    HW2 9840   9.321   0.124   3.624
 3238SOL     OW 9841   2.451   7.342   1.713
 3238SOL    HW1 9842   2.540   7.344   1.749
 3238SOL    HW2 9843   2.419   7.431   1.721
 3239SOL     OW 9844   1.162   6.022   0.056
 3239SOL    HW1 9845   1.076   6.034   0.016
 3239SOL    HW2 9846   1.162   5.931   0.085
 3240SOL     OW 9847   7.534   4.890   0.155
 3240SOL    HW1 9848   7.448   4.890   0.197
 3240SOL    HW2 9849   7.538   4.806   0.109
 3241SOL     OW 9850   3.611   6.465   1.472
 3241SOL    HW1 9851   3.701   6.481   1.444
 3241SOL    HW2 9852   3.606   6.504   1.560
 3242SOL     OW 9853   6.335   5.942   1.479
 3242SOL    HW1 9854   6.356   6.031   1.451
 3242SOL    HW2 9855   6.239   5.941   1.483
 3243SOL     OW 9856   4.902   4.016   1.387
 3243SOL    HW1 9857   4.815   3.998   1.423
 3243SOL    HW2 9858   4.938   3.930   1.368
 3244SOL     OW 9859   3.416   4.979   0.499
 3244SOL    HW1 9860   3.421   4.911   0.431
 3244SOL    HW2 9861   3.490   4.960   0.557
 3245SOL     OW 9862   6.588   5.172   1.282
 3245SOL    HW1 9863   6.626   5.257   1.261
 3245SOL    HW2 9864   6.545   5.185   1.366
 3246SOL     OW 9865   1.579   4.052   1.256
 3246SOL    HW1 9866   1.557   3.970   1.301
 3246SOL    HW2 9867   1.672   4.064   1.272
 3247SOL     OW 9868   6.889   6.569   1.872
 3247SOL    HW1 9869   6.829   6.560   1.946
 3247SOL    HW2 9870   6.915   6.480   1.850
 3248SOL     OW 9871   3.285   0.359   4.547
 3248SOL    HW1 9872   3.295   0.292   4.615
 3248SOL    HW2 9873   3.374   0.372   4.514
 3249SOL     OW 9874  10.545   3.602   5.236
 3249SOL    HW1 9875  10.508   3.690   5.245
 3249SOL    HW2 9876  10.598   3.591   5.315
 3250SOL     OW 9877   8.301   1.717   4.220
 3250SOL    HW1 9878   8.213   1.746   4.243
 3250SOL    HW2 9879   8.328   1.776   4.150
 3251SOL     OW 9880   4.865   4.186   1.106
 3251SOL    HW1 9881   4.894   4.271   1.138
 3251SOL    HW2 9882   4.834   4.139   1.183
 3252SOL     OW 9883   2.871   4.638   3.788
 3252SOL    HW1 9884   2.938   4.607   3.728
 3252SOL    HW2 9885   2.794   4.584   3.768
 3253SOL     OW 9886   4.309   5.524   2.451
 3253SOL    HW1 9887   4.259   5.585   2.505
 3253SOL    HW2 9888   4.320   5.446   2.506
 3254SOL     OW 9889   5.894   3.551   2.115
 3254SOL    HW1 9890   5.900   3.631   2.168
 3254SOL    HW2 9891   5.803   3.549   2.086
 3255SOL     OW 9892   5.575   1.728   2.900
 3255SOL    HW1 9893   5.553   1.639   2.873
 3255SOL    HW2 9894   5.491   1.772   2.912
 3256SOL     OW 9895   5.643   1.145   4.205
 3256SOL    HW1 9896   5.585   1.092   4.151
 3256SOL    HW2 9897   5.709   1.084   4.237
 3257SOL     OW 9898   9.055   4.714   2.555
 3257SOL    HW1 9899   9.139   4.703   2.599
 3257SOL    HW2 9900   9.049   4.808   2.537
 3258SOL     OW 9901   3.303   6.858   1.585
 3258SOL    HW1 9902   3.353   6.922   1.636
 3258SOL    HW2 9903   3.271   6.796   1.651
 3259SOL     OW 9904   7.174   6.698   4.185
 3259SOL    HW1 9905   7.176   6.779   4.237
 3259SOL    HW2 9906   7.201   6.726   4.097
 3260SOL     OW 9907   3.694   5.230   4.580
 3260SOL    HW1 9908   3.772   5.251   4.529
 3260SOL    HW2 9909   3.673   5.311   4.626
 3261SOL     OW 9910   5.190   0.938   0.963
 3261SOL    HW1 9911   5.268   0.905   0.919
 3261SOL    HW2 9912   5.212   1.027   0.989
 3262SOL     OW 9913   6.203   1.877   0.845
 3262SOL    HW1 9914   6.185   1.800   0.791
 3262SOL    HW2 9915   6.159   1.949   0.800
 3263SOL     OW 9916   4.205   5.938   1.957
 3263SOL    HW1 9917   4.292   5.900   1.948
 3263SOL    HW2 9918   4.175   5.952   1.867
 3264SOL     OW 9919   2.233   5.245   2.769
 3264SOL    HW1 9920   2.270   5.334   2.773
 3264SOL    HW2 9921   2.198   5.239   2.680
 3265SOL     OW 9922   5.302   7.294   1.059
 3265SOL    HW1 9923   5.314   7.385   1.085
 3265SOL    HW2 9924   5.382   7.250   1.089
 3266SOL     OW 9925   7.628   2.274   3.698
 3266SOL    HW1 9926   7.581   2.332   3.638
 3266SOL    HW2 9927   7.596   2.299   3.785
 3267SOL     OW 9928   1.999   2.147   1.482
 3267SOL    HW1 9929   1.972   2.108   1.399
 3267SOL    HW2 9930   1.919   2.149   1.534
 3268SOL     OW 9931   8.977   4.313   4.265
 3268SOL    HW1 9932   9.002   4.322   4.357
 3268SOL    HW2 9933   8.960   4.220   4.253
 3269SOL     OW 9934   0.971   6.495   0.351
 3269SOL    HW1 9935   1.018   6.492   0.434
 3269SOL    HW2 9936   0.885   6.456   0.371
 3270SOL     OW 9937   7.346   3.037   4.562
 3270SOL    HW1 9938   7.371   3.041   4.654
 3270SOL    HW2 9939   7.300   2.954   4.553
 3271SOL     OW 9940   9.450   3.160   4.686
 3271SOL    HW1 9941   9.475   3.102   4.613
 3271SOL    HW2 9942   9.364   3.192   4.662
 3272SOL     OW 9943   3.258   4.109   0.796
 3272SOL    HW1 9944   3.257   4.194   0.840
 3272SOL    HW2 9945   3.336   4.112   0.740
 3273SOL     OW 9946   4.630   4.387   4.621
 3273SOL    HW1 9947   4.608   4.374   4.529
 3273SOL    HW2 9948   4.726   4.389   4.623
 3274SOL     OW 9949   2.484   3.859   2.014
 3274SOL    HW1 9950   2.464   3.948   1.984
 3274SOL    HW2 9951   2.554   3.871   2.078
 3275SOL     OW 9952   6.489   5.600   2.926
 3275SOL    HW1 9953   6.424   5.581   2.993
 3275SOL    HW2 9954   6.569   5.620   2.976
 3276SOL     OW 9955  10.870   7.185   4.814
 3276SOL    HW1 9956  10.854   7.169   4.907
 3276SOL    HW2 9957  10.913   7.105   4.782
 3277SOL     OW 9958   4.918   0.906   4.894
 3277SOL    HW1 9959   4.839   0.944   4.857
 3277SOL    HW2 9960   4.946   0.969   4.961
 3278SOL     OW 9961   6.096   3.050   0.238
 3278SOL    HW1 9962   6.005   3.042   0.263
 3278SOL    HW2 9963   6.094   3.066   0.143
 3279SOL     OW 9964   5.593   5.889   1.615
 3279SOL    HW1 9965   5.677   5.897   1.569
 3279SOL    HW2 9966   5.551   5.814   1.572
 3280SOL     OW 9967   2.092   2.948   2.579
 3280SOL    HW1 9968   2.161   2.951   2.512
 3280SOL    HW2 9969   2.016   2.913   2.532
 3281SOL     OW 9970   6.370   2.992   0.217
 3281SOL    HW1 9971   6.279   3.019   0.216
 3281SOL    HW2 9972   6.418   3.066   0.178
 3282SOL     OW 9973   2.364   1.642   2.548
 3282SOL    HW1 9974   2.416   1.567   2.577
 3282SOL    HW2 9975   2.276   1.625   2.583
 3283SOL     OW 9976   3.968   6.119   4.681
 3283SOL    HW1 9977   3.879   6.154   4.669
 3283SOL    HW2 9978   4.024   6.196   4.676
 3284SOL     OW 9979   4.008   2.496   1.417
 3284SOL    HW1 9980   4.059   2.424   1.382
 3284SOL    HW2 9981   4.061   2.574   1.401
 3285SOL     OW 9982   6.404   3.474   1.301
 3285SOL    HW1 9983   6.496   3.491   1.323
 3285SOL    HW2 9984   6.405   3.388   1.260
 3286SOL     OW 9985   5.571   6.724   1.680
 3286SOL    HW1 9986   5.552   6.724   1.774
 3286SOL    HW2 9987   5.486   6.740   1.638
 3287SOL     OW 9988   2.555   0.888   0.651
 3287SOL    HW1 9989   2.625   0.877   0.586
 3287SOL    HW2 9990   2.490   0.942   0.607
 3288SOL     OW 9991   6.237   3.021   4.300
 3288SOL    HW1 9992   6.148   3.055   4.302
 3288SOL    HW2 9993   6.248   2.979   4.386
 3289SOL     OW 9994   5.886   2.063   5.240
 3289SOL    HW1 9995   5.822   1.992   5.230
 3289SOL    HW2 9996   5.937   2.038   5.317
 3290SOL     OW 9997   1.094   3.429   0.420
 3290SOL    HW1 9998   1.011   3.475   0.430
 3290SOL    HW2 9999   1.069   3.336   0.414
 3291SOL     OW10000   4.769   4.187   2.371
 3291SOL    HW110001   4.770   4.215   2.462
 3291SOL    HW210002   4.856   4.210   2.338
 3292SOL     OW10003   1.822   0.335   1.402
 3292SOL    HW110004   1.730   0.339   1.376
 3292SOL    HW210005   1.820   0.343   1.497
 3293SOL     OW10006   4.805   2.415   1.312
 3293SOL    HW110007   4.743   2.479   1.278
 3293SOL    HW210008   4.773   2.331   1.281
 3294SOL     OW10009   3.833   0.625   2.028
 3294SOL    HW110010   3.819   0.630   2.123
 3294SOL    HW210011   3.928   0.616   2.018
 3295SOL     OW10012   7.489   2.100   2.834
 3295SOL    HW110013   7.527   2.012   2.838
 3295SOL    HW210014   7.520   2.136   2.751
 3296SOL     OW10015   8.168   6.136   2.291
 3296SOL    HW110016   8.105   6.193   2.335
 3296SOL    HW210017   8.121   6.053   2.281
 3297SOL     OW10018   8.366   5.945   3.929
 3297SOL    HW110019   8.347   6.022   3.875
 3297SOL    HW210020   8.406   5.980   4.008
 3298SOL     OW10021   3.608   6.507   2.213
 3298SOL    HW110022   3.624   6.421   2.252
 3298SOL    HW210023   3.544   6.548   2.271
 3299SOL     OW10024   5.303   3.344   0.303
 3299SOL    HW110025   5.307   3.254   0.269
 3299SOL    HW210026   5.282   3.397   0.226
 3300SOL     OW10027   1.483   2.154   0.305
 3300SOL    HW110028   1.523   2.208   0.236
 3300SOL    HW210029   1.468   2.069   0.263
 3301SOL     OW10030   8.360   0.950   2.790
 3301SOL    HW110031   8.298   0.950   2.864
 3301SOL    HW210032   8.446   0.961   2.831
 3302SOL     OW10033   5.313   3.845   2.655
 3302SOL    HW110034   5.315   3.854   2.560
 3302SOL    HW210035   5.220   3.845   2.678
 3303SOL     OW10036   4.865   4.233   2.628
 3303SOL    HW110037   4.829   4.318   2.653
 3303SOL    HW210038   4.887   4.191   2.711
 3304SOL     OW10039   3.111   3.034   2.289
 3304SOL    HW110040   3.048   3.095   2.326
 3304SOL    HW210041   3.194   3.082   2.289
 3305SOL     OW10042   7.092   3.847   1.455
 3305SOL    HW110043   7.076   3.793   1.532
 3305SOL    HW210044   7.006   3.855   1.413
 3306SOL     OW10045   8.780   1.037   2.425
 3306SOL    HW110046   8.690   1.004   2.415
 3306SOL    HW210047   8.783   1.072   2.514
 3307SOL     OW10048   8.334   0.208   3.993
 3307SOL    HW110049   8.318   0.174   3.905
 3307SOL    HW210050   8.394   0.145   4.033
 3308SOL     OW10051   9.282   3.422   2.792
 3308SOL    HW110052   9.351   3.466   2.843
 3308SOL    HW210053   9.329   3.365   2.731
 3309SOL     OW10054   3.895   5.524   3.724
 3309SOL    HW110055   3.840   5.511   3.801
 3309SOL    HW210056   3.836   5.511   3.650
 3310SOL     OW10057   7.537   2.088   0.729
 3310SOL    HW110058   7.574   2.174   0.750
 3310SOL    HW210059   7.508   2.054   0.813
 3311SOL     OW10060   6.425   5.131   1.573
 3311SOL    HW110061   6.460   5.133   1.662
 3311SOL    HW210062   6.361   5.202   1.570
 3312SOL     OW10063   1.857   4.270   1.822
 3312SOL    HW110064   1.859   4.205   1.893
 3312SOL    HW210065   1.914   4.233   1.754
 3313SOL     OW10066   7.896   0.014   3.619
 3313SOL    HW110067   7.837   0.040   3.548
 3313SOL    HW210068   7.857   0.053   3.698
 3314SOL     OW10069   6.808   3.075   5.098
 3314SOL    HW110070   6.782   3.060   5.007
 3314SOL    HW210071   6.731   3.052   5.149
 3315SOL     OW10072   4.687   3.278   4.139
 3315SOL    HW110073   4.665   3.223   4.064
 3315SOL    HW210074   4.762   3.329   4.110
 3316SOL     OW10075   3.214   3.392   0.860
 3316SOL    HW110076   3.192   3.368   0.950
 3316SOL    HW210077   3.179   3.481   0.850
 3317SOL     OW10078   3.134   3.161   0.146
 3317SOL    HW110079   3.039   3.162   0.136
 3317SOL    HW210080   3.150   3.201   0.232
 3318SOL     OW10081   3.822   1.359   3.179
 3318SOL    HW110082   3.884   1.407   3.125
 3318SOL    HW210083   3.865   1.351   3.264
 3319SOL     OW10084   3.581   4.892   4.356
 3319SOL    HW110085   3.617   4.869   4.442
 3319SOL    HW210086   3.528   4.970   4.373
 3320SOL     OW10087   2.358   3.976   2.984
 3320SOL    HW110088   2.342   4.052   3.039
 3320SOL    HW210089   2.280   3.922   2.993
 3321SOL     OW10090   2.984   2.956   4.134
 3321SOL    HW110091   3.059   2.933   4.079
 3321SOL    HW210092   2.987   3.052   4.139
 3322SOL     OW10093   3.850   3.239   2.038
 3322SOL    HW110094   3.893   3.325   2.046
 3322SOL    HW210095   3.868   3.213   1.948
 3323SOL     OW10096   7.064   5.512   4.017
 3323SOL    HW110097   6.987   5.456   4.003
 3323SOL    HW210098   7.040   5.569   4.090
 3324SOL     OW10099   5.203   5.981   3.361
 3324SOL    HW110100   5.166   6.068   3.346
 3324SOL    HW210101   5.200   5.970   3.456
 3325SOL     OW10102   4.598   3.155   3.025
 3325SOL    HW110103   4.586   3.064   2.999
 3325SOL    HW210104   4.530   3.171   3.091
 3326SOL     OW10105   7.813   0.494   2.358
 3326SOL    HW110106   7.807   0.518   2.451
 3326SOL    HW210107   7.729   0.519   2.321
 3327SOL     OW10108   1.568   6.615   0.137
 3327SOL    HW110109   1.609   6.538   0.096
 3327SOL    HW210110   1.483   6.621   0.094
 3328SOL     OW10111   2.551   1.412   2.770
 3328SOL    HW110112   2.574   1.428   2.679
 3328SOL    HW210113   2.577   1.322   2.786
 3329SOL     OW10114   5.798   2.705   2.331
 3329SOL    HW110115   5.841   2.761   2.265
 3329SOL    HW210116   5.803   2.755   2.412
 3330SOL     OW10117   8.859   2.872   2.666
 3330SOL    HW110118   8.927   2.896   2.728
 3330SOL    HW210119   8.844   2.779   2.682
 3331SOL     OW10120   0.540   1.325   0.292
 3331SOL    HW110121   0.626   1.290   0.314
 3331SOL    HW210122   0.519   1.383   0.366
 3332SOL     OW10123   8.140   5.595   3.544
 3332SOL    HW110124   8.045   5.587   3.558
 3332SOL    HW210125   8.170   5.650   3.617
 3333SOL     OW10126   6.401   2.764   0.370
 3333SOL    HW110127   6.401   2.847   0.322
 3333SOL    HW210128   6.396   2.790   0.462
 3334SOL     OW10129   5.027   7.110   3.120
 3334SOL    HW110130   5.121   7.096   3.116
 3334SOL    HW210131   5.016   7.186   3.177
 3335SOL     OW10132   6.113   3.544   2.330
 3335SOL    HW110133   6.050   3.491   2.379
 3335SOL    HW210134   6.075   3.632   2.329
 3336SOL     OW10135   1.265   1.254   1.352
 3336SOL    HW110136   1.290   1.261   1.259
 3336SOL    HW210137   1.344   1.224   1.395
 3337SOL     OW10138   6.563   4.051   1.189
 3337SOL    HW110139   6.651   4.027   1.219
 3337SOL    HW210140   6.577   4.130   1.136
 3338SOL     OW10141   4.952   1.949   2.518
 3338SOL    HW110142   4.900   2.014   2.566
 3338SOL    HW210143   4.888   1.882   2.493
 3339SOL     OW10144   2.519   4.443   3.357
 3339SOL    HW110145   2.499   4.431   3.450
 3339SOL    HW210146   2.598   4.498   3.356
 3340SOL     OW10147   5.802   3.827   0.037
 3340SOL    HW110148   5.897   3.840   0.031
 3340SOL    HW210149   5.779   3.786  -0.047
 3341SOL     OW10150   4.308   5.501   4.588
 3341SOL    HW110151   4.260   5.557   4.650
 3341SOL    HW210152   4.252   5.498   4.510
 3342SOL     OW10153  10.483   7.462   4.315
 3342SOL    HW110154  10.446   7.376   4.331
 3342SOL    HW210155  10.500   7.498   4.402
 3343SOL     OW10156   7.384   2.126   3.406
 3343SOL    HW110157   7.348   2.185   3.472
 3343SOL    HW210158   7.327   2.137   3.330
 3344SOL     OW10159   1.903   6.078   0.518
 3344SOL    HW110160   1.962   6.141   0.558
 3344SOL    HW210161   1.870   6.025   0.591
 3345SOL     OW10162   8.327   6.957   1.922
 3345SOL    HW110163   8.322   6.966   2.018
 3345SOL    HW210164   8.236   6.963   1.893
 3346SOL     OW10165   3.389   6.537   2.406
 3346SOL    HW110166   3.334   6.459   2.411
 3346SOL    HW210167   3.335   6.601   2.361
 3347SOL     OW10168   3.591   7.207   2.364
 3347SOL    HW110169   3.609   7.299   2.348
 3347SOL    HW210170   3.651   7.181   2.434
 3348SOL     OW10171   5.880   2.867   4.816
 3348SOL    HW110172   5.892   2.797   4.881
 3348SOL    HW210173   5.805   2.916   4.848
 3349SOL     OW10174   8.526   0.953   2.363
 3349SOL    HW110175   8.462   1.023   2.369
 3349SOL    HW210176   8.529   0.932   2.269
 3350SOL     OW10177   3.019   1.318   3.859
 3350SOL    HW110178   2.996   1.401   3.817
 3350SOL    HW210179   2.982   1.251   3.801
 3351SOL     OW10180   8.339   0.565   4.628
 3351SOL    HW110181   8.280   0.490   4.617
 3351SOL    HW210182   8.426   0.530   4.611
 3352SOL     OW10183   1.820   2.702   0.983
 3352SOL    HW110184   1.833   2.608   0.973
 3352SOL    HW210185   1.803   2.715   1.076
 3353SOL     OW10186   6.116   7.343   4.604
 3353SOL    HW110187   6.025   7.325   4.580
 3353SOL    HW210188   6.122   7.439   4.606
 3354SOL     OW10189   2.995   4.616   4.234
 3354SOL    HW110190   3.056   4.596   4.162
 3354SOL    HW210191   3.019   4.553   4.303
 3355SOL     OW10192   7.783   3.184   5.023
 3355SOL    HW110193   7.877   3.169   5.008
 3355SOL    HW210194   7.761   3.125   5.095
 3356SOL     OW10195   4.619   1.866   0.647
 3356SOL    HW110196   4.701   1.908   0.672
 3356SOL    HW210197   4.611   1.791   0.705
 3357SOL     OW10198   7.185   6.564   2.727
 3357SOL    HW110199   7.225   6.532   2.647
 3357SOL    HW210200   7.250   6.625   2.764
 3358SOL     OW10201   4.255   3.834   4.933
 3358SOL    HW110202   4.337   3.867   4.969
 3358SOL    HW210203   4.188   3.865   4.994
 3359SOL     OW10204   6.559   1.408   0.580
 3359SOL    HW110205   6.547   1.429   0.673
 3359SOL    HW210206   6.643   1.362   0.576
 3360SOL     OW10207   0.659   2.281   0.775
 3360SOL    HW110208   0.625   2.219   0.840
 3360SOL    HW210209   0.751   2.294   0.800
 3361SOL     OW10210   6.571   1.957   4.163
 3361SOL    HW110211   6.533   1.949   4.251
 3361SOL    HW210212   6.496   1.970   4.106
 3362SOL     OW10213   4.916   3.108   0.749
 3362SOL    HW110214   4.964   3.165   0.809
 3362SOL    HW210215   4.937   3.140   0.662
 3363SOL     OW10216   6.732   1.956   2.655
 3363SOL    HW110217   6.653   2.009   2.661
 3363SOL    HW210218   6.735   1.907   2.737
 3364SOL     OW10219   2.058   2.507   1.539
 3364SOL    HW110220   2.045   2.445   1.611
 3364SOL    HW210221   2.088   2.588   1.582
 3365SOL     OW10222   5.565   4.330   2.972
 3365SOL    HW110223   5.577   4.392   2.899
 3365SOL    HW210224   5.624   4.258   2.952
 3366SOL     OW10225   7.224   3.667   4.064
 3366SOL    HW110226   7.196   3.740   4.120
 3366SOL    HW210227   7.188   3.589   4.106
 3367SOL     OW10228   9.439   5.233   3.016
 3367SOL    HW110229   9.409   5.143   3.031
 3367SOL    HW210230   9.396   5.284   3.085
 3368SOL     OW10231   8.891   5.279   5.242
 3368SOL    HW110232   8.798   5.264   5.227
 3368SOL    HW210233   8.935   5.233   5.171
 3369SOL     OW10234   5.070   7.162   2.741
 3369SOL    HW110235   5.021   7.217   2.802
 3369SOL    HW210236   5.092   7.084   2.792
 3370SOL     OW10237   8.849   5.074   2.371
 3370SOL    HW110238   8.788   5.023   2.318
 3370SOL    HW210239   8.839   5.039   2.460
 3371SOL     OW10240   7.263   4.991   4.412
 3371SOL    HW110241   7.171   4.966   4.404
 3371SOL    HW210242   7.272   5.020   4.502
 3372SOL     OW10243   3.998   2.987   2.969
 3372SOL    HW110244   4.032   2.977   2.880
 3372SOL    HW210245   3.903   2.986   2.959
 3373SOL     OW10246   8.054   1.123   2.977
 3373SOL    HW110247   7.986   1.150   3.039
 3373SOL    HW210248   8.043   1.182   2.902
 3374SOL     OW10249   3.779   6.558   4.581
 3374SOL    HW110250   3.781   6.628   4.516
 3374SOL    HW210251   3.763   6.603   4.664
 3375SOL     OW10252   4.028   3.175   4.916
 3375SOL    HW110253   4.016   3.183   5.011
 3375SOL    HW210254   4.029   3.266   4.885
 3376SOL     OW10255   8.655   3.665   4.970
 3376SOL    HW110256   8.681   3.645   4.881
 3376SOL    HW210257   8.737   3.672   5.018
 3377SOL     OW10258   8.020   6.169   4.040
 3377SOL    HW110259   7.964   6.238   4.076
 3377SOL    HW210260   7.959   6.100   4.014
 3378SOL     OW10261   2.250   2.638   2.978
 3378SOL    HW110262   2.156   2.621   2.981
 3378SOL    HW210263   2.258   2.723   2.935
 3379SOL     OW10264   7.017   3.856   0.795
 3379SOL    HW110265   7.038   3.943   0.759
 3379SOL    HW210266   6.947   3.823   0.739
 3380SOL     OW10267   6.286   5.582   0.882
 3380SOL    HW110268   6.267   5.545   0.968
 3380SOL    HW210269   6.228   5.658   0.875
 3381SOL     OW10270   6.346   2.714   1.274
 3381SOL    HW110271   6.280   2.747   1.213
 3381SOL    HW210272   6.302   2.711   1.359
 3382SOL     OW10273   2.336   1.025   1.655
 3382SOL    HW110274   2.294   1.111   1.660
 3382SOL    HW210275   2.372   1.011   1.743
 3383SOL     OW10276   0.772   4.417   0.852
 3383SOL    HW110277   0.751   4.472   0.927
 3383SOL    HW210278   0.776   4.478   0.778
 3384SOL     OW10279   9.426   6.250   5.072
 3384SOL    HW110280   9.379   6.260   5.155
 3384SOL    HW210281   9.433   6.339   5.038
 3385SOL     OW10282   4.263   5.860   1.055
 3385SOL    HW110283   4.323   5.920   1.100
 3385SOL    HW210284   4.319   5.787   1.028
 3386SOL     OW10285   1.791   6.580   2.408
 3386SOL    HW110286   1.857   6.550   2.471
 3386SOL    HW210287   1.740   6.645   2.456
 3387SOL     OW10288   8.146   7.442   1.241
 3387SOL    HW110289   8.096   7.422   1.162
 3387SOL    HW210290   8.127   7.534   1.258
 3388SOL     OW10291   6.678   5.439   1.017
 3388SOL    HW110292   6.670   5.450   1.111
 3388SOL    HW210293   6.669   5.527   0.981
 3389SOL     OW10294   5.618   5.437   4.003
 3389SOL    HW110295   5.705   5.478   4.008
 3389SOL    HW210296   5.607   5.393   4.087
 3390SOL     OW10297   6.358   6.996   2.581
 3390SOL    HW110298   6.349   6.968   2.672
 3390SOL    HW210299   6.450   6.977   2.559
 3391SOL     OW10300   5.175   2.020   4.565
 3391SOL    HW110301   5.158   2.108   4.598
 3391SOL    HW210302   5.174   1.965   4.643
 3392SOL     OW10303   7.077   5.309   3.810
 3392SOL    HW110304   7.009   5.372   3.787
 3392SOL    HW210305   7.129   5.353   3.878
 3393SOL     OW10306   1.937   2.085   2.622
 3393SOL    HW110307   1.867   2.136   2.662
 3393SOL    HW210308   1.994   2.061   2.695
 3394SOL     OW10309   4.049   2.296   5.142
 3394SOL    HW110310   4.024   2.205   5.155
 3394SOL    HW210311   4.144   2.296   5.150
 3395SOL     OW10312   1.052   0.593   0.307
 3395SOL    HW110313   1.037   0.511   0.259
 3395SOL    HW210314   1.147   0.599   0.316
 3396SOL     OW10315   4.014   1.380   4.233
 3396SOL    HW110316   4.041   1.453   4.177
 3396SOL    HW210317   4.079   1.312   4.215
 3397SOL     OW10318   7.126   6.725   2.462
 3397SOL    HW110319   7.171   6.641   2.459
 3397SOL    HW210320   7.181   6.780   2.518
 3398SOL     OW10321   2.944   2.992   2.543
 3398SOL    HW110322   2.985   2.908   2.520
 3398SOL    HW210323   2.851   2.979   2.522
 3399SOL     OW10324   6.015   1.438   1.123
 3399SOL    HW110325   5.928   1.445   1.085
 3399SOL    HW210326   6.027   1.521   1.171
 3400SOL     OW10327   6.175   5.110   1.824
 3400SOL    HW110328   6.161   5.079   1.734
 3400SOL    HW210329   6.165   5.032   1.878
 3401SOL     OW10330   2.880   3.652   3.736
 3401SOL    HW110331   2.826   3.594   3.790
 3401SOL    HW210332   2.909   3.596   3.664
 3402SOL     OW10333   3.560   3.592   0.855
 3402SOL    HW110334   3.561   3.497   0.859
 3402SOL    HW210335   3.591   3.620   0.941
 3403SOL     OW10336   7.346   5.183   5.075
 3403SOL    HW110337   7.435   5.154   5.053
 3403SOL    HW210338   7.324   5.248   5.008
 3404SOL     OW10339   5.428   4.793   2.902
 3404SOL    HW110340   5.405   4.881   2.874
 3404SOL    HW210341   5.432   4.798   2.998
 3405SOL     OW10342   5.627   5.862   3.308
 3405SOL    HW110343   5.682   5.790   3.340
 3405SOL    HW210344   5.657   5.878   3.219
 3406SOL     OW10345   7.374   3.732   3.694
 3406SOL    HW110346   7.443   3.757   3.756
 3406SOL    HW210347   7.412   3.659   3.645
 3407SOL     OW10348   4.329   2.753   2.153
 3407SOL    HW110349   4.354   2.721   2.067
 3407SOL    HW210350   4.383   2.831   2.167
 3408SOL     OW10351   6.301   3.167   0.876
 3408SOL    HW110352   6.371   3.219   0.835
 3408SOL    HW210353   6.234   3.232   0.898
 3409SOL     OW10354   1.662   5.863   0.547
 3409SOL    HW110355   1.610   5.942   0.540
 3409SOL    HW210356   1.599   5.791   0.538
 3410SOL     OW10357   5.491   3.991   3.323
 3410SOL    HW110358   5.550   3.977   3.249
 3410SOL    HW210359   5.486   4.086   3.333
 3411SOL     OW10360   3.877   5.692   3.399
 3411SOL    HW110361   3.801   5.709   3.455
 3411SOL    HW210362   3.952   5.697   3.458
 3412SOL     OW10363   7.796   1.910   0.910
 3412SOL    HW110364   7.734   1.896   0.838
 3412SOL    HW210365   7.790   1.829   0.961
 3413SOL     OW10366   3.621   0.541   1.851
 3413SOL    HW110367   3.639   0.497   1.768
 3413SOL    HW210368   3.647   0.479   1.918
 3414SOL     OW10369   8.477   0.083   5.272
 3414SOL    HW110370   8.543   0.147   5.247
 3414SOL    HW210371   8.449   0.044   5.189
 3415SOL     OW10372   6.056   4.081   2.138
 3415SOL    HW110373   5.997   4.013   2.105
 3415SOL    HW210374   6.089   4.123   2.059
 3416SOL     OW10375   7.176   3.626   1.200
 3416SOL    HW110376   7.267   3.632   1.171
 3416SOL    HW210377   7.167   3.693   1.267
 3417SOL     OW10378   4.345   4.354   4.974
 3417SOL    HW110379   4.398   4.285   5.016
 3417SOL    HW210380   4.288   4.307   4.913
 3418SOL     OW10381   4.018   2.803   5.014
 3418SOL    HW110382   3.987   2.722   5.054
 3418SOL    HW210383   3.993   2.872   5.075
 3419SOL     OW10384   6.913   3.266   4.333
 3419SOL    HW110385   6.837   3.215   4.306
 3419SOL    HW210386   6.878   3.353   4.352
 3420SOL     OW10387   7.573   0.010   4.564
 3420SOL    HW110388   7.560  -0.004   4.470
 3420SOL    HW210389   7.577   0.105   4.574
 3421SOL     OW10390   4.383   2.988   1.984
 3421SOL    HW110391   4.404   2.903   1.945
 3421SOL    HW210392   4.329   3.032   1.919
 3422SOL     OW10393   5.526   1.694   1.550
 3422SOL    HW110394   5.442   1.698   1.504
 3422SOL    HW210395   5.550   1.786   1.564
 3423SOL     OW10396   7.686   2.761   1.487
 3423SOL    HW110397   7.768   2.803   1.514
 3423SOL    HW210398   7.636   2.753   1.568
 3424SOL     OW10399   6.294   5.867   4.368
 3424SOL    HW110400   6.288   5.803   4.439
 3424SOL    HW210401   6.290   5.952   4.411
 3425SOL     OW10402   5.149   3.540   1.709
 3425SOL    HW110403   5.130   3.624   1.749
 3425SOL    HW210404   5.221   3.503   1.761
 3426SOL     OW10405   5.995   3.525   0.813
 3426SOL    HW110406   5.919   3.500   0.761
 3426SOL    HW210407   5.964   3.593   0.872
 3427SOL     OW10408   4.611   4.627   1.790
 3427SOL    HW110409   4.591   4.682   1.866
 3427SOL    HW210410   4.705   4.636   1.778
 3428SOL     OW10411   2.533   0.188   3.531
 3428SOL    HW110412   2.462   0.130   3.504
 3428SOL    HW210413   2.551   0.163   3.622
 3429SOL     OW10414   3.563   3.551   0.460
 3429SOL    HW110415   3.551   3.642   0.432
 3429SOL    HW210416   3.474   3.515   0.462
 3430SOL     OW10417   4.811   4.106   4.432
 3430SOL    HW110418   4.847   4.171   4.492
 3430SOL    HW210419   4.880   4.041   4.422
 3431SOL     OW10420   2.814   5.913   2.203
 3431SOL    HW110421   2.759   5.886   2.276
 3431SOL    HW210422   2.757   5.963   2.145
 3432SOL     OW10423   2.663   3.522   2.121
 3432SOL    HW110424   2.639   3.547   2.210
 3432SOL    HW210425   2.583   3.484   2.084
 3433SOL     OW10426   2.672   2.244   3.675
 3433SOL    HW110427   2.644   2.330   3.707
 3433SOL    HW210428   2.731   2.211   3.744
 3434SOL     OW10429   7.806   2.889   4.161
 3434SOL    HW110430   7.773   2.978   4.174
 3434SOL    HW210431   7.833   2.887   4.069
 3435SOL     OW10432   3.815   0.290   3.889
 3435SOL    HW110433   3.789   0.365   3.836
 3435SOL    HW210434   3.910   0.297   3.895
 3436SOL     OW10435   6.454   2.035   0.918
 3436SOL    HW110436   6.376   1.987   0.946
 3436SOL    HW210437   6.494   1.979   0.851
 3437SOL     OW10438   7.996   1.375   3.277
 3437SOL    HW110439   8.010   1.384   3.372
 3437SOL    HW210440   8.071   1.324   3.247
 3438SOL     OW10441   6.084   2.037   0.645
 3438SOL    HW110442   6.022   2.077   0.706
 3438SOL    HW210443   6.028   1.999   0.577
 3439SOL     OW10444   6.467   1.208   4.569
 3439SOL    HW110445   6.514   1.282   4.607
 3439SOL    HW210446   6.458   1.145   4.641
 3440SOL     OW10447   4.494   3.441   2.908
 3440SOL    HW110448   4.418   3.496   2.928
 3440SOL    HW210449   4.482   3.417   2.816
 3441SOL     OW10450   9.784   3.406   5.129
 3441SOL    HW110451   9.863   3.410   5.075
 3441SOL    HW210452   9.713   3.392   5.067
 3442SOL     OW10453   4.748   4.446   4.141
 3442SOL    HW110454   4.777   4.529   4.179
 3442SOL    HW210455   4.716   4.395   4.216
 3443SOL     OW10456   3.159   3.282   3.927
 3443SOL    HW110457   3.110   3.211   3.885
 3443SOL    HW210458   3.094   3.333   3.973
 3444SOL     OW10459  10.171   1.117   5.126
 3444SOL    HW110460  10.239   1.185   5.122
 3444SOL    HW210461  10.169   1.090   5.217
 3445SOL     OW10462   8.143   1.882   2.021
 3445SOL    HW110463   8.190   1.811   1.976
 3445SOL    HW210464   8.162   1.868   2.114
 3446SOL     OW10465   8.580   6.406   4.094
 3446SOL    HW110466   8.543   6.428   4.179
 3446SOL    HW210467   8.674   6.399   4.110
 3447SOL     OW10468   6.590   7.218   0.943
 3447SOL    HW110469   6.630   7.149   0.891
 3447SOL    HW210470   6.499   7.221   0.914
 3448SOL     OW10471   7.616   1.921   0.260
 3448SOL    HW110472   7.591   1.830   0.276
 3448SOL    HW210473   7.689   1.914   0.198
 3449SOL     OW10474   6.148   4.547   0.726
 3449SOL    HW110475   6.141   4.499   0.808
 3449SOL    HW210476   6.199   4.490   0.669
 3450SOL     OW10477   4.613   6.112   3.920
 3450SOL    HW110478   4.632   6.141   4.009
 3450SOL    HW210479   4.518   6.120   3.912
 3451SOL     OW10480   0.812   5.204   0.540
 3451SOL    HW110481   0.770   5.123   0.566
 3451SOL    HW210482   0.894   5.206   0.589
 3452SOL     OW10483   4.309   3.837   1.660
 3452SOL    HW110484   4.287   3.897   1.731
 3452SOL    HW210485   4.404   3.836   1.658
 3453SOL     OW10486   3.699   2.014   3.490
 3453SOL    HW110487   3.719   2.026   3.397
 3453SOL    HW210488   3.761   2.071   3.536
 3454SOL     OW10489   0.415   3.602   0.567
 3454SOL    HW110490   0.470   3.551   0.626
 3454SOL    HW210491   0.429   3.563   0.481
 3455SOL     OW10492   3.883   2.285   2.525
 3455SOL    HW110493   3.844   2.365   2.490
 3455SOL    HW210494   3.960   2.270   2.470
 3456SOL     OW10495   5.985   6.257   3.615
 3456SOL    HW110496   5.925   6.328   3.593
 3456SOL    HW210497   6.072   6.298   3.615
 3457SOL     OW10498   5.538   5.919   5.134
 3457SOL    HW110499   5.567   5.969   5.058
 3457SOL    HW210500   5.617   5.908   5.187
 3458SOL     OW10501   1.863   1.045   1.207
 3458SOL    HW110502   1.799   1.114   1.191
 3458SOL    HW210503   1.811   0.969   1.234
 3459SOL     OW10504   4.721   6.127   4.546
 3459SOL    HW110505   4.731   6.215   4.511
 3459SOL    HW210506   4.648   6.135   4.608
 3460SOL     OW10507   9.534   7.462   4.483
 3460SOL    HW110508   9.512   7.369   4.486
 3460SOL    HW210509   9.491   7.499   4.560
 3461SOL     OW10510   3.220   5.199   2.836
 3461SOL    HW110511   3.257   5.112   2.845
 3461SOL    HW210512   3.125   5.185   2.829
 3462SOL     OW10513   6.113   4.913   3.058
 3462SOL    HW110514   6.140   4.909   3.149
 3462SOL    HW210515   6.175   4.857   3.011
 3463SOL     OW10516   8.441   3.995   4.127
 3463SOL    HW110517   8.476   3.923   4.180
 3463SOL    HW210518   8.510   4.016   4.065
 3464SOL     OW10519   4.906   5.644   4.190
 3464SOL    HW110520   4.876   5.557   4.215
 3464SOL    HW210521   4.986   5.657   4.240
 3465SOL     OW10522   3.588   2.404   2.095
 3465SOL    HW110523   3.564   2.486   2.053
 3465SOL    HW210524   3.507   2.371   2.133
 3466SOL     OW10525   5.953   3.738   5.256
 3466SOL    HW110526   5.874   3.774   5.216
 3466SOL    HW210527   6.016   3.731   5.184
 3467SOL     OW10528   6.840   2.635   0.648
 3467SOL    HW110529   6.790   2.639   0.730
 3467SOL    HW210530   6.776   2.603   0.583
 3468SOL     OW10531   3.003   7.289   0.222
 3468SOL    HW110532   3.003   7.358   0.288
 3468SOL    HW210533   2.983   7.334   0.140
 3469SOL     OW10534   7.819   0.887   4.541
 3469SOL    HW110535   7.826   0.855   4.451
 3469SOL    HW210536   7.887   0.838   4.588
 3470SOL     OW10537   9.779   2.778   4.314
 3470SOL    HW110538   9.796   2.685   4.297
 3470SOL    HW210539   9.746   2.780   4.404
 3471SOL     OW10540   2.562   7.062   2.562
 3471SOL    HW110541   2.548   7.035   2.471
 3471SOL    HW210542   2.481   7.107   2.586
 3472SOL     OW10543   6.647   1.806   2.036
 3472SOL    HW110544   6.553   1.824   2.030
 3472SOL    HW210545   6.659   1.729   1.981
 3473SOL     OW10546   3.537   3.308   3.154
 3473SOL    HW110547   3.518   3.248   3.227
 3473SOL    HW210548   3.461   3.367   3.152
 3474SOL     OW10549   8.513   6.942   2.733
 3474SOL    HW110550   8.572   7.012   2.705
 3474SOL    HW210551   8.527   6.871   2.671
 3475SOL     OW10552   3.781   6.890   1.886
 3475SOL    HW110553   3.869   6.853   1.894
 3475SOL    HW210554   3.783   6.968   1.941
 3476SOL     OW10555   6.546   6.282   0.301
 3476SOL    HW110556   6.506   6.232   0.230
 3476SOL    HW210557   6.571   6.365   0.260
 3477SOL     OW10558   2.031   4.945   0.879
 3477SOL    HW110559   1.985   4.876   0.927
 3477SOL    HW210560   2.070   4.901   0.804
 3478SOL     OW10561   6.046   3.202   2.223
 3478SOL    HW110562   6.005   3.250   2.151
 3478SOL    HW210563   6.042   3.110   2.197
 3479SOL     OW10564  10.412   7.287   5.119
 3479SOL    HW110565  10.424   7.351   5.050
 3479SOL    HW210566  10.479   7.221   5.103
 3480SOL     OW10567   5.380   5.046   0.029
 3480SOL    HW110568   5.447   5.014   0.089
 3480SOL    HW210569   5.429   5.096  -0.037
 3481SOL     OW10570   5.313   2.804   0.396
 3481SOL    HW110571   5.256   2.819   0.472
 3481SOL    HW210572   5.348   2.716   0.409
 3482SOL     OW10573   5.814   4.309   1.904
 3482SOL    HW110574   5.720   4.322   1.901
 3482SOL    HW210575   5.826   4.214   1.902
 3483SOL     OW10576   5.541   7.139   0.939
 3483SOL    HW110577   5.563   7.046   0.947
 3483SOL    HW210578   5.583   7.180   1.015
 3484SOL     OW10579   6.562   0.252   2.244
 3484SOL    HW110580   6.578   0.227   2.153
 3484SOL    HW210581   6.540   0.169   2.288
 3485SOL     OW10582   7.667   6.510   0.324
 3485SOL    HW110583   7.728   6.583   0.330
 3485SOL    HW210584   7.596   6.532   0.384
 3486SOL     OW10585   5.849   0.960   1.415
 3486SOL    HW110586   5.931   1.004   1.439
 3486SOL    HW210587   5.797   0.962   1.495
 3487SOL     OW10588   8.492   3.190   2.793
 3487SOL    HW110589   8.577   3.215   2.756
 3487SOL    HW210590   8.512   3.166   2.883
 3488SOL     OW10591  10.069   5.159   5.192
 3488SOL    HW110592   9.993   5.204   5.156
 3488SOL    HW210593  10.119   5.130   5.116
 3489SOL     OW10594   3.359   5.982   4.428
 3489SOL    HW110595   3.345   5.930   4.348
 3489SOL    HW210596   3.283   5.961   4.483
 3490SOL     OW10597   4.053   1.583   2.384
 3490SOL    HW110598   4.053   1.488   2.398
 3490SOL    HW210599   4.088   1.594   2.296
 3491SOL     OW10600   5.301   6.824   1.995
 3491SOL    HW110601   5.293   6.891   1.927
 3491SOL    HW210602   5.211   6.802   2.018
 3492SOL     OW10603   6.561   0.524   4.633
 3492SOL    HW110604   6.511   0.518   4.551
 3492SOL    HW210605   6.545   0.440   4.677
 3493SOL     OW10606   5.936   2.791   5.057
 3493SOL    HW110607   5.865   2.807   5.118
 3493SOL    HW210608   5.964   2.701   5.076
 3494SOL     OW10609   5.894   7.207   1.629
 3494SOL    HW110610   5.856   7.278   1.577
 3494SOL    HW210611   5.939   7.252   1.701
 3495SOL     OW10612  10.150   6.688   4.883
 3495SOL    HW110613  10.083   6.756   4.889
 3495SOL    HW210614  10.185   6.696   4.795
 3496SOL     OW10615   4.100   6.598   3.219
 3496SOL    HW110616   4.014   6.636   3.203
 3496SOL    HW210617   4.103   6.585   3.314
 3497SOL     OW10618   2.729   1.413   2.974
 3497SOL    HW110619   2.655   1.409   2.913
 3497SOL    HW210620   2.795   1.465   2.928
 3498SOL     OW10621   6.255   2.318   4.423
 3498SOL    HW110622   6.237   2.310   4.517
 3498SOL    HW210623   6.201   2.392   4.394
 3499SOL     OW10624   3.550   6.608   1.687
 3499SOL    HW110625   3.537   6.619   1.781
 3499SOL    HW210626   3.563   6.696   1.654
 3500SOL     OW10627   9.031   7.127   4.360
 3500SOL    HW110628   9.044   7.106   4.453
 3500SOL    HW210629   8.937   7.139   4.351
 3501SOL     OW10630   8.420   0.762   3.645
 3501SOL    HW110631   8.427   0.836   3.705
 3501SOL    HW210632   8.481   0.697   3.679
 3502SOL     OW10633   5.546   7.448   2.944
 3502SOL    HW110634   5.575   7.519   2.887
 3502SOL    HW210635   5.580   7.369   2.903
 3503SOL     OW10636   6.191   5.004   4.491
 3503SOL    HW110637   6.110   4.957   4.472
 3503SOL    HW210638   6.213   5.050   4.409
 3504SOL     OW10639   6.683   3.185   2.665
 3504SOL    HW110640   6.599   3.223   2.642
 3504SOL    HW210641   6.737   3.195   2.587
 3505SOL     OW10642   9.859   1.702   4.931
 3505SOL    HW110643   9.886   1.711   4.840
 3505SOL    HW210644   9.929   1.652   4.972
 3506SOL     OW10645   2.894   0.345   2.757
 3506SOL    HW110646   2.877   0.429   2.713
 3506SOL    HW210647   2.971   0.361   2.811
 3507SOL     OW10648   5.985   4.784   0.642
 3507SOL    HW110649   5.930   4.710   0.668
 3507SOL    HW210650   6.073   4.749   0.637
 3508SOL     OW10651   6.640   3.516   2.642
 3508SOL    HW110652   6.551   3.504   2.610
 3508SOL    HW210653   6.630   3.537   2.735
 3509SOL     OW10654   9.374   0.727   2.819
 3509SOL    HW110655   9.346   0.813   2.787
 3509SOL    HW210656   9.326   0.665   2.764
 3510SOL     OW10657   2.436   4.242   1.467
 3510SOL    HW110658   2.420   4.159   1.511
 3510SOL    HW210659   2.525   4.235   1.434
 3511SOL     OW10660   2.835   7.119   1.679
 3511SOL    HW110661   2.869   7.161   1.600
 3511SOL    HW210662   2.836   7.188   1.745
 3512SOL     OW10663   5.821   0.970   4.344
 3512SOL    HW110664   5.860   1.009   4.423
 3512SOL    HW210665   5.734   0.943   4.371
 3513SOL     OW10666   7.798   3.858   5.074
 3513SOL    HW110667   7.753   3.887   5.153
 3513SOL    HW210668   7.821   3.939   5.028
 3514SOL     OW10669   8.131   0.888   5.039
 3514SOL    HW110670   8.167   0.977   5.047
 3514SOL    HW210671   8.147   0.865   4.947
 3515SOL     OW10672   1.887   7.153   0.592
 3515SOL    HW110673   1.833   7.074   0.596
 3515SOL    HW210674   1.857   7.198   0.512
 3516SOL     OW10675   3.911   5.838   2.679
 3516SOL    HW110676   3.960   5.872   2.754
 3516SOL    HW210677   3.862   5.912   2.645
 3517SOL     OW10678   6.736   6.217   2.386
 3517SOL    HW110679   6.823   6.179   2.389
 3517SOL    HW210680   6.745   6.302   2.430
 3518SOL     OW10681   5.994   2.170   4.996
 3518SOL    HW110682   6.085   2.157   5.022
 3518SOL    HW210683   5.942   2.134   5.068
 3519SOL     OW10684   5.487   3.929   1.196
 3519SOL    HW110685   5.433   3.861   1.154
 3519SOL    HW210686   5.574   3.889   1.202
 3520SOL     OW10687   5.054   5.764   0.277
 3520SOL    HW110688   4.994   5.749   0.204
 3520SOL    HW210689   5.030   5.697   0.342
 3521SOL     OW10690   0.615   5.779   0.647
 3521SOL    HW110691   0.636   5.722   0.721
 3521SOL    HW210692   0.643   5.728   0.570
 3522SOL     OW10693   3.606   4.277   2.055
 3522SOL    HW110694   3.595   4.237   2.141
 3522SOL    HW210695   3.638   4.366   2.074
 3523SOL     OW10696   5.664   3.763   1.631
 3523SOL    HW110697   5.641   3.810   1.550
 3523SOL    HW210698   5.638   3.823   1.701
 3524SOL     OW10699   9.730   2.752   3.651
 3524SOL    HW110700   9.753   2.739   3.743
 3524SOL    HW210701   9.719   2.663   3.616
 3525SOL     OW10702   6.943   0.785   4.227
 3525SOL    HW110703   6.934   0.825   4.313
 3525SOL    HW210704   6.964   0.857   4.168
 3526SOL     OW10705   6.696   0.184   4.408
 3526SOL    HW110706   6.616   0.219   4.368
 3526SOL    HW210707   6.761   0.189   4.338
 3527SOL     OW10708   9.613   1.389   5.046
 3527SOL    HW110709   9.696   1.424   5.077
 3527SOL    HW210710   9.602   1.426   4.959
 3528SOL     OW10711   6.294   4.866   4.236
 3528SOL    HW110712   6.210   4.903   4.263
 3528SOL    HW210713   6.290   4.774   4.262
 3529SOL     OW10714   7.171   7.399   4.980
 3529SOL    HW110715   7.265   7.383   4.991
 3529SOL    HW210716   7.152   7.370   4.890
 3530SOL     OW10717   5.682   4.993   3.590
 3530SOL    HW110718   5.767   5.037   3.585
 3530SOL    HW210719   5.641   5.009   3.505
 3531SOL     OW10720   3.395   0.988   1.792
 3531SOL    HW110721   3.477   1.003   1.745
 3531SOL    HW210722   3.338   1.060   1.765
 3532SOL     OW10723   6.898   5.858   2.757
 3532SOL    HW110724   6.820   5.848   2.811
 3532SOL    HW210725   6.866   5.863   2.667
 3533SOL     OW10726   3.783   2.746   1.116
 3533SOL    HW110727   3.760   2.839   1.112
 3533SOL    HW210728   3.778   2.724   1.210
 3534SOL     OW10729   9.128   4.437   2.689
 3534SOL    HW110730   9.050   4.443   2.744
 3534SOL    HW210731   9.099   4.391   2.610
 3535SOL     OW10732   4.305   5.707   1.341
 3535SOL    HW110733   4.307   5.770   1.413
 3535SOL    HW210734   4.241   5.743   1.280
 3536SOL     OW10735   7.051   1.276   0.375
 3536SOL    HW110736   7.029   1.196   0.327
 3536SOL    HW210737   7.012   1.347   0.324
 3537SOL     OW10738   8.982   5.207   3.702
 3537SOL    HW110739   8.980   5.259   3.622
 3537SOL    HW210740   8.905   5.150   3.695
 3538SOL     OW10741   8.672   0.541   4.278
 3538SOL    HW110742   8.670   0.621   4.226
 3538SOL    HW210743   8.580   0.516   4.289
 3539SOL     OW10744   3.252   1.692   3.735
 3539SOL    HW110745   3.176   1.741   3.704
 3539SOL    HW210746   3.316   1.701   3.664
 3540SOL     OW10747   0.974   0.650   0.732
 3540SOL    HW110748   0.980   0.640   0.827
 3540SOL    HW210749   0.905   0.715   0.719
 3541SOL     OW10750  10.307   6.125   4.336
 3541SOL    HW110751  10.333   6.217   4.342
 3541SOL    HW210752  10.248   6.122   4.261
 3542SOL     OW10753   7.091   4.993   1.510
 3542SOL    HW110754   7.086   5.008   1.604
 3542SOL    HW210755   7.184   5.005   1.488
 3543SOL     OW10756   5.539   3.949   4.193
 3543SOL    HW110757   5.554   3.986   4.280
 3543SOL    HW210758   5.508   3.860   4.210
 3544SOL     OW10759   4.253   3.306   1.899
 3544SOL    HW110760   4.287   3.329   1.813
 3544SOL    HW210761   4.279   3.378   1.956
 3545SOL     OW10762   0.640   4.271   0.651
 3545SOL    HW110763   0.680   4.322   0.722
 3545SOL    HW210764   0.676   4.183   0.662
 3546SOL     OW10765   2.004   4.660   2.738
 3546SOL    HW110766   1.952   4.638   2.815
 3546SOL    HW210767   2.031   4.751   2.753
 3547SOL     OW10768   0.976   6.319   0.705
 3547SOL    HW110769   0.981   6.386   0.637
 3547SOL    HW210770   0.882   6.300   0.712
 3548SOL     OW10771   5.385   1.062   5.018
 3548SOL    HW110772   5.312   1.038   4.961
 3548SOL    HW210773   5.391   0.991   5.081
 3549SOL     OW10774   5.135   2.613   4.106
 3549SOL    HW110775   5.062   2.581   4.159
 3549SOL    HW210776   5.131   2.708   4.115
 3550SOL     OW10777   3.904   3.391   0.888
 3550SOL    HW110778   3.830   3.417   0.832
 3550SOL    HW210779   3.946   3.319   0.841
 3551SOL     OW10780   8.790   0.499   2.886
 3551SOL    HW110781   8.765   0.407   2.876
 3551SOL    HW210782   8.766   0.520   2.976
 3552SOL     OW10783   9.220   5.988   4.212
 3552SOL    HW110784   9.297   6.009   4.160
 3552SOL    HW210785   9.148   5.989   4.149
 3553SOL     OW10786   4.703   3.251   0.018
 3553SOL    HW110787   4.659   3.328  -0.018
 3553SOL    HW210788   4.633   3.200   0.059
 3554SOL     OW10789  10.703   5.934   4.662
 3554SOL    HW110790  10.665   6.021   4.676
 3554SOL    HW210791  10.780   5.932   4.718
 3555SOL     OW10792   9.633   0.351   4.021
 3555SOL    HW110793   9.674   0.298   4.089
 3555SOL    HW210794   9.700   0.414   3.996
 3556SOL     OW10795   1.877   6.590   1.876
 3556SOL    HW110796   1.964   6.624   1.895
 3556SOL    HW210797   1.819   6.666   1.883
 3557SOL     OW10798   4.179   4.528   4.083
 3557SOL    HW110799   4.129   4.603   4.049
 3557SOL    HW210800   4.264   4.564   4.107
 3558SOL     OW10801   6.995   3.315   3.026
 3558SOL    HW110802   7.011   3.353   2.940
 3558SOL    HW210803   7.059   3.357   3.083
 3559SOL     OW10804   8.151   6.481   1.491
 3559SOL    HW110805   8.062   6.502   1.518
 3559SOL    HW210806   8.205   6.551   1.530
 3560SOL     OW10807   6.872   0.041   3.506
 3560SOL    HW110808   6.812   0.058   3.434
 3560SOL    HW210809   6.957   0.072   3.474
 3561SOL     OW10810   5.469   0.047   0.301
 3561SOL    HW110811   5.509  -0.006   0.232
 3561SOL    HW210812   5.481   0.138   0.271
 3562SOL     OW10813   5.354   4.734   1.083
 3562SOL    HW110814   5.373   4.713   1.175
 3562SOL    HW210815   5.363   4.651   1.037
 3563SOL     OW10816   5.359   2.001   3.268
 3563SOL    HW110817   5.352   1.952   3.350
 3563SOL    HW210818   5.382   2.090   3.296
 3564SOL     OW10819   4.251   5.109   5.065
 3564SOL    HW110820   4.309   5.052   5.015
 3564SOL    HW210821   4.239   5.063   5.148
 3565SOL     OW10822   7.469   1.985   1.990
 3565SOL    HW110823   7.432   2.056   1.937
 3565SOL    HW210824   7.399   1.921   1.996
 3566SOL     OW10825   3.744   2.484   3.191
 3566SOL    HW110826   3.677   2.437   3.141
 3566SOL    HW210827   3.695   2.548   3.242
 3567SOL     OW10828   3.850   0.347   2.916
 3567SOL    HW110829   3.788   0.317   2.983
 3567SOL    HW210830   3.918   0.394   2.965
 3568SOL     OW10831   6.102   5.899   1.301
 3568SOL    HW110832   6.181   5.846   1.300
 3568SOL    HW210833   6.056   5.875   1.220
 3569SOL     OW10834   7.942   3.397   2.416
 3569SOL    HW110835   7.947   3.437   2.329
 3569SOL    HW210836   7.906   3.466   2.472
 3570SOL     OW10837   9.496   1.017   3.349
 3570SOL    HW110838   9.424   1.010   3.411
 3570SOL    HW210839   9.454   1.030   3.264
 3571SOL     OW10840   5.827   2.033   1.965
 3571SOL    HW110841   5.831   1.969   2.036
 3571SOL    HW210842   5.734   2.038   1.943
 3572SOL     OW10843   5.096   3.121   2.164
 3572SOL    HW110844   5.129   3.166   2.242
 3572SOL    HW210845   5.119   3.029   2.179
 3573SOL     OW10846   5.244   0.158   2.874
 3573SOL    HW110847   5.261   0.077   2.923
 3573SOL    HW210848   5.150   0.156   2.857
 3574SOL     OW10849   6.871   3.707   3.021
 3574SOL    HW110850   6.897   3.719   2.930
 3574SOL    HW210851   6.950   3.673   3.064
 3575SOL     OW10852   8.922   3.178   2.315
 3575SOL    HW110853   8.930   3.084   2.330
 3575SOL    HW210854   9.011   3.212   2.321
 3576SOL     OW10855   2.755   4.742   2.882
 3576SOL    HW110856   2.844   4.760   2.852
 3576SOL    HW210857   2.723   4.672   2.825
 3577SOL     OW10858   4.385   4.532   2.390
 3577SOL    HW110859   4.360   4.557   2.301
 3577SOL    HW210860   4.404   4.438   2.384
 3578SOL     OW10861   2.968   4.403   2.547
 3578SOL    HW110862   2.957   4.312   2.520
 3578SOL    HW210863   2.951   4.402   2.641
 3579SOL     OW10864   3.249   6.187   1.369
 3579SOL    HW110865   3.196   6.253   1.324
 3579SOL    HW210866   3.191   6.152   1.437
 3580SOL     OW10867   7.202   0.703   3.909
 3580SOL    HW110868   7.139   0.767   3.943
 3580SOL    HW210869   7.185   0.623   3.959
 3581SOL     OW10870   6.617   4.628   4.403
 3581SOL    HW110871   6.654   4.650   4.318
 3581SOL    HW210872   6.692   4.601   4.456
 3582SOL     OW10873   7.162   2.791   2.035
 3582SOL    HW110874   7.230   2.858   2.025
 3582SOL    HW210875   7.209   2.714   2.067
 3583SOL     OW10876   7.428   5.837   3.507
 3583SOL    HW110877   7.423   5.741   3.509
 3583SOL    HW210878   7.463   5.857   3.420
 3584SOL     OW10879   6.563   3.658   3.190
 3584SOL    HW110880   6.631   3.658   3.257
 3584SOL    HW210881   6.599   3.713   3.119
 3585SOL     OW10882   1.054   5.416   0.045
 3585SOL    HW110883   1.024   5.434   0.134
 3585SOL    HW210884   0.991   5.461  -0.011
 3586SOL     OW10885   6.632   2.677   2.154
 3586SOL    HW110886   6.636   2.630   2.070
 3586SOL    HW210887   6.562   2.633   2.202
 3587SOL     OW10888   5.929   2.286   0.727
 3587SOL    HW110889   5.845   2.321   0.756
 3587SOL    HW210890   5.952   2.339   0.651
 3588SOL     OW10891   8.795   0.456   5.010
 3588SOL    HW110892   8.801   0.552   5.008
 3588SOL    HW210893   8.774   0.431   4.920
 3589SOL     OW10894   1.493   3.024   1.996
 3589SOL    HW110895   1.548   2.962   1.949
 3589SOL    HW210896   1.420   3.041   1.937
 3590SOL     OW10897   1.475   5.192   1.830
 3590SOL    HW110898   1.427   5.226   1.755
 3590SOL    HW210899   1.566   5.217   1.813
 3591SOL     OW10900   1.467   7.110   1.522
 3591SOL    HW110901   1.503   7.022   1.527
 3591SOL    HW210902   1.540   7.168   1.542
 3592SOL     OW10903   4.201   3.878   4.330
 3592SOL    HW110904   4.156   3.795   4.314
 3592SOL    HW210905   4.281   3.853   4.376
 3593SOL     OW10906   8.014   6.818   4.332
 3593SOL    HW110907   8.034   6.748   4.269
 3593SOL    HW210908   8.049   6.897   4.291
 3594SOL     OW10909   8.610   6.160   2.341
 3594SOL    HW110910   8.576   6.092   2.400
 3594SOL    HW210911   8.664   6.112   2.278
 3595SOL     OW10912   8.400   7.081   2.177
 3595SOL    HW110913   8.337   7.144   2.143
 3595SOL    HW210914   8.473   7.134   2.208
 3596SOL     OW10915   7.080   0.053   2.710
 3596SOL    HW110916   7.165   0.068   2.751
 3596SOL    HW210917   7.067   0.130   2.655
 3597SOL     OW10918   2.486   2.079   3.538
 3597SOL    HW110919   2.471   2.142   3.467
 3597SOL    HW210920   2.560   2.116   3.587
 3598SOL     OW10921   7.422   3.201   1.633
 3598SOL    HW110922   7.498   3.201   1.574
 3598SOL    HW210923   7.397   3.293   1.639
 3599SOL     OW10924   4.788   0.401   4.112
 3599SOL    HW110925   4.767   0.436   4.199
 3599SOL    HW210926   4.797   0.307   4.126
 3600SOL     OW10927   3.058   0.364   3.145
 3600SOL    HW110928   3.019   0.284   3.181
 3600SOL    HW210929   3.138   0.377   3.195
 3601SOL     OW10930   7.297   2.277   4.320
 3601SOL    HW110931   7.327   2.300   4.232
 3601SOL    HW210932   7.321   2.185   4.331
 3602SOL     OW10933   6.689   3.267   0.586
 3602SOL    HW110934   6.744   3.211   0.532
 3602SOL    HW210935   6.672   3.215   0.665
 3603SOL     OW10936   9.402   4.961   2.992
 3603SOL    HW110937   9.489   4.956   3.032
 3603SOL    HW210938   9.351   4.894   3.038
 3604SOL     OW10939   3.304   5.989   0.771
 3604SOL    HW110940   3.212   5.988   0.797
 3604SOL    HW210941   3.307   6.050   0.698
 3605SOL     OW10942   2.671   6.347   3.328
 3605SOL    HW110943   2.686   6.357   3.422
 3605SOL    HW210944   2.683   6.435   3.292
 3606SOL     OW10945   7.996   6.082   4.426
 3606SOL    HW110946   7.967   5.991   4.416
 3606SOL    HW210947   7.957   6.110   4.509
 3607SOL     OW10948   3.242   6.829   3.432
 3607SOL    HW110949   3.212   6.907   3.478
 3607SOL    HW210950   3.174   6.812   3.367
 3608SOL     OW10951   6.715   0.786   4.847
 3608SOL    HW110952   6.633   0.753   4.882
 3608SOL    HW210953   6.737   0.860   4.905
 3609SOL     OW10954   7.704   4.550   2.928
 3609SOL    HW110955   7.706   4.579   2.837
 3609SOL    HW210956   7.612   4.531   2.946
 3610SOL     OW10957   7.830   5.722   2.222
 3610SOL    HW110958   7.920   5.754   2.216
 3610SOL    HW210959   7.776   5.796   2.195
 3611SOL     OW10960   5.661   5.221   3.804
 3611SOL    HW110961   5.585   5.215   3.747
 3611SOL    HW210962   5.647   5.300   3.856
 3612SOL     OW10963   5.034   7.300   0.546
 3612SOL    HW110964   5.099   7.331   0.483
 3612SOL    HW210965   5.021   7.208   0.525
 3613SOL     OW10966   3.846   0.101   2.423
 3613SOL    HW110967   3.785   0.035   2.391
 3613SOL    HW210968   3.864   0.076   2.514
 3614SOL     OW10969   8.113   5.321   3.021
 3614SOL    HW110970   8.041   5.258   3.026
 3614SOL    HW210971   8.177   5.280   2.962
 3615SOL     OW10972   3.024   0.865   3.813
 3615SOL    HW110973   3.105   0.875   3.763
 3615SOL    HW210974   3.000   0.773   3.803
 3616SOL     OW10975   5.412   6.587   0.475
 3616SOL    HW110976   5.382   6.507   0.430
 3616SOL    HW210977   5.435   6.647   0.404
 3617SOL     OW10978   4.097   4.339   0.805
 3617SOL    HW110979   4.111   4.304   0.893
 3617SOL    HW210980   4.118   4.432   0.812
 3618SOL     OW10981   8.770   5.272   4.239
 3618SOL    HW110982   8.740   5.226   4.318
 3618SOL    HW210983   8.735   5.220   4.167
 3619SOL     OW10984   0.778   4.180   0.047
 3619SOL    HW110985   0.791   4.259  -0.006
 3619SOL    HW210986   0.819   4.110  -0.005
 3620SOL     OW10987   5.519   5.332   2.853
 3620SOL    HW110988   5.572   5.405   2.885
 3620SOL    HW210989   5.516   5.345   2.759
 3621SOL     OW10990   5.085   2.561   5.287
 3621SOL    HW110991   5.014   2.498   5.301
 3621SOL    HW210992   5.055   2.615   5.214
 3622SOL     OW10993   5.195   3.311   1.198
 3622SOL    HW110994   5.232   3.355   1.274
 3622SOL    HW210995   5.264   3.313   1.132
 3623SOL     OW10996   2.584   6.216   2.696
 3623SOL    HW110997   2.645   6.230   2.769
 3623SOL    HW210998   2.628   6.255   2.620
 3624SOL     OW10999   2.035   3.997   0.879
 3624SOL    HW111000   2.025   3.977   0.786
 3624SOL    HW211001   2.108   4.058   0.883
 3625SOL     OW11002   8.138   3.807   2.094
 3625SOL    HW111003   8.142   3.849   2.180
 3625SOL    HW211004   8.224   3.766   2.084
 3626SOL     OW11005   5.152   0.472   4.116
 3626SOL    HW111006   5.174   0.388   4.156
 3626SOL    HW211007   5.074   0.502   4.162
 3627SOL     OW11008   6.266   3.562   0.301
 3627SOL    HW111009   6.311   3.483   0.272
 3627SOL    HW211010   6.227   3.539   0.385
 3628SOL     OW11011   3.636   1.144   3.384
 3628SOL    HW111012   3.632   1.128   3.290
 3628SOL    HW211013   3.635   1.239   3.393
 3629SOL     OW11014   2.863   5.182   1.504
 3629SOL    HW111015   2.804   5.233   1.560
 3629SOL    HW211016   2.933   5.154   1.562
 3630SOL     OW11017   4.794   3.180   2.834
 3630SOL    HW111018   4.786   3.113   2.766
 3630SOL    HW211019   4.704   3.197   2.862
 3631SOL     OW11020   9.964   7.222   5.101
 3631SOL    HW111021  10.014   7.297   5.134
 3631SOL    HW211022   9.873   7.247   5.116
 3632SOL     OW11023   8.846   1.749   2.682
 3632SOL    HW111024   8.845   1.777   2.773
 3632SOL    HW211025   8.895   1.816   2.636
 3633SOL     OW11026   2.368   2.483   1.812
 3633SOL    HW111027   2.454   2.525   1.816
 3633SOL    HW211028   2.367   2.423   1.886
 3634SOL     OW11029   5.035   5.689   5.191
 3634SOL    HW111030   5.061   5.773   5.154
 3634SOL    HW211031   5.043   5.701   5.286
 3635SOL     OW11032   7.069   4.253   3.671
 3635SOL    HW111033   7.037   4.175   3.626
 3635SOL    HW211034   7.124   4.218   3.742
 3636SOL     OW11035   4.492   4.387   4.389
 3636SOL    HW111036   4.503   4.482   4.389
 3636SOL    HW211037   4.442   4.368   4.309
 3637SOL     OW11038   4.293   7.182   0.412
 3637SOL    HW111039   4.327   7.195   0.324
 3637SOL    HW211040   4.329   7.098   0.440
 3638SOL     OW11041   3.557   6.396   2.588
 3638SOL    HW111042   3.482   6.438   2.546
 3638SOL    HW211043   3.633   6.447   2.558
 3639SOL     OW11044   1.593   1.094   0.815
 3639SOL    HW111045   1.635   1.036   0.752
 3639SOL    HW211046   1.533   1.147   0.762
 3640SOL     OW11047   7.538   2.961   3.028
 3640SOL    HW111048   7.573   2.872   3.032
 3640SOL    HW211049   7.616   3.017   3.022
 3641SOL     OW11050   5.196   4.881   3.849
 3641SOL    HW111051   5.214   4.864   3.757
 3641SOL    HW211052   5.277   4.856   3.894
 3642SOL     OW11053   5.288   2.528   0.605
 3642SOL    HW111054   5.218   2.593   0.618
 3642SOL    HW211055   5.308   2.498   0.693
 3643SOL     OW11056   3.717   1.209   0.173
 3643SOL    HW111057   3.670   1.224   0.256
 3643SOL    HW211058   3.720   1.294   0.131
 3644SOL     OW11059   4.554   0.581   1.305
 3644SOL    HW111060   4.605   0.626   1.372
 3644SOL    HW211061   4.507   0.651   1.260
 3645SOL     OW11062   7.239   2.316   4.859
 3645SOL    HW111063   7.200   2.238   4.898
 3645SOL    HW211064   7.249   2.294   4.767
 3646SOL     OW11065   7.952   3.677   0.893
 3646SOL    HW111066   7.859   3.660   0.878
 3646SOL    HW211067   7.984   3.599   0.937
 3647SOL     OW11068   1.635   0.321   0.639
 3647SOL    HW111069   1.673   0.368   0.564
 3647SOL    HW211070   1.624   0.388   0.706
 3648SOL     OW11071   6.325   6.871   3.386
 3648SOL    HW111072   6.273   6.901   3.312
 3648SOL    HW211073   6.408   6.919   3.378
 3649SOL     OW11074   5.239   5.558   4.513
 3649SOL    HW111075   5.289   5.493   4.562
 3649SOL    HW211076   5.241   5.527   4.422
 3650SOL     OW11077   6.514   2.684   3.829
 3650SOL    HW111078   6.438   2.628   3.844
 3650SOL    HW211079   6.532   2.675   3.735
 3651SOL     OW11080   4.720   7.302   3.862
 3651SOL    HW111081   4.787   7.371   3.866
 3651SOL    HW211082   4.662   7.321   3.936
 3652SOL     OW11083   7.436   0.550   0.077
 3652SOL    HW111084   7.348   0.531   0.045
 3652SOL    HW211085   7.492   0.537   0.000
 3653SOL     OW11086   5.005   5.938   2.726
 3653SOL    HW111087   5.003   5.877   2.800
 3653SOL    HW211088   4.992   6.024   2.766
 3654SOL     OW11089   4.930   2.743   2.579
 3654SOL    HW111090   4.997   2.811   2.566
 3654SOL    HW211091   4.944   2.712   2.668
 3655SOL     OW11092   2.974   6.345   4.116
 3655SOL    HW111093   2.970   6.374   4.025
 3655SOL    HW211094   3.050   6.389   4.152
 3656SOL     OW11095   6.627   5.769   3.749
 3656SOL    HW111096   6.694   5.701   3.754
 3656SOL    HW211097   6.669   5.847   3.785
 3657SOL     OW11098   3.405   3.107   0.804
 3657SOL    HW111099   3.442   3.179   0.855
 3657SOL    HW211100   3.456   3.106   0.723
 3658SOL     OW11101   2.698   2.274   0.628
 3658SOL    HW111102   2.713   2.326   0.707
 3658SOL    HW211103   2.782   2.273   0.583
 3659SOL     OW11104   2.313   4.011   1.564
 3659SOL    HW111105   2.257   3.948   1.609
 3659SOL    HW211106   2.393   3.961   1.544
 3660SOL     OW11107   7.314   5.104   4.667
 3660SOL    HW111108   7.274   5.052   4.736
 3660SOL    HW211109   7.337   5.187   4.709
 3661SOL     OW11110   6.374   6.879   4.224
 3661SOL    HW111111   6.339   6.960   4.260
 3661SOL    HW211112   6.301   6.842   4.175
 3662SOL     OW11113   3.989   4.797  -0.006
 3662SOL    HW111114   4.044   4.855   0.047
 3662SOL    HW211115   4.033   4.712  -0.002
 3663SOL     OW11116   6.018   4.621   0.142
 3663SOL    HW111117   6.050   4.672   0.216
 3663SOL    HW211118   6.096   4.586   0.100
 3664SOL     OW11119   9.138   0.190   2.667
 3664SOL    HW111120   9.087   0.142   2.732
 3664SOL    HW211121   9.113   0.282   2.679
 3665SOL     OW11122   8.979   6.266   3.761
 3665SOL    HW111123   9.050   6.281   3.699
 3665SOL    HW211124   8.918   6.338   3.746
 3666SOL     OW11125   8.591   6.386   2.577
 3666SOL    HW111126   8.618   6.319   2.514
 3666SOL    HW211127   8.652   6.458   2.562
 3667SOL     OW11128   4.882   0.327   1.846
 3667SOL    HW111129   4.917   0.415   1.862
 3667SOL    HW211130   4.949   0.284   1.792
 3668SOL     OW11131   6.631   4.921   5.244
 3668SOL    HW111132   6.625   4.927   5.340
 3668SOL    HW211133   6.632   5.012   5.215
 3669SOL     OW11134   2.775   7.340   2.144
 3669SOL    HW111135   2.860   7.384   2.142
 3669SOL    HW211136   2.765   7.313   2.235
 3670SOL     OW11137   6.940   7.145   1.381
 3670SOL    HW111138   6.911   7.173   1.468
 3670SOL    HW211139   6.944   7.049   1.387
 3671SOL     OW11140   5.520   1.992   2.203
 3671SOL    HW111141   5.430   1.962   2.193
 3671SOL    HW211142   5.515   2.065   2.265
 3672SOL     OW11143   8.439   3.265   3.871
 3672SOL    HW111144   8.384   3.319   3.927
 3672SOL    HW211145   8.381   3.234   3.802
 3673SOL     OW11146   4.765   5.588   5.187
 3673SOL    HW111147   4.801   5.521   5.245
 3673SOL    HW211148   4.843   5.631   5.150
 3674SOL     OW11149   2.894   1.574   2.806
 3674SOL    HW111150   2.926   1.664   2.809
 3674SOL    HW211151   2.921   1.542   2.720
 3675SOL     OW11152   2.755   2.684   3.926
 3675SOL    HW111153   2.729   2.776   3.916
 3675SOL    HW211154   2.794   2.661   3.842
 3676SOL     OW11155   6.457   0.695   3.336
 3676SOL    HW111156   6.442   0.634   3.264
 3676SOL    HW211157   6.530   0.750   3.307
 3677SOL     OW11158   7.489   0.412   1.479
 3677SOL    HW111159   7.529   0.407   1.566
 3677SOL    HW211160   7.552   0.367   1.422
 3678SOL     OW11161   7.167   5.328   0.148
 3678SOL    HW111162   7.221   5.291   0.219
 3678SOL    HW211163   7.087   5.357   0.192
 3679SOL     OW11164   3.797   0.713   3.526
 3679SOL    HW111165   3.706   0.733   3.501
 3679SOL    HW211166   3.847   0.788   3.495
 3680SOL     OW11167   5.897   2.276   1.143
 3680SOL    HW111168   5.958   2.336   1.186
 3680SOL    HW211169   5.943   2.191   1.145
 3681SOL     OW11170   4.431   5.831   2.287
 3681SOL    HW111171   4.524   5.850   2.295
 3681SOL    HW211172   4.425   5.736   2.300
 3682SOL     OW11173   5.969   7.199   3.675
 3682SOL    HW111174   6.036   7.192   3.607
 3682SOL    HW211175   5.887   7.209   3.627
 3683SOL     OW11176   6.235   2.966   4.913
 3683SOL    HW111177   6.152   2.994   4.953
 3683SOL    HW211178   6.251   2.880   4.950
 3684SOL     OW11179   9.854   2.268   3.794
 3684SOL    HW111180   9.829   2.271   3.887
 3684SOL    HW211181   9.950   2.269   3.796
 3685SOL     OW11182   9.849   6.802   3.864
 3685SOL    HW111183   9.757   6.815   3.888
 3685SOL    HW211184   9.897   6.821   3.944
 3686SOL     OW11185   3.766   1.766   5.073
 3686SOL    HW111186   3.786   1.810   4.991
 3686SOL    HW211187   3.741   1.677   5.048
 3687SOL     OW11188   8.000   7.064   1.082
 3687SOL    HW111189   7.973   7.118   1.156
 3687SOL    HW211190   7.931   7.078   1.016
 3688SOL     OW11191   9.906   6.582   5.198
 3688SOL    HW111192   9.824   6.630   5.199
 3688SOL    HW211193   9.973   6.649   5.186
 3689SOL     OW11194   4.780   4.123   3.699
 3689SOL    HW111195   4.874   4.126   3.680
 3689SOL    HW211196   4.771   4.173   3.780
 3690SOL     OW11197   3.490   7.396   4.535
 3690SOL    HW111198   3.504   7.437   4.620
 3690SOL    HW211199   3.490   7.302   4.553
 3691SOL     OW11200   4.698   5.013   4.647
 3691SOL    HW111201   4.705   4.925   4.611
 3691SOL    HW211202   4.606   5.023   4.670
 3692SOL     OW11203   6.390   2.751   4.293
 3692SOL    HW111204   6.301   2.728   4.265
 3692SOL    HW211205   6.447   2.701   4.235
 3693SOL     OW11206   3.091   1.519   0.790
 3693SOL    HW111207   2.997   1.507   0.781
 3693SOL    HW211208   3.126   1.506   0.702
 3694SOL     OW11209   8.243   6.041   1.371
 3694SOL    HW111210   8.196   6.124   1.379
 3694SOL    HW211211   8.210   5.988   1.444
 3695SOL     OW11212   4.084   2.604   2.774
 3695SOL    HW111213   4.110   2.512   2.772
 3695SOL    HW211214   4.162   2.653   2.749
 3696SOL     OW11215   5.927   3.651   0.317
 3696SOL    HW111216   5.845   3.694   0.293
 3696SOL    HW211217   5.992   3.720   0.314
 3697SOL     OW11218   2.080   7.385   1.976
 3697SOL    HW111219   2.149   7.328   2.009
 3697SOL    HW211220   2.058   7.441   2.050
 3698SOL     OW11221   6.828   4.944   3.203
 3698SOL    HW111222   6.802   4.859   3.238
 3698SOL    HW211223   6.772   4.957   3.126
 3699SOL     OW11224   5.262   0.322   2.384
 3699SOL    HW111225   5.324   0.254   2.361
 3699SOL    HW211226   5.204   0.329   2.308
 3700SOL     OW11227   8.646   5.607   3.556
 3700SOL    HW111228   8.591   5.686   3.557
 3700SOL    HW211229   8.583   5.535   3.549
 3701SOL     OW11230   7.357   5.651   3.069
 3701SOL    HW111231   7.428   5.675   3.128
 3701SOL    HW211232   7.330   5.563   3.098
 3702SOL     OW11233   4.518   6.311   2.594
 3702SOL    HW111234   4.439   6.264   2.622
 3702SOL    HW211235   4.488   6.367   2.523
 3703SOL     OW11236   3.866   4.282   2.238
 3703SOL    HW111237   3.797   4.322   2.185
 3703SOL    HW211238   3.856   4.188   2.224
 3704SOL     OW11239   7.005   2.329   1.000
 3704SOL    HW111240   6.939   2.303   0.936
 3704SOL    HW211241   6.976   2.415   1.031
 3705SOL     OW11242   9.918   1.479   3.410
 3705SOL    HW111243   9.858   1.512   3.343
 3705SOL    HW211244   9.863   1.463   3.486
 3706SOL     OW11245   2.301   0.707   0.066
 3706SOL    HW111246   2.236   0.715  -0.004
 3706SOL    HW211247   2.271   0.768   0.133
 3707SOL     OW11248   1.793   6.918   1.000
 3707SOL    HW111249   1.868   6.922   1.059
 3707SOL    HW211250   1.828   6.879   0.920
 3708SOL     OW11251   6.830   4.124   2.511
 3708SOL    HW111252   6.739   4.096   2.518
 3708SOL    HW211253   6.874   4.054   2.464
 3709SOL     OW11254   7.777   3.603   4.440
 3709SOL    HW111255   7.721   3.649   4.502
 3709SOL    HW211256   7.855   3.659   4.431
 3710SOL     OW11257   5.473   7.235   4.353
 3710SOL    HW111258   5.470   7.154   4.301
 3710SOL    HW211259   5.526   7.212   4.430
 3711SOL     OW11260   3.491   4.481   0.161
 3711SOL    HW111261   3.563   4.422   0.185
 3711SOL    HW211262   3.516   4.515   0.075
 3712SOL     OW11263   3.425   5.981   1.107
 3712SOL    HW111264   3.435   6.046   1.038
 3712SOL    HW211265   3.495   6.001   1.170
 3713SOL     OW11266   2.797   1.883   0.196
 3713SOL    HW111267   2.824   1.809   0.142
 3713SOL    HW211268   2.783   1.846   0.283
 3714SOL     OW11269   7.891   6.009   3.724
 3714SOL    HW111270   7.889   5.973   3.813
 3714SOL    HW211271   7.803   6.044   3.710
 3715SOL     OW11272  10.124   4.085   5.042
 3715SOL    HW111273  10.089   4.134   4.967
 3715SOL    HW211274  10.179   4.148   5.088
 3716SOL     OW11275   1.555   7.231   0.182
 3716SOL    HW111276   1.613   7.291   0.228
 3716SOL    HW211277   1.467   7.264   0.198
 3717SOL     OW11278   3.062   7.228   0.691
 3717SOL    HW111279   3.150   7.212   0.725
 3717SOL    HW211280   3.007   7.233   0.769
 3718SOL     OW11281   5.524   2.274   2.281
 3718SOL    HW111282   5.564   2.358   2.262
 3718SOL    HW211283   5.438   2.296   2.317
 3719SOL     OW11284   6.210   4.506   2.418
 3719SOL    HW111285   6.141   4.572   2.425
 3719SOL    HW211286   6.203   4.473   2.329
 3720SOL     OW11287   5.133   2.242   3.060
 3720SOL    HW111288   5.108   2.308   2.996
 3720SOL    HW211289   5.050   2.210   3.095
 3721SOL     OW11290   3.756   3.130   0.112
 3721SOL    HW111291   3.687   3.164   0.169
 3721SOL    HW211292   3.710   3.093   0.037
 3722SOL     OW11293   9.555   3.431   3.136
 3722SOL    HW111294   9.520   3.473   3.058
 3722SOL    HW211295   9.516   3.344   3.136
 3723SOL     OW11296   7.566   0.660   4.346
 3723SOL    HW111297   7.629   0.727   4.319
 3723SOL    HW211298   7.589   0.583   4.294
 3724SOL     OW11299  10.759   3.732   4.852
 3724SOL    HW111300  10.730   3.707   4.940
 3724SOL    HW211301  10.771   3.649   4.806
 3725SOL     OW11302   3.815   3.294   1.468
 3725SOL    HW111303   3.842   3.384   1.483
 3725SOL    HW211304   3.720   3.299   1.459
 3726SOL     OW11305   7.101   4.019   1.690
 3726SOL    HW111306   7.115   3.955   1.759
 3726SOL    HW211307   7.134   3.976   1.611
 3727SOL     OW11308   7.436   2.708   0.307
 3727SOL    HW111309   7.418   2.723   0.400
 3727SOL    HW211310   7.457   2.795   0.273
 3728SOL     OW11311   6.655   2.997   1.533
 3728SOL    HW111312   6.560   2.982   1.532
 3728SOL    HW211313   6.683   2.961   1.617
 3729SOL     OW11314   5.256   6.640   4.596
 3729SOL    HW111315   5.251   6.549   4.627
 3729SOL    HW211316   5.318   6.638   4.524
 3730SOL     OW11317   4.868   1.326   1.450
 3730SOL    HW111318   4.789   1.363   1.490
 3730SOL    HW211319   4.869   1.235   1.479
 3731SOL     OW11320   6.323   3.544   1.850
 3731SOL    HW111321   6.317   3.521   1.942
 3731SOL    HW211322   6.247   3.600   1.835
 3732SOL     OW11323   6.925   4.869   1.765
 3732SOL    HW111324   6.881   4.785   1.777
 3732SOL    HW211325   6.936   4.878   1.670
 3733SOL     OW11326   6.393   7.121   4.860
 3733SOL    HW111327   6.373   7.064   4.934
 3733SOL    HW211328   6.321   7.183   4.857
 3734SOL     OW11329   5.131   1.494   1.822
 3734SOL    HW111330   5.131   1.527   1.732
 3734SOL    HW211331   5.040   1.473   1.840
 3735SOL     OW11332   8.151   4.221   1.233
 3735SOL    HW111333   8.222   4.279   1.261
 3735SOL    HW211334   8.164   4.141   1.285
 3736SOL     OW11335   4.109   6.148   1.128
 3736SOL    HW111336   4.067   6.080   1.075
 3736SOL    HW211337   4.059   6.228   1.108
 3737SOL     OW11338   4.370   0.038   1.758
 3737SOL    HW111339   4.350  -0.055   1.771
 3737SOL    HW211340   4.423   0.062   1.834
 3738SOL     OW11341   7.617   4.779   2.078
 3738SOL    HW111342   7.588   4.867   2.102
 3738SOL    HW211343   7.543   4.723   2.099
 3739SOL     OW11344   7.203   5.837   1.454
 3739SOL    HW111345   7.220   5.801   1.367
 3739SOL    HW211346   7.278   5.810   1.506
 3740SOL     OW11347   3.756   1.711   0.548
 3740SOL    HW111348   3.747   1.616   0.543
 3740SOL    HW211349   3.841   1.725   0.590
 3741SOL     OW11350   8.718   3.532   3.949
 3741SOL    HW111351   8.704   3.492   3.862
 3741SOL    HW211352   8.794   3.486   3.984
 3742SOL     OW11353   6.640   6.352   0.574
 3742SOL    HW111354   6.702   6.425   0.577
 3742SOL    HW211355   6.645   6.319   0.485
 3743SOL     OW11356   2.432   3.478   0.639
 3743SOL    HW111357   2.442   3.484   0.544
 3743SOL    HW211358   2.356   3.534   0.658
 3744SOL     OW11359   4.810   6.731   0.178
 3744SOL    HW111360   4.808   6.773   0.092
 3744SOL    HW211361   4.799   6.803   0.240
 3745SOL     OW11362   6.209   0.917   3.193
 3745SOL    HW111363   6.120   0.884   3.202
 3745SOL    HW211364   6.251   0.856   3.132
 3746SOL     OW11365   8.940   5.549   2.760
 3746SOL    HW111366   8.865   5.594   2.798
 3746SOL    HW211367   9.017   5.588   2.802
 3747SOL     OW11368  10.329   3.495   4.586
 3747SOL    HW111369  10.242   3.530   4.564
 3747SOL    HW211370  10.364   3.558   4.649
 3748SOL     OW11371   5.698   4.874   1.441
 3748SOL    HW111372   5.778   4.925   1.455
 3748SOL    HW211373   5.658   4.913   1.364
 3749SOL     OW11374   2.177   6.241   1.432
 3749SOL    HW111375   2.247   6.224   1.369
 3749SOL    HW211376   2.216   6.219   1.517
 3750SOL     OW11377   0.553   4.197   0.192
 3750SOL    HW111378   0.541   4.119   0.247
 3750SOL    HW211379   0.636   4.182   0.146
 3751SOL     OW11380   5.242   6.984   3.466
 3751SOL    HW111381   5.276   7.071   3.442
 3751SOL    HW211382   5.190   6.957   3.390
 3752SOL     OW11383   4.465   3.305   0.603
 3752SOL    HW111384   4.499   3.279   0.688
 3752SOL    HW211385   4.425   3.391   0.618
 3753SOL     OW11386   8.153   6.769   3.924
 3753SOL    HW111387   8.080   6.830   3.909
 3753SOL    HW211388   8.231   6.818   3.896
 3754SOL     OW11389   4.169   1.526   2.637
 3754SOL    HW111390   4.104   1.587   2.602
 3754SOL    HW211391   4.224   1.580   2.694
 3755SOL     OW11392   7.765   4.927   2.562
 3755SOL    HW111393   7.691   4.986   2.552
 3755SOL    HW211394   7.783   4.895   2.473
 3756SOL     OW11395   9.553   5.647   4.219
 3756SOL    HW111396   9.649   5.647   4.212
 3756SOL    HW211397   9.523   5.674   4.132
 3757SOL     OW11398   0.187   0.128   0.258
 3757SOL    HW111399   0.115   0.168   0.210
 3757SOL    HW211400   0.251   0.199   0.269
 3758SOL     OW11401   4.472   6.936   2.558
 3758SOL    HW111402   4.443   6.992   2.485
 3758SOL    HW211403   4.447   6.985   2.636
 3759SOL     OW11404   4.877   0.665   5.007
 3759SOL    HW111405   4.903   0.750   4.971
 3759SOL    HW211406   4.930   0.602   4.959
 3760SOL     OW11407   3.072   3.618   0.850
 3760SOL    HW111408   3.125   3.669   0.788
 3760SOL    HW211409   2.990   3.666   0.857
 3761SOL     OW11410   0.410   6.213   0.412
 3761SOL    HW111411   0.323   6.248   0.395
 3761SOL    HW211412   0.407   6.184   0.503
 3762SOL     OW11413   3.117   5.863   3.626
 3762SOL    HW111414   3.132   5.813   3.707
 3762SOL    HW211415   3.193   5.842   3.571
 3763SOL     OW11416   7.082   4.351   4.007
 3763SOL    HW111417   7.084   4.324   4.099
 3763SOL    HW211418   7.118   4.276   3.959
 3764SOL     OW11419   7.423   0.810   4.936
 3764SOL    HW111420   7.465   0.895   4.950
 3764SOL    HW211421   7.385   0.788   5.021
 3765SOL     OW11422   6.406   1.836   1.236
 3765SOL    HW111423   6.368   1.777   1.302
 3765SOL    HW211424   6.384   1.795   1.152
 3766SOL     OW11425   2.495   5.973   1.119
 3766SOL    HW111426   2.498   6.054   1.069
 3766SOL    HW211427   2.509   6.000   1.210
 3767SOL     OW11428   7.777   3.203   2.408
 3767SOL    HW111429   7.827   3.284   2.409
 3767SOL    HW211430   7.843   3.134   2.418
 3768SOL     OW11431   6.008   2.837   3.918
 3768SOL    HW111432   6.057   2.761   3.888
 3768SOL    HW211433   6.062   2.875   3.987
 3769SOL     OW11434   5.660   1.305   1.587
 3769SOL    HW111435   5.599   1.356   1.533
 3769SOL    HW211436   5.714   1.371   1.630
 3770SOL     OW11437   2.465   6.943   3.367
 3770SOL    HW111438   2.532   6.986   3.420
 3770SOL    HW211439   2.382   6.979   3.399
 3771SOL     OW11440   3.806   3.695   3.522
 3771SOL    HW111441   3.818   3.606   3.555
 3771SOL    HW211442   3.826   3.752   3.597
 3772SOL     OW11443   4.346   6.139   1.635
 3772SOL    HW111444   4.252   6.143   1.655
 3772SOL    HW211445   4.385   6.097   1.712
 3773SOL     OW11446   1.701   5.004   0.873
 3773SOL    HW111447   1.650   4.977   0.949
 3773SOL    HW211448   1.636   5.022   0.806
 3774SOL     OW11449   4.509   4.627   2.152
 3774SOL    HW111450   4.449   4.683   2.103
 3774SOL    HW211451   4.507   4.543   2.105
 3775SOL     OW11452   7.249   6.897   4.780
 3775SOL    HW111453   7.291   6.970   4.734
 3775SOL    HW211454   7.211   6.937   4.859
 3776SOL     OW11455   5.951   0.382   3.930
 3776SOL    HW111456   6.037   0.417   3.905
 3776SOL    HW211457   5.963   0.348   4.018
 3777SOL     OW11458   4.279   4.533   3.812
 3777SOL    HW111459   4.205   4.473   3.824
 3777SOL    HW211460   4.336   4.515   3.887
 3778SOL     OW11461   8.644   0.860   2.763
 3778SOL    HW111462   8.685   0.776   2.782
 3778SOL    HW211463   8.575   0.840   2.700
 3779SOL     OW11464   4.310   4.818   2.409
 3779SOL    HW111465   4.284   4.740   2.458
 3779SOL    HW211466   4.319   4.886   2.476
 3780SOL     OW11467   6.304   6.745   4.809
 3780SOL    HW111468   6.287   6.750   4.903
 3780SOL    HW211469   6.397   6.768   4.800
 3781SOL     OW11470   6.063   5.852   5.052
 3781SOL    HW111471   6.111   5.874   5.132
 3781SOL    HW211472   6.008   5.778   5.077
 3782SOL     OW11473   4.880   7.257   2.166
 3782SOL    HW111474   4.798   7.293   2.133
 3782SOL    HW211475   4.861   7.233   2.257
 3783SOL     OW11476   6.643   4.714   3.164
 3783SOL    HW111477   6.664   4.683   3.252
 3783SOL    HW211478   6.707   4.669   3.108
 3784SOL     OW11479   6.543   2.576   2.473
 3784SOL    HW111480   6.486   2.622   2.412
 3784SOL    HW211481   6.496   2.578   2.556
 3785SOL     OW11482   6.151   7.073   2.390
 3785SOL    HW111483   6.238   7.057   2.427
 3785SOL    HW211484   6.106   7.126   2.455
 3786SOL     OW11485   4.609   1.289   4.331
 3786SOL    HW111486   4.593   1.201   4.363
 3786SOL    HW211487   4.570   1.347   4.396
 3787SOL     OW11488   3.920   3.870   4.124
 3787SOL    HW111489   3.863   3.818   4.067
 3787SOL    HW211490   3.906   3.835   4.212
 3788SOL     OW11491   6.864   5.240   3.354
 3788SOL    HW111492   6.912   5.161   3.380
 3788SOL    HW211493   6.926   5.289   3.301
 3789SOL     OW11494   2.738   6.323   2.531
 3789SOL    HW111495   2.671   6.371   2.482
 3789SOL    HW211496   2.787   6.276   2.463
 3790SOL     OW11497   4.206   0.045   5.023
 3790SOL    HW111498   4.167   0.035   5.110
 3790SOL    HW211499   4.217  -0.044   4.991
 3791SOL     OW11500   6.206   4.531   5.107
 3791SOL    HW111501   6.205   4.621   5.137
 3791SOL    HW211502   6.179   4.479   5.183
 3792SOL     OW11503   3.971   0.607   3.316
 3792SOL    HW111504   3.943   0.517   3.297
 3792SOL    HW211505   3.949   0.657   3.238
 3793SOL     OW11506   3.710   5.879   2.399
 3793SOL    HW111507   3.643   5.814   2.419
 3793SOL    HW211508   3.793   5.831   2.407
 3794SOL     OW11509  10.246   5.060   4.128
 3794SOL    HW111510  10.257   4.965   4.131
 3794SOL    HW211511  10.207   5.077   4.042
 3795SOL     OW11512   3.678   5.695   3.565
 3795SOL    HW111513   3.592   5.655   3.555
 3795SOL    HW211514   3.660   5.779   3.608
 3796SOL     OW11515   1.525   6.482   0.631
 3796SOL    HW111516   1.471   6.413   0.670
 3796SOL    HW211517   1.580   6.437   0.567
 3797SOL     OW11518   8.856   0.311   2.660
 3797SOL    HW111519   8.852   0.395   2.707
 3797SOL    HW211520   8.768   0.276   2.668
 3798SOL     OW11521  10.698   3.047   5.188
 3798SOL    HW111522  10.635   3.047   5.260
 3798SOL    HW211523  10.722   2.955   5.176
 3799SOL     OW11524   5.779   5.210   4.956
 3799SOL    HW111525   5.839   5.269   5.001
 3799SOL    HW211526   5.797   5.124   4.994
 3800SOL     OW11527   6.773   1.727   2.866
 3800SOL    HW111528   6.860   1.756   2.891
 3800SOL    HW211529   6.787   1.642   2.824
 3801SOL     OW11530   9.502   2.233   5.157
 3801SOL    HW111531   9.467   2.152   5.121
 3801SOL    HW211532   9.541   2.278   5.082
 3802SOL     OW11533   5.187   7.263   3.364
 3802SOL    HW111534   5.234   7.205   3.304
 3802SOL    HW211535   5.134   7.319   3.306
 3803SOL     OW11536   5.238   3.486   1.461
 3803SOL    HW111537   5.317   3.432   1.462
 3803SOL    HW211538   5.208   3.486   1.552
 3804SOL     OW11539   4.430   6.944   3.709
 3804SOL    HW111540   4.463   6.884   3.776
 3804SOL    HW211541   4.358   6.896   3.667
 3805SOL     OW11542   6.835   7.084   2.120
 3805SOL    HW111543   6.830   7.027   2.043
 3805SOL    HW211544   6.895   7.039   2.179
 3806SOL     OW11545   5.177   1.087   1.361
 3806SOL    HW111546   5.240   1.121   1.425
 3806SOL    HW211547   5.217   1.005   1.331
 3807SOL     OW11548   8.776   6.849   3.158
 3807SOL    HW111549   8.712   6.814   3.219
 3807SOL    HW211550   8.821   6.772   3.122
 3808SOL     OW11551   1.070   4.013   1.367
 3808SOL    HW111552   1.154   4.012   1.321
 3808SOL    HW211553   1.088   4.059   1.449
 3809SOL     OW11554   9.903   1.793   3.998
 3809SOL    HW111555   9.867   1.803   4.087
 3809SOL    HW211556   9.882   1.703   3.974
 3810SOL     OW11557   9.216   0.569   4.913
 3810SOL    HW111558   9.231   0.662   4.930
 3810SOL    HW211559   9.273   0.523   4.975
 3811SOL     OW11560   4.472   3.112   2.207
 3811SOL    HW111561   4.528   3.190   2.202
 3811SOL    HW211562   4.444   3.097   2.117
 3812SOL     OW11563   1.787   7.094   0.312
 3812SOL    HW111564   1.716   7.125   0.256
 3812SOL    HW211565   1.748   7.088   0.399
 3813SOL     OW11566   2.528   1.750   2.086
 3813SOL    HW111567   2.477   1.702   2.151
 3813SOL    HW211568   2.464   1.781   2.022
 3814SOL     OW11569   7.182   4.084   0.215
 3814SOL    HW111570   7.175   3.992   0.239
 3814SOL    HW211571   7.146   4.089   0.127
 3815SOL     OW11572   8.591   0.457   4.599
 3815SOL    HW111573   8.643   0.517   4.545
 3815SOL    HW211574   8.601   0.372   4.556
 3816SOL     OW11575   6.045   6.329   0.328
 3816SOL    HW111576   6.111   6.260   0.331
 3816SOL    HW211577   6.090   6.408   0.357
 3817SOL     OW11578   8.875   4.587   4.824
 3817SOL    HW111579   8.896   4.573   4.732
 3817SOL    HW211580   8.868   4.682   4.834
 3818SOL     OW11581   6.266   4.563   1.959
 3818SOL    HW111582   6.322   4.595   2.030
 3818SOL    HW211583   6.304   4.601   1.880
 3819SOL     OW11584   9.716   2.736   4.759
 3819SOL    HW111585   9.632   2.694   4.780
 3819SOL    HW211586   9.780   2.689   4.812
 3820SOL     OW11587   7.493   3.184   3.184
 3820SOL    HW111588   7.475   3.117   3.118
 3820SOL    HW211589   7.567   3.150   3.234
 3821SOL     OW11590   4.643   7.369   2.043
 3821SOL    HW111591   4.600   7.287   2.019
 3821SOL    HW211592   4.571   7.432   2.052
 3822SOL     OW11593   2.319   2.439   2.497
 3822SOL    HW111594   2.390   2.462   2.557
 3822SOL    HW211595   2.250   2.503   2.516
 3823SOL     OW11596   5.508   5.959   0.633
 3823SOL    HW111597   5.460   5.897   0.578
 3823SOL    HW211598   5.469   5.949   0.720
 3824SOL     OW11599   6.569   4.475   1.097
 3824SOL    HW111600   6.563   4.457   1.191
 3824SOL    HW211601   6.662   4.464   1.077
 3825SOL     OW11602   3.409   0.445   2.096
 3825SOL    HW111603   3.430   0.371   2.039
 3825SOL    HW211604   3.444   0.522   2.051
 3826SOL     OW11605   2.969   6.492   2.002
 3826SOL    HW111606   3.016   6.453   1.927
 3826SOL    HW211607   2.996   6.439   2.077
 3827SOL     OW11608   7.319   1.404   1.542
 3827SOL    HW111609   7.395   1.447   1.503
 3827SOL    HW211610   7.352   1.365   1.623
 3828SOL     OW11611   5.682   6.945   2.324
 3828SOL    HW111612   5.622   6.941   2.249
 3828SOL    HW211613   5.630   6.913   2.398
 3829SOL     OW11614   2.686   4.950   0.549
 3829SOL    HW111615   2.688   5.045   0.541
 3829SOL    HW211616   2.595   4.930   0.570
 3830SOL     OW11617   6.991   5.609   3.519
 3830SOL    HW111618   6.979   5.540   3.454
 3830SOL    HW211619   7.077   5.646   3.499
 3831SOL     OW11620   7.433   0.192   4.320
 3831SOL    HW111621   7.386   0.145   4.251
 3831SOL    HW211622   7.365   0.215   4.384
 3832SOL     OW11623   8.956   2.781   4.540
 3832SOL    HW111624   8.987   2.696   4.509
 3832SOL    HW211625   8.866   2.765   4.569
 3833SOL     OW11626   3.001   3.492   3.567
 3833SOL    HW111627   3.038   3.495   3.479
 3833SOL    HW211628   2.965   3.403   3.575
 3834SOL     OW11629   6.560   7.139   3.765
 3834SOL    HW111630   6.591   7.049   3.753
 3834SOL    HW211631   6.554   7.174   3.676
 3835SOL     OW11632   5.551   5.068   2.568
 3835SOL    HW111633   5.541   5.022   2.651
 3835SOL    HW211634   5.483   5.030   2.512
 3836SOL     OW11635  10.083   3.504   4.423
 3836SOL    HW111636  10.016   3.436   4.420
 3836SOL    HW211637  10.105   3.521   4.332
 3837SOL     OW11638   4.619   1.684   3.010
 3837SOL    HW111639   4.596   1.616   3.073
 3837SOL    HW211640   4.542   1.741   3.007
 3838SOL     OW11641   1.840   3.020   1.024
 3838SOL    HW111642   1.895   3.030   1.102
 3838SOL    HW211643   1.872   2.939   0.983
 3839SOL     OW11644   6.980   2.186   1.736
 3839SOL    HW111645   6.903   2.139   1.704
 3839SOL    HW211646   6.996   2.148   1.822
 3840SOL     OW11647   9.195   3.421   4.321
 3840SOL    HW111648   9.204   3.517   4.320
 3840SOL    HW211649   9.200   3.396   4.229
 3841SOL     OW11650   5.948   6.504   5.155
 3841SOL    HW111651   5.999   6.469   5.228
 3841SOL    HW211652   5.985   6.462   5.078
 3842SOL     OW11653   2.813   3.855   2.899
 3842SOL    HW111654   2.814   3.931   2.958
 3842SOL    HW211655   2.746   3.797   2.937
 3843SOL     OW11656   2.316   2.834   2.738
 3843SOL    HW111657   2.225   2.824   2.711
 3843SOL    HW211658   2.339   2.923   2.713
 3844SOL     OW11659   7.042   5.969   2.033
 3844SOL    HW111660   6.959   5.959   2.082
 3844SOL    HW211661   7.038   5.901   1.966
 3845SOL     OW11662   8.763   6.742   3.493
 3845SOL    HW111663   8.827   6.673   3.513
 3845SOL    HW211664   8.718   6.710   3.415
 3846SOL     OW11665   7.455   4.116   2.289
 3846SOL    HW111666   7.384   4.053   2.305
 3846SOL    HW211667   7.414   4.202   2.299
 3847SOL     OW11668   5.133   0.217   4.506
 3847SOL    HW111669   5.163   0.241   4.418
 3847SOL    HW211670   5.211   0.223   4.560
 3848SOL     OW11671   5.140   6.932   2.861
 3848SOL    HW111672   5.232   6.924   2.888
 3848SOL    HW211673   5.095   6.861   2.906
 3849SOL     OW11674   8.152   2.476   3.788
 3849SOL    HW111675   8.180   2.510   3.703
 3849SOL    HW211676   8.056   2.475   3.783
 3850SOL     OW11677   2.499   4.332   3.092
 3850SOL    HW111678   2.502   4.349   3.186
 3850SOL    HW211679   2.528   4.414   3.051
 3851SOL     OW11680   3.749   7.302   1.640
 3851SOL    HW111681   3.837   7.265   1.643
 3851SOL    HW211682   3.762   7.393   1.617
 3852SOL     OW11683  10.749   4.010   5.275
 3852SOL    HW111684  10.819   4.075   5.286
 3852SOL    HW211685  10.796   3.928   5.261
 3853SOL     OW11686   5.895   7.250   1.335
 3853SOL    HW111687   5.885   7.341   1.363
 3853SOL    HW211688   5.805   7.219   1.322
 3854SOL     OW11689   7.906   2.309   2.518
 3854SOL    HW111690   7.959   2.337   2.592
 3854SOL    HW211691   7.957   2.241   2.475
 3855SOL     OW11692   6.346   4.228   2.772
 3855SOL    HW111693   6.362   4.139   2.741
 3855SOL    HW211694   6.274   4.219   2.834
 3856SOL     OW11695   7.422   2.223   1.428
 3856SOL    HW111696   7.454   2.269   1.506
 3856SOL    HW211697   7.390   2.293   1.371
 3857SOL     OW11698   6.729   5.149   4.372
 3857SOL    HW111699   6.709   5.067   4.416
 3857SOL    HW211700   6.743   5.124   4.281
 3858SOL     OW11701   7.262   2.095   2.992
 3858SOL    HW111702   7.188   2.079   2.933
 3858SOL    HW211703   7.337   2.056   2.949
 3859SOL     OW11704   5.240   2.004   2.131
 3859SOL    HW111705   5.278   2.074   2.078
 3859SOL    HW211706   5.148   2.028   2.139
 3860SOL     OW11707   5.492   1.692   0.787
 3860SOL    HW111708   5.469   1.707   0.878
 3860SOL    HW211709   5.587   1.701   0.785
 3861SOL     OW11710   4.410   7.381   1.472
 3861SOL    HW111711   4.339   7.318   1.484
 3861SOL    HW211712   4.437   7.405   1.561
 3862SOL     OW11713   8.341   1.129   2.425
 3862SOL    HW111714   8.299   1.187   2.489
 3862SOL    HW211715   8.268   1.088   2.378
 3863SOL     OW11716   6.574   6.872   3.605
 3863SOL    HW111717   6.599   6.782   3.626
 3863SOL    HW211718   6.596   6.882   3.513
 3864SOL     OW11719   3.484   6.076   2.329
 3864SOL    HW111720   3.555   6.021   2.362
 3864SOL    HW211721   3.530   6.145   2.280
 3865SOL     OW11722   9.361   2.205   4.746
 3865SOL    HW111723   9.287   2.166   4.700
 3865SOL    HW211724   9.323   2.277   4.796
 3866SOL     OW11725   7.653   5.741   0.285
 3866SOL    HW111726   7.662   5.646   0.297
 3866SOL    HW211727   7.562   5.759   0.309
 3867SOL     OW11728   5.352   2.874   4.360
 3867SOL    HW111729   5.358   2.937   4.432
 3867SOL    HW211730   5.442   2.843   4.348
 3868SOL     OW11731   7.496   6.334   3.760
 3868SOL    HW111732   7.441   6.320   3.684
 3868SOL    HW211733   7.437   6.368   3.828
 3869SOL     OW11734   2.765   2.100   2.496
 3869SOL    HW111735   2.798   2.047   2.569
 3869SOL    HW211736   2.819   2.179   2.497
 3870SOL     OW11737   5.593   5.025   0.795
 3870SOL    HW111738   5.683   5.011   0.825
 3870SOL    HW211739   5.601   5.038   0.700
 3871SOL     OW11740   5.032   4.740   4.224
 3871SOL    HW111741   5.021   4.747   4.129
 3871SOL    HW211742   4.985   4.816   4.259
 3872SOL     OW11743   4.606   3.082   0.839
 3872SOL    HW111744   4.525   3.106   0.884
 3872SOL    HW211745   4.654   3.028   0.902
 3873SOL     OW11746   7.335   4.891   0.388
 3873SOL    HW111747   7.274   4.832   0.343
 3873SOL    HW211748   7.358   4.844   0.468
 3874SOL     OW11749   9.016   2.306   4.897
 3874SOL    HW111750   8.989   2.231   4.950
 3874SOL    HW211751   9.110   2.313   4.912
 3875SOL     OW11752   5.568   4.381   1.868
 3875SOL    HW111753   5.532   4.470   1.875
 3875SOL    HW211754   5.595   4.373   1.777
 3876SOL     OW11755   9.155   2.876   3.610
 3876SOL    HW111756   9.229   2.817   3.619
 3876SOL    HW211757   9.190   2.962   3.631
 3877SOL     OW11758   7.315   7.474   2.518
 3877SOL    HW111759   7.298   7.383   2.540
 3877SOL    HW211760   7.308   7.521   2.601
 3878SOL     OW11761   4.690   2.087   4.871
 3878SOL    HW111762   4.733   2.172   4.865
 3878SOL    HW211763   4.644   2.078   4.787
 3879SOL     OW11764   9.527   1.816   3.188
 3879SOL    HW111765   9.622   1.813   3.174
 3879SOL    HW211766   9.509   1.908   3.208
 3880SOL     OW11767   7.130   2.385   3.820
 3880SOL    HW111768   7.207   2.376   3.764
 3880SOL    HW211769   7.145   2.466   3.869
 3881SOL     OW11770   7.313   2.860   2.297
 3881SOL    HW111771   7.262   2.903   2.366
 3881SOL    HW211772   7.404   2.883   2.317
 3882SOL     OW11773  10.166   1.007   4.761
 3882SOL    HW111774  10.077   1.013   4.795
 3882SOL    HW211775  10.221   0.997   4.838
 3883SOL     OW11776   5.758   0.468   4.836
 3883SOL    HW111777   5.665   0.481   4.853
 3883SOL    HW211778   5.780   0.534   4.770
 3884SOL     OW11779   3.725   6.038   4.031
 3884SOL    HW111780   3.693   6.090   3.957
 3884SOL    HW211781   3.747   6.104   4.098
 3885SOL     OW11782  10.047   3.135   4.313
 3885SOL    HW111783  10.093   3.058   4.347
 3885SOL    HW211784  10.056   3.127   4.218
 3886SOL     OW11785   6.364   2.180   1.317
 3886SOL    HW111786   6.393   2.243   1.384
 3886SOL    HW211787   6.282   2.144   1.352
 3887SOL     OW11788   6.661   2.370   5.180
 3887SOL    HW111789   6.685   2.441   5.240
 3887SOL    HW211790   6.566   2.369   5.180
 3888SOL     OW11791   7.149   0.363   3.913
 3888SOL    HW111792   7.144   0.346   3.819
 3888SOL    HW211793   7.060   0.345   3.945
 3889SOL     OW11794   2.970   5.190   2.738
 3889SOL    HW111795   2.887   5.202   2.691
 3889SOL    HW211796   2.944   5.168   2.827
 3890SOL     OW11797   8.083   1.876   2.640
 3890SOL    HW111798   8.026   1.827   2.699
 3890SOL    HW211799   8.135   1.809   2.596
 3891SOL     OW11800   4.227   7.084   2.840
 3891SOL    HW111801   4.160   7.038   2.789
 3891SOL    HW211802   4.181   7.111   2.920
 3892SOL     OW11803   4.782   3.486   2.823
 3892SOL    HW111804   4.692   3.516   2.827
 3892SOL    HW211805   4.778   3.393   2.843
 3893SOL     OW11806   7.358   6.029   1.173
 3893SOL    HW111807   7.440   6.072   1.151
 3893SOL    HW211808   7.316   6.012   1.089
 3894SOL     OW11809   3.726   1.478   2.723
 3894SOL    HW111810   3.683   1.400   2.688
 3894SOL    HW211811   3.685   1.492   2.808
 3895SOL     OW11812   3.189   0.290   0.585
 3895SOL    HW111813   3.165   0.223   0.520
 3895SOL    HW211814   3.113   0.349   0.587
 3896SOL     OW11815   1.699   5.558   0.765
 3896SOL    HW111816   1.646   5.578   0.842
 3896SOL    HW211817   1.640   5.572   0.690
 3897SOL     OW11818   5.614   0.671   0.997
 3897SOL    HW111819   5.704   0.698   1.014
 3897SOL    HW211820   5.585   0.631   1.079
 3898SOL     OW11821   3.912   1.049   3.703
 3898SOL    HW111822   3.872   1.082   3.622
 3898SOL    HW211823   3.969   1.121   3.732
 3899SOL     OW11824   7.218   3.713   3.402
 3899SOL    HW111825   7.309   3.700   3.373
 3899SOL    HW211826   7.206   3.649   3.472
 3900SOL     OW11827   8.523   1.890   2.908
 3900SOL    HW111828   8.439   1.932   2.889
 3900SOL    HW211829   8.511   1.800   2.880
 3901SOL     OW11830   5.267   2.027   4.006
 3901SOL    HW111831   5.214   1.954   3.972
 3901SOL    HW211832   5.251   2.098   3.944
 3902SOL     OW11833   1.689   6.502   0.375
 3902SOL    HW111834   1.643   6.553   0.309
 3902SOL    HW211835   1.730   6.431   0.326
 3903SOL     OW11836   8.560   3.310   2.025
 3903SOL    HW111837   8.517   3.391   2.052
 3903SOL    HW211838   8.564   3.257   2.105
 3904SOL     OW11839   7.489   4.461   0.590
 3904SOL    HW111840   7.415   4.405   0.610
 3904SOL    HW211841   7.512   4.441   0.500
 3905SOL     OW11842   7.534   7.148   3.823
 3905SOL    HW111843   7.461   7.098   3.787
 3905SOL    HW211844   7.493   7.225   3.863
 3906SOL     OW11845   5.162   3.155   1.597
 3906SOL    HW111846   5.155   3.093   1.669
 3906SOL    HW211847   5.250   3.191   1.604
 3907SOL     OW11848   8.680   0.646   3.098
 3907SOL    HW111849   8.610   0.660   3.162
 3907SOL    HW211850   8.733   0.725   3.102
 3908SOL     OW11851   6.851   4.447   4.847
 3908SOL    HW111852   6.820   4.443   4.937
 3908SOL    HW211853   6.774   4.428   4.794
 3909SOL     OW11854   8.426   0.581   1.572
 3909SOL    HW111855   8.381   0.503   1.605
 3909SOL    HW211856   8.496   0.547   1.516
 3910SOL     OW11857   5.774   0.878   2.683
 3910SOL    HW111858   5.865   0.906   2.690
 3910SOL    HW211859   5.756   0.877   2.588
 3911SOL     OW11860   6.987   5.098   2.735
 3911SOL    HW111861   7.026   5.178   2.698
 3911SOL    HW211862   6.959   5.124   2.823
 3912SOL     OW11863   5.189   5.157   0.818
 3912SOL    HW111864   5.195   5.078   0.871
 3912SOL    HW211865   5.199   5.229   0.880
 3913SOL     OW11866   4.928   3.613   1.520
 3913SOL    HW111867   4.996   3.564   1.472
 3913SOL    HW211868   4.876   3.545   1.563
 3914SOL     OW11869   8.028   0.910   3.598
 3914SOL    HW111870   8.021   0.855   3.676
 3914SOL    HW211871   8.110   0.958   3.609
 3915SOL     OW11872   9.655   1.750   5.117
 3915SOL    HW111873   9.566   1.781   5.101
 3915SOL    HW211874   9.695   1.745   5.030
 3916SOL     OW11875   7.306   6.342   2.890
 3916SOL    HW111876   7.334   6.432   2.876
 3916SOL    HW211877   7.321   6.299   2.805
 3917SOL     OW11878   3.468   1.978   1.227
 3917SOL    HW111879   3.553   1.935   1.216
 3917SOL    HW211880   3.479   2.064   1.186
 3918SOL     OW11881   7.733   3.121   0.622
 3918SOL    HW111882   7.742   3.035   0.581
 3918SOL    HW211883   7.645   3.151   0.596
 3919SOL     OW11884   7.110   7.256   0.470
 3919SOL    HW111885   7.080   7.225   0.556
 3919SOL    HW211886   7.108   7.178   0.415
 3920SOL     OW11887   9.329   7.020   4.622
 3920SOL    HW111888   9.328   6.942   4.677
 3920SOL    HW211889   9.389   6.999   4.550
 3921SOL     OW11890   3.701   5.342   0.842
 3921SOL    HW111891   3.628   5.281   0.850
 3921SOL    HW211892   3.737   5.348   0.930
 3922SOL     OW11893   3.509   1.678   4.740
 3922SOL    HW111894   3.477   1.763   4.710
 3922SOL    HW211895   3.514   1.686   4.835
 3923SOL     OW11896   4.388   4.947   4.877
 3923SOL    HW111897   4.417   4.870   4.829
 3923SOL    HW211898   4.302   4.967   4.840
 3924SOL     OW11899   6.839   0.989   0.490
 3924SOL    HW111900   6.829   0.931   0.414
 3924SOL    HW211901   6.932   0.986   0.510
 3925SOL     OW11902   4.384   0.014   3.259
 3925SOL    HW111903   4.445  -0.012   3.328
 3925SOL    HW211904   4.408   0.104   3.238
 3926SOL     OW11905   4.836   0.869   0.991
 3926SOL    HW111906   4.904   0.807   1.017
 3926SOL    HW211907   4.772   0.867   1.063
 3927SOL     OW11908   6.771   2.646   3.027
 3927SOL    HW111909   6.832   2.719   3.014
 3927SOL    HW211910   6.815   2.588   3.089
 3928SOL     OW11911   1.820   2.498   0.144
 3928SOL    HW111912   1.850   2.589   0.148
 3928SOL    HW211913   1.852   2.465   0.060
 3929SOL     OW11914   7.173   2.016   4.712
 3929SOL    HW111915   7.261   1.980   4.720
 3929SOL    HW211916   7.136   1.972   4.635
 3930SOL     OW11917   1.978   5.045   2.013
 3930SOL    HW111918   2.015   5.027   1.927
 3930SOL    HW211919   1.883   5.036   2.000
 3931SOL     OW11920   4.537   2.324   1.498
 3931SOL    HW111921   4.503   2.243   1.535
 3931SOL    HW211922   4.614   2.298   1.449
 3932SOL     OW11923   3.870   2.133   3.861
 3932SOL    HW111924   3.830   2.215   3.890
 3932SOL    HW211925   3.822   2.064   3.908
 3933SOL     OW11926   9.122   3.072   3.890
 3933SOL    HW111927   9.096   3.109   3.805
 3933SOL    HW211928   9.217   3.083   3.893
 3934SOL     OW11929   4.299   3.149   4.994
 3934SOL    HW111930   4.253   3.135   5.077
 3934SOL    HW211931   4.231   3.183   4.935
 3935SOL     OW11932   9.028   0.622   5.192
 3935SOL    HW111933   8.977   0.547   5.221
 3935SOL    HW211934   8.965   0.695   5.192
 3936SOL     OW11935   8.883   4.716   4.450
 3936SOL    HW111936   8.943   4.773   4.401
 3936SOL    HW211937   8.828   4.777   4.500
 3937SOL     OW11938   3.876   3.729   0.487
 3937SOL    HW111939   3.941   3.704   0.552
 3937SOL    HW211940   3.799   3.755   0.540
 3938SOL     OW11941   8.605   3.444   5.159
 3938SOL    HW111942   8.556   3.491   5.227
 3938SOL    HW211943   8.658   3.511   5.116
 3939SOL     OW11944   2.112   4.335   0.921
 3939SOL    HW111945   2.135   4.354   0.830
 3939SOL    HW211946   2.189   4.291   0.956
 3940SOL     OW11947  11.000   4.122   5.206
 3940SOL    HW111948  10.990   4.063   5.132
 3940SOL    HW211949  11.080   4.091   5.251
 3941SOL     OW11950   4.982   7.366   2.565
 3941SOL    HW111951   5.042   7.341   2.636
 3941SOL    HW211952   4.921   7.293   2.558
 3942SOL     OW11953   3.478   6.316   1.235
 3942SOL    HW111954   3.393   6.273   1.242
 3942SOL    HW211955   3.465   6.401   1.278
 3943SOL     OW11956   5.369   2.371   4.217
 3943SOL    HW111957   5.308   2.350   4.146
 3943SOL    HW211958   5.312   2.399   4.289
 3944SOL     OW11959   8.787   1.685   4.978
 3944SOL    HW111960   8.806   1.622   5.047
 3944SOL    HW211961   8.738   1.754   5.022
 3945SOL     OW11962   9.369   6.884   5.207
 3945SOL    HW111963   9.286   6.853   5.242
 3945SOL    HW211964   9.364   6.979   5.213
 3946SOL     OW11965   6.562   2.487   3.285
 3946SOL    HW111966   6.637   2.457   3.337
 3946SOL    HW211967   6.597   2.499   3.197
 3947SOL     OW11968   2.387   3.663   1.698
 3947SOL    HW111969   2.321   3.709   1.750
 3947SOL    HW211970   2.415   3.590   1.753
 3948SOL     OW11971   5.588   4.480   5.061
 3948SOL    HW111972   5.517   4.416   5.062
 3948SOL    HW211973   5.555   4.554   5.111
 3949SOL     OW11974   4.542   6.647   1.015
 3949SOL    HW111975   4.488   6.567   1.017
 3949SOL    HW211976   4.533   6.683   1.104
 3950SOL     OW11977   5.961   2.752   4.294
 3950SOL    HW111978   5.920   2.750   4.381
 3950SOL    HW211979   5.976   2.844   4.276
 3951SOL     OW11980   2.053   7.373   0.689
 3951SOL    HW111981   2.050   7.284   0.654
 3951SOL    HW211982   1.994   7.423   0.633
 3952SOL     OW11983   2.798   0.883   3.198
 3952SOL    HW111984   2.733   0.822   3.234
 3952SOL    HW211985   2.855   0.904   3.272
 3953SOL     OW11986   5.549   7.016   4.205
 3953SOL    HW111987   5.510   6.945   4.153
 3953SOL    HW211988   5.636   7.029   4.167
 3954SOL     OW11989   1.949   2.476   0.924
 3954SOL    HW111990   1.973   2.384   0.908
 3954SOL    HW211991   1.951   2.517   0.838
 3955SOL     OW11992   7.076   7.044   3.686
 3955SOL    HW111993   7.064   6.950   3.670
 3955SOL    HW211994   7.040   7.086   3.607
 3956SOL     OW11995   2.911   3.680   2.364
 3956SOL    HW111996   2.904   3.762   2.314
 3956SOL    HW211997   2.986   3.694   2.422
 3957SOL     OW11998   9.961   4.250   4.919
 3957SOL    HW111999   9.883   4.300   4.942
 3957SOL    HW212000   9.948   4.226   4.827
 3958SOL     OW12001   8.355   2.203   5.227
 3958SOL    HW112002   8.288   2.138   5.251
 3958SOL    HW212003   8.309   2.287   5.232
 3959SOL     OW12004   7.537   6.539   3.584
 3959SOL    HW112005   7.519   6.456   3.539
 3959SOL    HW212006   7.583   6.513   3.663
 3960SOL     OW12007   2.035   6.155   2.199
 3960SOL    HW112008   2.042   6.083   2.262
 3960SOL    HW212009   1.951   6.141   2.156
 3961SOL     OW12010   9.234   4.902   2.535
 3961SOL    HW112011   9.324   4.882   2.510
 3961SOL    HW212012   9.241   4.975   2.596
 3962SOL     OW12013   8.333   0.595   2.186
 3962SOL    HW112014   8.304   0.568   2.099
 3962SOL    HW212015   8.273   0.667   2.210
 3963SOL     OW12016   1.999   5.588   1.671
 3963SOL    HW112017   1.966   5.606   1.583
 3963SOL    HW212018   2.055   5.663   1.692
 3964SOL     OW12019   6.298   3.239   1.182
 3964SOL    HW112020   6.387   3.204   1.180
 3964SOL    HW212021   6.242   3.164   1.161
 3965SOL     OW12022   7.602   4.673   4.822
 3965SOL    HW112023   7.577   4.728   4.748
 3965SOL    HW212024   7.687   4.707   4.850
 3966SOL     OW12025  10.517   5.069   4.645
 3966SOL    HW112026  10.482   5.035   4.728
 3966SOL    HW212027  10.602   5.026   4.635
 3967SOL     OW12028   1.261   2.971   1.135
 3967SOL    HW112029   1.260   2.881   1.103
 3967SOL    HW212030   1.169   2.990   1.155
 3968SOL     OW12031   4.756   4.989   4.963
 3968SOL    HW112032   4.840   4.944   4.966
 3968SOL    HW212033   4.693   4.921   4.938
 3969SOL     OW12034   8.140   1.693   3.233
 3969SOL    HW112035   8.105   1.613   3.272
 3969SOL    HW212036   8.210   1.663   3.176
 3970SOL     OW12037   7.028   5.596   0.111
 3970SOL    HW112038   6.982   5.665   0.157
 3970SOL    HW212039   7.102   5.640   0.068
 3971SOL     OW12040   6.204   1.818   4.582
 3971SOL    HW112041   6.233   1.909   4.575
 3971SOL    HW212042   6.190   1.791   4.491
 3972SOL     OW12043   4.054   5.559   1.355
 3972SOL    HW112044   4.037   5.642   1.310
 3972SOL    HW212045   4.117   5.581   1.423
 3973SOL     OW12046   7.376   4.097   2.682
 3973SOL    HW112047   7.282   4.097   2.700
 3973SOL    HW212048   7.416   4.093   2.769
 3974SOL     OW12049   1.338   6.614   0.026
 3974SOL    HW112050   1.269   6.636   0.089
 3974SOL    HW212051   1.323   6.523   0.004
 3975SOL     OW12052   4.723   0.341   2.659
 3975SOL    HW112053   4.719   0.256   2.615
 3975SOL    HW212054   4.807   0.378   2.632
 3976SOL     OW12055   5.862   0.922   2.014
 3976SOL    HW112056   5.858   1.017   2.002
 3976SOL    HW212057   5.813   0.886   1.941
 3977SOL     OW12058   9.295   3.164   3.017
 3977SOL    HW112059   9.328   3.173   3.106
 3977SOL    HW212060   9.254   3.248   2.997
 3978SOL     OW12061   0.766   0.346   0.561
 3978SOL    HW112062   0.770   0.367   0.654
 3978SOL    HW212063   0.856   0.357   0.530
 3979SOL     OW12064   6.427   3.763   3.568
 3979SOL    HW112065   6.426   3.816   3.647
 3979SOL    HW212066   6.504   3.792   3.519
 3980SOL     OW12067   3.410   6.364   2.969
 3980SOL    HW112068   3.482   6.422   2.942
 3980SOL    HW212069   3.361   6.415   3.034
 3981SOL     OW12070   7.953   2.243   3.133
 3981SOL    HW112071   7.938   2.170   3.074
 3981SOL    HW212072   8.015   2.209   3.198
 3982SOL     OW12073   4.397   2.178   0.670
 3982SOL    HW112074   4.452   2.231   0.727
 3982SOL    HW212075   4.310   2.182   0.711
 3983SOL     OW12076   6.356   5.249   3.075
 3983SOL    HW112077   6.440   5.293   3.065
 3983SOL    HW212078   6.369   5.187   3.147
 3984SOL     OW12079   8.697   4.685   4.157
 3984SOL    HW112080   8.653   4.650   4.234
 3984SOL    HW212081   8.760   4.618   4.133
 3985SOL     OW12082   2.045   5.851   1.511
 3985SOL    HW112083   2.118   5.806   1.470
 3985SOL    HW212084   2.022   5.922   1.450
 3986SOL     OW12085   3.452   4.730   2.397
 3986SOL    HW112086   3.448   4.645   2.354
 3986SOL    HW212087   3.387   4.783   2.351
 3987SOL     OW12088   6.191   1.697   0.137
 3987SOL    HW112089   6.268   1.749   0.112
 3987SOL    HW212090   6.122   1.761   0.151
 3988SOL     OW12091   2.845   2.615   3.684
 3988SOL    HW112092   2.846   2.522   3.661
 3988SOL    HW212093   2.822   2.659   3.602
 3989SOL     OW12094   5.235   5.538   2.266
 3989SOL    HW112095   5.321   5.509   2.236
 3989SOL    HW212096   5.254   5.592   2.343
 3990SOL     OW12097   8.702   4.420   3.955
 3990SOL    HW112098   8.773   4.414   4.018
 3990SOL    HW212099   8.734   4.373   3.878
 3991SOL     OW12100   7.807   5.269   2.955
 3991SOL    HW112101   7.778   5.234   3.039
 3991SOL    HW212102   7.857   5.198   2.915
 3992SOL     OW12103   8.067   3.687   3.822
 3992SOL    HW112104   7.991   3.732   3.858
 3992SOL    HW212105   8.067   3.601   3.864
 3993SOL     OW12106   4.175   1.485   0.579
 3993SOL    HW112107   4.145   1.468   0.668
 3993SOL    HW212108   4.161   1.402   0.533
 3994SOL     OW12109   8.052   0.802   2.522
 3994SOL    HW112110   7.981   0.829   2.581
 3994SOL    HW212111   8.130   0.801   2.577
 3995SOL     OW12112   7.180   2.319   2.459
 3995SOL    HW112113   7.223   2.316   2.544
 3995SOL    HW212114   7.124   2.242   2.457
 3996SOL     OW12115   4.391   0.480   2.830
 3996SOL    HW112116   4.451   0.443   2.895
 3996SOL    HW212117   4.447   0.510   2.759
 3997SOL     OW12118   5.547   6.469   4.819
 3997SOL    HW112119   5.639   6.449   4.838
 3997SOL    HW212120   5.548   6.562   4.795
 3998SOL     OW12121   7.033   6.594   0.334
 3998SOL    HW112122   6.971   6.621   0.402
 3998SOL    HW212123   7.113   6.574   0.382
 3999SOL     OW12124   1.285   3.253   0.086
 3999SOL    HW112125   1.364   3.254   0.139
 3999SOL    HW212126   1.220   3.301   0.138
 4000SOL     OW12127   6.281   3.943   1.753
 4000SOL    HW112128   6.312   3.991   1.676
 4000SOL    HW212129   6.249   3.860   1.718
 4001SOL     OW12130   6.228   3.109   2.776
 4001SOL    HW112131   6.166   3.130   2.845
 4001SOL    HW212132   6.299   3.173   2.788
 4002SOL     OW12133   6.354   6.601   5.103
 4002SOL    HW112134   6.437   6.576   5.144
 4002SOL    HW212135   6.333   6.529   5.045
 4003SOL     OW12136   3.778   0.228   4.469
 4003SOL    HW112137   3.869   0.250   4.490
 4003SOL    HW212138   3.782   0.140   4.431
 4004SOL     OW12139   0.732   6.708   0.118
 4004SOL    HW112140   0.671   6.635   0.109
 4004SOL    HW212141   0.757   6.707   0.210
 4005SOL     OW12142   3.185   2.086   1.295
 4005SOL    HW112143   3.200   2.016   1.231
 4005SOL    HW212144   3.224   2.052   1.376
 4006SOL     OW12145   7.920   2.272   3.431
 4006SOL    HW112146   7.939   2.178   3.420
 4006SOL    HW212147   8.007   2.313   3.431
 4007SOL     OW12148   4.517   7.156   1.982
 4007SOL    HW112149   4.600   7.108   1.975
 4007SOL    HW212150   4.471   7.136   1.900
 4008SOL     OW12151   8.776   6.978   2.925
 4008SOL    HW112152   8.798   6.909   2.987
 4008SOL    HW212153   8.685   7.001   2.945
 4009SOL     OW12154   8.021   1.286   3.687
 4009SOL    HW112155   7.926   1.277   3.689
 4009SOL    HW212156   8.040   1.346   3.759
 4010SOL     OW12157   2.767   3.599   0.619
 4010SOL    HW112158   2.781   3.505   0.632
 4010SOL    HW212159   2.775   3.612   0.525
 4011SOL     OW12160   5.520   3.926   0.072
 4011SOL    HW112161   5.596   3.983   0.059
 4011SOL    HW212162   5.496   3.939   0.164
 4012SOL     OW12163   7.543   2.295   4.725
 4012SOL    HW112164   7.491   2.215   4.715
 4012SOL    HW212165   7.505   2.357   4.663
 4013SOL     OW12166   9.720   1.867   4.209
 4013SOL    HW112167   9.702   1.794   4.150
 4013SOL    HW212168   9.644   1.925   4.199
 4014SOL     OW12169   5.815   2.680   3.476
 4014SOL    HW112170   5.892   2.687   3.534
 4014SOL    HW212171   5.805   2.586   3.462
 4015SOL     OW12172   2.158   4.450   2.397
 4015SOL    HW112173   2.182   4.507   2.324
 4015SOL    HW212174   2.093   4.500   2.446
 4016SOL     OW12175   4.739   4.740   4.191
 4016SOL    HW112176   4.662   4.726   4.248
 4016SOL    HW212177   4.765   4.830   4.209
 4017SOL     OW12178   9.301   5.307   4.303
 4017SOL    HW112179   9.206   5.320   4.294
 4017SOL    HW212180   9.328   5.273   4.217
 4018SOL     OW12181   3.906   1.261   5.196
 4018SOL    HW112182   3.906   1.180   5.144
 4018SOL    HW212183   3.925   1.232   5.285
 4019SOL     OW12184   7.243   0.868   3.231
 4019SOL    HW112185   7.252   0.960   3.255
 4019SOL    HW212186   7.315   0.852   3.170
 4020SOL     OW12187   1.533   3.783   1.276
 4020SOL    HW112188   1.607   3.742   1.233
 4020SOL    HW212189   1.469   3.712   1.287
 4021SOL     OW12190   1.966   3.785   0.338
 4021SOL    HW112191   1.879   3.799   0.300
 4021SOL    HW212192   2.017   3.744   0.269
 4022SOL     OW12193   8.227   4.822   4.949
 4022SOL    HW112194   8.311   4.784   4.973
 4022SOL    HW212195   8.233   4.837   4.855
 4023SOL     OW12196   3.772   5.817   2.005
 4023SOL    HW112197   3.803   5.726   2.014
 4023SOL    HW212198   3.814   5.863   2.078
 4024SOL     OW12199   7.777   3.891   0.996
 4024SOL    HW112200   7.831   3.818   0.965
 4024SOL    HW212201   7.702   3.891   0.938
 4025SOL     OW12202   6.778   3.623   0.799
 4025SOL    HW112203   6.726   3.653   0.873
 4025SOL    HW212204   6.716   3.575   0.744
 4026SOL     OW12205   6.201   1.266   4.433
 4026SOL    HW112206   6.227   1.318   4.356
 4026SOL    HW212207   6.283   1.230   4.466
 4027SOL     OW12208   4.429   3.575   4.527
 4027SOL    HW112209   4.442   3.521   4.449
 4027SOL    HW212210   4.466   3.660   4.504
 4028SOL     OW12211   8.737   1.902   3.315
 4028SOL    HW112212   8.733   1.964   3.388
 4028SOL    HW212213   8.803   1.937   3.256
 4029SOL     OW12214   5.056   6.232   0.931
 4029SOL    HW112215   4.990   6.205   0.995
 4029SOL    HW212216   5.021   6.202   0.847
 4030SOL     OW12217   6.380   2.686   0.875
 4030SOL    HW112218   6.337   2.602   0.860
 4030SOL    HW212219   6.397   2.687   0.970
 4031SOL     OW12220   5.426   3.285   5.189
 4031SOL    HW112221   5.480   3.217   5.149
 4031SOL    HW212222   5.453   3.366   5.145
 4032SOL     OW12223   8.522   3.363   4.206
 4032SOL    HW112224   8.496   3.343   4.296
 4032SOL    HW212225   8.484   3.449   4.189
 4033SOL     OW12226   3.769   7.056   4.069
 4033SOL    HW112227   3.836   7.101   4.018
 4033SOL    HW212228   3.686   7.094   4.040
 4034SOL     OW12229   7.249   4.535   2.353
 4034SOL    HW112230   7.281   4.448   2.379
 4034SOL    HW212231   7.155   4.524   2.344
 4035SOL     OW12232   8.919   4.379   5.191
 4035SOL    HW112233   8.974   4.425   5.128
 4035SOL    HW212234   8.952   4.406   5.276
 4036SOL     OW12235   7.665   6.152   2.836
 4036SOL    HW112236   7.653   6.247   2.844
 4036SOL    HW212237   7.591   6.123   2.783
 4037SOL     OW12238   4.995   6.532   1.013
 4037SOL    HW112239   4.954   6.502   0.932
 4037SOL    HW212240   5.008   6.452   1.064
 4038SOL     OW12241   6.784   3.531   2.107
 4038SOL    HW112242   6.849   3.568   2.048
 4038SOL    HW212243   6.753   3.605   2.159
 4039SOL     OW12244   5.180   6.518   3.432
 4039SOL    HW112245   5.213   6.561   3.354
 4039SOL    HW212246   5.160   6.589   3.493
 4040SOL     OW12247   4.676   1.492   2.041
 4040SOL    HW112248   4.644   1.438   2.113
 4040SOL    HW212249   4.711   1.570   2.084
 4041SOL     OW12250   5.930   3.867   2.012
 4041SOL    HW112251   5.940   3.774   1.991
 4041SOL    HW212252   5.888   3.904   1.934
 4042SOL     OW12253   1.770   4.704   0.168
 4042SOL    HW112254   1.722   4.692   0.249
 4042SOL    HW212255   1.835   4.771   0.188
 4043SOL     OW12256   9.182   6.151   2.752
 4043SOL    HW112257   9.219   6.224   2.703
 4043SOL    HW212258   9.139   6.097   2.686
 4044SOL     OW12259   6.969   3.103   3.259
 4044SOL    HW112260   6.962   3.040   3.187
 4044SOL    HW212261   6.971   3.188   3.216
 4045SOL     OW12262   3.007   3.822   0.090
 4045SOL    HW112263   2.948   3.854   0.157
 4045SOL    HW212264   2.951   3.772   0.030
 4046SOL     OW12265   7.765   4.510   5.129
 4046SOL    HW112266   7.801   4.512   5.217
 4046SOL    HW212267   7.731   4.599   5.115
 4047SOL     OW12268   1.975   5.294   1.681
 4047SOL    HW112269   1.947   5.382   1.704
 4047SOL    HW212270   2.027   5.265   1.756
 4048SOL     OW12271   7.323   6.122   3.815
 4048SOL    HW112272   7.310   6.118   3.720
 4048SOL    HW212273   7.281   6.204   3.841
 4049SOL     OW12274   8.250   4.231   4.183
 4049SOL    HW112275   8.293   4.316   4.185
 4049SOL    HW212276   8.322   4.167   4.186
 4050SOL     OW12277   4.703   1.069   1.717
 4050SOL    HW112278   4.690   1.087   1.623
 4050SOL    HW212279   4.620   1.095   1.757
 4051SOL     OW12280   4.725   5.746   2.914
 4051SOL    HW112281   4.705   5.797   2.993
 4051SOL    HW212282   4.655   5.681   2.910
 4052SOL     OW12283   7.078   5.305   4.862
 4052SOL    HW112284   7.065   5.210   4.866
 4052SOL    HW212285   6.994   5.339   4.833
 4053SOL     OW12286   6.952   5.275   0.811
 4053SOL    HW112287   7.006   5.329   0.754
 4053SOL    HW212288   6.981   5.297   0.900
 4054SOL     OW12289   6.681   1.797   0.206
 4054SOL    HW112290   6.768   1.801   0.166
 4054SOL    HW212291   6.652   1.888   0.210
 4055SOL     OW12292   4.967   3.232   2.583
 4055SOL    HW112293   4.925   3.308   2.544
 4055SOL    HW212294   4.907   3.203   2.651
 4056SOL     OW12295   6.118   4.050   1.310
 4056SOL    HW112296   6.047   4.077   1.252
 4056SOL    HW212297   6.172   3.992   1.256
 4057SOL     OW12298   5.668   2.991   2.625
 4057SOL    HW112299   5.754   3.003   2.585
 4057SOL    HW212300   5.645   3.077   2.659
 4058SOL     OW12301   7.461   0.372   3.881
 4058SOL    HW112302   7.475   0.420   3.963
 4058SOL    HW212303   7.375   0.401   3.851
 4059SOL     OW12304   4.375   4.593   1.663
 4059SOL    HW112305   4.322   4.671   1.681
 4059SOL    HW212306   4.451   4.603   1.720
 4060SOL     OW12307   7.156   0.074   0.768
 4060SOL    HW112308   7.063   0.058   0.753
 4060SOL    HW212309   7.192  -0.012   0.791
 4061SOL     OW12310   3.885   5.082   2.616
 4061SOL    HW112311   3.826   5.156   2.603
 4061SOL    HW212312   3.955   5.116   2.672
 4062SOL     OW12313   8.461   0.250   1.783
 4062SOL    HW112314   8.484   0.157   1.778
 4062SOL    HW212315   8.530   0.294   1.735
 4063SOL     OW12316   4.214   2.525   3.627
 4063SOL    HW112317   4.124   2.494   3.638
 4063SOL    HW212318   4.217   2.557   3.537
 4064SOL     OW12319  10.099   5.129   3.922
 4064SOL    HW112320  10.118   5.126   3.828
 4064SOL    HW212321  10.118   5.219   3.948
 4065SOL     OW12322   8.511   1.898   4.127
 4065SOL    HW112323   8.597   1.875   4.095
 4065SOL    HW212324   8.469   1.945   4.055
 4066SOL     OW12325   2.123   6.531   1.630
 4066SOL    HW112326   2.114   6.435   1.635
 4066SOL    HW212327   2.153   6.557   1.717
 4067SOL     OW12328   8.967   1.973   3.180
 4067SOL    HW112329   9.061   1.979   3.197
 4067SOL    HW212330   8.955   2.017   3.096
 4068SOL     OW12331   5.718   6.752   3.406
 4068SOL    HW112332   5.710   6.681   3.343
 4068SOL    HW212333   5.637   6.748   3.458
 4069SOL     OW12334   6.056   5.195   4.816
 4069SOL    HW112335   5.974   5.147   4.806
 4069SOL    HW212336   6.063   5.248   4.736
 4070SOL     OW12337  10.100   6.348   4.591
 4070SOL    HW112338  10.084   6.387   4.505
 4070SOL    HW212339  10.192   6.323   4.589
 4071SOL     OW12340   2.357   7.319   1.198
 4071SOL    HW112341   2.288   7.380   1.224
 4071SOL    HW212342   2.428   7.376   1.166
 4072SOL     OW12343   2.126   3.617   2.540
 4072SOL    HW112344   2.047   3.651   2.583
 4072SOL    HW212345   2.157   3.548   2.598
 4073SOL     OW12346   3.852   4.228   1.726
 4073SOL    HW112347   3.847   4.186   1.640
 4073SOL    HW212348   3.760   4.243   1.750
 4074SOL     OW12349   3.313   0.571   2.604
 4074SOL    HW112350   3.407   0.552   2.605
 4074SOL    HW212351   3.304   0.649   2.659
 4075SOL     OW12352   5.721   1.794   2.577
 4075SOL    HW112353   5.758   1.737   2.510
 4075SOL    HW212354   5.699   1.874   2.529
 4076SOL     OW12355   4.917   1.042   2.444
 4076SOL    HW112356   4.990   1.101   2.423
 4076SOL    HW212357   4.943   0.958   2.407
 4077SOL     OW12358   9.174   2.352   4.545
 4077SOL    HW112359   9.136   2.324   4.462
 4077SOL    HW212360   9.142   2.289   4.609
 4078SOL     OW12361  10.307   2.554   4.999
 4078SOL    HW112362  10.373   2.550   4.930
 4078SOL    HW212363  10.355   2.581   5.077
 4079SOL     OW12364   2.599   3.791   0.096
 4079SOL    HW112365   2.554   3.733   0.034
 4079SOL    HW212366   2.543   3.791   0.173
 4080SOL     OW12367   5.123   6.361   1.860
 4080SOL    HW112368   5.080   6.400   1.935
 4080SOL    HW212369   5.212   6.343   1.890
 4081SOL     OW12370   4.017   1.839   3.944
 4081SOL    HW112371   4.093   1.894   3.926
 4081SOL    HW212372   3.967   1.841   3.862
 4082SOL     OW12373   4.603   2.264   3.821
 4082SOL    HW112374   4.537   2.301   3.763
 4082SOL    HW212375   4.679   2.322   3.811
 4083SOL     OW12376   3.691   1.818   1.238
 4083SOL    HW112377   3.753   1.797   1.308
 4083SOL    HW212378   3.640   1.739   1.226
 4084SOL     OW12379   7.404   0.913   4.338
 4084SOL    HW112380   7.451   0.830   4.338
 4084SOL    HW212381   7.313   0.889   4.354
 4085SOL     OW12382   2.975   6.210   3.044
 4085SOL    HW112383   3.027   6.239   3.119
 4085SOL    HW212384   2.981   6.282   2.982
 4086SOL     OW12385   7.007   3.371   2.563
 4086SOL    HW112386   6.992   3.465   2.553
 4086SOL    HW212387   6.934   3.331   2.517
 4087SOL     OW12388   5.154   1.296   0.179
 4087SOL    HW112389   5.198   1.340   0.106
 4087SOL    HW212390   5.079   1.352   0.199
 4088SOL     OW12391   8.090   1.064   3.864
 4088SOL    HW112392   7.999   1.045   3.841
 4088SOL    HW212393   8.117   1.132   3.802
 4089SOL     OW12394   5.029   7.200   3.603
 4089SOL    HW112395   5.097   7.137   3.627
 4089SOL    HW212396   5.072   7.260   3.542
 4090SOL     OW12397   6.367   5.826   4.808
 4090SOL    HW112398   6.396   5.898   4.752
 4090SOL    HW212399   6.448   5.786   4.839
 4091SOL     OW12400   5.585   0.709   3.473
 4091SOL    HW112401   5.609   0.621   3.503
 4091SOL    HW212402   5.605   0.766   3.548
 4092SOL     OW12403   4.046   4.541   4.441
 4092SOL    HW112404   4.107   4.545   4.515
 4092SOL    HW212405   3.978   4.605   4.461
 4093SOL     OW12406   5.857   2.222   1.723
 4093SOL    HW112407   5.858   2.213   1.818
 4093SOL    HW212408   5.940   2.186   1.694
 4094SOL     OW12409   1.407   3.236   0.665
 4094SOL    HW112410   1.500   3.254   0.651
 4094SOL    HW212411   1.396   3.144   0.642
 4095SOL     OW12412   3.978   1.534   1.964
 4095SOL    HW112413   3.891   1.535   1.925
 4095SOL    HW212414   3.994   1.625   1.989
 4096SOL     OW12415   2.470   0.759   0.392
 4096SOL    HW112416   2.564   0.749   0.408
 4096SOL    HW212417   2.433   0.673   0.409
 4097SOL     OW12418   5.797   5.916   1.326
 4097SOL    HW112419   5.829   5.914   1.236
 4097SOL    HW212420   5.703   5.932   1.318
 4098SOL     OW12421   5.958   0.077   4.914
 4098SOL    HW112422   5.956   0.067   4.819
 4098SOL    HW212423   6.015   0.152   4.929
 4099SOL     OW12424   1.185   0.899   0.825
 4099SOL    HW112425   1.233   0.982   0.825
 4099SOL    HW212426   1.241   0.840   0.775
 4100SOL     OW12427   7.876   5.342   5.216
 4100SOL    HW112428   7.856   5.312   5.127
 4100SOL    HW212429   7.864   5.437   5.213
 4101SOL     OW12430   4.362   4.724   2.745
 4101SOL    HW112431   4.292   4.726   2.811
 4101SOL    HW212432   4.332   4.659   2.681
 4102SOL     OW12433   0.980   2.303   1.256
 4102SOL    HW112434   0.913   2.276   1.193
 4102SOL    HW212435   1.005   2.222   1.300
 4103SOL     OW12436  10.076   6.824   5.162
 4103SOL    HW112437  10.157   6.775   5.176
 4103SOL    HW212438  10.101   6.896   5.104
 4104SOL     OW12439   3.056   3.759   1.852
 4104SOL    HW112440   3.096   3.731   1.934
 4104SOL    HW212441   3.019   3.845   1.871
 4105SOL     OW12442   2.530   5.748   0.524
 4105SOL    HW112443   2.436   5.766   0.521
 4105SOL    HW212444   2.537   5.667   0.575
 4106SOL     OW12445   4.671   3.553   3.602
 4106SOL    HW112446   4.753   3.603   3.600
 4106SOL    HW212447   4.640   3.560   3.693
 4107SOL     OW12448   3.635   3.895   3.230
 4107SOL    HW112449   3.587   3.977   3.241
 4107SOL    HW212450   3.683   3.885   3.312
 4108SOL     OW12451   7.511   5.213   0.198
 4108SOL    HW112452   7.500   5.227   0.104
 4108SOL    HW212453   7.571   5.139   0.204
 4109SOL     OW12454   6.638   2.029   5.065
 4109SOL    HW112455   6.622   2.063   5.153
 4109SOL    HW212456   6.627   1.935   5.074
 4110SOL     OW12457   3.335   0.896   4.548
 4110SOL    HW112458   3.407   0.870   4.490
 4110SOL    HW212459   3.263   0.838   4.525
 4111SOL     OW12460   3.940   3.818   4.961
 4111SOL    HW112461   3.994   3.752   4.918
 4111SOL    HW212462   3.975   3.823   5.050
 4112SOL     OW12463   4.947   5.518   1.233
 4112SOL    HW112464   5.042   5.517   1.224
 4112SOL    HW212465   4.931   5.553   1.321
 4113SOL     OW12466   5.897   1.926   0.832
 4113SOL    HW112467   5.908   2.019   0.815
 4113SOL    HW212468   5.958   1.907   0.903
 4114SOL     OW12469   3.617   7.391   4.949
 4114SOL    HW112470   3.587   7.368   5.036
 4114SOL    HW212471   3.568   7.335   4.890
 4115SOL     OW12472   4.464   1.684   1.954
 4115SOL    HW112473   4.411   1.605   1.942
 4115SOL    HW212474   4.518   1.665   2.031
 4116SOL     OW12475   9.333   7.217   3.274
 4116SOL    HW112476   9.400   7.171   3.325
 4116SOL    HW212477   9.306   7.154   3.207
 4117SOL     OW12478   7.279   0.030   5.247
 4117SOL    HW112479   7.370   0.057   5.261
 4117SOL    HW212480   7.285  -0.056   5.206
 4118SOL     OW12481   6.633   5.706   0.139
 4118SOL    HW112482   6.639   5.725   0.046
 4118SOL    HW212483   6.722   5.721   0.172
 4119SOL     OW12484   5.154   0.568   0.532
 4119SOL    HW112485   5.156   0.648   0.479
 4119SOL    HW212486   5.080   0.579   0.591
 4120SOL     OW12487   3.137   6.071   1.603
 4120SOL    HW112488   3.044   6.094   1.597
 4120SOL    HW212489   3.144   6.024   1.686
 4121SOL     OW12490   5.042   2.310   0.557
 4121SOL    HW112491   4.948   2.291   0.554
 4121SOL    HW212492   5.060   2.353   0.473
 4122SOL     OW12493   9.058   4.545   5.043
 4122SOL    HW112494   8.990   4.577   4.983
 4122SOL    HW212495   9.119   4.618   5.052
 4123SOL     OW12496   4.520   6.100   1.889
 4123SOL    HW112497   4.584   6.047   1.842
 4123SOL    HW212498   4.517   6.063   1.977
 4124SOL     OW12499   2.099   5.905   0.733
 4124SOL    HW112500   2.131   5.954   0.657
 4124SOL    HW212501   2.102   5.813   0.705
 4125SOL     OW12502   6.187   3.211   4.064
 4125SOL    HW112503   6.256   3.151   4.092
 4125SOL    HW212504   6.154   3.249   4.145
 4126SOL     OW12505   2.297   5.936   2.332
 4126SOL    HW112506   2.330   6.004   2.273
 4126SOL    HW212507   2.246   5.878   2.275
 4127SOL     OW12508   5.262   0.047   4.012
 4127SOL    HW112509   5.305   0.015   3.933
 4127SOL    HW212510   5.304   0.132   4.029
 4128SOL     OW12511   3.661   4.249   4.944
 4128SOL    HW112512   3.663   4.162   4.906
 4128SOL    HW212513   3.575   4.284   4.920
 4129SOL     OW12514   2.481   2.003   2.357
 4129SOL    HW112515   2.538   2.065   2.404
 4129SOL    HW212516   2.417   1.975   2.422
 4130SOL     OW12517   3.002   4.485   2.819
 4130SOL    HW112518   3.093   4.514   2.831
 4130SOL    HW212519   2.954   4.523   2.892
 4131SOL     OW12520   6.594   4.292   1.670
 4131SOL    HW112521   6.530   4.299   1.741
 4131SOL    HW212522   6.549   4.241   1.602
 4132SOL     OW12523   8.250   0.282   4.609
 4132SOL    HW112524   8.282   0.206   4.658
 4132SOL    HW212525   8.165   0.302   4.650
 4133SOL     OW12526   6.444   1.966   4.423
 4133SOL    HW112527   6.442   1.927   4.510
 4133SOL    HW212528   6.496   2.046   4.433
 4134SOL     OW12529   4.486   1.506   0.443
 4134SOL    HW112530   4.556   1.496   0.379
 4134SOL    HW212531   4.421   1.441   0.417
 4135SOL     OW12532   5.304   1.578   3.233
 4135SOL    HW112533   5.290   1.670   3.211
 4135SOL    HW212534   5.217   1.539   3.229
 4136SOL     OW12535   0.739   5.546   0.180
 4136SOL    HW112536   0.785   5.629   0.193
 4136SOL    HW212537   0.655   5.559   0.225
 4137SOL     OW12538   9.432   2.820   4.377
 4137SOL    HW112539   9.340   2.845   4.363
 4137SOL    HW212540   9.446   2.833   4.471
 4138SOL     OW12541   9.121   5.651   3.250
 4138SOL    HW112542   9.049   5.714   3.247
 4138SOL    HW212543   9.080   5.568   3.273
 4139SOL     OW12544   7.693   7.307   3.034
 4139SOL    HW112545   7.740   7.384   3.066
 4139SOL    HW212546   7.689   7.248   3.109
 4140SOL     OW12547   9.001   6.636   2.484
 4140SOL    HW112548   8.906   6.632   2.486
 4140SOL    HW212549   9.029   6.582   2.559
 4141SOL     OW12550   2.001   3.940   2.664
 4141SOL    HW112551   2.025   4.012   2.723
 4141SOL    HW212552   1.915   3.964   2.630
 4142SOL     OW12553   8.056   3.305   4.833
 4142SOL    HW112554   8.029   3.347   4.752
 4142SOL    HW212555   8.104   3.373   4.881
 4143SOL     OW12556   4.452   4.181   4.774
 4143SOL    HW112557   4.463   4.255   4.834
 4143SOL    HW212558   4.448   4.221   4.687
 4144SOL     OW12559   3.876   2.876   4.733
 4144SOL    HW112560   3.825   2.944   4.777
 4144SOL    HW212561   3.964   2.886   4.768
 4145SOL     OW12562   6.328   3.338   4.854
 4145SOL    HW112563   6.307   3.286   4.932
 4145SOL    HW212564   6.337   3.273   4.784
 4146SOL     OW12565   2.129   2.274   0.858
 4146SOL    HW112566   2.097   2.266   0.768
 4146SOL    HW212567   2.218   2.240   0.855
 4147SOL     OW12568   3.889   3.443   3.116
 4147SOL    HW112569   3.911   3.536   3.120
 4147SOL    HW212570   3.814   3.433   3.174
 4148SOL     OW12571   4.283   1.853   5.091
 4148SOL    HW112572   4.295   1.864   5.186
 4148SOL    HW212573   4.354   1.794   5.065
 4149SOL     OW12574   2.911   2.933   1.360
 4149SOL    HW112575   2.865   2.929   1.276
 4149SOL    HW212576   2.849   2.978   1.418
 4150SOL     OW12577   6.365   2.080   2.043
 4150SOL    HW112578   6.311   2.071   2.121
 4150SOL    HW212579   6.442   2.129   2.073
 4151SOL     OW12580   8.548   1.775   3.773
 4151SOL    HW112581   8.478   1.769   3.708
 4151SOL    HW212582   8.622   1.729   3.734
 4152SOL     OW12583   5.660   1.519   2.630
 4152SOL    HW112584   5.672   1.583   2.699
 4152SOL    HW212585   5.593   1.557   2.573
 4153SOL     OW12586   8.766   0.104   3.487
 4153SOL    HW112587   8.822   0.100   3.409
 4153SOL    HW212588   8.825   0.128   3.558
 4154SOL     OW12589   2.257   0.433   0.279
 4154SOL    HW112590   2.242   0.439   0.374
 4154SOL    HW212591   2.256   0.523   0.249
 4155SOL     OW12592   5.521   0.461   2.368
 4155SOL    HW112593   5.562   0.375   2.364
 4155SOL    HW212594   5.437   0.450   2.323
 4156SOL     OW12595   6.789   4.368   0.280
 4156SOL    HW112596   6.792   4.430   0.208
 4156SOL    HW212597   6.713   4.313   0.261
 4157SOL     OW12598   8.276   7.009   2.877
 4157SOL    HW112599   8.355   6.978   2.921
 4157SOL    HW212600   8.243   6.932   2.829
 4158SOL     OW12601   6.729   7.129   4.069
 4158SOL    HW112602   6.820   7.127   4.040
 4158SOL    HW212603   6.710   7.222   4.081
 4159SOL     OW12604   8.980   0.069   3.710
 4159SOL    HW112605   8.987   0.082   3.805
 4159SOL    HW212606   8.925  -0.008   3.701
 4160SOL     OW12607   3.877   3.857   0.210
 4160SOL    HW112608   3.956   3.901   0.178
 4160SOL    HW212609   3.910   3.784   0.262
 4161SOL     OW12610   4.628   6.368   0.730
 4161SOL    HW112611   4.698   6.392   0.669
 4161SOL    HW212612   4.672   6.357   0.814
 4162SOL     OW12613   5.604   4.601   2.211
 4162SOL    HW112614   5.528   4.585   2.155
 4162SOL    HW212615   5.621   4.695   2.203
 4163SOL     OW12616   7.658   3.958   1.793
 4163SOL    HW112617   7.637   3.995   1.879
 4163SOL    HW212618   7.748   3.928   1.801
 4164SOL     OW12619   6.860   3.602   2.519
 4164SOL    HW112620   6.800   3.538   2.557
 4164SOL    HW212621   6.810   3.645   2.450
 4165SOL     OW12622   5.474   3.194   4.045
 4165SOL    HW112623   5.381   3.198   4.067
 4165SOL    HW212624   5.478   3.133   3.971
 4166SOL     OW12625   3.545   3.071   2.373
 4166SOL    HW112626   3.601   3.149   2.371
 4166SOL    HW212627   3.460   3.102   2.341
 4167SOL     OW12628   3.328   1.482   4.620
 4167SOL    HW112629   3.404   1.540   4.627
 4167SOL    HW212630   3.352   1.419   4.553
 4168SOL     OW12631   4.148   3.514   4.496
 4168SOL    HW112632   4.217   3.503   4.561
 4168SOL    HW212633   4.067   3.494   4.543
 4169SOL     OW12634   5.912   4.678   4.669
 4169SOL    HW112635   5.868   4.596   4.644
 4169SOL    HW212636   5.979   4.689   4.602
 4170SOL     OW12637   5.812   2.737   2.714
 4170SOL    HW112638   5.840   2.828   2.718
 4170SOL    HW212639   5.864   2.698   2.643
 4171SOL     OW12640   7.306   2.504   0.795
 4171SOL    HW112641   7.230   2.475   0.744
 4171SOL    HW212642   7.280   2.588   0.832
 4172SOL     OW12643   5.515   5.859   1.950
 4172SOL    HW112644   5.608   5.883   1.946
 4172SOL    HW212645   5.471   5.929   1.901
 4173SOL     OW12646   4.412   6.717   2.189
 4173SOL    HW112647   4.421   6.792   2.130
 4173SOL    HW212648   4.495   6.670   2.182
 4174SOL     OW12649   4.415   6.185   3.675
 4174SOL    HW112650   4.499   6.183   3.722
 4174SOL    HW212651   4.420   6.111   3.615
 4175SOL     OW12652   2.737   5.956   3.399
 4175SOL    HW112653   2.771   6.046   3.404
 4175SOL    HW212654   2.678   5.957   3.324
 4176SOL     OW12655   7.774   0.806   2.442
 4176SOL    HW112656   7.814   0.770   2.363
 4176SOL    HW212657   7.696   0.851   2.411
 4177SOL     OW12658  10.703   1.236   5.254
 4177SOL    HW112659  10.653   1.256   5.333
 4177SOL    HW212660  10.726   1.322   5.218
 4178SOL     OW12661   7.371   6.504   1.997
 4178SOL    HW112662   7.350   6.456   1.916
 4178SOL    HW212663   7.308   6.577   1.998
 4179SOL     OW12664   8.210   5.794   3.013
 4179SOL    HW112665   8.116   5.778   3.023
 4179SOL    HW212666   8.215   5.873   2.960
 4180SOL     OW12667   3.174   2.950  -0.015
 4180SOL    HW112668   3.218   2.876   0.028
 4180SOL    HW212669   3.179   3.021   0.048
 4181SOL     OW12670   6.443   1.138   4.124
 4181SOL    HW112671   6.418   1.133   4.032
 4181SOL    HW212672   6.506   1.210   4.128
 4182SOL     OW12673   3.005   5.580   2.120
 4182SOL    HW112674   2.954   5.503   2.145
 4182SOL    HW212675   2.963   5.613   2.041
 4183SOL     OW12676   1.951   1.282   2.670
 4183SOL    HW112677   1.915   1.194   2.681
 4183SOL    HW212678   2.006   1.296   2.747
 4184SOL     OW12679   4.038   2.666   2.129
 4184SOL    HW112680   4.118   2.715   2.147
 4184SOL    HW212681   4.004   2.704   2.048
 4185SOL     OW12682   8.908   1.870   4.728
 4185SOL    HW112683   8.905   1.793   4.671
 4185SOL    HW212684   8.982   1.856   4.786
 4186SOL     OW12685   2.142   1.603   1.937
 4186SOL    HW112686   2.107   1.667   2.000
 4186SOL    HW212687   2.079   1.603   1.865
 4187SOL     OW12688   8.689   2.268   3.985
 4187SOL    HW112689   8.638   2.291   4.062
 4187SOL    HW212690   8.626   2.225   3.927
 4188SOL     OW12691   8.093   0.246   1.299
 4188SOL    HW112692   8.138   0.270   1.380
 4188SOL    HW212693   8.063   0.330   1.263
 4189SOL     OW12694   5.108   2.362   0.086
 4189SOL    HW112695   5.032   2.407   0.124
 4189SOL    HW212696   5.071   2.304   0.020
 4190SOL     OW12697   6.474   4.359   3.272
 4190SOL    HW112698   6.450   4.452   3.274
 4190SOL    HW212699   6.507   4.341   3.360
 4191SOL     OW12700   8.917   0.413   3.735
 4191SOL    HW112701   8.987   0.395   3.797
 4191SOL    HW212702   8.845   0.356   3.763
 4192SOL     OW12703   6.340   5.904   2.899
 4192SOL    HW112704   6.325   5.853   2.820
 4192SOL    HW212705   6.254   5.906   2.942
 4193SOL     OW12706   4.057   6.457   2.918
 4193SOL    HW112707   4.149   6.473   2.897
 4193SOL    HW212708   4.011   6.533   2.883
 4194SOL     OW12709   7.226   5.704   4.419
 4194SOL    HW112710   7.307   5.691   4.370
 4194SOL    HW212711   7.194   5.616   4.438
 4195SOL     OW12712   4.815   3.180   1.424
 4195SOL    HW112713   4.831   3.148   1.513
 4195SOL    HW212714   4.737   3.236   1.433
 4196SOL     OW12715   2.838   1.281   0.509
 4196SOL    HW112716   2.903   1.278   0.438
 4196SOL    HW212717   2.878   1.232   0.580
 4197SOL     OW12718   0.747   6.027   0.776
 4197SOL    HW112719   0.723   6.041   0.867
 4197SOL    HW212720   0.664   6.032   0.728
 4198SOL     OW12721   7.492   5.260   1.598
 4198SOL    HW112722   7.516   5.197   1.666
 4198SOL    HW212723   7.414   5.303   1.631
 4199SOL     OW12724   5.251   2.898   2.256
 4199SOL    HW112725   5.231   2.840   2.182
 4199SOL    HW212726   5.285   2.840   2.324
 4200SOL     OW12727   4.757   5.915   1.934
 4200SOL    HW112728   4.794   5.994   1.974
 4200SOL    HW212729   4.834   5.864   1.908
 4201SOL     OW12730   4.280   0.415   1.462
 4201SOL    HW112731   4.282   0.321   1.445
 4201SOL    HW212732   4.368   0.436   1.492
 4202SOL     OW12733   9.457   0.948   3.862
 4202SOL    HW112734   9.442   0.865   3.816
 4202SOL    HW212735   9.522   0.926   3.929
 4203SOL     OW12736   6.028   7.022   4.739
 4203SOL    HW112737   6.022   7.057   4.650
 4203SOL    HW212738   5.943   7.042   4.778
 4204SOL     OW12739   7.878   5.596   3.657
 4204SOL    HW112740   7.783   5.598   3.661
 4204SOL    HW212741   7.904   5.533   3.724
 4205SOL     OW12742   3.000   5.590   3.946
 4205SOL    HW112743   2.950   5.658   3.898
 4205SOL    HW212744   2.934   5.546   4.000
 4206SOL     OW12745   3.935   0.516   1.107
 4206SOL    HW112746   3.900   0.521   1.196
 4206SOL    HW212747   4.022   0.479   1.117
 4207SOL     OW12748   5.098   1.710   3.038
 4207SOL    HW112749   5.068   1.799   3.018
 4207SOL    HW212750   5.184   1.705   2.997
 4208SOL     OW12751   3.234   7.256   3.446
 4208SOL    HW112752   3.325   7.285   3.439
 4208SOL    HW212753   3.201   7.302   3.523
 4209SOL     OW12754   4.574   5.785   1.685
 4209SOL    HW112755   4.588   5.867   1.734
 4209SOL    HW212756   4.501   5.743   1.730
 4210SOL     OW12757   8.563   2.462   4.959
 4210SOL    HW112758   8.530   2.544   4.922
 4210SOL    HW212759   8.657   2.474   4.967
 4211SOL     OW12760   9.042   3.882   2.914
 4211SOL    HW112761   8.958   3.920   2.941
 4211SOL    HW212762   9.101   3.957   2.907
 4212SOL     OW12763   7.894   2.613   4.088
 4212SOL    HW112764   7.960   2.591   4.154
 4212SOL    HW212765   7.811   2.600   4.133
 4213SOL     OW12766   2.423   3.458   2.062
 4213SOL    HW112767   2.350   3.401   2.039
 4213SOL    HW212768   2.412   3.536   2.007
 4214SOL     OW12769   6.039   0.120   0.306
 4214SOL    HW112770   6.059   0.044   0.361
 4214SOL    HW212771   6.000   0.083   0.227
 4215SOL     OW12772   3.763   5.403   1.107
 4215SOL    HW112773   3.844   5.364   1.141
 4215SOL    HW212774   3.747   5.477   1.165
 4216SOL     OW12775   9.841   2.496   5.186
 4216SOL    HW112776   9.790   2.415   5.181
 4216SOL    HW212777   9.924   2.470   5.224
 4217SOL     OW12778   5.955   5.927   0.146
 4217SOL    HW112779   5.919   5.850   0.101
 4217SOL    HW212780   5.905   6.001   0.111
 4218SOL     OW12781   8.658   1.127   3.890
 4218SOL    HW112782   8.682   1.148   3.981
 4218SOL    HW212783   8.738   1.143   3.840
 4219SOL     OW12784   4.021   6.863   3.990
 4219SOL    HW112785   3.969   6.937   4.021
 4219SOL    HW212786   3.969   6.825   3.920
 4220SOL     OW12787   8.722   3.037   2.510
 4220SOL    HW112788   8.786   2.975   2.543
 4220SOL    HW212789   8.657   2.983   2.465
 4221SOL     OW12790   3.143   4.564   1.383
 4221SOL    HW112791   3.060   4.591   1.344
 4221SOL    HW212792   3.186   4.646   1.408
 4222SOL     OW12793   1.872   3.304   0.046
 4222SOL    HW112794   1.949   3.284  -0.007
 4222SOL    HW212795   1.898   3.285   0.136
 4223SOL     OW12796   2.937   0.518   1.973
 4223SOL    HW112797   2.978   0.477   2.049
 4223SOL    HW212798   2.847   0.487   1.975
 4224SOL     OW12799   6.428   3.221   4.424
 4224SOL    HW112800   6.489   3.148   4.434
 4224SOL    HW212801   6.344   3.180   4.404
 4225SOL     OW12802   4.370   0.853   4.870
 4225SOL    HW112803   4.425   0.897   4.935
 4225SOL    HW212804   4.326   0.783   4.919
 4226SOL     OW12805   1.543   3.877   0.583
 4226SOL    HW112806   1.494   3.886   0.665
 4226SOL    HW212807   1.476   3.863   0.516
 4227SOL     OW12808   2.776   0.143   3.687
 4227SOL    HW112809   2.834   0.090   3.632
 4227SOL    HW212810   2.782   0.102   3.774
 4228SOL     OW12811   4.692   6.380   4.634
 4228SOL    HW112812   4.656   6.442   4.571
 4228SOL    HW212813   4.658   6.409   4.719
 4229SOL     OW12814   6.633   5.724   1.872
 4229SOL    HW112815   6.571   5.797   1.864
 4229SOL    HW212816   6.584   5.648   1.839
 4230SOL     OW12817   6.036   1.733   3.048
 4230SOL    HW112818   5.956   1.778   3.023
 4230SOL    HW212819   6.044   1.660   2.987
 4231SOL     OW12820   4.663   4.398   0.054
 4231SOL    HW112821   4.654   4.399   0.149
 4231SOL    HW212822   4.711   4.317   0.035
 4232SOL     OW12823   5.314   7.259   3.738
 4232SOL    HW112824   5.229   7.289   3.771
 4232SOL    HW212825   5.338   7.187   3.796
 4233SOL     OW12826   3.599   0.374   1.640
 4233SOL    HW112827   3.514   0.330   1.647
 4233SOL    HW212828   3.593   0.426   1.560
 4234SOL     OW12829   9.214   5.984   2.961
 4234SOL    HW112830   9.202   6.051   2.894
 4234SOL    HW212831   9.279   6.021   3.021
 4235SOL     OW12832   5.157   0.998   0.077
 4235SOL    HW112833   5.171   1.035  -0.010
 4235SOL    HW212834   5.169   1.071   0.137
 4236SOL     OW12835   6.335   5.137   0.650
 4236SOL    HW112836   6.329   5.118   0.744
 4236SOL    HW212837   6.411   5.086   0.621
 4237SOL     OW12838  10.855   5.743   5.235
 4237SOL    HW112839  10.826   5.774   5.150
 4237SOL    HW212840  10.889   5.821   5.279
 4238SOL     OW12841  10.612   1.041   5.019
 4238SOL    HW112842  10.575   1.114   4.969
 4238SOL    HW212843  10.647   1.083   5.098
 4239SOL     OW12844   6.771   5.840   2.052
 4239SOL    HW112845   6.691   5.888   2.033
 4239SOL    HW212846   6.772   5.769   1.988
 4240SOL     OW12847   7.332   0.414   2.674
 4240SOL    HW112848   7.304   0.465   2.599
 4240SOL    HW212849   7.424   0.437   2.686
 4241SOL     OW12850   2.754   3.427   3.292
 4241SOL    HW112851   2.827   3.366   3.277
 4241SOL    HW212852   2.763   3.492   3.222
 4242SOL     OW12853   6.158   2.517   0.824
 4242SOL    HW112854   6.067   2.536   0.850
 4242SOL    HW212855   6.155   2.425   0.797
 4243SOL     OW12856   8.235   4.497   5.016
 4243SOL    HW112857   8.227   4.584   5.056
 4243SOL    HW212858   8.231   4.437   5.090
 4244SOL     OW12859   2.158   3.332   2.331
 4244SOL    HW112860   2.144   3.375   2.415
 4244SOL    HW212861   2.208   3.396   2.280
 4245SOL     OW12862   4.782   2.147   1.367
 4245SOL    HW112863   4.734   2.067   1.346
 4245SOL    HW212864   4.787   2.147   1.463
 4246SOL     OW12865   5.082   1.737   3.528
 4246SOL    HW112866   5.095   1.671   3.460
 4246SOL    HW212867   5.073   1.819   3.480
 4247SOL     OW12868   9.023   1.572   3.405
 4247SOL    HW112869   9.106   1.577   3.357
 4247SOL    HW212870   9.042   1.611   3.490
 4248SOL     OW12871  10.044   0.143   5.038
 4248SOL    HW112872   9.957   0.160   5.002
 4248SOL    HW212873  10.085   0.084   4.974
 4249SOL     OW12874   6.455   7.308   3.260
 4249SOL    HW112875   6.378   7.358   3.286
 4249SOL    HW212876   6.481   7.345   3.176
 4250SOL     OW12877   0.543   1.036   0.158
 4250SOL    HW112878   0.578   1.039   0.068
 4250SOL    HW212879   0.489   0.957   0.159
 4251SOL     OW12880   9.937   4.862   5.211
 4251SOL    HW112881  10.031   4.863   5.195
 4251SOL    HW212882   9.929   4.872   5.305
 4252SOL     OW12883   4.808   7.029   3.003
 4252SOL    HW112884   4.889   7.067   3.038
 4252SOL    HW212885   4.773   6.977   3.075
 4253SOL     OW12886   6.939   0.929   4.738
 4253SOL    HW112887   6.894   0.988   4.678
 4253SOL    HW212888   6.870   0.871   4.771
 4254SOL     OW12889   5.104   6.150   0.431
 4254SOL    HW112890   5.152   6.074   0.398
 4254SOL    HW212891   5.168   6.221   0.430
 4255SOL     OW12892   4.305   1.526   4.882
 4255SOL    HW112893   4.256   1.508   4.962
 4255SOL    HW212894   4.246   1.500   4.812
 4256SOL     OW12895   6.050   5.175   2.760
 4256SOL    HW112896   5.961   5.191   2.728
 4256SOL    HW212897   6.084   5.262   2.780
 4257SOL     OW12898   2.336   0.092   3.025
 4257SOL    HW112899   2.338   0.119   3.117
 4257SOL    HW212900   2.428   0.084   2.999
 4258SOL     OW12901   8.558   2.039   3.830
 4258SOL    HW112902   8.653   2.051   3.833
 4258SOL    HW212903   8.546   1.945   3.822
 4259SOL     OW12904   7.010   1.690   5.135
 4259SOL    HW112905   6.997   1.636   5.057
 4259SOL    HW212906   7.072   1.758   5.107
 4260SOL     OW12907   2.669   2.685   2.564
 4260SOL    HW112908   2.740   2.707   2.624
 4260SOL    HW212909   2.627   2.608   2.603
 4261SOL     OW12910   2.615   4.995   2.610
 4261SOL    HW112911   2.592   4.949   2.690
 4261SOL    HW212912   2.569   5.079   2.617
 4262SOL     OW12913  10.323   4.289   4.186
 4262SOL    HW112914  10.310   4.324   4.274
 4262SOL    HW212915  10.417   4.271   4.181
 4263SOL     OW12916   9.138   0.693   2.643
 4263SOL    HW112917   9.057   0.672   2.597
 4263SOL    HW212918   9.117   0.685   2.736
 4264SOL     OW12919   4.027   3.094   0.209
 4264SOL    HW112920   4.005   3.088   0.302
 4264SOL    HW212921   3.943   3.084   0.165
 4265SOL     OW12922   6.693   1.807   1.720
 4265SOL    HW112923   6.705   1.877   1.656
 4265SOL    HW212924   6.738   1.732   1.683
 4266SOL     OW12925   5.115   4.032   1.697
 4266SOL    HW112926   5.161   3.993   1.622
 4266SOL    HW212927   5.024   4.003   1.687
 4267SOL     OW12928   9.567   3.310   4.949
 4267SOL    HW112929   9.529   3.287   4.864
 4267SOL    HW212930   9.548   3.236   5.005
 4268SOL     OW12931   3.601   4.784   1.505
 4268SOL    HW112932   3.582   4.866   1.458
 4268SOL    HW212933   3.593   4.807   1.597
 4269SOL     OW12934   3.687   5.538   3.908
 4269SOL    HW112935   3.736   5.598   3.964
 4269SOL    HW212936   3.640   5.595   3.847
 4270SOL     OW12937   7.899   4.806   0.775
 4270SOL    HW112938   7.891   4.852   0.859
 4270SOL    HW212939   7.809   4.790   0.747
 4271SOL     OW12940   3.312   2.681   3.391
 4271SOL    HW112941   3.306   2.702   3.298
 4271SOL    HW212942   3.280   2.591   3.398
 4272SOL     OW12943   2.988   3.288   1.267
 4272SOL    HW112944   2.905   3.337   1.271
 4272SOL    HW212945   2.988   3.250   1.179
 4273SOL     OW12946   7.509   6.903   2.390
 4273SOL    HW112947   7.570   6.944   2.451
 4273SOL    HW212948   7.554   6.823   2.361
 4274SOL     OW12949   7.255   6.863   3.970
 4274SOL    HW112950   7.293   6.951   3.966
 4274SOL    HW212951   7.221   6.848   3.882
 4275SOL     OW12952   2.747   4.127   3.391
 4275SOL    HW112953   2.839   4.120   3.364
 4275SOL    HW212954   2.746   4.197   3.456
 4276SOL     OW12955   5.179   1.244   0.515
 4276SOL    HW112956   5.252   1.265   0.457
 4276SOL    HW212957   5.209   1.269   0.602
 4277SOL     OW12958   7.236   4.524   3.885
 4277SOL    HW112959   7.179   4.447   3.890
 4277SOL    HW212960   7.313   4.494   3.835
 4278SOL     OW12961   4.867   3.365   1.903
 4278SOL    HW112962   4.867   3.374   1.808
 4278SOL    HW212963   4.894   3.274   1.919
 4279SOL     OW12964   1.541   1.790   0.997
 4279SOL    HW112965   1.566   1.874   0.959
 4279SOL    HW212966   1.618   1.734   0.984
 4280SOL     OW12967   7.839   1.748   5.209
 4280SOL    HW112968   7.919   1.734   5.258
 4280SOL    HW212969   7.782   1.796   5.269
 4281SOL     OW12970   8.236   6.796   5.136
 4281SOL    HW112971   8.310   6.784   5.076
 4281SOL    HW212972   8.163   6.819   5.079
 4282SOL     OW12973   2.657   7.135   0.110
 4282SOL    HW112974   2.652   7.048   0.072
 4282SOL    HW212975   2.751   7.150   0.125
 4283SOL     OW12976   6.334   1.069   1.351
 4283SOL    HW112977   6.352   0.992   1.405
 4283SOL    HW212978   6.386   1.139   1.391
 4284SOL     OW12979  10.264   2.932   4.421
 4284SOL    HW112980  10.190   2.893   4.375
 4284SOL    HW212981  10.264   2.889   4.507
 4285SOL     OW12982   2.567   4.168   2.028
 4285SOL    HW112983   2.556   4.263   2.024
 4285SOL    HW212984   2.656   4.153   1.998
 4286SOL     OW12985   6.345   3.841   3.273
 4286SOL    HW112986   6.305   3.801   3.349
 4286SOL    HW212987   6.439   3.821   3.282
 4287SOL     OW12988   3.961   5.012   4.422
 4287SOL    HW112989   3.953   4.980   4.332
 4287SOL    HW212990   3.876   5.051   4.440
 4288SOL     OW12991   6.390   4.465   2.911
 4288SOL    HW112992   6.414   4.437   2.999
 4288SOL    HW212993   6.384   4.384   2.860
 4289SOL     OW12994   2.420   4.816   0.299
 4289SOL    HW112995   2.479   4.871   0.351
 4289SOL    HW212996   2.467   4.800   0.217
 4290SOL     OW12997   4.067   0.397   1.928
 4290SOL    HW112998   4.116   0.365   2.005
 4290SOL    HW212999   4.116   0.364   1.853
 4291SOL     OW13000   6.645   5.899   4.115
 4291SOL    HW113001   6.720   5.862   4.161
 4291SOL    HW213002   6.607   5.961   4.177
 4292SOL     OW13003   7.665   2.923   2.545
 4292SOL    HW113004   7.758   2.943   2.547
 4292SOL    HW213005   7.633   2.946   2.633
 4293SOL     OW13006   5.873   4.964   0.881
 4293SOL    HW113007   5.929   4.888   0.900
 4293SOL    HW213008   5.924   5.016   0.819
 4294SOL     OW13009   3.126   7.044   1.099
 4294SOL    HW113010   3.084   7.120   1.059
 4294SOL    HW213011   3.100   7.048   1.191
 4295SOL     OW13012   4.617   1.309   3.649
 4295SOL    HW113013   4.587   1.218   3.644
 4295SOL    HW213014   4.712   1.303   3.655
 4296SOL     OW13015   5.442   3.544   2.404
 4296SOL    HW113016   5.531   3.509   2.412
 4296SOL    HW213017   5.399   3.519   2.486
 4297SOL     OW13018   5.877   4.815   2.679
 4297SOL    HW113019   5.961   4.783   2.646
 4297SOL    HW213020   5.858   4.759   2.755
 4298SOL     OW13021   9.794   0.168   5.274
 4298SOL    HW113022   9.775   0.198   5.185
 4298SOL    HW213023   9.841   0.086   5.262
 4299SOL     OW13024   7.053   0.022   1.072
 4299SOL    HW113025   7.013   0.087   1.130
 4299SOL    HW213026   7.084  -0.046   1.131
 4300SOL     OW13027   2.775   2.691   0.765
 4300SOL    HW113028   2.861   2.711   0.727
 4300SOL    HW213029   2.717   2.757   0.726
 4301SOL     OW13030   4.771   0.942   0.528
 4301SOL    HW113031   4.831   0.970   0.459
 4301SOL    HW213032   4.691   0.918   0.483
 4302SOL     OW13033   2.141   4.191   1.369
 4302SOL    HW113034   2.161   4.277   1.331
 4302SOL    HW213035   2.223   4.163   1.409
 4303SOL     OW13036   1.060   5.565   0.494
 4303SOL    HW113037   1.130   5.502   0.508
 4303SOL    HW213038   1.081   5.607   0.411
 4304SOL     OW13039   1.629   4.643   0.399
 4304SOL    HW113040   1.652   4.690   0.480
 4304SOL    HW213041   1.616   4.553   0.427
 4305SOL     OW13042  10.584   3.612   4.434
 4305SOL    HW113043  10.674   3.583   4.418
 4305SOL    HW213044  10.577   3.617   4.529
 4306SOL     OW13045  10.545   4.158   4.941
 4306SOL    HW113046  10.468   4.188   4.990
 4306SOL    HW213047  10.594   4.105   5.005
 4307SOL     OW13048   6.855   1.737   3.449
 4307SOL    HW113049   6.924   1.729   3.515
 4307SOL    HW213050   6.788   1.790   3.492
 4308SOL     OW13051   2.809   6.226   0.879
 4308SOL    HW113052   2.794   6.154   0.941
 4308SOL    HW213053   2.899   6.212   0.848
 4309SOL     OW13054   6.102   3.656   3.362
 4309SOL    HW113055   6.143   3.703   3.435
 4309SOL    HW213056   6.091   3.567   3.394
 4310SOL     OW13057  10.399   5.448   4.374
 4310SOL    HW113058  10.438   5.361   4.364
 4310SOL    HW213059  10.329   5.435   4.439
 4311SOL     OW13060   4.458   0.125   4.221
 4311SOL    HW113061   4.448   0.209   4.176
 4311SOL    HW213062   4.382   0.074   4.194
 4312SOL     OW13063   4.109   3.943   3.046
 4312SOL    HW113064   4.118   3.980   3.134
 4312SOL    HW213065   4.120   4.018   2.988
 4313SOL     OW13066   3.416   3.986   0.073
 4313SOL    HW113067   3.431   3.970   0.167
 4313SOL    HW213068   3.467   3.918   0.029
 4314SOL     OW13069   5.610   0.261   0.806
 4314SOL    HW113070   5.690   0.294   0.764
 4314SOL    HW213071   5.594   0.177   0.764
 4315SOL     OW13072   4.540   2.047   4.138
 4315SOL    HW113073   4.608   2.041   4.070
 4315SOL    HW213074   4.510   1.957   4.151
 4316SOL     OW13075   9.665   1.146   3.830
 4316SOL    HW113076   9.629   1.162   3.743
 4316SOL    HW213077   9.622   1.066   3.860
 4317SOL     OW13078   4.043   4.636   0.825
 4317SOL    HW113079   4.054   4.728   0.801
 4317SOL    HW213080   3.967   4.607   0.774
 4318SOL     OW13081   3.450   0.399   2.813
 4318SOL    HW113082   3.485   0.357   2.734
 4318SOL    HW213083   3.356   0.404   2.797
 4319SOL     OW13084   6.044   6.743   5.071
 4319SOL    HW113085   6.104   6.673   5.098
 4319SOL    HW213086   5.957   6.704   5.080
 4320SOL     OW13087   9.650   0.513   4.828
 4320SOL    HW113088   9.739   0.548   4.829
 4320SOL    HW213089   9.594   0.590   4.835
 4321SOL     OW13090   2.886   6.956   0.113
 4321SOL    HW113091   2.811   6.933   0.167
 4321SOL    HW213092   2.895   6.882   0.052
 4322SOL     OW13093   3.434   1.813   3.097
 4322SOL    HW113094   3.469   1.725   3.086
 4322SOL    HW213095   3.502   1.860   3.146
 4323SOL     OW13096   2.823   4.683   0.072
 4323SOL    HW113097   2.858   4.765   0.037
 4323SOL    HW213098   2.860   4.677   0.161
 4324SOL     OW13099   7.446   4.924   4.906
 4324SOL    HW113100   7.371   4.866   4.895
 4324SOL    HW213101   7.512   4.889   4.846
 4325SOL     OW13102   8.389   4.072   5.088
 4325SOL    HW113103   8.316   4.060   5.027
 4325SOL    HW213104   8.467   4.061   5.033
 4326SOL     OW13105   4.549   3.135   3.479
 4326SOL    HW113106   4.513   3.187   3.407
 4326SOL    HW213107   4.521   3.181   3.558
 4327SOL     OW13108   1.832   7.376   0.947
 4327SOL    HW113109   1.887   7.413   0.879
 4327SOL    HW213110   1.749   7.424   0.940
 4328SOL     OW13111   7.368   6.149   4.848
 4328SOL    HW113112   7.342   6.222   4.903
 4328SOL    HW213113   7.408   6.189   4.770
 4329SOL     OW13114   7.232   5.513   4.712
 4329SOL    HW113115   7.149   5.539   4.671
 4329SOL    HW213116   7.220   5.534   4.805
 4330SOL     OW13117   7.577   7.220   4.405
 4330SOL    HW113118   7.588   7.241   4.498
 4330SOL    HW213119   7.626   7.288   4.359
 4331SOL     OW13120   4.476   1.006   3.846
 4331SOL    HW113121   4.403   0.945   3.845
 4331SOL    HW213122   4.496   1.019   3.938
 4332SOL     OW13123   8.405   5.682   4.163
 4332SOL    HW113124   8.318   5.643   4.171
 4332SOL    HW213125   8.448   5.630   4.094
 4333SOL     OW13126   3.198   1.505   3.959
 4333SOL    HW113127   3.153   1.424   3.935
 4333SOL    HW213128   3.231   1.540   3.876
 4334SOL     OW13129   9.341   2.496   3.282
 4334SOL    HW113130   9.296   2.580   3.286
 4334SOL    HW213131   9.325   2.456   3.368
 4335SOL     OW13132   9.340   3.745   4.667
 4335SOL    HW113133   9.346   3.807   4.595
 4335SOL    HW213134   9.431   3.728   4.692
 4336SOL     OW13135   2.189   2.977   0.422
 4336SOL    HW113136   2.257   2.912   0.409
 4336SOL    HW213137   2.133   2.941   0.490
 4337SOL     OW13138   4.627   2.434   2.221
 4337SOL    HW113139   4.644   2.372   2.292
 4337SOL    HW213140   4.557   2.394   2.170
 4338SOL     OW13141   6.198   2.093   3.435
 4338SOL    HW113142   6.129   2.027   3.427
 4338SOL    HW213143   6.224   2.089   3.527
 4339SOL     OW13144   5.068   5.250   0.613
 4339SOL    HW113145   5.121   5.215   0.541
 4339SOL    HW213146   5.111   5.218   0.692
 4340SOL     OW13147   8.688   6.877   5.146
 4340SOL    HW113148   8.606   6.925   5.133
 4340SOL    HW213149   8.670   6.788   5.115
 4341SOL     OW13150   7.873   6.220   3.327
 4341SOL    HW113151   7.840   6.189   3.412
 4341SOL    HW213152   7.809   6.187   3.264
 4342SOL     OW13153   3.716   4.495   2.152
 4342SOL    HW113154   3.768   4.520   2.228
 4342SOL    HW213155   3.685   4.578   2.115
 4343SOL     OW13156   7.313   6.591   0.843
 4343SOL    HW113157   7.340   6.664   0.899
 4343SOL    HW213158   7.245   6.627   0.787
 4344SOL     OW13159   5.284   6.963   4.447
 4344SOL    HW113160   5.285   6.957   4.351
 4344SOL    HW213161   5.365   6.922   4.474
 4345SOL     OW13162   2.625   2.139   1.012
 4345SOL    HW113163   2.657   2.217   0.967
 4345SOL    HW213164   2.650   2.152   1.103
 4346SOL     OW13165   1.788   1.737   0.720
 4346SOL    HW113166   1.867   1.687   0.704
 4346SOL    HW213167   1.781   1.742   0.815
 4347SOL     OW13168   9.469   2.826   4.647
 4347SOL    HW113169   9.397   2.883   4.674
 4347SOL    HW213170   9.461   2.750   4.705
 4348SOL     OW13171   1.568   0.492   0.848
 4348SOL    HW113172   1.478   0.522   0.833
 4348SOL    HW213173   1.569   0.468   0.941
 4349SOL     OW13174   7.079   5.750   3.153
 4349SOL    HW113175   7.140   5.770   3.082
 4349SOL    HW213176   7.065   5.834   3.196
 4350SOL     OW13177   7.100   1.829   4.501
 4350SOL    HW113178   7.178   1.780   4.524
 4350SOL    HW213179   7.054   1.774   4.438
 4351SOL     OW13180   7.031   6.631   4.800
 4351SOL    HW113181   7.021   6.723   4.777
 4351SOL    HW213182   7.055   6.589   4.717
 4352SOL     OW13183   3.262   2.858   3.581
 4352SOL    HW113184   3.254   2.790   3.513
 4352SOL    HW213185   3.273   2.939   3.532
 4353SOL     OW13186   4.754   7.001   0.375
 4353SOL    HW113187   4.687   6.991   0.443
 4353SOL    HW213188   4.773   7.095   0.373
 4354SOL     OW13189   4.107   0.655   2.314
 4354SOL    HW113190   4.084   0.739   2.354
 4354SOL    HW213191   4.100   0.670   2.220
 4355SOL     OW13192   4.389   6.523   3.156
 4355SOL    HW113193   4.410   6.522   3.250
 4355SOL    HW213194   4.294   6.513   3.153
 4356SOL     OW13195   2.013   5.995   2.477
 4356SOL    HW113196   1.958   5.961   2.547
 4356SOL    HW213197   2.058   6.070   2.515
 4357SOL     OW13198   2.813   1.742   0.903
 4357SOL    HW113199   2.785   1.813   0.961
 4357SOL    HW213200   2.820   1.782   0.817
 4358SOL     OW13201   2.218   3.450   1.084
 4358SOL    HW113202   2.310   3.468   1.102
 4358SOL    HW213203   2.216   3.360   1.053
 4359SOL     OW13204   7.394   2.591   2.963
 4359SOL    HW113205   7.477   2.620   3.002
 4359SOL    HW213206   7.404   2.496   2.956
 4360SOL     OW13207   4.538   2.553   4.019
 4360SOL    HW113208   4.557   2.461   4.038
 4360SOL    HW213209   4.509   2.590   4.103
 4361SOL     OW13210   8.661   1.564   4.037
 4361SOL    HW113211   8.588   1.502   4.037
 4361SOL    HW213212   8.727   1.522   3.982
 4362SOL     OW13213   2.624   5.144   0.869
 4362SOL    HW113214   2.635   5.205   0.942
 4362SOL    HW213215   2.534   5.112   0.878
 4363SOL     OW13216   3.212   7.260   1.685
 4363SOL    HW113217   3.247   7.223   1.766
 4363SOL    HW213218   3.212   7.354   1.699
 4364SOL     OW13219   6.473   2.442   3.706
 4364SOL    HW113220   6.496   2.356   3.671
 4364SOL    HW213221   6.417   2.481   3.639
 4365SOL     OW13222   5.797   1.029   3.406
 4365SOL    HW113223   5.703   1.043   3.402
 4365SOL    HW213224   5.812   0.994   3.494
 4366SOL     OW13225   6.285   5.444   1.432
 4366SOL    HW113226   6.227   5.371   1.409
 4366SOL    HW213227   6.255   5.472   1.518
 4367SOL     OW13228   6.152   0.110   1.798
 4367SOL    HW113229   6.209   0.172   1.844
 4367SOL    HW213230   6.157   0.030   1.849
 4368SOL     OW13231   6.539   2.283   1.002
 4368SOL    HW113232   6.478   2.212   0.983
 4368SOL    HW213233   6.563   2.269   1.094
 4369SOL     OW13234   3.622   6.220   0.159
 4369SOL    HW113235   3.551   6.156   0.156
 4369SOL    HW213236   3.638   6.232   0.253
 4370SOL     OW13237   7.815   0.809   2.166
 4370SOL    HW113238   7.807   0.714   2.179
 4370SOL    HW213239   7.758   0.827   2.091
 4371SOL     OW13240   7.609   5.100   2.433
 4371SOL    HW113241   7.586   5.169   2.495
 4371SOL    HW213242   7.528   5.053   2.418
 4372SOL     OW13243   6.507   3.919   0.918
 4372SOL    HW113244   6.547   4.006   0.913
 4372SOL    HW213245   6.516   3.884   0.829
 4373SOL     OW13246   8.602   6.875   3.704
 4373SOL    HW113247   8.528   6.831   3.662
 4373SOL    HW213248   8.678   6.849   3.653
 4374SOL     OW13249   6.824   2.415   1.594
 4374SOL    HW113250   6.771   2.448   1.666
 4374SOL    HW213251   6.886   2.355   1.635
 4375SOL     OW13252   7.321   4.483   2.787
 4375SOL    HW113253   7.349   4.443   2.870
 4375SOL    HW213254   7.402   4.508   2.744
 4376SOL     OW13255   2.026   3.485   2.096
 4376SOL    HW113256   2.090   3.428   2.137
 4376SOL    HW213257   1.971   3.516   2.167
 4377SOL     OW13258   6.274   0.608   4.710
 4377SOL    HW113259   6.336   0.630   4.779
 4377SOL    HW213260   6.294   0.518   4.686
 4378SOL     OW13261   7.436   5.019   3.050
 4378SOL    HW113262   7.355   5.019   2.997
 4378SOL    HW213263   7.406   4.999   3.139
 4379SOL     OW13264   7.374   7.350   3.053
 4379SOL    HW113265   7.346   7.428   3.100
 4379SOL    HW213266   7.315   7.345   2.977
 4380SOL     OW13267   9.886   3.727   3.541
 4380SOL    HW113268   9.887   3.662   3.471
 4380SOL    HW213269   9.912   3.809   3.498
 4381SOL     OW13270   7.394   7.305   0.598
 4381SOL    HW113271   7.463   7.364   0.568
 4381SOL    HW213272   7.329   7.362   0.640
 4382SOL     OW13273   2.697   7.256   1.467
 4382SOL    HW113274   2.691   7.161   1.457
 4382SOL    HW213275   2.673   7.271   1.559
 4383SOL     OW13276   4.142   3.563   2.197
 4383SOL    HW113277   4.130   3.657   2.209
 4383SOL    HW213278   4.139   3.527   2.285
 4384SOL     OW13279   3.048   5.347   3.787
 4384SOL    HW113280   3.024   5.409   3.856
 4384SOL    HW213281   3.099   5.400   3.725
 4385SOL     OW13282   5.709   5.370   5.228
 4385SOL    HW113283   5.692   5.443   5.167
 4385SOL    HW213284   5.635   5.310   5.213
 4386SOL     OW13285   8.722   5.682   2.924
 4386SOL    HW113286   8.680   5.766   2.906
 4386SOL    HW213287   8.740   5.684   3.017
 4387SOL     OW13288   7.096   0.272   1.335
 4387SOL    HW113289   7.181   0.281   1.291
 4387SOL    HW213290   7.037   0.329   1.286
 4388SOL     OW13291   6.045   1.144   3.238
 4388SOL    HW113292   5.951   1.160   3.245
 4388SOL    HW213293   6.054   1.049   3.236
 4389SOL     OW13294   5.582   0.241   3.226
 4389SOL    HW113295   5.664   0.278   3.193
 4389SOL    HW213296   5.609   0.171   3.284
 4390SOL     OW13297   7.964   4.123   2.132
 4390SOL    HW113298   7.954   4.136   2.038
 4390SOL    HW213299   7.882   4.080   2.159
 4391SOL     OW13300   7.373   1.915   3.752
 4391SOL    HW113301   7.386   2.002   3.715
 4391SOL    HW213302   7.373   1.928   3.847
 4392SOL     OW13303   5.906   5.365   0.386
 4392SOL    HW113304   5.871   5.276   0.377
 4392SOL    HW213305   5.975   5.357   0.452
 4393SOL     OW13306   4.035   6.929   0.522
 4393SOL    HW113307   3.947   6.962   0.508
 4393SOL    HW213308   4.035   6.842   0.482
 4394SOL     OW13309   4.863   6.781   1.060
 4394SOL    HW113310   4.772   6.755   1.048
 4394SOL    HW213311   4.913   6.701   1.044
 4395SOL     OW13312   7.362   5.302   3.103
 4395SOL    HW113313   7.313   5.222   3.118
 4395SOL    HW213314   7.438   5.274   3.051
 4396SOL     OW13315   9.486   0.757   4.280
 4396SOL    HW113316   9.439   0.774   4.198
 4396SOL    HW213317   9.428   0.793   4.347
 4397SOL     OW13318   8.997   6.280   4.396
 4397SOL    HW113319   9.070   6.254   4.452
 4397SOL    HW213320   8.950   6.199   4.377
 4398SOL     OW13321   4.728   5.410   0.308
 4398SOL    HW113322   4.736   5.487   0.253
 4398SOL    HW213323   4.664   5.434   0.375
 4399SOL     OW13324   5.694   2.575   1.251
 4399SOL    HW113325   5.655   2.661   1.236
 4399SOL    HW213326   5.623   2.513   1.231
 4400SOL     OW13327   5.098   0.444   1.456
 4400SOL    HW113328   5.059   0.478   1.537
 4400SOL    HW213329   5.023   0.412   1.405
 4401SOL     OW13330   2.658   1.163   0.810
 4401SOL    HW113331   2.672   1.216   0.731
 4401SOL    HW213332   2.740   1.171   0.859
 4402SOL     OW13333   0.238   0.928   0.351
 4402SOL    HW113334   0.285   1.008   0.374
 4402SOL    HW213335   0.207   0.943   0.262
 4403SOL     OW13336   2.927   3.961   1.630
 4403SOL    HW113337   2.983   3.884   1.621
 4403SOL    HW213338   2.950   4.016   1.555
 4404SOL     OW13339   3.724   6.464   5.197
 4404SOL    HW113340   3.798   6.408   5.173
 4404SOL    HW213341   3.647   6.412   5.179
 4405SOL     OW13342   4.070   4.479   1.521
 4405SOL    HW113343   4.007   4.411   1.546
 4405SOL    HW213344   4.015   4.554   1.497
 4406SOL     OW13345   4.169   5.638   2.664
 4406SOL    HW113346   4.144   5.731   2.660
 4406SOL    HW213347   4.225   5.632   2.741
 4407SOL     OW13348   3.731   6.253   2.222
 4407SOL    HW113349   3.706   6.185   2.158
 4407SOL    HW213350   3.741   6.332   2.169
 4408SOL     OW13351   3.480   0.619   3.008
 4408SOL    HW113352   3.529   0.549   2.965
 4408SOL    HW213353   3.397   0.579   3.032
 4409SOL     OW13354   3.603   6.688   1.966
 4409SOL    HW113355   3.664   6.761   1.960
 4409SOL    HW213356   3.630   6.641   2.045
 4410SOL     OW13357   2.294   4.100   2.000
 4410SOL    HW113358   2.377   4.131   2.036
 4410SOL    HW213359   2.232   4.170   2.020
 4411SOL     OW13360   7.424   7.268   5.027
 4411SOL    HW113361   7.475   7.291   5.104
 4411SOL    HW213362   7.481   7.210   4.976
 4412SOL     OW13363   3.714   6.872   4.597
 4412SOL    HW113364   3.647   6.804   4.593
 4412SOL    HW213365   3.680   6.943   4.543
 4413SOL     OW13366   6.019   1.139   3.772
 4413SOL    HW113367   5.972   1.109   3.850
 4413SOL    HW213368   5.953   1.189   3.722
 4414SOL     OW13369   2.187   4.532   2.144
 4414SOL    HW113370   2.127   4.474   2.098
 4414SOL    HW213371   2.271   4.485   2.144
 4415SOL     OW13372   7.576   7.072   4.149
 4415SOL    HW113373   7.600   7.048   4.239
 4415SOL    HW213374   7.525   7.153   4.158
 4416SOL     OW13375   4.801   6.377   3.077
 4416SOL    HW113376   4.733   6.401   3.141
 4416SOL    HW213377   4.860   6.319   3.126
 4417SOL     OW13378   7.519   5.008   1.764
 4417SOL    HW113379   7.565   4.938   1.718
 4417SOL    HW213380   7.466   4.963   1.830
 4418SOL     OW13381   3.596   6.884   3.869
 4418SOL    HW113382   3.508   6.913   3.845
 4418SOL    HW213383   3.648   6.964   3.873
 4419SOL     OW13384   6.562   4.346   4.792
 4419SOL    HW113385   6.510   4.404   4.847
 4419SOL    HW213386   6.524   4.259   4.805
 4420SOL     OW13387   5.927   6.971   2.168
 4420SOL    HW113388   5.869   6.931   2.232
 4420SOL    HW213389   6.012   6.974   2.211
 4421SOL     OW13390   4.450   7.242   3.647
 4421SOL    HW113391   4.498   7.272   3.570
 4421SOL    HW213392   4.451   7.147   3.640
 4422SOL     OW13393   6.862   1.760   2.248
 4422SOL    HW113394   6.814   1.773   2.166
 4422SOL    HW213395   6.794   1.750   2.315
 4423SOL     OW13396   6.154   4.288   3.814
 4423SOL    HW113397   6.193   4.354   3.757
 4423SOL    HW213398   6.059   4.303   3.806
 4424SOL     OW13399   7.663   3.796   0.765
 4424SOL    HW113400   7.602   3.848   0.714
 4424SOL    HW213401   7.684   3.721   0.709
 4425SOL     OW13402   9.008   3.493   3.879
 4425SOL    HW113403   9.043   3.576   3.911
 4425SOL    HW213404   8.915   3.510   3.863
 4426SOL     OW13405   3.576   6.146   4.799
 4426SOL    HW113406   3.565   6.195   4.717
 4426SOL    HW213407   3.641   6.196   4.848
 4427SOL     OW13408   4.155   4.593   2.178
 4427SOL    HW113409   4.106   4.657   2.126
 4427SOL    HW213410   4.177   4.639   2.259
 4428SOL     OW13411   8.642   3.382   3.519
 4428SOL    HW113412   8.722   3.376   3.570
 4428SOL    HW213413   8.612   3.292   3.509
 4429SOL     OW13414   7.605   0.471   2.673
 4429SOL    HW113415   7.621   0.386   2.631
 4429SOL    HW213416   7.692   0.507   2.686
 4430SOL     OW13417   3.103   6.613   1.140
 4430SOL    HW113418   3.028   6.565   1.176
 4430SOL    HW213419   3.149   6.646   1.216
 4431SOL     OW13420   6.500   3.768   2.096
 4431SOL    HW113421   6.536   3.726   2.174
 4431SOL    HW213422   6.416   3.724   2.082
 4432SOL     OW13423  10.596   4.713   4.457
 4432SOL    HW113424  10.563   4.689   4.544
 4432SOL    HW213425  10.528   4.684   4.397
 4433SOL     OW13426   4.178   7.218   3.104
 4433SOL    HW113427   4.274   7.215   3.104
 4433SOL    HW213428   4.157   7.310   3.088
 4434SOL     OW13429   9.943   2.510   4.675
 4434SOL    HW113430   9.998   2.448   4.628
 4434SOL    HW213431   9.991   2.593   4.670
 4435SOL     OW13432   9.671   3.014   4.517
 4435SOL    HW113433   9.692   3.076   4.447
 4435SOL    HW213434   9.609   2.953   4.477
 4436SOL     OW13435   6.360   1.941   2.623
 4436SOL    HW113436   6.314   2.023   2.641
 4436SOL    HW213437   6.292   1.883   2.590
 4437SOL     OW13438   1.666   0.754   0.934
 4437SOL    HW113439   1.628   0.667   0.943
 4437SOL    HW213440   1.648   0.780   0.844
 4438SOL     OW13441   4.415   4.409   3.024
 4438SOL    HW113442   4.493   4.459   3.051
 4438SOL    HW213443   4.342   4.464   3.049
 4439SOL     OW13444   2.124   1.583   1.640
 4439SOL    HW113445   2.174   1.504   1.661
 4439SOL    HW213446   2.096   1.570   1.550
 4440SOL     OW13447   5.815   3.841   3.488
 4440SOL    HW113448   5.727   3.805   3.495
 4440SOL    HW213449   5.867   3.773   3.445
 4441SOL     OW13450   7.816   3.196   4.476
 4441SOL    HW113451   7.836   3.125   4.536
 4441SOL    HW213452   7.868   3.270   4.507
 4442SOL     OW13453   2.223   3.898   1.841
 4442SOL    HW113454   2.272   3.955   1.900
 4442SOL    HW213455   2.214   3.816   1.889
 4443SOL     OW13456   1.957   4.430   0.362
 4443SOL    HW113457   2.025   4.410   0.297
 4443SOL    HW213458   1.879   4.451   0.311
 4444SOL     OW13459   4.134   4.099   4.555
 4444SOL    HW113460   4.131   4.044   4.477
 4444SOL    HW213461   4.113   4.187   4.523
 4445SOL     OW13462   5.393   6.838   1.470
 4445SOL    HW113463   5.463   6.807   1.411
 4445SOL    HW213464   5.324   6.868   1.411
 4446SOL     OW13465   3.487   5.103   4.469
 4446SOL    HW113466   3.547   5.163   4.514
 4446SOL    HW213467   3.407   5.105   4.521
 4447SOL     OW13468   5.927   5.624   3.053
 4447SOL    HW113469   6.006   5.635   3.001
 4447SOL    HW213470   5.899   5.713   3.074
 4448SOL     OW13471   1.341   1.153   1.740
 4448SOL    HW113472   1.405   1.134   1.671
 4448SOL    HW213473   1.353   1.082   1.803
 4449SOL     OW13474   2.608   2.861   3.503
 4449SOL    HW113475   2.608   2.951   3.471
 4449SOL    HW213476   2.516   2.842   3.522
 4450SOL     OW13477   6.704   6.293   1.717
 4450SOL    HW113478   6.739   6.331   1.636
 4450SOL    HW213479   6.768   6.226   1.742
 4451SOL     OW13480   6.880   0.106   4.621
 4451SOL    HW113481   6.906   0.104   4.529
 4451SOL    HW213482   6.819   0.179   4.627
 4452SOL     OW13483   7.179   0.766   4.742
 4452SOL    HW113484   7.257   0.805   4.782
 4452SOL    HW213485   7.106   0.805   4.791
 4453SOL     OW13486   7.219   1.312   2.949
 4453SOL    HW113487   7.239   1.353   2.865
 4453SOL    HW213488   7.269   1.363   3.013
 4454SOL     OW13489   7.271   3.301   0.090
 4454SOL    HW113490   7.201   3.254   0.134
 4454SOL    HW213491   7.332   3.233   0.063
 4455SOL     OW13492   9.337   2.047   2.944
 4455SOL    HW113493   9.347   1.957   2.976
 4455SOL    HW213494   9.399   2.098   2.996
 4456SOL     OW13495   9.146   4.412   3.241
 4456SOL    HW113496   9.153   4.362   3.160
 4456SOL    HW213497   9.093   4.488   3.217
 4457SOL     OW13498   4.154   6.555   3.472
 4457SOL    HW113499   4.185   6.603   3.549
 4457SOL    HW213500   4.234   6.535   3.422
 4458SOL     OW13501   8.058   0.685   1.939
 4458SOL    HW113502   8.060   0.775   1.907
 4458SOL    HW213503   7.965   0.662   1.939
 4459SOL     OW13504   6.503   7.216   2.005
 4459SOL    HW113505   6.547   7.143   1.962
 4459SOL    HW213506   6.562   7.290   1.995
 4460SOL     OW13507   3.605   0.109   3.497
 4460SOL    HW113508   3.604   0.064   3.581
 4460SOL    HW213509   3.618   0.039   3.432
 4461SOL     OW13510   8.935   2.054   2.716
 4461SOL    HW113511   8.845   2.067   2.746
 4461SOL    HW213512   8.969   2.142   2.704
 4462SOL     OW13513   7.384   3.882   1.399
 4462SOL    HW113514   7.299   3.922   1.418
 4462SOL    HW213515   7.444   3.957   1.391
 4463SOL     OW13516   4.372   4.866   0.486
 4463SOL    HW113517   4.433   4.846   0.558
 4463SOL    HW213518   4.358   4.782   0.443
 4464SOL     OW13519   6.047   7.343   0.895
 4464SOL    HW113520   6.115   7.354   0.961
 4464SOL    HW213521   6.095   7.328   0.813
 4465SOL     OW13522   9.499   4.535   3.744
 4465SOL    HW113523   9.419   4.495   3.712
 4465SOL    HW213524   9.496   4.625   3.713
 4466SOL     OW13525   2.840   0.477   3.094
 4466SOL    HW113526   2.930   0.451   3.115
 4466SOL    HW213527   2.846   0.571   3.076
 4467SOL     OW13528   7.974   3.357   2.919
 4467SOL    HW113529   7.958   3.447   2.889
 4467SOL    HW213530   8.032   3.320   2.852
 4468SOL     OW13531   7.892   6.450   1.189
 4468SOL    HW113532   7.974   6.447   1.140
 4468SOL    HW213533   7.917   6.481   1.276
 4469SOL     OW13534   2.471   3.374   0.382
 4469SOL    HW113535   2.510   3.328   0.308
 4469SOL    HW213536   2.545   3.397   0.439
 4470SOL     OW13537   0.711   6.644   0.966
 4470SOL    HW113538   0.691   6.715   1.027
 4470SOL    HW213539   0.702   6.683   0.879
 4471SOL     OW13540   6.812   1.489   4.898
 4471SOL    HW113541   6.866   1.411   4.886
 4471SOL    HW213542   6.790   1.489   4.991
 4472SOL     OW13543   5.008   5.805   1.926
 4472SOL    HW113544   4.990   5.719   1.887
 4472SOL    HW213545   5.077   5.788   1.990
 4473SOL     OW13546   2.419   1.403   0.212
 4473SOL    HW113547   2.462   1.477   0.254
 4473SOL    HW213548   2.357   1.442   0.151
 4474SOL     OW13549   2.176   4.948   0.180
 4474SOL    HW113550   2.164   4.853   0.171
 4474SOL    HW213551   2.251   4.967   0.123
 4475SOL     OW13552   5.700   6.606   5.129
 4475SOL    HW113553   5.710   6.676   5.064
 4475SOL    HW213554   5.788   6.574   5.143
 4476SOL     OW13555   2.734   5.195   0.477
 4476SOL    HW113556   2.759   5.221   0.388
 4476SOL    HW213557   2.803   5.234   0.532
 4477SOL     OW13558   4.672   2.266   1.894
 4477SOL    HW113559   4.656   2.243   1.985
 4477SOL    HW213560   4.766   2.283   1.890
 4478SOL     OW13561   1.393   2.412   1.303
 4478SOL    HW113562   1.444   2.487   1.271
 4478SOL    HW213563   1.305   2.427   1.270
 4479SOL     OW13564   5.581   4.029   4.483
 4479SOL    HW113565   5.522   4.023   4.558
 4479SOL    HW213566   5.653   4.086   4.514
 4480SOL     OW13567   9.039   0.960   3.721
 4480SOL    HW113568   9.090   0.881   3.700
 4480SOL    HW213569   9.081   0.994   3.800
 4481SOL     OW13570   2.773   3.881   3.203
 4481SOL    HW113571   2.700   3.857   3.260
 4481SOL    HW213572   2.851   3.863   3.255
 4482SOL     OW13573   4.188   4.943   4.603
 4482SOL    HW113574   4.161   4.955   4.694
 4482SOL    HW213575   4.109   4.960   4.552
 4483SOL     OW13576   3.889   3.716   3.188
 4483SOL    HW113577   3.819   3.697   3.250
 4483SOL    HW213578   3.956   3.762   3.239
 4484SOL     OW13579   7.566   2.010   1.675
 4484SOL    HW113580   7.510   2.087   1.685
 4484SOL    HW213581   7.586   1.984   1.765
 4485SOL     OW13582   4.773   6.301   0.938
 4485SOL    HW113583   4.769   6.211   0.905
 4485SOL    HW213584   4.783   6.291   1.033
 4486SOL     OW13585   1.319   3.844   1.480
 4486SOL    HW113586   1.337   3.826   1.387
 4486SOL    HW213587   1.369   3.923   1.499
 4487SOL     OW13588   4.528   3.297   3.755
 4487SOL    HW113589   4.437   3.317   3.735
 4487SOL    HW213590   4.563   3.377   3.794
 4488SOL     OW13591   8.489   5.088   4.577
 4488SOL    HW113592   8.523   5.001   4.554
 4488SOL    HW213593   8.394   5.078   4.575
 4489SOL     OW13594   1.558   2.234   1.180
 4489SOL    HW113595   1.576   2.322   1.144
 4489SOL    HW213596   1.494   2.249   1.249
 4490SOL     OW13597   2.590   2.595   0.517
 4490SOL    HW113598   2.672   2.643   0.510
 4490SOL    HW213599   2.525   2.653   0.476
 4491SOL     OW13600   3.959   4.819   5.143
 4491SOL    HW113601   3.917   4.848   5.223
 4491SOL    HW213602   3.929   4.729   5.131
 4492SOL     OW13603   4.417   2.681   4.523
 4492SOL    HW113604   4.479   2.716   4.587
 4492SOL    HW213605   4.367   2.616   4.572
 4493SOL     OW13606   7.663   6.119   1.278
 4493SOL    HW113607   7.626   6.048   1.331
 4493SOL    HW213608   7.757   6.100   1.276
 4494SOL     OW13609   8.054   1.676   1.795
 4494SOL    HW113610   8.026   1.681   1.704
 4494SOL    HW213611   8.140   1.635   1.792
 4495SOL     OW13612   4.139   3.090   3.414
 4495SOL    HW113613   4.095   3.148   3.477
 4495SOL    HW213614   4.101   3.114   3.329
 4496SOL     OW13615   3.467   2.641   1.958
 4496SOL    HW113616   3.395   2.693   1.996
 4496SOL    HW213617   3.537   2.705   1.945
 4497SOL     OW13618   7.110   7.113   4.528
 4497SOL    HW113619   7.070   7.198   4.509
 4497SOL    HW213620   7.172   7.132   4.598
 4498SOL     OW13621   1.504   3.317   0.330
 4498SOL    HW113622   1.529   3.246   0.389
 4498SOL    HW213623   1.553   3.300   0.249
 4499SOL     OW13624   9.230   7.249   2.564
 4499SOL    HW113625   9.135   7.257   2.568
 4499SOL    HW213626   9.246   7.209   2.478
 4500SOL     OW13627   6.646   3.838   3.391
 4500SOL    HW113628   6.720   3.859   3.447
 4500SOL    HW213629   6.672   3.868   3.304
 4501SOL     OW13630   5.277   7.359   2.953
 4501SOL    HW113631   5.371   7.377   2.949
 4501SOL    HW213632   5.268   7.286   3.014
 4502SOL     OW13633   5.956   4.077   0.845
 4502SOL    HW113634   5.925   4.113   0.762
 4502SOL    HW213635   5.888   4.015   0.871
 4503SOL     OW13636   8.546   6.696   4.937
 4503SOL    HW113637   8.576   6.662   4.853
 4503SOL    HW213638   8.454   6.671   4.941
 4504SOL     OW13639   3.266   2.598   1.784
 4504SOL    HW113640   3.340   2.628   1.837
 4504SOL    HW213641   3.252   2.669   1.721
 4505SOL     OW13642   5.855   7.343   3.894
 4505SOL    HW113643   5.931   7.301   3.853
 4505SOL    HW213644   5.781   7.287   3.872
 4506SOL     OW13645   4.267   4.205   3.122
 4506SOL    HW113646   4.259   4.139   3.191
 4506SOL    HW213647   4.356   4.194   3.090
 4507SOL     OW13648   5.805   3.784   2.985
 4507SOL    HW113649   5.873   3.801   2.920
 4507SOL    HW213650   5.851   3.748   3.060
 4508SOL     OW13651   4.969   2.092   3.799
 4508SOL    HW113652   4.995   2.142   3.721
 4508SOL    HW213653   5.018   2.010   3.791
 4509SOL     OW13654   7.634   1.552   1.839
 4509SOL    HW113655   7.621   1.487   1.771
 4509SOL    HW213656   7.577   1.524   1.911
 4510SOL     OW13657   6.935   2.240   4.734
 4510SOL    HW113658   6.916   2.171   4.797
 4510SOL    HW213659   6.964   2.194   4.656
 4511SOL     OW13660   5.019   0.591   1.701
 4511SOL    HW113661   4.933   0.620   1.671
 4511SOL    HW213662   5.032   0.638   1.784
 4512SOL     OW13663   4.122   5.509   4.301
 4512SOL    HW113664   4.203   5.475   4.265
 4512SOL    HW213665   4.076   5.547   4.226
 4513SOL     OW13666   6.739   1.286   0.271
 4513SOL    HW113667   6.765   1.271   0.362
 4513SOL    HW213668   6.819   1.272   0.220
 4514SOL     OW13669   3.850   0.028   0.778
 4514SOL    HW113670   3.763   0.051   0.744
 4514SOL    HW213671   3.848  -0.067   0.788
 4515SOL     OW13672   6.736   3.534   0.469
 4515SOL    HW113673   6.737   3.439   0.482
 4515SOL    HW213674   6.649   3.561   0.497
 4516SOL     OW13675   6.949   4.548   0.977
 4516SOL    HW113676   7.030   4.553   1.028
 4516SOL    HW213677   6.908   4.634   0.988
 4517SOL     OW13678   4.961   0.159   2.887
 4517SOL    HW113679   4.906   0.203   2.951
 4517SOL    HW213680   4.918   0.075   2.871
 4518SOL     OW13681   8.309   5.652   3.799
 4518SOL    HW113682   8.317   5.638   3.894
 4518SOL    HW213683   8.351   5.736   3.784
 4519SOL     OW13684   6.672   6.526   0.181
 4519SOL    HW113685   6.698   6.578   0.257
 4519SOL    HW213686   6.706   6.575   0.106
 4520SOL     OW13687   6.056   1.358   2.436
 4520SOL    HW113688   5.975   1.313   2.459
 4520SOL    HW213689   6.034   1.451   2.442
 4521SOL     OW13690   3.818   7.207   2.093
 4521SOL    HW113691   3.891   7.206   2.155
 4521SOL    HW213692   3.837   7.282   2.036
 4522SOL     OW13693   4.940   0.058   1.320
 4522SOL    HW113694   4.880   0.132   1.328
 4522SOL    HW213695   5.005   0.087   1.256
 4523SOL     OW13696   7.432   5.504   3.306
 4523SOL    HW113697   7.410   5.416   3.276
 4523SOL    HW213698   7.412   5.502   3.400
 4524SOL     OW13699  10.849   2.990   4.907
 4524SOL    HW113700  10.850   3.071   4.857
 4524SOL    HW213701  10.793   3.008   4.982
 4525SOL     OW13702   7.520   2.972   0.298
 4525SOL    HW113703   7.492   3.044   0.241
 4525SOL    HW213704   7.529   3.012   0.385
 4526SOL     OW13705   5.498   0.476   4.903
 4526SOL    HW113706   5.409   0.441   4.912
 4526SOL    HW213707   5.487   0.557   4.852
 4527SOL     OW13708   6.468   4.104   1.485
 4527SOL    HW113709   6.483   4.017   1.449
 4527SOL    HW213710   6.522   4.162   1.431
 4528SOL     OW13711   7.360   4.694   3.171
 4528SOL    HW113712   7.393   4.782   3.191
 4528SOL    HW213713   7.273   4.692   3.212
 4529SOL     OW13714   9.142   6.883   2.437
 4529SOL    HW113715   9.101   6.816   2.491
 4529SOL    HW213716   9.070   6.935   2.403
 4530SOL     OW13717   9.592   3.971   3.137
 4530SOL    HW113718   9.585   3.991   3.230
 4530SOL    HW213719   9.613   4.055   3.096
 4531SOL     OW13720   4.976   4.850   5.066
 4531SOL    HW113721   5.059   4.822   5.026
 4531SOL    HW213722   4.930   4.768   5.086
 4532SOL     OW13723   2.191   2.537   0.660
 4532SOL    HW113724   2.096   2.527   0.659
 4532SOL    HW213725   2.209   2.597   0.732
 4533SOL     OW13726   5.463   4.201   4.684
 4533SOL    HW113727   5.486   4.188   4.776
 4533SOL    HW213728   5.542   4.234   4.643
 4534SOL     OW13729   5.572   3.622   4.290
 4534SOL    HW113730   5.504   3.556   4.276
 4534SOL    HW213731   5.577   3.632   4.386
 4535SOL     OW13732   7.618   2.086   4.482
 4535SOL    HW113733   7.526   2.060   4.493
 4535SOL    HW213734   7.614   2.173   4.443
 4536SOL     OW13735   2.630   1.544   0.502
 4536SOL    HW113736   2.686   1.474   0.535
 4536SOL    HW213737   2.566   1.559   0.571
 4537SOL     OW13738   7.415   6.608   2.931
 4537SOL    HW113739   7.485   6.670   2.909
 4537SOL    HW213740   7.385   6.636   3.018
 4538SOL     OW13741   3.331   4.307   1.905
 4538SOL    HW113742   3.416   4.295   1.948
 4538SOL    HW213743   3.304   4.219   1.879
 4539SOL     OW13744   2.119   7.392   1.331
 4539SOL    HW113745   2.090   7.348   1.411
 4539SOL    HW213746   2.105   7.485   1.348
 4540SOL     OW13747   1.656   2.468   0.780
 4540SOL    HW113748   1.739   2.420   0.773
 4540SOL    HW213749   1.642   2.505   0.693
 4541SOL     OW13750   1.886   4.438   0.724
 4541SOL    HW113751   1.972   4.478   0.711
 4541SOL    HW213752   1.873   4.385   0.645
 4542SOL     OW13753   3.187   3.920   2.130
 4542SOL    HW113754   3.157   3.835   2.162
 4542SOL    HW213755   3.253   3.947   2.194
 4543SOL     OW13756   7.900   0.129   1.076
 4543SOL    HW113757   7.971   0.191   1.090
 4543SOL    HW213758   7.943   0.051   1.040
 4544SOL     OW13759   2.868   5.518   1.440
 4544SOL    HW113760   2.875   5.462   1.518
 4544SOL    HW213761   2.956   5.518   1.402
 4545SOL     OW13762   3.446   3.670   2.971
 4545SOL    HW113763   3.480   3.637   3.054
 4545SOL    HW213764   3.485   3.758   2.963
 4546SOL     OW13765   4.570   5.678   3.328
 4546SOL    HW113766   4.540   5.629   3.251
 4546SOL    HW213767   4.644   5.730   3.296
 4547SOL     OW13768   9.620   5.205   4.874
 4547SOL    HW113769   9.655   5.292   4.893
 4547SOL    HW213770   9.667   5.147   4.934
 4548SOL     OW13771   8.968   1.626   5.249
 4548SOL    HW113772   8.953   1.606   5.342
 4548SOL    HW213773   9.043   1.686   5.250
 4549SOL     OW13774   4.695   2.640   3.803
 4549SOL    HW113775   4.648   2.645   3.886
 4549SOL    HW213776   4.628   2.655   3.737
 4550SOL     OW13777   6.597   1.256   2.704
 4550SOL    HW113778   6.571   1.201   2.630
 4550SOL    HW213779   6.515   1.294   2.736
 4551SOL     OW13780   7.876   6.109   1.655
 4551SOL    HW113781   7.963   6.072   1.668
 4551SOL    HW213782   7.816   6.036   1.667
 4552SOL     OW13783   6.887   1.633   0.883
 4552SOL    HW113784   6.854   1.714   0.843
 4552SOL    HW213785   6.917   1.580   0.809
 4553SOL     OW13786   3.042   3.492   0.156
 4553SOL    HW113787   3.108   3.555   0.127
 4553SOL    HW213788   2.988   3.541   0.218
 4554SOL     OW13789   2.364   4.120   2.301
 4554SOL    HW113790   2.305   4.178   2.252
 4554SOL    HW213791   2.329   4.120   2.390
 4555SOL     OW13792   8.223   6.282   2.939
 4555SOL    HW113793   8.310   6.313   2.917
 4555SOL    HW213794   8.225   6.188   2.922
 4556SOL     OW13795   4.931   1.653   2.008
 4556SOL    HW113796   4.895   1.612   1.929
 4556SOL    HW213797   5.019   1.680   1.982
 4557SOL     OW13798   5.816   4.466   2.514
 4557SOL    HW113799   5.834   4.375   2.539
 4557SOL    HW213800   5.839   4.518   2.591
 4558SOL     OW13801   1.607   7.207   1.226
 4558SOL    HW113802   1.520   7.171   1.242
 4558SOL    HW213803   1.662   7.131   1.209
 4559SOL     OW13804   2.457   6.609   2.287
 4559SOL    HW113805   2.515   6.684   2.274
 4559SOL    HW213806   2.501   6.556   2.353
 4560SOL     OW13807   3.728   5.614   1.323
 4560SOL    HW113808   3.786   5.668   1.377
 4560SOL    HW213809   3.644   5.660   1.325
 4561SOL     OW13810   2.041   7.260   1.543
 4561SOL    HW113811   1.978   7.193   1.520
 4561SOL    HW213812   2.017   7.286   1.632
 4562SOL     OW13813   5.582   2.036   2.544
 4562SOL    HW113814   5.506   1.979   2.534
 4562SOL    HW213815   5.566   2.084   2.624
 4563SOL     OW13816   9.810   1.993   3.746
 4563SOL    HW113817   9.827   2.079   3.710
 4563SOL    HW213818   9.715   1.983   3.743
 4564SOL     OW13819   6.473   3.226   3.637
 4564SOL    HW113820   6.463   3.168   3.713
 4564SOL    HW213821   6.453   3.314   3.671
 4565SOL     OW13822   2.339   6.104   0.197
 4565SOL    HW113823   2.346   6.009   0.203
 4565SOL    HW213824   2.253   6.119   0.158
 4566SOL     OW13825   9.257   2.130   4.274
 4566SOL    HW113826   9.210   2.083   4.342
 4566SOL    HW213827   9.190   2.157   4.211
 4567SOL     OW13828   6.282   5.362   2.022
 4567SOL    HW113829   6.341   5.308   1.969
 4567SOL    HW213830   6.203   5.309   2.032
 4568SOL     OW13831   0.993   7.133   0.656
 4568SOL    HW113832   0.911   7.175   0.632
 4568SOL    HW213833   0.972   7.082   0.734
 4569SOL     OW13834   4.310   1.251   0.428
 4569SOL    HW113835   4.215   1.252   0.434
 4569SOL    HW213836   4.329   1.208   0.345
 4570SOL     OW13837  10.345   5.724   4.961
 4570SOL    HW113838  10.382   5.731   5.049
 4570SOL    HW213839  10.315   5.633   4.955
 4571SOL     OW13840   7.543   1.942   4.085
 4571SOL    HW113841   7.623   1.966   4.037
 4571SOL    HW213842   7.555   1.980   4.172
 4572SOL     OW13843   3.223   0.181   1.269
 4572SOL    HW113844   3.251   0.246   1.334
 4572SOL    HW213845   3.223   0.229   1.186
 4573SOL     OW13846   7.957   1.640   0.709
 4573SOL    HW113847   7.973   1.734   0.715
 4573SOL    HW213848   7.951   1.611   0.800
 4574SOL     OW13849   3.711   2.527   0.524
 4574SOL    HW113850   3.789   2.495   0.569
 4574SOL    HW213851   3.717   2.622   0.530
 4575SOL     OW13852   3.444   1.848   3.587
 4575SOL    HW113853   3.537   1.864   3.600
 4575SOL    HW213854   3.418   1.910   3.518
 4576SOL     OW13855   8.503   5.908   2.417
 4576SOL    HW113856   8.508   5.829   2.470
 4576SOL    HW213857   8.551   5.887   2.337
 4577SOL     OW13858   8.277   7.233   4.548
 4577SOL    HW113859   8.220   7.309   4.554
 4577SOL    HW213860   8.361   7.262   4.584
 4578SOL     OW13861   8.338   5.068   2.322
 4578SOL    HW113862   8.334   5.149   2.270
 4578SOL    HW213863   8.368   5.002   2.260
 4579SOL     OW13864   6.962   3.746   2.770
 4579SOL    HW113865   6.878   3.783   2.744
 4579SOL    HW213866   6.992   3.697   2.693
 4580SOL     OW13867   7.885   4.313   2.615
 4580SOL    HW113868   7.798   4.282   2.641
 4580SOL    HW213869   7.875   4.407   2.603
 4581SOL     OW13870   6.520   0.065   3.815
 4581SOL    HW113871   6.615   0.066   3.807
 4581SOL    HW213872   6.494  -0.020   3.779
 4582SOL     OW13873   9.063   3.614   4.662
 4582SOL    HW113874   9.141   3.651   4.621
 4582SOL    HW213875   9.057   3.657   4.747
 4583SOL     OW13876   5.248   3.901   3.092
 4583SOL    HW113877   5.161   3.933   3.071
 4583SOL    HW213878   5.308   3.968   3.059
 4584SOL     OW13879   3.098   7.045   4.262
 4584SOL    HW113880   3.174   7.026   4.317
 4584SOL    HW213881   3.104   7.139   4.245
 4585SOL     OW13882   0.413   1.571   0.036
 4585SOL    HW113883   0.442   1.598  -0.052
 4585SOL    HW213884   0.495   1.558   0.084
 4586SOL     OW13885   0.628   5.386   0.488
 4586SOL    HW113886   0.638   5.478   0.513
 4586SOL    HW213887   0.713   5.346   0.510
 4587SOL     OW13888   3.696   0.940   0.316
 4587SOL    HW113889   3.668   0.882   0.386
 4587SOL    HW213890   3.791   0.929   0.312
 4588SOL     OW13891   1.107   5.874   1.343
 4588SOL    HW113892   1.074   5.952   1.389
 4588SOL    HW213893   1.202   5.882   1.348
 4589SOL     OW13894   4.407   0.069   1.012
 4589SOL    HW113895   4.320   0.092   0.979
 4589SOL    HW213896   4.442   0.150   1.046
 4590SOL     OW13897   1.496   3.370   1.478
 4590SOL    HW113898   1.552   3.427   1.532
 4590SOL    HW213899   1.557   3.308   1.439
 4591SOL     OW13900   5.624   3.076   1.479
 4591SOL    HW113901   5.672   3.007   1.433
 4591SOL    HW213902   5.690   3.142   1.498
 4592SOL     OW13903   4.572   1.674   4.317
 4592SOL    HW113904   4.587   1.743   4.252
 4592SOL    HW213905   4.479   1.654   4.309
 4593SOL     OW13906   2.832   7.038   2.243
 4593SOL    HW113907   2.868   7.046   2.331
 4593SOL    HW213908   2.892   7.089   2.188
 4594SOL     OW13909   8.188   6.017   2.856
 4594SOL    HW113910   8.138   5.980   2.784
 4594SOL    HW213911   8.123   6.032   2.925
 4595SOL     OW13912   3.517   6.400   1.943
 4595SOL    HW113913   3.434   6.372   1.983
 4595SOL    HW213914   3.530   6.489   1.977
 4596SOL     OW13915   4.060   5.323   1.224
 4596SOL    HW113916   4.052   5.231   1.252
 4596SOL    HW213917   4.064   5.372   1.306
 4597SOL     OW13918   5.094   6.574   1.386
 4597SOL    HW113919   5.021   6.578   1.448
 4597SOL    HW213920   5.063   6.515   1.318
 4598SOL     OW13921   7.733   5.299   1.238
 4598SOL    HW113922   7.792   5.315   1.164
 4598SOL    HW213923   7.789   5.258   1.304
 4599SOL     OW13924   7.425   4.416   3.726
 4599SOL    HW113925   7.369   4.341   3.708
 4599SOL    HW213926   7.485   4.420   3.652
 4600SOL     OW13927   6.865   3.715   5.050
 4600SOL    HW113928   6.953   3.689   5.076
 4600SOL    HW213929   6.827   3.754   5.128
 4601SOL     OW13930   6.797   7.446   4.976
 4601SOL    HW113931   6.811   7.517   4.913
 4601SOL    HW213932   6.716   7.405   4.948
 4602SOL     OW13933   2.095   1.625   0.969
 4602SOL    HW113934   2.036   1.586   0.904
 4602SOL    HW213935   2.135   1.551   1.014
 4603SOL     OW13936   3.919   4.317   4.423
 4603SOL    HW113937   3.933   4.343   4.332
 4603SOL    HW213938   3.980   4.370   4.473
 4604SOL     OW13939   7.291   4.128   2.992
 4604SOL    HW113940   7.214   4.072   3.008
 4604SOL    HW213941   7.359   4.091   3.047
 4605SOL     OW13942   5.435   0.165   3.494
 4605SOL    HW113943   5.433   0.143   3.588
 4605SOL    HW213944   5.457   0.083   3.451
 4606SOL     OW13945   6.750   0.751   3.430
 4606SOL    HW113946   6.831   0.751   3.380
 4606SOL    HW213947   6.719   0.661   3.426
 4607SOL     OW13948   3.653   6.984   0.653
 4607SOL    HW113949   3.646   6.889   0.664
 4607SOL    HW213950   3.641   7.019   0.741
 4608SOL     OW13951   8.867   4.195   4.510
 4608SOL    HW113952   8.908   4.161   4.589
 4608SOL    HW213953   8.781   4.153   4.508
 4609SOL     OW13954   6.558   2.221   4.598
 4609SOL    HW113955   6.605   2.238   4.679
 4609SOL    HW213956   6.624   2.185   4.539
 4610SOL     OW13957   7.927   4.953   1.529
 4610SOL    HW113958   7.913   4.973   1.621
 4610SOL    HW213959   7.931   4.857   1.525
 4611SOL     OW13960   7.137   1.101   3.802
 4611SOL    HW113961   7.199   1.173   3.797
 4611SOL    HW213962   7.143   1.059   3.716
 4612SOL     OW13963   8.562   4.816   4.559
 4612SOL    HW113964   8.490   4.823   4.496
 4612SOL    HW213965   8.543   4.736   4.607
 4613SOL     OW13966   7.576   2.646   1.713
 4613SOL    HW113967   7.486   2.618   1.726
 4613SOL    HW213968   7.626   2.599   1.779
 4614SOL     OW13969  10.005   0.032   4.083
 4614SOL    HW113970   9.976   0.121   4.067
 4614SOL    HW213971   9.927  -0.022   4.069
 4615SOL     OW13972   8.583   0.110   3.062
 4615SOL    HW113973   8.586   0.157   3.145
 4615SOL    HW213974   8.620   0.171   2.998
 4616SOL     OW13975   7.675   5.926   2.535
 4616SOL    HW113976   7.597   5.934   2.590
 4616SOL    HW213977   7.654   5.976   2.457
 4617SOL     OW13978   3.412   4.467   2.525
 4617SOL    HW113979   3.351   4.434   2.460
 4617SOL    HW213980   3.400   4.409   2.601
 4618SOL     OW13981   1.083   2.373   0.430
 4618SOL    HW113982   1.146   2.355   0.360
 4618SOL    HW213983   1.049   2.460   0.409
 4619SOL     OW13984   4.913   1.112   4.585
 4619SOL    HW113985   4.868   1.138   4.505
 4619SOL    HW213986   4.844   1.083   4.644
 4620SOL     OW13987   2.527   1.161   0.225
 4620SOL    HW113988   2.466   1.236   0.228
 4620SOL    HW213989   2.504   1.109   0.302
 4621SOL     OW13990   3.856   5.897   1.370
 4621SOL    HW113991   3.840   5.904   1.464
 4621SOL    HW213992   3.950   5.877   1.364
 4622SOL     OW13993   6.911   7.263   3.868
 4622SOL    HW113994   6.927   7.271   3.774
 4622SOL    HW213995   6.921   7.170   3.885
 4623SOL     OW13996   1.987   2.792   1.503
 4623SOL    HW113997   1.897   2.815   1.526
 4623SOL    HW213998   2.036   2.803   1.585
 4624SOL     OW13999   4.324   6.855   4.784
 4624SOL    HW114000   4.303   6.809   4.702
 4624SOL    HW214001   4.299   6.793   4.853
 4625SOL     OW14002   2.831   2.061   3.983
 4625SOL    HW114003   2.907   2.088   3.932
 4625SOL    HW214004   2.770   2.134   3.977
 4626SOL     OW14005   6.512   2.799   5.061
 4626SOL    HW114006   6.564   2.738   5.009
 4626SOL    HW214007   6.469   2.744   5.127
 4627SOL     OW14008   6.098   4.118   1.859
 4627SOL    HW114009   6.009   4.093   1.831
 4627SOL    HW214010   6.155   4.068   1.801
 4628SOL     OW14011   2.403   5.440   1.627
 4628SOL    HW114012   2.444   5.354   1.620
 4628SOL    HW214013   2.477   5.501   1.632
 4629SOL     OW14014   2.761   4.016   0.535
 4629SOL    HW114015   2.753   3.929   0.575
 4629SOL    HW214016   2.822   4.063   0.592
 4630SOL     OW14017   1.972   0.359   2.036
 4630SOL    HW114018   1.969   0.383   1.943
 4630SOL    HW214019   1.881   0.336   2.057
 4631SOL     OW14020   4.589   0.456   2.059
 4631SOL    HW114021   4.652   0.503   2.004
 4631SOL    HW214022   4.616   0.473   2.148
 4632SOL     OW14023   3.154   3.594   2.561
 4632SOL    HW114024   3.206   3.533   2.615
 4632SOL    HW214025   3.206   3.675   2.561
 4633SOL     OW14026  10.180   7.176   3.872
 4633SOL    HW114027  10.214   7.215   3.952
 4633SOL    HW214028  10.112   7.116   3.902
 4634SOL     OW14029   3.122   3.993   3.587
 4634SOL    HW114030   3.157   3.922   3.533
 4634SOL    HW214031   3.056   3.952   3.642
 4635SOL     OW14032   6.384   3.835   2.682
 4635SOL    HW114033   6.381   3.744   2.711
 4635SOL    HW214034   6.325   3.838   2.607
 4636SOL     OW14035   6.676   1.888   3.604
 4636SOL    HW114036   6.736   1.920   3.671
 4636SOL    HW214037   6.590   1.886   3.647
 4637SOL     OW14038   4.842   3.696   4.432
 4637SOL    HW114039   4.862   3.782   4.396
 4637SOL    HW214040   4.793   3.713   4.512
 4638SOL     OW14041   3.626   0.250   2.305
 4638SOL    HW114042   3.667   0.248   2.391
 4638SOL    HW214043   3.564   0.322   2.309
 4639SOL     OW14044   8.968   1.031   4.027
 4639SOL    HW114045   9.020   0.967   3.978
 4639SOL    HW214046   8.973   1.110   3.974
 4640SOL     OW14047   6.525   6.145   0.769
 4640SOL    HW114048   6.539   6.064   0.720
 4640SOL    HW214049   6.538   6.214   0.704
 4641SOL     OW14050   8.051   5.503   2.093
 4641SOL    HW114051   7.988   5.456   2.038
 4641SOL    HW214052   8.061   5.588   2.051
 4642SOL     OW14053   5.897   2.348   3.823
 4642SOL    HW114054   5.822   2.292   3.843
 4642SOL    HW214055   5.866   2.437   3.840
 4643SOL     OW14056   6.477   0.664   0.419
 4643SOL    HW114057   6.516   0.747   0.449
 4643SOL    HW214058   6.494   0.662   0.325
 4644SOL     OW14059   7.121   4.720   3.716
 4644SOL    HW114060   7.116   4.716   3.621
 4644SOL    HW214061   7.173   4.644   3.741
 4645SOL     OW14062   4.030   3.176   0.720
 4645SOL    HW114063   3.946   3.129   0.720
 4645SOL    HW214064   4.021   3.242   0.652
 4646SOL     OW14065   9.042   6.874   4.001
 4646SOL    HW114066   9.055   6.859   3.907
 4646SOL    HW214067   8.970   6.936   4.006
 4647SOL     OW14068   7.897   2.410   3.745
 4647SOL    HW114069   7.857   2.359   3.675
 4647SOL    HW214070   7.894   2.354   3.822
 4648SOL     OW14071   5.201   3.562   3.320
 4648SOL    HW114072   5.109   3.584   3.334
 4648SOL    HW214073   5.246   3.646   3.317
 4649SOL     OW14074   1.104   3.119   0.868
 4649SOL    HW114075   1.149   3.130   0.784
 4649SOL    HW214076   1.049   3.197   0.876
 4650SOL     OW14077   4.388   4.989   0.188
 4650SOL    HW114078   4.346   5.026   0.110
 4650SOL    HW214079   4.324   4.926   0.222
 4651SOL     OW14080   3.989   3.455   4.859
 4651SOL    HW114081   3.922   3.428   4.795
 4651SOL    HW214082   4.065   3.477   4.806
 4652SOL     OW14083   4.265   0.484   3.814
 4652SOL    HW114084   4.199   0.416   3.827
 4652SOL    HW214085   4.245   0.521   3.728
 4653SOL     OW14086   4.074   3.823   2.104
 4653SOL    HW114087   4.050   3.913   2.085
 4653SOL    HW214088   4.156   3.809   2.056
 4654SOL     OW14089   4.723   1.952   2.922
 4654SOL    HW114090   4.704   1.930   3.013
 4654SOL    HW214091   4.727   1.868   2.876
 4655SOL     OW14092   9.545   2.390   4.913
 4655SOL    HW114093   9.612   2.325   4.892
 4655SOL    HW214094   9.577   2.434   4.991
 4656SOL     OW14095   8.703   3.592   1.896
 4656SOL    HW114096   8.753   3.606   1.815
 4656SOL    HW214097   8.618   3.559   1.867
 4657SOL     OW14098   2.825   5.702   3.753
 4657SOL    HW114099   2.794   5.672   3.667
 4657SOL    HW214100   2.845   5.795   3.739
 4658SOL     OW14101   6.166   1.169   1.943
 4658SOL    HW114102   6.251   1.213   1.939
 4658SOL    HW214103   6.188   1.076   1.945
 4659SOL     OW14104   5.704   5.384   1.675
 4659SOL    HW114105   5.689   5.429   1.757
 4659SOL    HW214106   5.756   5.445   1.623
 4660SOL     OW14107   2.046   6.707   0.166
 4660SOL    HW114108   2.107   6.771   0.204
 4660SOL    HW214109   1.963   6.754   0.160
 4661SOL     OW14110   6.410   2.933   1.554
 4661SOL    HW114111   6.388   2.941   1.647
 4661SOL    HW214112   6.326   2.925   1.509
 4662SOL     OW14113   4.541   5.453   4.365
 4662SOL    HW114114   4.504   5.431   4.450
 4662SOL    HW214115   4.632   5.478   4.383
 4663SOL     OW14116  10.021   3.793   3.825
 4663SOL    HW114117   9.988   3.765   3.739
 4663SOL    HW214118  10.067   3.717   3.859
 4664SOL     OW14119   8.508   2.229   2.228
 4664SOL    HW114120   8.558   2.303   2.262
 4664SOL    HW214121   8.575   2.164   2.204
 4665SOL     OW14122   3.886   0.351   4.983
 4665SOL    HW114123   3.958   0.301   4.945
 4665SOL    HW214124   3.929   0.410   5.045
 4666SOL     OW14125   8.862   1.297   4.206
 4666SOL    HW114126   8.778   1.310   4.249
 4666SOL    HW214127   8.858   1.208   4.171
 4667SOL     OW14128   7.527   2.318   0.913
 4667SOL    HW114129   7.496   2.396   0.868
 4667SOL    HW214130   7.500   2.330   1.004
 4668SOL     OW14131   5.410   0.411   3.414
 4668SOL    HW114132   5.405   0.319   3.439
 4668SOL    HW214133   5.500   0.423   3.384
 4669SOL     OW14134   4.547   0.993   4.135
 4669SOL    HW114135   4.505   0.963   4.216
 4669SOL    HW214136   4.618   0.930   4.120
 4670SOL     OW14137  10.003   3.428   4.940
 4670SOL    HW114138  10.028   3.350   4.891
 4670SOL    HW214139  10.029   3.501   4.884
 4671SOL     OW14140   2.522   4.603   1.160
 4671SOL    HW114141   2.554   4.634   1.244
 4671SOL    HW214142   2.439   4.649   1.147
 4672SOL     OW14143   2.787   2.476   2.156
 4672SOL    HW114144   2.857   2.472   2.090
 4672SOL    HW214145   2.709   2.446   2.110
 4673SOL     OW14146   4.666   0.350   1.251
 4673SOL    HW114147   4.629   0.439   1.248
 4673SOL    HW214148   4.597   0.297   1.289
 4674SOL     OW14149   5.828   1.416   4.901
 4674SOL    HW114150   5.766   1.444   4.834
 4674SOL    HW214151   5.844   1.324   4.883
 4675SOL     OW14152   4.413   6.438   2.374
 4675SOL    HW114153   4.353   6.513   2.373
 4675SOL    HW214154   4.470   6.452   2.299
 4676SOL     OW14155  10.536   0.803   4.485
 4676SOL    HW114156  10.453   0.816   4.532
 4676SOL    HW214157  10.535   0.711   4.459
 4677SOL     OW14158   3.861   6.245   2.460
 4677SOL    HW114159   3.801   6.245   2.535
 4677SOL    HW214160   3.806   6.225   2.385
 4678SOL     OW14161   3.268   3.305   2.100
 4678SOL    HW114162   3.333   3.343   2.159
 4678SOL    HW214163   3.184   3.327   2.140
 4679SOL     OW14164   5.619   6.186   0.514
 4679SOL    HW114165   5.549   6.244   0.544
 4679SOL    HW214166   5.592   6.099   0.544
 4680SOL     OW14167   9.312   1.393   3.392
 4680SOL    HW114168   9.243   1.327   3.385
 4680SOL    HW214169   9.389   1.343   3.418
 4681SOL     OW14170   5.607   7.325   1.147
 4681SOL    HW114171   5.660   7.329   1.227
 4681SOL    HW214172   5.573   7.414   1.137
 4682SOL     OW14173   6.603   0.786   4.543
 4682SOL    HW114174   6.600   0.732   4.622
 4682SOL    HW214175   6.695   0.786   4.517
 4683SOL     OW14176   4.804   1.309   0.202
 4683SOL    HW114177   4.857   1.375   0.246
 4683SOL    HW214178   4.716   1.347   0.199
 4684SOL     OW14179   4.943   4.759   1.699
 4684SOL    HW114180   4.999   4.813   1.755
 4684SOL    HW214181   4.929   4.679   1.750
 4685SOL     OW14182   8.855   6.913   2.643
 4685SOL    HW114183   8.950   6.911   2.658
 4685SOL    HW214184   8.818   6.931   2.729
 4686SOL     OW14185   5.753   1.516   1.074
 4686SOL    HW114186   5.747   1.609   1.055
 4686SOL    HW214187   5.673   1.478   1.037
 4687SOL     OW14188   1.827   6.760   0.437
 4687SOL    HW114189   1.908   6.783   0.482
 4687SOL    HW214190   1.835   6.801   0.351
 4688SOL     OW14191   5.887   6.109   0.407
 4688SOL    HW114192   5.936   6.173   0.356
 4688SOL    HW214193   5.797   6.115   0.373
 4689SOL     OW14194   9.949   1.247   4.426
 4689SOL    HW114195   9.915   1.195   4.499
 4689SOL    HW214196  10.039   1.216   4.416
 4690SOL     OW14197   2.287   0.757   1.185
 4690SOL    HW114198   2.319   0.667   1.177
 4690SOL    HW214199   2.288   0.773   1.280
 4691SOL     OW14200   5.481   3.379   1.521
 4691SOL    HW114201   5.466   3.286   1.505
 4691SOL    HW214202   5.529   3.381   1.604
 4692SOL     OW14203   2.716   5.335   3.738
 4692SOL    HW114204   2.745   5.383   3.816
 4692SOL    HW214205   2.620   5.329   3.747
 4693SOL     OW14206   5.555   0.278   4.649
 4693SOL    HW114207   5.598   0.305   4.730
 4693SOL    HW214208   5.467   0.315   4.654
 4694SOL     OW14209   6.681   0.483   4.288
 4694SOL    HW114210   6.611   0.459   4.226
 4694SOL    HW214211   6.635   0.503   4.369
 4695SOL     OW14212   8.497   1.712   5.177
 4695SOL    HW114213   8.531   1.622   5.179
 4695SOL    HW214214   8.575   1.767   5.177
 4696SOL     OW14215   0.813   5.553   0.620
 4696SOL    HW114216   0.855   5.487   0.676
 4696SOL    HW214217   0.881   5.578   0.557
 4697SOL     OW14218   5.042   5.300   4.515
 4697SOL    HW114219   5.009   5.390   4.520
 4697SOL    HW214220   4.972   5.251   4.472
 4698SOL     OW14221   3.322   1.704   0.893
 4698SOL    HW114222   3.249   1.644   0.880
 4698SOL    HW214223   3.393   1.648   0.925
 4699SOL     OW14224   6.454   0.125   4.238
 4699SOL    HW114225   6.423   0.210   4.207
 4699SOL    HW214226   6.526   0.103   4.179
 4700SOL     OW14227   3.311   4.823   1.531
 4700SOL    HW114228   3.397   4.861   1.516
 4700SOL    HW214229   3.321   4.771   1.611
 4701SOL     OW14230   4.390   2.693   1.866
 4701SOL    HW114231   4.459   2.668   1.805
 4701SOL    HW214232   4.320   2.728   1.810
 4702SOL     OW14233   3.495   0.560   4.653
 4702SOL    HW114234   3.534   0.647   4.648
 4702SOL    HW214235   3.555   0.510   4.708
 4703SOL     OW14236   3.581   4.780   0.612
 4703SOL    HW114237   3.529   4.711   0.653
 4703SOL    HW214238   3.580   4.758   0.519
 4704SOL     OW14239   0.479   2.280   0.251
 4704SOL    HW114240   0.425   2.211   0.290
 4704SOL    HW214241   0.536   2.309   0.322
 4705SOL     OW14242   8.202   0.440   3.995
 4705SOL    HW114243   8.255   0.499   4.049
 4705SOL    HW214244   8.248   0.355   4.000
 4706SOL     OW14245   4.509   3.652   4.833
 4706SOL    HW114246   4.513   3.746   4.818
 4706SOL    HW214247   4.434   3.640   4.891
 4707SOL     OW14248   4.391   1.410   5.210
 4707SOL    HW114249   4.296   1.412   5.210
 4707SOL    HW214250   4.418   1.502   5.203
 4708SOL     OW14251   4.820   3.646   1.881
 4708SOL    HW114252   4.899   3.684   1.843
 4708SOL    HW214253   4.835   3.551   1.876
 4709SOL     OW14254   5.837   4.010   0.241
 4709SOL    HW114255   5.801   3.953   0.309
 4709SOL    HW214256   5.816   3.965   0.159
 4710SOL     OW14257   4.679   0.717   5.198
 4710SOL    HW114258   4.722   0.740   5.280
 4710SOL    HW214259   4.746   0.730   5.131
 4711SOL     OW14260   2.502   5.210   3.105
 4711SOL    HW114261   2.493   5.189   3.198
 4711SOL    HW214262   2.520   5.304   3.103
 4712SOL     OW14263   7.009   1.212   1.114
 4712SOL    HW114264   7.051   1.292   1.082
 4712SOL    HW214265   7.081   1.158   1.148
 4713SOL     OW14266   7.727   5.533   1.891
 4713SOL    HW114267   7.648   5.587   1.894
 4713SOL    HW214268   7.783   5.570   1.960
 4714SOL     OW14269   3.358   5.543   3.996
 4714SOL    HW114270   3.354   5.595   4.076
 4714SOL    HW214271   3.296   5.586   3.937
 4715SOL     OW14272   4.330   1.296   4.436
 4715SOL    HW114273   4.285   1.223   4.478
 4715SOL    HW214274   4.292   1.374   4.476
 4716SOL     OW14275   2.665   1.951   1.913
 4716SOL    HW114276   2.748   1.971   1.957
 4716SOL    HW214277   2.617   1.897   1.975
 4717SOL     OW14278   4.404   1.932   3.613
 4717SOL    HW114279   4.338   1.962   3.551
 4717SOL    HW214280   4.474   1.997   3.607
 4718SOL     OW14281   4.361   3.266   4.037
 4718SOL    HW114282   4.330   3.210   3.966
 4718SOL    HW214283   4.325   3.353   4.016
 4719SOL     OW14284   8.834   6.683   4.173
 4719SOL    HW114285   8.928   6.690   4.187
 4719SOL    HW214286   8.802   6.631   4.247
 4720SOL     OW14287   3.048   1.113   3.266
 4720SOL    HW114288   3.051   1.199   3.223
 4720SOL    HW214289   3.114   1.119   3.336
 4721SOL     OW14290  10.233   1.228   4.048
 4721SOL    HW114291  10.220   1.240   3.954
 4721SOL    HW214292  10.323   1.258   4.063
 4722SOL     OW14293   4.003   6.069   3.891
 4722SOL    HW114294   4.079   6.036   3.938
 4722SOL    HW214295   3.991   6.158   3.923
 4723SOL     OW14296   6.711   6.981   0.443
 4723SOL    HW114297   6.682   6.889   0.445
 4723SOL    HW214298   6.695   7.013   0.531
 4724SOL     OW14299   6.997   0.880   3.928
 4724SOL    HW114300   6.911   0.859   3.891
 4724SOL    HW214301   7.051   0.901   3.852
 4725SOL     OW14302   5.403   4.889   3.164
 4725SOL    HW114303   5.356   4.921   3.241
 4725SOL    HW214304   5.407   4.965   3.106
 4726SOL     OW14305   4.077   5.528   1.048
 4726SOL    HW114306   4.062   5.599   1.111
 4726SOL    HW214307   4.073   5.448   1.101
 4727SOL     OW14308   9.401   5.251   5.140
 4727SOL    HW114309   9.442   5.192   5.203
 4727SOL    HW214310   9.381   5.330   5.190
 4728SOL     OW14311   7.654   0.368   1.813
 4728SOL    HW114312   7.635   0.323   1.896
 4728SOL    HW214313   7.718   0.312   1.770
 4729SOL     OW14314   4.477   0.203   4.647
 4729SOL    HW114315   4.405   0.141   4.637
 4729SOL    HW214316   4.534   0.186   4.572
 4730SOL     OW14317   5.912   3.998   3.860
 4730SOL    HW114318   5.819   3.976   3.871
 4730SOL    HW214319   5.927   3.989   3.766
 4731SOL     OW14320   1.932   6.250   0.334
 4731SOL    HW114321   1.947   6.179   0.397
 4731SOL    HW214322   1.961   6.329   0.380
 4732SOL     OW14323   5.187   7.376   4.947
 4732SOL    HW114324   5.211   7.461   4.912
 4732SOL    HW214325   5.246   7.363   5.021
 4733SOL     OW14326   7.315   6.641   0.504
 4733SOL    HW114327   7.406   6.613   0.517
 4733SOL    HW214328   7.322   6.728   0.465
 4734SOL     OW14329   6.975   2.104   2.375
 4734SOL    HW114330   7.037   2.032   2.373
 4734SOL    HW214331   6.920   2.091   2.298
 4735SOL     OW14332   1.809   4.882   0.429
 4735SOL    HW114333   1.822   4.933   0.349
 4735SOL    HW214334   1.737   4.926   0.474
 4736SOL     OW14335   6.297   4.251   4.343
 4736SOL    HW114336   6.230   4.275   4.406
 4736SOL    HW214337   6.379   4.253   4.392
 4737SOL     OW14338   9.041   0.434   4.469
 4737SOL    HW114339   9.063   0.368   4.403
 4737SOL    HW214340   9.025   0.514   4.419
 4738SOL     OW14341   3.358   1.928   4.633
 4738SOL    HW114342   3.300   2.004   4.641
 4738SOL    HW214343   3.444   1.960   4.660
 4739SOL     OW14344   7.295   1.296   1.156
 4739SOL    HW114345   7.319   1.248   1.077
 4739SOL    HW214346   7.227   1.357   1.127
 4740SOL     OW14347   7.376   5.771   0.266
 4740SOL    HW114348   7.370   5.683   0.303
 4740SOL    HW214349   7.312   5.823   0.314
 4741SOL     OW14350   6.774   4.842   2.684
 4741SOL    HW114351   6.690   4.855   2.641
 4741SOL    HW214352   6.823   4.923   2.666
 4742SOL     OW14353   7.395   1.946   4.958
 4742SOL    HW114354   7.395   2.042   4.960
 4742SOL    HW214355   7.485   1.924   4.932
 4743SOL     OW14356  10.171   0.934   4.409
 4743SOL    HW114357  10.143   0.917   4.319
 4743SOL    HW214358  10.211   1.021   4.406
 4744SOL     OW14359   1.863   7.067   2.351
 4744SOL    HW114360   1.942   7.044   2.401
 4744SOL    HW214361   1.800   6.999   2.373
 4745SOL     OW14362   6.205   6.330   1.092
 4745SOL    HW114363   6.247   6.403   1.046
 4745SOL    HW214364   6.187   6.266   1.023
 4746SOL     OW14365   9.605   4.894   4.125
 4746SOL    HW114366   9.685   4.895   4.071
 4746SOL    HW214367   9.611   4.973   4.178
 4747SOL     OW14368   3.752   4.921   2.891
 4747SOL    HW114369   3.728   4.828   2.888
 4747SOL    HW214370   3.764   4.945   2.800
 4748SOL     OW14371   5.246   5.198   0.188
 4748SOL    HW114372   5.296   5.150   0.121
 4748SOL    HW214373   5.311   5.252   0.232
 4749SOL     OW14374   4.593   1.445   3.933
 4749SOL    HW114375   4.684   1.473   3.933
 4749SOL    HW214376   4.575   1.421   3.842
 4750SOL     OW14377   7.190   6.035   3.333
 4750SOL    HW114378   7.244   5.956   3.325
 4750SOL    HW214379   7.241   6.094   3.387
 4751SOL     OW14380   7.572   4.986   4.316
 4751SOL    HW114381   7.481   4.955   4.312
 4751SOL    HW214382   7.579   5.049   4.244
 4752SOL     OW14383   5.997   6.158   3.286
 4752SOL    HW114384   6.013   6.252   3.286
 4752SOL    HW214385   6.076   6.120   3.324
 4753SOL     OW14386   6.077   6.637   4.324
 4753SOL    HW114387   6.116   6.715   4.364
 4753SOL    HW214388   6.056   6.664   4.235
 4754SOL     OW14389   5.532   0.725   4.779
 4754SOL    HW114390   5.601   0.774   4.823
 4754SOL    HW214391   5.557   0.725   4.687
 4755SOL     OW14392   6.302   4.571   3.939
 4755SOL    HW114393   6.376   4.629   3.960
 4755SOL    HW214394   6.274   4.536   4.023
 4756SOL     OW14395   7.035   4.741   3.109
 4756SOL    HW114396   7.030   4.665   3.051
 4756SOL    HW214397   6.969   4.802   3.076
 4757SOL     OW14398   8.713   5.966   1.981
 4757SOL    HW114399   8.620   5.985   1.973
 4757SOL    HW214400   8.745   5.963   1.891
 4758SOL     OW14401   8.173   5.332   1.249
 4758SOL    HW114402   8.217   5.297   1.327
 4758SOL    HW214403   8.232   5.310   1.177
 4759SOL     OW14404  10.748   6.728   4.773
 4759SOL    HW114405  10.802   6.663   4.819
 4759SOL    HW214406  10.798   6.749   4.694
 4760SOL     OW14407   1.771   1.919   0.521
 4760SOL    HW114408   1.865   1.935   0.527
 4760SOL    HW214409   1.757   1.840   0.572
 4761SOL     OW14410   0.773   0.912   0.515
 4761SOL    HW114411   0.688   0.882   0.548
 4761SOL    HW214412   0.796   0.986   0.571
 4762SOL     OW14413   1.006   1.512   0.122
 4762SOL    HW114414   0.986   1.451   0.050
 4762SOL    HW214415   0.925   1.561   0.135
 4763SOL     OW14416   6.387   0.940   0.051
 4763SOL    HW114417   6.477   0.909   0.060
 4763SOL    HW214418   6.374   0.998   0.125
 4764SOL     OW14419   6.591   2.236   2.091
 4764SOL    HW114420   6.676   2.198   2.115
 4764SOL    HW214421   6.613   2.308   2.031
 4765SOL     OW14422   7.388   1.633   4.020
 4765SOL    HW114423   7.475   1.643   3.983
 4765SOL    HW214424   7.333   1.693   3.970
 4766SOL     OW14425   3.154   6.838   3.860
 4766SOL    HW114426   3.087   6.857   3.925
 4766SOL    HW214427   3.184   6.924   3.831
 4767SOL     OW14428   2.661   2.934   0.709
 4767SOL    HW114429   2.685   2.987   0.785
 4767SOL    HW214430   2.621   2.997   0.648
 4768SOL     OW14431   6.620   0.764   2.597
 4768SOL    HW114432   6.549   0.781   2.659
 4768SOL    HW214433   6.656   0.680   2.624
 4769SOL     OW14434   9.442   6.574   4.185
 4769SOL    HW114435   9.521   6.623   4.161
 4769SOL    HW214436   9.389   6.574   4.105
 4770SOL     OW14437   8.363   4.796   4.376
 4770SOL    HW114438   8.322   4.879   4.400
 4770SOL    HW214439   8.298   4.753   4.319
 4771SOL     OW14440   2.102   3.983   2.196
 4771SOL    HW114441   2.098   4.031   2.279
 4771SOL    HW214442   2.192   3.950   2.193
 4772SOL     OW14443   4.591   7.299   3.384
 4772SOL    HW114444   4.671   7.318   3.433
 4772SOL    HW214445   4.617   7.231   3.321
 4773SOL     OW14446   0.370   6.935   0.327
 4773SOL    HW114447   0.274   6.942   0.328
 4773SOL    HW214448   0.395   6.949   0.419
 4774SOL     OW14449   7.042   2.617   2.439
 4774SOL    HW114450   6.972   2.553   2.447
 4774SOL    HW214451   7.078   2.625   2.527
 4775SOL     OW14452   4.014   3.690   1.811
 4775SOL    HW114453   3.958   3.751   1.763
 4775SOL    HW214454   4.087   3.744   1.842
 4776SOL     OW14455   5.918   4.564   4.031
 4776SOL    HW114456   5.916   4.535   3.939
 4776SOL    HW214457   5.908   4.659   4.026
 4777SOL     OW14458   9.259   5.529   5.253
 4777SOL    HW114459   9.265   5.467   5.326
 4777SOL    HW214460   9.170   5.563   5.258
 4778SOL     OW14461   6.856   6.535   4.217
 4778SOL    HW114462   6.949   6.512   4.212
 4778SOL    HW214463   6.813   6.454   4.242
 4779SOL     OW14464   4.779   7.080   1.654
 4779SOL    HW114465   4.693   7.040   1.642
 4779SOL    HW214466   4.839   7.023   1.605
 4780SOL     OW14467   7.823   1.066   2.312
 4780SOL    HW114468   7.845   1.147   2.356
 4780SOL    HW214469   7.812   1.002   2.382
 4781SOL     OW14470   3.959   5.640   0.123
 4781SOL    HW114471   3.906   5.560   0.132
 4781SOL    HW214472   3.908   5.695   0.063
 4782SOL     OW14473   6.217   3.824   2.002
 4782SOL    HW114474   6.253   3.898   1.953
 4782SOL    HW214475   6.128   3.851   2.025
 4783SOL     OW14476   8.244   5.580   2.267
 4783SOL    HW114477   8.225   5.553   2.177
 4783SOL    HW214478   8.188   5.525   2.321
 4784SOL     OW14479   4.262   5.348   4.088
 4784SOL    HW114480   4.250   5.332   3.994
 4784SOL    HW214481   4.224   5.271   4.130
 4785SOL     OW14482   7.723   6.808   1.514
 4785SOL    HW114483   7.672   6.757   1.451
 4785SOL    HW214484   7.679   6.893   1.516
 4786SOL     OW14485   9.432   0.321   3.842
 4786SOL    HW114486   9.511   0.343   3.891
 4786SOL    HW214487   9.382   0.264   3.901
 4787SOL     OW14488   7.613   7.224   1.021
 4787SOL    HW114489   7.639   7.132   1.025
 4787SOL    HW214490   7.545   7.232   1.088
 4788SOL     OW14491   9.258   0.192   4.139
 4788SOL    HW114492   9.214   0.107   4.125
 4788SOL    HW214493   9.341   0.169   4.180
 4789SOL     OW14494   6.093   2.410   0.259
 4789SOL    HW114495   6.043   2.366   0.190
 4789SOL    HW214496   6.147   2.474   0.214
 4790SOL     OW14497   4.881   0.991   3.509
 4790SOL    HW114498   4.968   1.021   3.535
 4790SOL    HW214499   4.859   1.045   3.433
 4791SOL     OW14500   4.397   6.390   0.933
 4791SOL    HW114501   4.307   6.395   0.901
 4791SOL    HW214502   4.451   6.405   0.855
 4792SOL     OW14503   7.875   0.716   0.733
 4792SOL    HW114504   7.915   0.688   0.815
 4792SOL    HW214505   7.830   0.638   0.700
 4793SOL     OW14506   5.251   1.756   4.736
 4793SOL    HW114507   5.334   1.709   4.740
 4793SOL    HW214508   5.189   1.700   4.781
 4794SOL     OW14509   2.976   0.141   3.253
 4794SOL    HW114510   2.888   0.105   3.253
 4794SOL    HW214511   3.033   0.067   3.277
 4795SOL     OW14512   8.621   5.175   2.179
 4795SOL    HW114513   8.568   5.210   2.251
 4795SOL    HW214514   8.710   5.203   2.199
 4796SOL     OW14515   6.628   6.207   2.789
 4796SOL    HW114516   6.674   6.282   2.751
 4796SOL    HW214517   6.672   6.192   2.872
 4797SOL     OW14518   7.346   6.226   2.116
 4797SOL    HW114519   7.339   6.321   2.125
 4797SOL    HW214520   7.278   6.192   2.175
 4798SOL     OW14521   5.341   3.228   3.750
 4798SOL    HW114522   5.365   3.296   3.687
 4798SOL    HW214523   5.419   3.173   3.758
 4799SOL     OW14524   4.482   0.270   3.476
 4799SOL    HW114525   4.490   0.191   3.528
 4799SOL    HW214526   4.387   0.287   3.472
 4800SOL     OW14527   4.305   7.110   4.614
 4800SOL    HW114528   4.368   7.126   4.544
 4800SOL    HW214529   4.333   7.028   4.654
 4801SOL     OW14530   7.619   0.173   3.771
 4801SOL    HW114531   7.560   0.246   3.787
 4801SOL    HW214532   7.619   0.163   3.676
 4802SOL     OW14533   2.520   5.687   3.055
 4802SOL    HW114534   2.508   5.754   3.122
 4802SOL    HW214535   2.530   5.736   2.974
 4803SOL     OW14536  10.006   5.366   4.991
 4803SOL    HW114537  10.088   5.348   4.945
 4803SOL    HW214538  10.019   5.453   5.029
 4804SOL     OW14539   9.430   5.988   4.043
 4804SOL    HW114540   9.433   6.060   3.981
 4804SOL    HW214541   9.520   5.979   4.074
 4805SOL     OW14542   5.245   6.593   3.172
 4805SOL    HW114543   5.264   6.657   3.104
 4805SOL    HW214544   5.172   6.541   3.137
 4806SOL     OW14545   9.425   7.157   5.208
 4806SOL    HW114546   9.497   7.148   5.270
 4806SOL    HW214547   9.369   7.224   5.245
 4807SOL     OW14548   4.342   6.602   1.575
 4807SOL    HW114549   4.432   6.587   1.546
 4807SOL    HW214550   4.295   6.622   1.495
 4808SOL     OW14551   4.130   4.041   0.820
 4808SOL    HW114552   4.092   4.107   0.762
 4808SOL    HW214553   4.054   3.994   0.856
 4809SOL     OW14554   7.181   0.125   4.682
 4809SOL    HW114555   7.210   0.141   4.771
 4809SOL    HW214556   7.085   0.120   4.689
 4810SOL     OW14557   3.995   2.252   4.084
 4810SOL    HW114558   4.040   2.173   4.114
 4810SOL    HW214559   4.018   2.259   3.992
 4811SOL     OW14560   7.619   6.175   2.027
 4811SOL    HW114561   7.610   6.252   2.084
 4811SOL    HW214562   7.639   6.211   1.941
 4812SOL     OW14563   9.154   5.098   2.805
 4812SOL    HW114564   9.071   5.122   2.848
 4812SOL    HW214565   9.217   5.163   2.837
 4813SOL     OW14566   2.449   0.166   1.528
 4813SOL    HW114567   2.521   0.149   1.467
 4813SOL    HW214568   2.455   0.095   1.592
 4814SOL     OW14569   4.262   6.357   3.872
 4814SOL    HW114570   4.304   6.277   3.843
 4814SOL    HW214571   4.216   6.333   3.953
 4815SOL     OW14572   2.777   0.366   3.470
 4815SOL    HW114573   2.849   0.315   3.505
 4815SOL    HW214574   2.700   0.334   3.516
 4816SOL     OW14575   3.116   4.844   2.729
 4816SOL    HW114576   3.072   4.851   2.645
 4816SOL    HW214577   3.168   4.764   2.722
 4817SOL     OW14578   2.573   5.961   3.195
 4817SOL    HW114579   2.603   6.013   3.121
 4817SOL    HW214580   2.479   5.982   3.203
 4818SOL     OW14581   6.858   0.403   3.045
 4818SOL    HW114582   6.851   0.471   2.978
 4818SOL    HW214583   6.781   0.416   3.101
 4819SOL     OW14584   3.075   2.262   3.340
 4819SOL    HW114585   3.166   2.251   3.314
 4819SOL    HW214586   3.056   2.354   3.322
 4820SOL     OW14587   8.457   2.758   4.113
 4820SOL    HW114588   8.484   2.812   4.039
 4820SOL    HW214589   8.362   2.756   4.108
 4821SOL     OW14590   5.257   0.654   4.779
 4821SOL    HW114591   5.341   0.668   4.737
 4821SOL    HW214592   5.264   0.698   4.863
 4822SOL     OW14593   4.545   3.769   2.404
 4822SOL    HW114594   4.637   3.795   2.405
 4822SOL    HW214595   4.507   3.811   2.481
 4823SOL     OW14596   4.839   1.634   4.792
 4823SOL    HW114597   4.780   1.641   4.716
 4823SOL    HW214598   4.859   1.541   4.798
 4824SOL     OW14599   7.284   5.035   1.951
 4824SOL    HW114600   7.240   5.047   1.866
 4824SOL    HW214601   7.334   5.115   1.963
 4825SOL     OW14602   8.086   0.787   1.390
 4825SOL    HW114603   8.175   0.769   1.359
 4825SOL    HW214604   8.037   0.808   1.310
 4826SOL     OW14605   8.058   4.791   4.561
 4826SOL    HW114606   8.057   4.887   4.556
 4826SOL    HW214607   8.151   4.768   4.562
 4827SOL     OW14608   3.714   2.911   3.553
 4827SOL    HW114609   3.651   2.846   3.522
 4827SOL    HW214610   3.738   2.960   3.475
 4828SOL     OW14611   5.257   6.000   3.641
 4828SOL    HW114612   5.327   5.983   3.578
 4828SOL    HW214613   5.288   6.075   3.692
 4829SOL     OW14614   5.213   6.190   4.088
 4829SOL    HW114615   5.185   6.164   4.176
 4829SOL    HW214616   5.147   6.254   4.060
 4830SOL     OW14617   8.171   6.335   1.737
 4830SOL    HW114618   8.086   6.328   1.780
 4830SOL    HW214619   8.151   6.366   1.648
 4831SOL     OW14620   8.275   7.148   1.647
 4831SOL    HW114621   8.331   7.205   1.594
 4831SOL    HW214622   8.193   7.144   1.598
 4832SOL     OW14623   2.219   2.521   0.218
 4832SOL    HW114624   2.232   2.608   0.255
 4832SOL    HW214625   2.248   2.529   0.127
 4833SOL     OW14626   8.927   2.869   3.375
 4833SOL    HW114627   8.894   2.863   3.465
 4833SOL    HW214628   8.971   2.954   3.371
 4834SOL     OW14629   8.277   1.265   3.839
 4834SOL    HW114630   8.319   1.341   3.878
 4834SOL    HW214631   8.349   1.206   3.819
 4835SOL     OW14632   5.143   5.097   3.092
 4835SOL    HW114633   5.227   5.141   3.078
 4835SOL    HW214634   5.125   5.108   3.186
 4836SOL     OW14635   6.822   2.831   4.727
 4836SOL    HW114636   6.804   2.785   4.646
 4836SOL    HW214637   6.860   2.915   4.699
 4837SOL     OW14638   4.361   2.639   2.692
 4837SOL    HW114639   4.365   2.682   2.777
 4837SOL    HW214640   4.410   2.697   2.634
 4838SOL     OW14641   4.770   0.683   1.628
 4838SOL    HW114642   4.752   0.769   1.590
 4838SOL    HW214643   4.684   0.642   1.638
 4839SOL     OW14644   6.148   6.587   0.399
 4839SOL    HW114645   6.186   6.632   0.323
 4839SOL    HW214646   6.069   6.636   0.419
 4840SOL     OW14647   2.739   4.619   1.580
 4840SOL    HW114648   2.652   4.589   1.606
 4840SOL    HW214649   2.790   4.539   1.568
 4841SOL     OW14650   5.866   5.028   2.956
 4841SOL    HW114651   5.911   5.071   2.883
 4841SOL    HW214652   5.935   5.003   3.016
 4842SOL     OW14653   8.205   6.886   1.098
 4842SOL    HW114654   8.278   6.947   1.087
 4842SOL    HW214655   8.127   6.941   1.090
 4843SOL     OW14656   7.746   3.437   4.930
 4843SOL    HW114657   7.824   3.415   4.878
 4843SOL    HW214658   7.742   3.370   4.997
 4844SOL     OW14659   5.267   5.317   2.440
 4844SOL    HW114660   5.234   5.402   2.411
 4844SOL    HW214661   5.274   5.265   2.359
 4845SOL     OW14662   9.563   4.956   3.213
 4845SOL    HW114663   9.647   4.964   3.259
 4845SOL    HW214664   9.500   4.999   3.270
 4846SOL     OW14665   7.099   0.532   5.222
 4846SOL    HW114666   7.073   0.453   5.271
 4846SOL    HW214667   7.161   0.576   5.281
 4847SOL     OW14668   3.407   4.078   4.024
 4847SOL    HW114669   3.439   4.077   4.115
 4847SOL    HW214670   3.479   4.115   3.974
 4848SOL     OW14671   7.275   6.463   3.603
 4848SOL    HW114672   7.343   6.495   3.543
 4848SOL    HW214673   7.227   6.542   3.629
 4849SOL     OW14674   7.376   6.723   0.224
 4849SOL    HW114675   7.349   6.631   0.228
 4849SOL    HW214676   7.299   6.768   0.189
 4850SOL     OW14677   5.102   2.542   2.433
 4850SOL    HW114678   5.071   2.509   2.348
 4850SOL    HW214679   5.023   2.575   2.476
 4851SOL     OW14680   4.441   0.077   5.222
 4851SOL    HW114681   4.419   0.002   5.167
 4851SOL    HW214682   4.505   0.127   5.171
 4852SOL     OW14683   9.180   7.322   3.966
 4852SOL    HW114684   9.205   7.250   4.023
 4852SOL    HW214685   9.113   7.284   3.909
 4853SOL     OW14686  10.328   0.497   4.693
 4853SOL    HW114687  10.330   0.424   4.755
 4853SOL    HW214688  10.392   0.473   4.625
 4854SOL     OW14689   5.552   5.125   3.402
 4854SOL    HW114690   5.494   5.198   3.426
 4854SOL    HW214691   5.596   5.155   3.322
 4855SOL     OW14692   5.114   5.302   2.749
 4855SOL    HW114693   5.119   5.231   2.685
 4855SOL    HW214694   5.175   5.368   2.716
 4856SOL     OW14695   6.954   2.952   0.706
 4856SOL    HW114696   6.868   2.956   0.664
 4856SOL    HW214697   6.938   2.908   0.789
 4857SOL     OW14698   8.674   4.039   3.803
 4857SOL    HW114699   8.665   4.035   3.898
 4857SOL    HW214700   8.766   4.018   3.787
 4858SOL     OW14701   5.971   1.505   3.577
 4858SOL    HW114702   5.995   1.429   3.525
 4858SOL    HW214703   6.001   1.484   3.666
 4859SOL     OW14704   6.116   5.067   3.912
 4859SOL    HW114705   6.186   5.104   3.860
 4859SOL    HW214706   6.118   4.973   3.892
 4860SOL     OW14707   6.953   0.108   1.527
 4860SOL    HW114708   7.005   0.163   1.469
 4860SOL    HW214709   6.954   0.153   1.611
 4861SOL     OW14710   8.997   0.240   4.240
 4861SOL    HW114711   8.967   0.186   4.166
 4861SOL    HW214712   9.089   0.217   4.251
 4862SOL     OW14713   6.896   3.278   3.862
 4862SOL    HW114714   6.880   3.305   3.772
 4862SOL    HW214715   6.832   3.327   3.913
 4863SOL     OW14716   4.281   4.345   1.442
 4863SOL    HW114717   4.244   4.310   1.361
 4863SOL    HW214718   4.221   4.415   1.467
 4864SOL     OW14719   4.451   1.166   0.076
 4864SOL    HW114720   4.487   1.167   0.165
 4864SOL    HW214721   4.524   1.140   0.021
 4865SOL     OW14722   8.287   4.453   3.577
 4865SOL    HW114723   8.318   4.392   3.645
 4865SOL    HW214724   8.363   4.463   3.519
 4866SOL     OW14725   4.946   2.691   3.686
 4866SOL    HW114726   4.942   2.729   3.599
 4866SOL    HW214727   4.882   2.741   3.737
 4867SOL     OW14728   7.791   1.917   4.356
 4867SOL    HW114729   7.818   1.828   4.379
 4867SOL    HW214730   7.743   1.948   4.433
 4868SOL     OW14731   2.371   6.613   0.938
 4868SOL    HW114732   2.327   6.698   0.943
 4868SOL    HW214733   2.310   6.557   0.890
 4869SOL     OW14734   5.249   2.492   4.435
 4869SOL    HW114735   5.325   2.539   4.472
 4869SOL    HW214736   5.182   2.560   4.427
 4870SOL     OW14737   8.834   6.292   4.171
 4870SOL    HW114738   8.903   6.326   4.228
 4870SOL    HW214739   8.868   6.208   4.140
 4871SOL     OW14740   7.086   0.581   1.201
 4871SOL    HW114741   7.080   0.522   1.276
 4871SOL    HW214742   7.151   0.646   1.226
 4872SOL     OW14743   6.533   0.924   1.685
 4872SOL    HW114744   6.504   1.000   1.634
 4872SOL    HW214745   6.569   0.864   1.620
 4873SOL     OW14746   1.860   5.027   1.231
 4873SOL    HW114747   1.878   4.968   1.158
 4873SOL    HW214748   1.891   4.980   1.308
 4874SOL     OW14749   1.729   5.471   1.063
 4874SOL    HW114750   1.802   5.437   1.012
 4874SOL    HW214751   1.764   5.549   1.106
 4875SOL     OW14752   7.648   0.793   2.736
 4875SOL    HW114753   7.654   0.720   2.674
 4875SOL    HW214754   7.669   0.870   2.684
 4876SOL     OW14755   5.663   3.467   5.062
 4876SOL    HW114756   5.714   3.500   4.988
 4876SOL    HW214757   5.707   3.384   5.085
 4877SOL     OW14758   5.502   2.825   2.770
 4877SOL    HW114759   5.492   2.905   2.820
 4877SOL    HW214760   5.560   2.849   2.697
 4878SOL     OW14761   7.776   4.484   1.213
 4878SOL    HW114762   7.866   4.479   1.180
 4878SOL    HW214763   7.726   4.425   1.156
 4879SOL     OW14764   2.630   5.587   1.635
 4879SOL    HW114765   2.680   5.590   1.554
 4879SOL    HW214766   2.679   5.641   1.697
 4880SOL     OW14767   6.213   4.145   0.462
 4880SOL    HW114768   6.242   4.076   0.402
 4880SOL    HW214769   6.147   4.194   0.413
 4881SOL     OW14770   5.927   1.757   1.136
 4881SOL    HW114771   5.992   1.701   1.178
 4881SOL    HW214772   5.881   1.799   1.209
 4882SOL     OW14773   3.171   6.651   1.398
 4882SOL    HW114774   3.120   6.659   1.479
 4882SOL    HW214775   3.261   6.674   1.424
 4883SOL     OW14776   8.849   5.870   4.092
 4883SOL    HW114777   8.892   5.790   4.063
 4883SOL    HW214778   8.899   5.898   4.169
 4884SOL     OW14779   4.657   2.575   1.797
 4884SOL    HW114780   4.636   2.607   1.885
 4884SOL    HW214781   4.741   2.532   1.806
 4885SOL     OW14782   4.614   3.893   1.671
 4885SOL    HW114783   4.594   3.904   1.578
 4885SOL    HW214784   4.588   3.976   1.711
 4886SOL     OW14785  10.522   6.371   5.106
 4886SOL    HW114786  10.482   6.293   5.067
 4886SOL    HW214787  10.469   6.443   5.073
 4887SOL     OW14788   5.241   0.766   5.036
 4887SOL    HW114789   5.247   0.757   5.131
 4887SOL    HW214790   5.174   0.834   5.023
 4888SOL     OW14791   3.642   5.558   2.526
 4888SOL    HW114792   3.555   5.566   2.565
 4888SOL    HW214793   3.701   5.603   2.587
 4889SOL     OW14794   6.004   5.752   1.548
 4889SOL    HW114795   5.943   5.679   1.540
 4889SOL    HW214796   5.962   5.823   1.499
 4890SOL     OW14797   4.127   0.663   4.408
 4890SOL    HW114798   4.033   0.677   4.396
 4890SOL    HW214799   4.168   0.734   4.360
 4891SOL     OW14800   6.890   3.179   0.467
 4891SOL    HW114801   6.903   3.085   0.484
 4891SOL    HW214802   6.975   3.219   0.486
 4892SOL     OW14803   9.983   2.888   4.792
 4892SOL    HW114804   9.927   2.947   4.843
 4892SOL    HW214805   9.945   2.801   4.806
 4893SOL     OW14806   2.999   5.854   0.293
 4893SOL    HW114807   2.926   5.810   0.338
 4893SOL    HW214808   3.066   5.863   0.361
 4894SOL     OW14809   3.768   3.189   0.632
 4894SOL    HW114810   3.757   3.256   0.564
 4894SOL    HW214811   3.744   3.107   0.589
 4895SOL     OW14812   3.659   2.998   4.557
 4895SOL    HW114813   3.703   3.016   4.474
 4895SOL    HW214814   3.720   2.943   4.606
 4896SOL     OW14815   2.133   7.242   0.371
 4896SOL    HW114816   2.112   7.335   0.366
 4896SOL    HW214817   2.229   7.240   0.379
 4897SOL     OW14818   4.939   5.917   0.554
 4897SOL    HW114819   4.902   6.002   0.534
 4897SOL    HW214820   5.015   5.909   0.495
 4898SOL     OW14821   7.023   3.556   0.830
 4898SOL    HW114822   6.934   3.562   0.796
 4898SOL    HW214823   7.032   3.631   0.888
 4899SOL     OW14824   7.981   7.216   2.974
 4899SOL    HW114825   7.969   7.165   3.055
 4899SOL    HW214826   7.892   7.239   2.947
 4900SOL     OW14827   6.291   2.103   4.680
 4900SOL    HW114828   6.305   2.129   4.771
 4900SOL    HW214829   6.275   2.185   4.634
 4901SOL     OW14830   0.971   4.077   1.050
 4901SOL    HW114831   1.025   4.145   1.090
 4901SOL    HW214832   1.014   4.059   0.967
 4902SOL     OW14833   7.930   4.579   2.504
 4902SOL    HW114834   7.873   4.539   2.438
 4902SOL    HW214835   7.891   4.664   2.520
 4903SOL     OW14836   4.626   4.927   3.032
 4903SOL    HW114837   4.568   5.002   3.044
 4903SOL    HW214838   4.688   4.955   2.965
 4904SOL     OW14839   6.102   7.365   0.539
 4904SOL    HW114840   6.149   7.284   0.515
 4904SOL    HW214841   6.017   7.335   0.570
 4905SOL     OW14842   2.849   1.154   2.058
 4905SOL    HW114843   2.825   1.083   1.999
 4905SOL    HW214844   2.835   1.233   2.007
 4906SOL     OW14845   7.653   1.681   2.189
 4906SOL    HW114846   7.616   1.701   2.103
 4906SOL    HW214847   7.747   1.693   2.178
 4907SOL     OW14848   4.882   6.102   4.153
 4907SOL    HW114849   4.884   6.108   4.248
 4907SOL    HW214850   4.888   6.009   4.134
 4908SOL     OW14851   9.695   2.064   3.436
 4908SOL    HW114852   9.755   2.093   3.505
 4908SOL    HW214853   9.734   1.984   3.401
 4909SOL     OW14854   5.850   7.339   0.084
 4909SOL    HW114855   5.852   7.253   0.041
 4909SOL    HW214856   5.917   7.390   0.039
 4910SOL     OW14857   0.886   6.158   0.033
 4910SOL    HW114858   0.906   6.245   0.066
 4910SOL    HW214859   0.889   6.167  -0.063
 4911SOL     OW14860   2.898   3.286   0.888
 4911SOL    HW114861   2.928   3.377   0.885
 4911SOL    HW214862   2.854   3.273   0.805
 4912SOL     OW14863   8.999   6.099   4.048
 4912SOL    HW114864   8.952   6.019   4.025
 4912SOL    HW214865   9.012   6.144   3.964
 4913SOL     OW14866   3.934   4.141   1.045
 4913SOL    HW114867   3.997   4.091   1.097
 4913SOL    HW214868   3.944   4.231   1.075
 4914SOL     OW14869   4.266   6.233   2.494
 4914SOL    HW114870   4.253   6.328   2.501
 4914SOL    HW214871   4.182   6.200   2.461
 4915SOL     OW14872   4.843   6.883   3.729
 4915SOL    HW114873   4.801   6.874   3.815
 4915SOL    HW214874   4.795   6.955   3.687
 4916SOL     OW14875   5.468   2.596   3.460
 4916SOL    HW114876   5.556   2.583   3.424
 4916SOL    HW214877   5.409   2.579   3.387
 4917SOL     OW14878   5.300   1.861   1.725
 4917SOL    HW114879   5.322   1.798   1.657
 4917SOL    HW214880   5.376   1.918   1.731
 4918SOL     OW14881   4.523   0.937   0.863
 4918SOL    HW114882   4.478   0.928   0.779
 4918SOL    HW214883   4.608   0.974   0.841
 4919SOL     OW14884   3.688   0.778   4.938
 4919SOL    HW114885   3.616   0.736   4.986
 4919SOL    HW214886   3.694   0.865   4.977
 4920SOL     OW14887   4.802   4.709   4.490
 4920SOL    HW114888   4.840   4.706   4.402
 4920SOL    HW214889   4.708   4.717   4.474
 4921SOL     OW14890   4.608   1.861   1.327
 4921SOL    HW114891   4.571   1.794   1.384
 4921SOL    HW214892   4.683   1.819   1.286
 4922SOL     OW14893   7.418   2.482   0.157
 4922SOL    HW114894   7.405   2.575   0.180
 4922SOL    HW214895   7.392   2.434   0.236
 4923SOL     OW14896   3.075   6.631   4.338
 4923SOL    HW114897   3.084   6.550   4.387
 4923SOL    HW214898   3.097   6.607   4.248
 4924SOL     OW14899   6.438   4.945   2.945
 4924SOL    HW114900   6.364   5.006   2.952
 4924SOL    HW214901   6.403   4.861   2.976
 4925SOL     OW14902   8.053   1.445   4.262
 4925SOL    HW114903   8.022   1.355   4.274
 4925SOL    HW214904   8.072   1.450   4.168
 4926SOL     OW14905   7.864   0.557   2.645
 4926SOL    HW114906   7.885   0.650   2.655
 4926SOL    HW214907   7.929   0.512   2.699
 4927SOL     OW14908   4.918   2.061   4.226
 4927SOL    HW114909   4.953   2.112   4.153
 4927SOL    HW214910   4.975   2.084   4.300
 4928SOL     OW14911  10.758   6.044   5.006
 4928SOL    HW114912  10.742   5.961   4.962
 4928SOL    HW214913  10.677   6.062   5.054
 4929SOL     OW14914   4.342   5.146   3.544
 4929SOL    HW114915   4.330   5.195   3.463
 4929SOL    HW214916   4.313   5.057   3.523
 4930SOL     OW14917   8.280   6.183   4.091
 4930SOL    HW114918   8.292   6.098   4.134
 4930SOL    HW214919   8.185   6.193   4.085
 4931SOL     OW14920   8.041   0.223   4.935
 4931SOL    HW114921   8.062   0.129   4.932
 4931SOL    HW214922   8.114   0.262   4.983
 4932SOL     OW14923   7.708   3.604   1.754
 4932SOL    HW114924   7.773   3.667   1.722
 4932SOL    HW214925   7.684   3.553   1.677
 4933SOL     OW14926   7.912   6.555   4.446
 4933SOL    HW114927   7.817   6.542   4.448
 4933SOL    HW214928   7.923   6.647   4.421
 4934SOL     OW14929   3.135   3.885   2.535
 4934SOL    HW114930   3.172   3.900   2.623
 4934SOL    HW214931   3.041   3.899   2.546
 4935SOL     OW14932   3.955   5.682   3.048
 4935SOL    HW114933   4.042   5.708   3.078
 4935SOL    HW214934   3.922   5.624   3.117
 4936SOL     OW14935   8.380   4.351   3.117
 4936SOL    HW114936   8.322   4.336   3.191
 4936SOL    HW214937   8.331   4.410   3.060
 4937SOL     OW14938   5.341   1.398   4.165
 4937SOL    HW114939   5.435   1.382   4.156
 4937SOL    HW214940   5.300   1.316   4.139
 4938SOL     OW14941   4.925   2.610   0.665
 4938SOL    HW114942   4.840   2.570   0.686
 4938SOL    HW214943   4.938   2.590   0.573
 4939SOL     OW14944   5.226   1.201   4.345
 4939SOL    HW114945   5.186   1.285   4.368
 4939SOL    HW214946   5.315   1.206   4.380
 4940SOL     OW14947   9.206   6.548   2.919
 4940SOL    HW114948   9.201   6.600   2.999
 4940SOL    HW214949   9.289   6.500   2.926
 4941SOL     OW14950   4.734   0.581   1.069
 4941SOL    HW114951   4.691   0.583   0.984
 4941SOL    HW214952   4.716   0.493   1.103
 4942SOL     OW14953   6.734   6.106   0.455
 4942SOL    HW114954   6.815   6.087   0.409
 4942SOL    HW214955   6.673   6.133   0.387
 4943SOL     OW14956   1.079   0.923   0.425
 4943SOL    HW114957   1.111   0.998   0.476
 4943SOL    HW214958   1.083   0.953   0.334
 4944SOL     OW14959   7.013   2.493   2.939
 4944SOL    HW114960   7.083   2.479   3.003
 4944SOL    HW214961   6.997   2.406   2.902
 4945SOL     OW14962   4.655   0.596   0.829
 4945SOL    HW114963   4.588   0.593   0.761
 4945SOL    HW214964   4.737   0.612   0.781
 4946SOL     OW14965   2.789   2.718   2.262
 4946SOL    HW114966   2.780   2.635   2.216
 4946SOL    HW214967   2.775   2.696   2.354
 4947SOL     OW14968   0.423   2.460   0.527
 4947SOL    HW114969   0.512   2.460   0.492
 4947SOL    HW214970   0.368   2.487   0.453
 4948SOL     OW14971   4.663   1.952   0.227
 4948SOL    HW114972   4.659   2.018   0.296
 4948SOL    HW214973   4.592   1.891   0.247
 4949SOL     OW14974   6.498   4.762   4.054
 4949SOL    HW114975   6.577   4.742   4.103
 4949SOL    HW214976   6.450   4.824   4.110
 4950SOL     OW14977   3.568   0.498   2.479
 4950SOL    HW114978   3.610   0.436   2.540
 4950SOL    HW214979   3.641   0.546   2.440
 4951SOL     OW14980   3.323   6.667   3.599
 4951SOL    HW114981   3.277   6.680   3.682
 4951SOL    HW214982   3.296   6.740   3.544
 4952SOL     OW14983  10.348   2.693   4.182
 4952SOL    HW114984  10.370   2.786   4.194
 4952SOL    HW214985  10.335   2.684   4.087
 4953SOL     OW14986   7.745   4.322   2.201
 4953SOL    HW114987   7.832   4.282   2.208
 4953SOL    HW214988   7.707   4.282   2.123
 4954SOL     OW14989  10.036   0.426   4.543
 4954SOL    HW114990  10.075   0.394   4.461
 4954SOL    HW214991  10.033   0.521   4.533
 4955SOL     OW14992   6.723   0.752   2.216
 4955SOL    HW114993   6.686   0.742   2.304
 4955SOL    HW214994   6.659   0.709   2.159
 4956SOL     OW14995   8.514   2.639   2.067
 4956SOL    HW114996   8.423   2.668   2.075
 4956SOL    HW214997   8.545   2.684   1.988
 4957SOL     OW14998   8.437   0.120   2.423
 4957SOL    HW114999   8.401   0.186   2.363
 4957SOL    HW215000   8.529   0.143   2.432
 4958SOL     OW15001   7.801   2.190   4.716
 4958SOL    HW115002   7.760   2.141   4.645
 4958SOL    HW215003   7.731   2.205   4.779
 4959SOL     OW15004   3.153   3.094   0.920
 4959SOL    HW115005   3.164   3.150   0.997
 4959SOL    HW215006   3.233   3.107   0.869
 4960SOL     OW15007   4.549   0.160   1.946
 4960SOL    HW115008   4.576   0.247   1.977
 4960SOL    HW215009   4.626   0.105   1.959
 4961SOL     OW15010   4.560   4.113   4.316
 4961SOL    HW115011   4.654   4.104   4.330
 4961SOL    HW215012   4.538   4.197   4.355
 4962SOL     OW15013  10.150   5.756   3.952
 4962SOL    HW115014  10.199   5.789   4.028
 4962SOL    HW215015  10.217   5.723   3.892
 4963SOL     OW15016   3.982   7.151   3.919
 4963SOL    HW115017   4.071   7.120   3.901
 4963SOL    HW215018   3.992   7.212   3.993
 4964SOL     OW15019   9.387   5.789   5.163
 4964SOL    HW115020   9.408   5.730   5.236
 4964SOL    HW215021   9.314   5.842   5.196
 4965SOL     OW15022   8.878   3.782   3.803
 4965SOL    HW115023   8.934   3.849   3.764
 4965SOL    HW215024   8.835   3.740   3.728
 4966SOL     OW15025   8.282   2.457   2.416
 4966SOL    HW115026   8.272   2.362   2.424
 4966SOL    HW215027   8.316   2.485   2.501
 4967SOL     OW15028   8.490   5.070   2.682
 4967SOL    HW115029   8.403   5.100   2.708
 4967SOL    HW215030   8.473   5.005   2.613
 4968SOL     OW15031   1.101   4.486   0.820
 4968SOL    HW115032   1.167   4.486   0.751
 4968SOL    HW215033   1.134   4.547   0.886
 4969SOL     OW15034   7.258   0.583   1.437
 4969SOL    HW115035   7.319   0.514   1.466
 4969SOL    HW215036   7.236   0.629   1.518
 4970SOL     OW15037   3.021   4.688   1.727
 4970SOL    HW115038   3.043   4.607   1.773
 4970SOL    HW215039   3.084   4.692   1.654
 4971SOL     OW15040   4.375   1.325   1.542
 4971SOL    HW115041   4.411   1.342   1.455
 4971SOL    HW215042   4.289   1.285   1.525
 4972SOL     OW15043   6.955   2.817   5.017
 4972SOL    HW115044   6.877   2.762   5.019
 4972SOL    HW215045   6.946   2.874   5.094
 4973SOL     OW15046   5.556   3.152   3.539
 4973SOL    HW115047   5.558   3.149   3.444
 4973SOL    HW215048   5.531   3.064   3.566
 4974SOL     OW15049   8.314   6.671   2.827
 4974SOL    HW115050   8.347   6.591   2.866
 4974SOL    HW215051   8.245   6.643   2.768
 4975SOL     OW15052   6.693   0.257   4.810
 4975SOL    HW115053   6.670   0.336   4.860
 4975SOL    HW215054   6.623   0.195   4.830
 4976SOL     OW15055   9.538   6.895   3.102
 4976SOL    HW115056   9.499   6.972   3.060
 4976SOL    HW215057   9.630   6.897   3.075
 4977SOL     OW15058   5.377   3.695   0.309
 4977SOL    HW115059   5.380   3.790   0.299
 4977SOL    HW215060   5.285   3.675   0.328
 4978SOL     OW15061   7.118   3.383   2.797
 4978SOL    HW115062   7.090   3.346   2.714
 4978SOL    HW215063   7.214   3.379   2.794
 4979SOL     OW15064   2.931   0.624   3.394
 4979SOL    HW115065   2.977   0.559   3.342
 4979SOL    HW215066   2.894   0.574   3.468
 4980SOL     OW15067   2.228   6.607   0.590
 4980SOL    HW115068   2.272   6.535   0.634
 4980SOL    HW215069   2.230   6.680   0.652
 4981SOL     OW15070   9.887   5.134   4.414
 4981SOL    HW115071   9.818   5.113   4.478
 4981SOL    HW215072   9.879   5.229   4.401
 4982SOL     OW15073  10.808   1.905   5.007
 4982SOL    HW115074  10.769   1.831   4.961
 4982SOL    HW215075  10.864   1.865   5.074
 4983SOL     OW15076   6.113   1.358   3.942
 4983SOL    HW115077   6.058   1.307   4.002
 4983SOL    HW215078   6.083   1.334   3.855
 4984SOL     OW15079   8.693   4.405   1.968
 4984SOL    HW115080   8.788   4.418   1.967
 4984SOL    HW215081   8.658   4.486   2.005
 4985SOL     OW15082   9.651   1.182   3.499
 4985SOL    HW115083   9.595   1.145   3.431
 4985SOL    HW215084   9.679   1.107   3.551
 4986SOL     OW15085   4.992   3.742   0.191
 4986SOL    HW115086   5.033   3.679   0.249
 4986SOL    HW215087   4.934   3.690   0.136
 4987SOL     OW15088   1.538   0.314   1.385
 4987SOL    HW115089   1.507   0.381   1.446
 4987SOL    HW215090   1.461   0.261   1.366
 4988SOL     OW15091   7.655   5.799   5.067
 4988SOL    HW115092   7.673   5.705   5.077
 4988SOL    HW215093   7.735   5.842   5.096
 4989SOL     OW15094   4.344   1.836   2.423
 4989SOL    HW115095   4.388   1.818   2.507
 4989SOL    HW215096   4.280   1.904   2.444
 4990SOL     OW15097   7.283   3.054   5.021
 4990SOL    HW115098   7.218   3.005   4.971
 4990SOL    HW215099   7.235   3.087   5.097
 4991SOL     OW15100  10.215   2.882   4.881
 4991SOL    HW115101  10.193   2.872   4.974
 4991SOL    HW215102  10.131   2.894   4.837
 4992SOL     OW15103   1.662   2.272   0.119
 4992SOL    HW115104   1.726   2.234   0.059
 4992SOL    HW215105   1.712   2.334   0.172
 4993SOL     OW15106   7.284   4.061   3.317
 4993SOL    HW115107   7.305   4.155   3.320
 4993SOL    HW215108   7.330   4.024   3.392
 4994SOL     OW15109   4.275   7.111   2.168
 4994SOL    HW115110   4.230   7.028   2.187
 4994SOL    HW215111   4.241   7.137   2.083
 4995SOL     OW15112   7.742   7.186   1.531
 4995SOL    HW115113   7.650   7.186   1.556
 4995SOL    HW215114   7.782   7.251   1.590
 4996SOL     OW15115   8.526   6.840   2.984
 4996SOL    HW115116   8.501   6.876   2.898
 4996SOL    HW215117   8.561   6.754   2.964
 4997SOL     OW15118   3.492   5.884   0.421
 4997SOL    HW115119   3.484   5.978   0.403
 4997SOL    HW215120   3.586   5.869   0.426
 4998SOL     OW15121   2.695   6.643   1.899
 4998SOL    HW115122   2.776   6.603   1.929
 4998SOL    HW215123   2.695   6.730   1.937
 4999SOL     OW15124   3.344   2.925   1.132
 4999SOL    HW115125   3.339   2.895   1.222
 4999SOL    HW215126   3.329   3.019   1.137
 5000SOL     OW15127   5.957   5.398   3.206
 5000SOL    HW115128   5.943   5.475   3.151
 5000SOL    HW215129   6.039   5.360   3.175
 5001SOL     OW15130   6.361   3.106   4.716
 5001SOL    HW115131   6.321   3.045   4.779
 5001SOL    HW215132   6.423   3.052   4.666
 5002SOL     OW15133   1.210   3.360   1.571
 5002SOL    HW115134   1.228   3.321   1.485
 5002SOL    HW215135   1.115   3.364   1.576
 5003SOL     OW15136   2.693   1.886   1.088
 5003SOL    HW115137   2.634   1.824   1.046
 5003SOL    HW215138   2.680   1.968   1.040
 5004SOL     OW15139   9.507   0.081   3.290
 5004SOL    HW115140   9.588   0.131   3.282
 5004SOL    HW215141   9.448   0.139   3.339
 5005SOL     OW15142   9.894   5.397   4.387
 5005SOL    HW115143   9.967   5.445   4.424
 5005SOL    HW215144   9.852   5.459   4.328
 5006SOL     OW15145   0.886   7.350   1.115
 5006SOL    HW115146   0.840   7.382   1.193
 5006SOL    HW215147   0.947   7.421   1.093
 5007SOL     OW15148   5.413   1.130   0.781
 5007SOL    HW115149   5.460   1.104   0.861
 5007SOL    HW215150   5.470   1.101   0.710
 5008SOL     OW15151   1.755   3.325   1.301
 5008SOL    HW115152   1.708   3.287   1.227
 5008SOL    HW215153   1.788   3.249   1.349
 5009SOL     OW15154   8.719   5.529   5.036
 5009SOL    HW115155   8.642   5.496   5.082
 5009SOL    HW215156   8.793   5.500   5.088
 5010SOL     OW15157   7.451   1.182   3.093
 5010SOL    HW115158   7.476   1.161   3.183
 5010SOL    HW215159   7.361   1.150   3.085
 5011SOL     OW15160   3.796   7.198   5.147
 5011SOL    HW115161   3.843   7.269   5.103
 5011SOL    HW215162   3.851   7.174   5.221
 5012SOL     OW15163   4.627   1.330   2.249
 5012SOL    HW115164   4.693   1.324   2.319
 5012SOL    HW215165   4.581   1.246   2.253
 5013SOL     OW15166   7.628   2.282   3.322
 5013SOL    HW115167   7.718   2.251   3.329
 5013SOL    HW215168   7.576   2.213   3.362
 5014SOL     OW15169   9.182   6.874   3.572
 5014SOL    HW115170   9.125   6.949   3.592
 5014SOL    HW215171   9.218   6.894   3.486
 5015SOL     OW15172   3.950   2.053   3.616
 5015SOL    HW115173   4.046   2.058   3.624
 5015SOL    HW215174   3.918   2.064   3.706
 5016SOL     OW15175   5.087   6.732   3.636
 5016SOL    HW115176   5.010   6.751   3.690
 5016SOL    HW215177   5.112   6.817   3.600
 5017SOL     OW15178   7.756   1.475   4.356
 5017SOL    HW115179   7.735   1.402   4.298
 5017SOL    HW215180   7.832   1.517   4.314
 5018SOL     OW15181   6.984   6.593   1.430
 5018SOL    HW115182   7.037   6.601   1.509
 5018SOL    HW215183   6.948   6.504   1.433
 5019SOL     OW15184   3.660   0.176   1.326
 5019SOL    HW115185   3.620   0.237   1.264
 5019SOL    HW215186   3.715   0.231   1.382
 5020SOL     OW15187   7.997   5.310   2.694
 5020SOL    HW115188   8.079   5.351   2.721
 5020SOL    HW215189   8.019   5.266   2.611
 5021SOL     OW15190   3.564   6.451   4.305
 5021SOL    HW115191   3.533   6.361   4.309
 5021SOL    HW215192   3.635   6.456   4.369
 5022SOL     OW15193   7.770   6.547   3.868
 5022SOL    HW115194   7.795   6.474   3.924
 5022SOL    HW215195   7.678   6.562   3.888
 5023SOL     OW15196   7.556   0.767   0.139
 5023SOL    HW115197   7.559   0.767   0.235
 5023SOL    HW215198   7.500   0.693   0.116
 5024SOL     OW15199   6.759   3.905   3.155
 5024SOL    HW115200   6.799   3.825   3.121
 5024SOL    HW215201   6.760   3.966   3.081
 5025SOL     OW15202   3.605   4.680   2.632
 5025SOL    HW115203   3.642   4.751   2.581
 5025SOL    HW215204   3.542   4.639   2.573
 5026SOL     OW15205   3.669   1.641   3.631
 5026SOL    HW115206   3.602   1.652   3.699
 5026SOL    HW215207   3.663   1.549   3.605
 5027SOL     OW15208   4.473   4.946   4.179
 5027SOL    HW115209   4.484   4.881   4.248
 5027SOL    HW215210   4.537   4.922   4.112
 5028SOL     OW15211   3.250   5.759   1.590
 5028SOL    HW115212   3.241   5.776   1.496
 5028SOL    HW215213   3.317   5.822   1.619
 5029SOL     OW15214   2.849   6.408   1.077
 5029SOL    HW115215   2.781   6.355   1.035
 5029SOL    HW215216   2.825   6.498   1.057
 5030SOL     OW15217   3.537   6.990   4.317
 5030SOL    HW115218   3.483   6.940   4.256
 5030SOL    HW215219   3.627   6.970   4.293
 5031SOL     OW15220   5.914   3.342   3.926
 5031SOL    HW115221   5.935   3.252   3.900
 5031SOL    HW215222   5.999   3.387   3.924
 5032SOL     OW15223   8.271   3.524   2.541
 5032SOL    HW115224   8.258   3.519   2.635
 5032SOL    HW215225   8.274   3.433   2.512
 5033SOL     OW15226   3.163   6.789   2.795
 5033SOL    HW115227   3.134   6.814   2.882
 5033SOL    HW215228   3.256   6.811   2.793
 5034SOL     OW15229   0.968   1.995   0.850
 5034SOL    HW115230   0.942   2.007   0.942
 5034SOL    HW215231   0.889   1.967   0.806
 5035SOL     OW15232   1.928   0.155   2.642
 5035SOL    HW115233   1.960   0.167   2.552
 5035SOL    HW215234   1.833   0.163   2.634
 5036SOL     OW15235   2.506   0.541   0.036
 5036SOL    HW115236   2.438   0.605   0.057
 5036SOL    HW215237   2.462   0.478  -0.021
 5037SOL     OW15238   6.327   1.738   2.366
 5037SOL    HW115239   6.340   1.714   2.274
 5037SOL    HW215240   6.306   1.656   2.410
 5038SOL     OW15241   5.092   2.266   1.541
 5038SOL    HW115242   5.139   2.348   1.526
 5038SOL    HW215243   5.000   2.290   1.533
 5039SOL     OW15244   7.638   1.043   1.079
 5039SOL    HW115245   7.712   1.051   1.019
 5039SOL    HW215246   7.678   1.043   1.166
 5040SOL     OW15247   6.741   4.680   4.132
 5040SOL    HW115248   6.729   4.603   4.077
 5040SOL    HW215249   6.836   4.690   4.140
 5041SOL     OW15250   4.205   3.514   5.108
 5041SOL    HW115251   4.278   3.467   5.068
 5041SOL    HW215252   4.128   3.462   5.086
 5042SOL     OW15253   7.345   5.347   2.778
 5042SOL    HW115254   7.260   5.341   2.821
 5042SOL    HW215255   7.375   5.436   2.792
 5043SOL     OW15256   8.110   5.595   4.151
 5043SOL    HW115257   8.039   5.560   4.206
 5043SOL    HW215258   8.076   5.678   4.118
 5044SOL     OW15259   6.637   3.646   4.142
 5044SOL    HW115260   6.730   3.659   4.162
 5044SOL    HW215261   6.593   3.718   4.188
 5045SOL     OW15262   5.363   3.014   1.153
 5045SOL    HW115263   5.284   3.062   1.177
 5045SOL    HW215264   5.434   3.063   1.195
 5046SOL     OW15265   5.791   3.006   1.065
 5046SOL    HW115266   5.792   3.072   0.996
 5046SOL    HW215267   5.712   3.024   1.115
 5047SOL     OW15268   8.377   2.244   4.854
 5047SOL    HW115269   8.448   2.203   4.805
 5047SOL    HW215270   8.419   2.315   4.903
 5048SOL     OW15271   3.873   3.177   4.398
 5048SOL    HW115272   3.796   3.156   4.345
 5048SOL    HW215273   3.947   3.143   4.348
 5049SOL     OW15274   2.898   1.547   3.267
 5049SOL    HW115275   2.884   1.507   3.353
 5049SOL    HW215276   2.947   1.626   3.285
 5050SOL     OW15277   5.659   7.143   3.908
 5050SOL    HW115278   5.564   7.145   3.911
 5050SOL    HW215279   5.682   7.052   3.929
 5051SOL     OW15280   4.115   0.680   1.909
 5051SOL    HW115281   4.196   0.703   1.956
 5051SOL    HW215282   4.113   0.585   1.909
 5052SOL     OW15283   7.270   6.907   2.163
 5052SOL    HW115284   7.319   6.829   2.185
 5052SOL    HW215285   7.289   6.968   2.234
 5053SOL     OW15286   9.564   3.805   4.886
 5053SOL    HW115287   9.581   3.846   4.971
 5053SOL    HW215288   9.634   3.839   4.829
 5054SOL     OW15289   1.764   0.777   1.215
 5054SOL    HW115290   1.709   0.801   1.140
 5054SOL    HW215291   1.834   0.724   1.178
 5055SOL     OW15292   3.936   3.834   2.815
 5055SOL    HW115293   3.907   3.920   2.843
 5055SOL    HW215294   3.883   3.773   2.867
 5056SOL     OW15295   5.618   6.787   2.772
 5056SOL    HW115296   5.667   6.865   2.799
 5056SOL    HW215297   5.668   6.713   2.806
 5057SOL     OW15298   6.621   4.843   1.144
 5057SOL    HW115299   6.674   4.830   1.222
 5057SOL    HW215300   6.560   4.770   1.143
 5058SOL     OW15301   4.698   5.128   1.972
 5058SOL    HW115302   4.685   5.151   2.064
 5058SOL    HW215303   4.787   5.157   1.952
 5059SOL     OW15304   7.252   3.405   0.722
 5059SOL    HW115305   7.299   3.471   0.670
 5059SOL    HW215306   7.182   3.454   0.766
 5060SOL     OW15307   7.993   5.654   5.170
 5060SOL    HW115308   8.087   5.638   5.175
 5060SOL    HW215309   7.983   5.748   5.184
 5061SOL     OW15310   6.547   5.251   4.018
 5061SOL    HW115311   6.570   5.301   3.940
 5061SOL    HW215312   6.455   5.225   4.004
 5062SOL     OW15313   6.261   2.287   0.612
 5062SOL    HW115314   6.180   2.329   0.582
 5062SOL    HW215315   6.241   2.194   0.612
 5063SOL     OW15316   3.252   1.565   2.707
 5063SOL    HW115317   3.311   1.492   2.690
 5063SOL    HW215318   3.179   1.526   2.754
 5064SOL     OW15319   8.715   4.081   4.842
 5064SOL    HW115320   8.677   3.998   4.872
 5064SOL    HW215321   8.810   4.066   4.847
 5065SOL     OW15322   8.731   6.020   5.144
 5065SOL    HW115323   8.770   5.984   5.065
 5065SOL    HW215324   8.658   6.074   5.112
 5066SOL     OW15325   4.754   6.629   1.826
 5066SOL    HW115326   4.681   6.620   1.764
 5066SOL    HW215327   4.737   6.563   1.893
 5067SOL     OW15328   7.386   6.426   0.185
 5067SOL    HW115329   7.375   6.338   0.222
 5067SOL    HW215330   7.475   6.428   0.152
 5068SOL     OW15331   5.930   0.256   3.634
 5068SOL    HW115332   6.021   0.243   3.660
 5068SOL    HW215333   5.914   0.350   3.647
 5069SOL     OW15334   7.603   4.351   4.815
 5069SOL    HW115335   7.657   4.335   4.893
 5069SOL    HW215336   7.612   4.445   4.799
 5070SOL     OW15337   3.146   6.278   3.314
 5070SOL    HW115338   3.137   6.371   3.295
 5070SOL    HW215339   3.239   6.259   3.302
 5071SOL     OW15340   1.627   1.815   1.956
 5071SOL    HW115341   1.620   1.862   2.040
 5071SOL    HW215342   1.694   1.863   1.908
 5072SOL     OW15343   8.201   4.994   4.033
 5072SOL    HW115344   8.291   4.988   4.065
 5072SOL    HW215345   8.198   4.934   3.958
 5073SOL     OW15346   5.767   0.366   1.375
 5073SOL    HW115347   5.678   0.340   1.351
 5073SOL    HW215348   5.823   0.303   1.329
 5074SOL     OW15349   3.230   2.312   0.869
 5074SOL    HW115350   3.242   2.355   0.954
 5074SOL    HW215351   3.188   2.379   0.815
 5075SOL     OW15352   3.430   5.432   1.187
 5075SOL    HW115353   3.479   5.493   1.132
 5075SOL    HW215354   3.441   5.347   1.144
 5076SOL     OW15355   3.294   3.616   0.149
 5076SOL    HW115356   3.298   3.617   0.053
 5076SOL    HW215357   3.367   3.560   0.175
 5077SOL     OW15358   8.870   1.923   4.057
 5077SOL    HW115359   8.897   2.014   4.045
 5077SOL    HW215360   8.902   1.879   3.978
 5078SOL     OW15361   5.859   7.094   0.947
 5078SOL    HW115362   5.886   7.101   1.039
 5078SOL    HW215363   5.827   7.181   0.925
 5079SOL     OW15364   7.063   3.621   1.730
 5079SOL    HW115365   7.042   3.590   1.818
 5079SOL    HW215366   6.981   3.657   1.697
 5080SOL     OW15367   6.243   5.901   1.814
 5080SOL    HW115368   6.266   5.986   1.852
 5080SOL    HW215369   6.286   5.901   1.728
 5081SOL     OW15370   4.355   0.773   4.142
 5081SOL    HW115371   4.280   0.829   4.162
 5081SOL    HW215372   4.418   0.789   4.212
 5082SOL     OW15373   6.014   2.889   2.255
 5082SOL    HW115374   6.070   2.860   2.182
 5082SOL    HW215375   6.073   2.935   2.313
 5083SOL     OW15376   3.727   1.049   0.606
 5083SOL    HW115377   3.653   0.988   0.601
 5083SOL    HW215378   3.795   1.009   0.553
 5084SOL     OW15379   7.516   4.116   1.326
 5084SOL    HW115380   7.529   4.211   1.332
 5084SOL    HW215381   7.485   4.102   1.236
 5085SOL     OW15382   7.953   5.757   1.406
 5085SOL    HW115383   8.005   5.680   1.382
 5085SOL    HW215384   7.910   5.732   1.488
 5086SOL     OW15385   8.234   1.621   2.695
 5086SOL    HW115386   8.328   1.637   2.698
 5086SOL    HW215387   8.197   1.683   2.758
 5087SOL     OW15388  10.531   4.313   5.218
 5087SOL    HW115389  10.584   4.281   5.291
 5087SOL    HW215390  10.458   4.251   5.211
 5088SOL     OW15391   6.539   6.867   3.053
 5088SOL    HW115392   6.471   6.799   3.058
 5088SOL    HW215393   6.610   6.825   3.005
 5089SOL     OW15394   9.338   7.397   4.687
 5089SOL    HW115395   9.284   7.474   4.668
 5089SOL    HW215396   9.277   7.324   4.684
 5090SOL     OW15397   7.940   2.906   4.406
 5090SOL    HW115398   7.973   2.822   4.374
 5090SOL    HW215399   7.845   2.902   4.390
 5091SOL     OW15400   3.987   5.221   2.920
 5091SOL    HW115401   4.072   5.192   2.951
 5091SOL    HW215402   4.006   5.288   2.854
 5092SOL     OW15403   7.102   0.248   2.535
 5092SOL    HW115404   7.173   0.184   2.536
 5092SOL    HW215405   7.109   0.290   2.450
 5093SOL     OW15406   4.254   5.345   2.279
 5093SOL    HW115407   4.327   5.334   2.218
 5093SOL    HW215408   4.283   5.413   2.340
 5094SOL     OW15409   2.981   6.692   2.637
 5094SOL    HW115410   2.926   6.626   2.679
 5094SOL    HW215411   3.045   6.717   2.704
 5095SOL     OW15412   3.128   3.734   3.532
 5095SOL    HW115413   3.039   3.700   3.542
 5095SOL    HW215414   3.183   3.656   3.529
 5096SOL     OW15415   2.469   3.166   0.682
 5096SOL    HW115416   2.422   3.083   0.692
 5096SOL    HW215417   2.415   3.230   0.729
 5097SOL     OW15418   7.988   3.031   2.406
 5097SOL    HW115419   8.054   3.068   2.347
 5097SOL    HW215420   8.036   2.968   2.459
 5098SOL     OW15421   4.851   2.827   3.164
 5098SOL    HW115422   4.831   2.792   3.251
 5098SOL    HW215423   4.845   2.922   3.173
 5099SOL     OW15424   1.690   7.180   0.825
 5099SOL    HW115425   1.765   7.215   0.874
 5099SOL    HW215426   1.660   7.106   0.879
 5100SOL     OW15427   6.173   7.299   3.111
 5100SOL    HW115428   6.148   7.224   3.166
 5100SOL    HW215429   6.102   7.307   3.048
 5101SOL     OW15430   3.725   3.050   1.297
 5101SOL    HW115431   3.740   3.119   1.361
 5101SOL    HW215432   3.644   3.008   1.325
 5102SOL     OW15433   4.050   6.578   4.763
 5102SOL    HW115434   4.098   6.635   4.822
 5102SOL    HW215435   4.006   6.637   4.703
 5103SOL     OW15436   6.505   6.329   3.479
 5103SOL    HW115437   6.530   6.293   3.394
 5103SOL    HW215438   6.586   6.329   3.530
 5104SOL     OW15439   6.232   7.143   0.563
 5104SOL    HW115440   6.279   7.192   0.631
 5104SOL    HW215441   6.274   7.057   0.563
 5105SOL     OW15442   2.051   0.447   2.375
 5105SOL    HW115443   1.984   0.514   2.364
 5105SOL    HW215444   2.083   0.460   2.465
 5106SOL     OW15445   4.732   5.403   4.564
 5106SOL    HW115446   4.673   5.406   4.639
 5106SOL    HW215447   4.816   5.434   4.598
 5107SOL     OW15448   7.683   0.517   0.666
 5107SOL    HW115449   7.599   0.561   0.655
 5107SOL    HW215450   7.672   0.463   0.745
 5108SOL     OW15451   7.809   2.637   1.214
 5108SOL    HW115452   7.860   2.657   1.293
 5108SOL    HW215453   7.866   2.579   1.163
 5109SOL     OW15454   2.313   4.342   2.835
 5109SOL    HW115455   2.338   4.369   2.747
 5109SOL    HW215456   2.389   4.361   2.889
 5110SOL     OW15457   6.997   6.416   3.488
 5110SOL    HW115458   6.901   6.415   3.488
 5110SOL    HW215459   7.022   6.330   3.456
 5111SOL     OW15460   8.979   2.810   3.852
 5111SOL    HW115461   9.036   2.861   3.910
 5111SOL    HW215462   9.029   2.801   3.771
 5112SOL     OW15463   4.085   1.224   3.833
 5112SOL    HW115464   4.171   1.201   3.800
 5112SOL    HW215465   4.092   1.317   3.855
 5113SOL     OW15466   2.421   2.771   0.103
 5113SOL    HW115467   2.466   2.760   0.187
 5113SOL    HW215468   2.488   2.752   0.038
 5114SOL     OW15469   3.048   6.262   3.851
 5114SOL    HW115470   2.961   6.241   3.817
 5114SOL    HW215471   3.084   6.324   3.788
 5115SOL     OW15472   6.802   4.701   3.370
 5115SOL    HW115473   6.891   4.732   3.387
 5115SOL    HW215474   6.814   4.611   3.339
 5116SOL     OW15475   5.885   3.125   0.664
 5116SOL    HW115476   5.866   3.036   0.694
 5116SOL    HW215477   5.803   3.173   0.676
 5117SOL     OW15478   7.050   6.469   3.043
 5117SOL    HW115479   7.107   6.484   2.968
 5117SOL    HW215480   7.063   6.377   3.066
 5118SOL     OW15481  10.059   1.963   4.586
 5118SOL    HW115482  10.037   1.935   4.497
 5118SOL    HW215483  10.154   1.955   4.591
 5119SOL     OW15484   4.322   2.986   0.300
 5119SOL    HW115485   4.355   3.039   0.372
 5119SOL    HW215486   4.266   2.921   0.342
 5120SOL     OW15487   5.945   1.250   4.480
 5120SOL    HW115488   5.928   1.205   4.562
 5120SOL    HW215489   6.037   1.276   4.486
 5121SOL     OW15490   7.347   0.313   3.395
 5121SOL    HW115491   7.286   0.385   3.381
 5121SOL    HW215492   7.424   0.355   3.435
 5122SOL     OW15493   3.626   4.062   4.248
 5122SOL    HW115494   3.698   4.089   4.191
 5122SOL    HW215495   3.574   4.141   4.261
 5123SOL     OW15496   6.045   2.425   4.903
 5123SOL    HW115497   6.018   2.339   4.934
 5123SOL    HW215498   6.131   2.439   4.942
 5124SOL     OW15499   5.409   4.005   3.617
 5124SOL    HW115500   5.459   3.947   3.561
 5124SOL    HW215501   5.376   3.949   3.687
 5125SOL     OW15502   4.792   0.093   0.937
 5125SOL    HW115503   4.885   0.107   0.918
 5125SOL    HW215504   4.747   0.112   0.855
 5126SOL     OW15505   5.107   5.739   3.484
 5126SOL    HW115506   5.085   5.817   3.433
 5126SOL    HW215507   5.194   5.756   3.518
 5127SOL     OW15508   7.028   5.091   2.256
 5127SOL    HW115509   7.049   5.012   2.207
 5127SOL    HW215510   7.086   5.158   2.220
 5128SOL     OW15511   8.913   1.656   4.112
 5128SOL    HW115512   8.839   1.601   4.090
 5128SOL    HW215513   8.879   1.746   4.107
 5129SOL     OW15514   4.362   6.541   5.008
 5129SOL    HW115515   4.354   6.553   4.913
 5129SOL    HW215516   4.343   6.627   5.045
 5130SOL     OW15517   4.664   5.056   5.230
 5130SOL    HW115518   4.663   5.041   5.136
 5130SOL    HW215519   4.659   4.969   5.269
 5131SOL     OW15520   3.923   1.002   2.850
 5131SOL    HW115521   3.999   0.952   2.878
 5131SOL    HW215522   3.863   0.936   2.814
 5132SOL     OW15523   5.123   5.254   1.293
 5132SOL    HW115524   5.169   5.179   1.256
 5132SOL    HW215525   5.183   5.328   1.278
 5133SOL     OW15526   4.075   0.850   5.020
 5133SOL    HW115527   4.147   0.840   5.082
 5133SOL    HW215528   4.087   0.779   4.957
 5134SOL     OW15529   3.416   0.407   4.146
 5134SOL    HW115530   3.338   0.352   4.139
 5134SOL    HW215531   3.459   0.378   4.226
 5135SOL     OW15532   8.408   2.318   3.206
 5135SOL    HW115533   8.500   2.297   3.194
 5135SOL    HW215534   8.392   2.393   3.149
 5136SOL     OW15535   2.659   7.115   0.459
 5136SOL    HW115536   2.642   7.140   0.550
 5136SOL    HW215537   2.747   7.149   0.442
 5137SOL     OW15538   4.496   1.876   3.310
 5137SOL    HW115539   4.476   1.916   3.395
 5137SOL    HW215540   4.459   1.788   3.316
 5138SOL     OW15541   0.982   6.825   1.326
 5138SOL    HW115542   0.912   6.842   1.389
 5138SOL    HW215543   0.959   6.742   1.286
 5139SOL     OW15544   5.913   6.062   0.771
 5139SOL    HW115545   5.851   6.134   0.783
 5139SOL    HW215546   5.897   6.005   0.846
 5140SOL     OW15547   2.430   1.099   0.976
 5140SOL    HW115548   2.521   1.120   0.959
 5140SOL    HW215549   2.400   1.052   0.898
 5141SOL     OW15550  10.220   4.267   5.234
 5141SOL    HW115551  10.180   4.193   5.280
 5141SOL    HW215552  10.146   4.322   5.207
 5142SOL     OW15553   5.045   4.783   2.682
 5142SOL    HW115554   5.041   4.859   2.624
 5142SOL    HW215555   5.098   4.812   2.756
 5143SOL     OW15556   5.294   4.977   2.442
 5143SOL    HW115557   5.223   5.034   2.470
 5143SOL    HW215558   5.265   4.943   2.357
 5144SOL     OW15559   5.693   0.477   2.855
 5144SOL    HW115560   5.632   0.490   2.783
 5144SOL    HW215561   5.698   0.382   2.865
 5145SOL     OW15562   8.517   3.891   4.874
 5145SOL    HW115563   8.484   3.852   4.793
 5145SOL    HW215564   8.530   3.817   4.933
 5146SOL     OW15565   3.322   1.877   2.191
 5146SOL    HW115566   3.324   1.782   2.200
 5146SOL    HW215567   3.407   1.907   2.223
 5147SOL     OW15568   4.957   7.273   1.421
 5147SOL    HW115569   4.951   7.367   1.440
 5147SOL    HW215570   4.966   7.232   1.507
 5148SOL     OW15571   6.137   5.116   4.217
 5148SOL    HW115572   6.156   5.053   4.148
 5148SOL    HW215573   6.177   5.198   4.187
 5149SOL     OW15574   5.080   3.446   4.888
 5149SOL    HW115575   5.145   3.504   4.849
 5149SOL    HW215576   5.032   3.409   4.814
 5150SOL     OW15577   3.403   7.008   2.301
 5150SOL    HW115578   3.442   7.091   2.329
 5150SOL    HW215579   3.470   6.942   2.317
 5151SOL     OW15580  10.261   0.047   3.978
 5151SOL    HW115581  10.295  -0.039   4.003
 5151SOL    HW215582  10.169   0.045   4.006
 5152SOL     OW15583   6.863   5.999   1.768
 5152SOL    HW115584   6.885   5.913   1.731
 5152SOL    HW215585   6.799   5.980   1.836
 5153SOL     OW15586   3.078   7.355   1.320
 5153SOL    HW115587   3.127   7.370   1.401
 5153SOL    HW215588   3.094   7.263   1.298
 5154SOL     OW15589   5.295   1.345   2.313
 5154SOL    HW115590   5.255   1.372   2.230
 5154SOL    HW215591   5.355   1.415   2.335
 5155SOL     OW15592   5.183   1.966   2.711
 5155SOL    HW115593   5.104   1.952   2.659
 5155SOL    HW215594   5.172   2.053   2.750
 5156SOL     OW15595   8.867   2.557   2.152
 5156SOL    HW115596   8.939   2.497   2.172
 5156SOL    HW215597   8.855   2.609   2.231
 5157SOL     OW15598   5.065   5.217   4.804
 5157SOL    HW115599   5.009   5.295   4.801
 5157SOL    HW215600   5.103   5.218   4.892
 5158SOL     OW15601   5.334   0.982   2.792
 5158SOL    HW115602   5.399   1.013   2.854
 5158SOL    HW215603   5.371   1.004   2.706
 5159SOL     OW15604   3.551   4.561   4.444
 5159SOL    HW115605   3.567   4.467   4.440
 5159SOL    HW215606   3.525   4.586   4.355
 5160SOL     OW15607   2.022   4.848   2.493
 5160SOL    HW115608   2.061   4.809   2.571
 5160SOL    HW215609   2.082   4.918   2.469
 5161SOL     OW15610   2.688  -0.019   2.459
 5161SOL    HW115611   2.773   0.023   2.467
 5161SOL    HW215612   2.629   0.052   2.433
 5162SOL     OW15613   8.029   5.186   3.748
 5162SOL    HW115614   8.058   5.103   3.712
 5162SOL    HW215615   8.104   5.245   3.737
 5163SOL     OW15616   1.327   3.608   1.315
 5163SOL    HW115617   1.389   3.546   1.354
 5163SOL    HW215618   1.257   3.553   1.281
 5164SOL     OW15619   2.913   4.316   0.382
 5164SOL    HW115620   2.987   4.335   0.324
 5164SOL    HW215621   2.870   4.400   0.394
 5165SOL     OW15622   4.987   1.469   0.338
 5165SOL    HW115623   4.926   1.493   0.407
 5165SOL    HW215624   5.070   1.510   0.364
 5166SOL     OW15625   8.041   3.126   4.296
 5166SOL    HW115626   8.025   3.044   4.341
 5166SOL    HW215627   7.957   3.173   4.299
 5167SOL     OW15628   4.175   1.721   2.182
 5167SOL    HW115629   4.194   1.814   2.172
 5167SOL    HW215630   4.241   1.689   2.244
 5168SOL     OW15631   3.504   6.218   0.689
 5168SOL    HW115632   3.554   6.195   0.767
 5168SOL    HW215633   3.414   6.226   0.719
 5169SOL     OW15634   4.800   6.871   3.435
 5169SOL    HW115635   4.794   6.810   3.508
 5169SOL    HW215636   4.858   6.829   3.372
 5170SOL     OW15637   4.722   5.122   1.099
 5170SOL    HW115638   4.702   5.033   1.069
 5170SOL    HW215639   4.756   5.111   1.188
 5171SOL     OW15640   3.546   2.540   3.646
 5171SOL    HW115641   3.532   2.471   3.581
 5171SOL    HW215642   3.593   2.497   3.717
 5172SOL     OW15643   8.357   2.438   4.204
 5172SOL    HW115644   8.381   2.458   4.295
 5172SOL    HW215645   8.436   2.459   4.153
 5173SOL     OW15646   5.211   7.175   1.495
 5173SOL    HW115647   5.229   7.269   1.496
 5173SOL    HW215648   5.133   7.165   1.440
 5174SOL     OW15649   5.027   5.046   2.554
 5174SOL    HW115650   4.977   5.120   2.588
 5174SOL    HW215651   5.033   5.063   2.460
 5175SOL     OW15652   4.837   2.623   3.392
 5175SOL    HW115653   4.832   2.591   3.482
 5175SOL    HW215654   4.794   2.555   3.340
 5176SOL     OW15655   5.385   2.708   5.240
 5176SOL    HW115656   5.476   2.681   5.251
 5176SOL    HW215657   5.358   2.668   5.157
 5177SOL     OW15658   4.480   2.921   2.548
 5177SOL    HW115659   4.508   3.006   2.581
 5177SOL    HW215660   4.403   2.940   2.494
 5178SOL     OW15661   4.143   0.283   5.207
 5178SOL    HW115662   4.156   0.316   5.296
 5178SOL    HW215663   4.223   0.232   5.188
 5179SOL     OW15664   9.472   1.550   5.217
 5179SOL    HW115665   9.493   1.476   5.159
 5179SOL    HW215666   9.534   1.618   5.191
 5180SOL     OW15667   6.741   0.439   2.389
 5180SOL    HW115668   6.809   0.484   2.339
 5180SOL    HW215669   6.668   0.432   2.327
 5181SOL     OW15670   8.152   0.278   4.354
 5181SOL    HW115671   8.219   0.272   4.286
 5181SOL    HW215672   8.201   0.276   4.436
 5182SOL     OW15673   8.363   1.540   4.012
 5182SOL    HW115674   8.318   1.579   4.087
 5182SOL    HW215675   8.425   1.607   3.984
 5183SOL     OW15676  10.890   6.565   4.934
 5183SOL    HW115677  10.870   6.600   5.021
 5183SOL    HW215678  10.861   6.474   4.937
 5184SOL     OW15679   7.183   1.998   2.048
 5184SOL    HW115680   7.098   1.987   2.005
 5184SOL    HW215681   7.229   1.916   2.032
 5185SOL     OW15682   8.172   1.970   3.171
 5185SOL    HW115683   8.254   1.996   3.129
 5185SOL    HW215684   8.178   1.875   3.180
 5186SOL     OW15685   5.446   1.245   2.520
 5186SOL    HW115686   5.443   1.330   2.565
 5186SOL    HW215687   5.371   1.248   2.460
 5187SOL     OW15688   7.033   5.725   4.159
 5187SOL    HW115689   7.018   5.819   4.146
 5187SOL    HW215690   7.053   5.717   4.253
 5188SOL     OW15691   7.851   4.014   0.582
 5188SOL    HW115692   7.767   3.968   0.573
 5188SOL    HW215693   7.882   3.989   0.669
 5189SOL     OW15694   7.076   1.591   1.996
 5189SOL    HW115695   7.141   1.657   1.971
 5189SOL    HW215696   7.097   1.515   1.943
 5190SOL     OW15697   7.811   0.594   1.901
 5190SOL    HW115698   7.740   0.645   1.940
 5190SOL    HW215699   7.767   0.518   1.863
 5191SOL     OW15700   3.339   2.038   3.848
 5191SOL    HW115701   3.403   2.000   3.909
 5191SOL    HW215702   3.305   1.962   3.800
 5192SOL     OW15703   7.502   0.273   5.106
 5192SOL    HW115704   7.574   0.308   5.054
 5192SOL    HW215705   7.505   0.179   5.092
 5193SOL     OW15706  10.096   1.344   4.838
 5193SOL    HW115707  10.010   1.304   4.831
 5193SOL    HW215708  10.091   1.421   4.781
 5194SOL     OW15709   9.489   6.504   3.032
 5194SOL    HW115710   9.549   6.547   3.093
 5194SOL    HW215711   9.544   6.473   2.960
 5195SOL     OW15712   5.002   6.223   3.191
 5195SOL    HW115713   5.061   6.228   3.267
 5195SOL    HW215714   5.035   6.149   3.140
 5196SOL     OW15715   3.195   2.098   3.587
 5196SOL    HW115716   3.225   2.187   3.569
 5196SOL    HW215717   3.107   2.094   3.549
 5197SOL     OW15718   1.087   1.380   1.109
 5197SOL    HW115719   1.006   1.392   1.060
 5197SOL    HW215720   1.074   1.297   1.156
 5198SOL     OW15721   3.653   7.213   3.884
 5198SOL    HW115722   3.688   7.290   3.838
 5198SOL    HW215723   3.580   7.246   3.935
 5199SOL     OW15724   9.364   2.716   4.925
 5199SOL    HW115725   9.330   2.800   4.957
 5199SOL    HW215726   9.296   2.684   4.866
 5200SOL     OW15727   4.594   2.882   3.518
 5200SOL    HW115728   4.688   2.867   3.532
 5200SOL    HW215729   4.586   2.977   3.514
 5201SOL     OW15730   3.050   6.121   3.527
 5201SOL    HW115731   3.087   6.176   3.459
 5201SOL    HW215732   3.037   6.180   3.602
 5202SOL     OW15733   6.411   4.535   4.932
 5202SOL    HW115734   6.470   4.609   4.941
 5202SOL    HW215735   6.350   4.543   5.006
 5203SOL     OW15736   3.396   2.284   2.267
 5203SOL    HW115737   3.420   2.345   2.338
 5203SOL    HW215738   3.300   2.291   2.263
 5204SOL     OW15739   7.166   5.887   3.647
 5204SOL    HW115740   7.253   5.913   3.617
 5204SOL    HW215741   7.180   5.803   3.691
 5205SOL     OW15742   4.670   3.126   3.894
 5205SOL    HW115743   4.752   3.176   3.893
 5205SOL    HW215744   4.608   3.181   3.846
 5206SOL     OW15745   2.700   3.570   0.344
 5206SOL    HW115746   2.695   3.613   0.259
 5206SOL    HW215747   2.759   3.496   0.330
 5207SOL     OW15748   5.757   0.882   0.080
 5207SOL    HW115749   5.805   0.964   0.069
 5207SOL    HW215750   5.725   0.885   0.170
 5208SOL     OW15751   0.626   1.974   0.321
 5208SOL    HW115752   0.635   1.879   0.328
 5208SOL    HW215753   0.702   2.010   0.366
 5209SOL     OW15754   4.133   2.253   2.293
 5209SOL    HW115755   4.211   2.255   2.238
 5209SOL    HW215756   4.133   2.338   2.337
 5210SOL     OW15757   3.348   5.243   0.511
 5210SOL    HW115758   3.381   5.159   0.480
 5210SOL    HW215759   3.259   5.225   0.542
 5211SOL     OW15760   4.099   6.342   4.628
 5211SOL    HW115761   4.100   6.425   4.675
 5211SOL    HW215762   4.181   6.341   4.579
 5212SOL     OW15763   7.526   5.895   3.251
 5212SOL    HW115764   7.611   5.861   3.226
 5212SOL    HW215765   7.494   5.941   3.173
 5213SOL     OW15766   7.632   0.588   3.376
 5213SOL    HW115767   7.721   0.618   3.396
 5213SOL    HW215768   7.616   0.517   3.438
 5214SOL     OW15769   2.515   3.151   1.940
 5214SOL    HW115770   2.479   3.238   1.918
 5214SOL    HW215771   2.608   3.167   1.953
 5215SOL     OW15772   7.029   1.933   3.530
 5215SOL    HW115773   6.961   1.893   3.584
 5215SOL    HW215774   6.987   1.945   3.444
 5216SOL     OW15775   1.474   1.358   0.693
 5216SOL    HW115776   1.381   1.379   0.683
 5216SOL    HW215777   1.515   1.442   0.717
 5217SOL     OW15778   5.123   3.530   2.566
 5217SOL    HW115779   5.147   3.589   2.496
 5217SOL    HW215780   5.032   3.508   2.550
 5218SOL     OW15781   3.342   6.633   3.894
 5218SOL    HW115782   3.298   6.716   3.879
 5218SOL    HW215783   3.413   6.631   3.831
 5219SOL     OW15784   4.872   7.293   5.143
 5219SOL    HW115785   4.815   7.217   5.135
 5219SOL    HW215786   4.937   7.282   5.074
 5220SOL     OW15787   6.670   2.893   3.213
 5220SOL    HW115788   6.659   2.872   3.306
 5220SOL    HW215789   6.614   2.830   3.168
 5221SOL     OW15790   3.278   3.795   0.327
 5221SOL    HW115791   3.367   3.826   0.341
 5221SOL    HW215792   3.285   3.735   0.253
 5222SOL     OW15793   8.830   0.795   4.394
 5222SOL    HW115794   8.818   0.704   4.365
 5222SOL    HW215795   8.751   0.815   4.444
 5223SOL     OW15796   7.906   0.636   3.535
 5223SOL    HW115797   7.875   0.702   3.596
 5223SOL    HW215798   8.001   0.647   3.533
 5224SOL     OW15799   5.611   7.403   4.014
 5224SOL    HW115800   5.618   7.310   3.989
 5224SOL    HW215801   5.690   7.443   3.978
 5225SOL     OW15802   3.251   1.163   3.873
 5225SOL    HW115803   3.170   1.209   3.893
 5225SOL    HW215804   3.224   1.087   3.821
 5226SOL     OW15805   7.239   1.731   1.509
 5226SOL    HW115806   7.279   1.665   1.452
 5226SOL    HW215807   7.284   1.813   1.486
 5227SOL     OW15808   4.248   4.321   0.481
 5227SOL    HW115809   4.212   4.325   0.570
 5227SOL    HW215810   4.335   4.283   0.493
 5228SOL     OW15811   5.464   6.131   2.703
 5228SOL    HW115812   5.446   6.205   2.760
 5228SOL    HW215813   5.539   6.159   2.650
 5229SOL     OW15814  10.555   6.526   4.748
 5229SOL    HW115815  10.628   6.588   4.746
 5229SOL    HW215816  10.555   6.491   4.837
 5230SOL     OW15817   4.267   4.370   3.423
 5230SOL    HW115818   4.181   4.370   3.381
 5230SOL    HW215819   4.247   4.369   3.517
 5231SOL     OW15820   5.645   1.405   4.102
 5231SOL    HW115821   5.654   1.323   4.151
 5231SOL    HW215822   5.722   1.456   4.128
 5232SOL     OW15823   7.181   5.817   1.023
 5232SOL    HW115824   7.093   5.785   1.002
 5232SOL    HW215825   7.200   5.880   0.954
 5233SOL     OW15826   9.208   6.403   3.897
 5233SOL    HW115827   9.181   6.356   3.976
 5233SOL    HW215828   9.203   6.338   3.827
 5234SOL     OW15829   7.119   4.296   4.512
 5234SOL    HW115830   7.203   4.326   4.546
 5234SOL    HW215831   7.105   4.212   4.555
 5235SOL     OW15832   6.958   4.955   0.773
 5235SOL    HW115833   6.972   4.878   0.718
 5235SOL    HW215834   7.016   4.942   0.847
 5236SOL     OW15835   7.070   6.266   1.987
 5236SOL    HW115836   7.160   6.297   1.999
 5236SOL    HW215837   7.079   6.182   1.942
 5237SOL     OW15838   8.729   4.034   1.932
 5237SOL    HW115839   8.727   3.987   1.848
 5237SOL    HW215840   8.651   4.089   1.930
 5238SOL     OW15841   6.047   3.064   1.239
 5238SOL    HW115842   6.073   2.978   1.205
 5238SOL    HW215843   5.955   3.052   1.264
 5239SOL     OW15844   6.827   6.771   0.112
 5239SOL    HW115845   6.753   6.823   0.143
 5239SOL    HW215846   6.861   6.727   0.190
 5240SOL     OW15847   2.762   6.123   1.243
 5240SOL    HW115848   2.790   6.048   1.192
 5240SOL    HW215849   2.703   6.171   1.185
 5241SOL     OW15850   5.846   4.066   4.806
 5241SOL    HW115851   5.866   4.144   4.858
 5241SOL    HW215852   5.856   3.993   4.867
 5242SOL     OW15853   9.028   3.270   2.618
 5242SOL    HW115854   8.940   3.279   2.580
 5242SOL    HW215855   9.018   3.300   2.708
 5243SOL     OW15856   3.059   6.644   2.378
 5243SOL    HW115857   3.041   6.662   2.470
 5243SOL    HW215858   3.039   6.726   2.333
 5244SOL     OW15859   4.750   5.113   2.884
 5244SOL    HW115860   4.726   5.118   2.791
 5244SOL    HW215861   4.776   5.202   2.906
 5245SOL     OW15862   7.069   2.134   5.009
 5245SOL    HW115863   7.073   2.044   4.977
 5245SOL    HW215864   7.027   2.128   5.094
 5246SOL     OW15865   7.980   7.020   1.486
 5246SOL    HW115866   7.905   7.025   1.545
 5246SOL    HW215867   7.995   7.111   1.458
 5247SOL     OW15868   4.060   3.489   3.374
 5247SOL    HW115869   3.988   3.450   3.422
 5247SOL    HW215870   4.099   3.417   3.326
 5248SOL     OW15871   5.960   5.883   4.492
 5248SOL    HW115872   5.894   5.951   4.509
 5248SOL    HW215873   5.946   5.819   4.562
 5249SOL     OW15874   6.133   0.903   1.177
 5249SOL    HW115875   6.177   0.882   1.260
 5249SOL    HW215876   6.080   0.980   1.197
 5250SOL     OW15877   5.278   1.913   5.014
 5250SOL    HW115878   5.290   1.856   4.938
 5250SOL    HW215879   5.251   1.853   5.084
 5251SOL     OW15880   5.707   3.048   4.460
 5251SOL    HW115881   5.627   3.066   4.508
 5251SOL    HW215882   5.734   3.132   4.424
 5252SOL     OW15883   6.518   7.483   4.810
 5252SOL    HW115884   6.534   7.492   4.716
 5252SOL    HW215885   6.461   7.406   4.818
 5253SOL     OW15886   3.700   1.426   4.677
 5253SOL    HW115887   3.640   1.354   4.697
 5253SOL    HW215888   3.648   1.486   4.624
 5254SOL     OW15889   8.349   6.660   2.072
 5254SOL    HW115890   8.299   6.582   2.049
 5254SOL    HW215891   8.416   6.629   2.134
 5255SOL     OW15892   8.035   7.435   3.887
 5255SOL    HW115893   8.063   7.417   3.797
 5255SOL    HW215894   8.115   7.463   3.932
 5256SOL     OW15895   5.295   0.619   3.585
 5256SOL    HW115896   5.389   0.637   3.589
 5256SOL    HW215897   5.263   0.637   3.674
 5257SOL     OW15898   1.205   2.605   0.621
 5257SOL    HW115899   1.169   2.671   0.561
 5257SOL    HW215900   1.236   2.655   0.696
 5258SOL     OW15901   8.346   0.127   4.811
 5258SOL    HW115902   8.440   0.113   4.812
 5258SOL    HW215903   8.331   0.193   4.879
 5259SOL     OW15904   7.834   3.831   3.927
 5259SOL    HW115905   7.826   3.913   3.976
 5259SOL    HW215906   7.779   3.769   3.975
 5260SOL     OW15907   4.121   6.370   0.874
 5260SOL    HW115908   4.052   6.427   0.906
 5260SOL    HW215909   4.079   6.285   0.863
 5261SOL     OW15910   8.011   2.508   3.123
 5261SOL    HW115911   7.991   2.553   3.204
 5261SOL    HW215912   7.993   2.415   3.142
 5262SOL     OW15913   2.682   3.765   0.844
 5262SOL    HW115914   2.687   3.697   0.911
 5262SOL    HW215915   2.727   3.726   0.768
 5263SOL     OW15916   5.183   3.501   0.080
 5263SOL    HW115917   5.173   3.420   0.029
 5263SOL    HW215918   5.109   3.556   0.053
 5264SOL     OW15919   2.875   4.760   0.629
 5264SOL    HW115920   2.959   4.803   0.609
 5264SOL    HW215921   2.809   4.827   0.612
 5265SOL     OW15922   5.467   6.465   4.522
 5265SOL    HW115923   5.501   6.389   4.570
 5265SOL    HW215924   5.506   6.541   4.567
 5266SOL     OW15925   4.066   2.201   2.747
 5266SOL    HW115926   4.011   2.227   2.673
 5266SOL    HW215927   4.127   2.137   2.711
 5267SOL     OW15928   7.275   3.266   1.119
 5267SOL    HW115929   7.236   3.282   1.205
 5267SOL    HW215930   7.213   3.304   1.057
 5268SOL     OW15931   9.014   5.380   4.561
 5268SOL    HW115932   8.970   5.372   4.646
 5268SOL    HW215933   9.006   5.293   4.522
 5269SOL     OW15934   3.463   3.025   2.989
 5269SOL    HW115935   3.429   2.958   3.048
 5269SOL    HW215936   3.447   2.990   2.901
 5270SOL     OW15937   4.826   1.936   0.899
 5270SOL    HW115938   4.887   1.972   0.835
 5270SOL    HW215939   4.878   1.930   0.980
 5271SOL     OW15940   6.671   3.121   4.572
 5271SOL    HW115941   6.629   3.077   4.498
 5271SOL    HW215942   6.763   3.127   4.547
 5272SOL     OW15943   3.783   4.870   0.897
 5272SOL    HW115944   3.842   4.896   0.968
 5272SOL    HW215945   3.824   4.905   0.818
 5273SOL     OW15946   1.766   7.309   2.262
 5273SOL    HW115947   1.846   7.350   2.229
 5273SOL    HW215948   1.787   7.215   2.266
 5274SOL     OW15949   4.024   2.163   0.065
 5274SOL    HW115950   4.043   2.093   0.127
 5274SOL    HW215951   4.108   2.207   0.051
 5275SOL     OW15952   7.206   2.480   3.160
 5275SOL    HW115953   7.251   2.405   3.198
 5275SOL    HW215954   7.273   2.523   3.106
 5276SOL     OW15955   1.352   7.290   0.728
 5276SOL    HW115956   1.326   7.289   0.820
 5276SOL    HW215957   1.379   7.200   0.710
 5277SOL     OW15958   4.129   4.673   4.691
 5277SOL    HW115959   4.207   4.620   4.707
 5277SOL    HW215960   4.162   4.753   4.651
 5278SOL     OW15961   3.128   3.288   0.377
 5278SOL    HW115962   3.111   3.262   0.468
 5278SOL    HW215963   3.129   3.384   0.380
 5279SOL     OW15964   6.534   5.158   2.515
 5279SOL    HW115965   6.491   5.122   2.437
 5279SOL    HW215966   6.555   5.248   2.491
 5280SOL     OW15967   5.507   6.202   0.228
 5280SOL    HW115968   5.572   6.213   0.297
 5280SOL    HW215969   5.425   6.185   0.274
 5281SOL     OW15970   2.575   5.585   2.056
 5281SOL    HW115971   2.537   5.507   2.096
 5281SOL    HW215972   2.500   5.642   2.038
 5282SOL     OW15973   1.396   1.138   0.291
 5282SOL    HW115974   1.423   1.141   0.199
 5282SOL    HW215975   1.372   1.228   0.312
 5283SOL     OW15976   7.946   1.578   3.838
 5283SOL    HW115977   7.960   1.506   3.899
 5283SOL    HW215978   7.853   1.598   3.845
 5284SOL     OW15979   2.107   1.577   2.592
 5284SOL    HW115980   2.102   1.481   2.592
 5284SOL    HW215981   2.030   1.605   2.641
 5285SOL     OW15982   3.095   2.494   2.601
 5285SOL    HW115983   3.104   2.446   2.519
 5285SOL    HW215984   3.107   2.585   2.577
 5286SOL     OW15985   7.234   3.854   3.130
 5286SOL    HW115986   7.263   3.912   3.200
 5286SOL    HW215987   7.139   3.865   3.128
 5287SOL     OW15988   2.654   3.433   3.596
 5287SOL    HW115989   2.674   3.503   3.534
 5287SOL    HW215990   2.711   3.361   3.569
 5288SOL     OW15991   4.008   6.572   4.192
 5288SOL    HW115992   4.038   6.657   4.223
 5288SOL    HW215993   3.971   6.590   4.106
 5289SOL     OW15994   1.182   1.685   0.866
 5289SOL    HW115995   1.209   1.593   0.872
 5289SOL    HW215996   1.094   1.681   0.829
 5290SOL     OW15997   4.317   5.810   4.350
 5290SOL    HW115998   4.346   5.732   4.303
 5290SOL    HW215999   4.395   5.841   4.395
 5291SOL     OW16000   1.663   6.314   2.344
 5291SOL    HW116001   1.660   6.394   2.396
 5291SOL    HW216002   1.704   6.340   2.262
 5292SOL     OW16003   1.675   6.378   1.021
 5292SOL    HW116004   1.581   6.391   1.035
 5292SOL    HW216005   1.682   6.287   0.992
 5293SOL     OW16006   4.827   3.778   2.112
 5293SOL    HW116007   4.825   3.734   2.028
 5293SOL    HW216008   4.849   3.869   2.092
 5294SOL     OW16009   0.931   2.931   0.969
 5294SOL    HW116010   1.009   2.972   0.930
 5294SOL    HW216011   0.886   2.892   0.895
 5295SOL     OW16012   8.093   6.402   0.868
 5295SOL    HW116013   8.095   6.496   0.880
 5295SOL    HW216014   8.000   6.379   0.869
 5296SOL     OW16015   4.811   4.854   3.808
 5296SOL    HW116016   4.718   4.843   3.828
 5296SOL    HW216017   4.832   4.942   3.838
 5297SOL     OW16018   3.237   1.614   0.219
 5297SOL    HW116019   3.216   1.590   0.129
 5297SOL    HW216020   3.219   1.707   0.224
 5298SOL     OW16021   8.636   6.452   1.753
 5298SOL    HW116022   8.680   6.378   1.711
 5298SOL    HW216023   8.625   6.426   1.844
 5299SOL     OW16024   5.229   0.097   1.179
 5299SOL    HW116025   5.295   0.071   1.242
 5299SOL    HW216026   5.217   0.191   1.193
 5300SOL     OW16027   5.197   4.856   2.178
 5300SOL    HW116028   5.232   4.793   2.240
 5300SOL    HW216029   5.128   4.810   2.132
 5301SOL     OW16030   4.255   6.136   4.427
 5301SOL    HW116031   4.198   6.092   4.490
 5301SOL    HW216032   4.208   6.130   4.344
 5302SOL     OW16033   7.539   3.060   2.306
 5302SOL    HW116034   7.620   3.094   2.344
 5302SOL    HW216035   7.469   3.102   2.358
 5303SOL     OW16036   9.297   7.389   2.772
 5303SOL    HW116037   9.308   7.341   2.690
 5303SOL    HW216038   9.325   7.479   2.751
 5304SOL     OW16039   8.666   3.588   4.436
 5304SOL    HW116040   8.695   3.674   4.404
 5304SOL    HW216041   8.652   3.536   4.356
 5305SOL     OW16042   3.275   2.387   4.409
 5305SOL    HW116043   3.216   2.443   4.359
 5305SOL    HW216044   3.279   2.428   4.496
 5306SOL     OW16045   3.885   0.695   1.697
 5306SOL    HW116046   3.821   0.647   1.749
 5306SOL    HW216047   3.954   0.719   1.759
 5307SOL     OW16048   7.719   2.236   0.464
 5307SOL    HW116049   7.794   2.296   0.462
 5307SOL    HW216050   7.703   2.221   0.557
 5308SOL     OW16051   3.063   0.956   2.046
 5308SOL    HW116052   3.055   1.046   2.016
 5308SOL    HW216053   3.110   0.911   1.975
 5309SOL     OW16054   1.708   4.226   0.227
 5309SOL    HW116055   1.661   4.158   0.180
 5309SOL    HW216056   1.674   4.308   0.190
 5310SOL     OW16057   3.643   5.322   0.561
 5310SOL    HW116058   3.656   5.345   0.653
 5310SOL    HW216059   3.556   5.283   0.558
 5311SOL     OW16060   2.508   5.888   1.764
 5311SOL    HW116061   2.520   5.973   1.721
 5311SOL    HW216062   2.526   5.905   1.856
 5312SOL     OW16063   5.898   5.379   0.660
 5312SOL    HW116064   5.993   5.383   0.676
 5312SOL    HW216065   5.887   5.304   0.601
 5313SOL     OW16066   6.688   6.458   2.704
 5313SOL    HW116067   6.759   6.502   2.657
 5313SOL    HW216068   6.610   6.508   2.680
 5314SOL     OW16069   6.791   2.952   1.303
 5314SOL    HW116070   6.717   2.946   1.363
 5314SOL    HW216071   6.867   2.927   1.356
 5315SOL     OW16072   3.986   2.505   3.031
 5315SOL    HW116073   3.904   2.492   3.078
 5315SOL    HW216074   4.018   2.590   3.061
 5316SOL     OW16075   4.391   6.323   1.187
 5316SOL    HW116076   4.420   6.328   1.096
 5316SOL    HW216077   4.299   6.298   1.182
 5317SOL     OW16078   8.099   2.767   3.030
 5317SOL    HW116079   8.069   2.677   3.043
 5317SOL    HW216080   8.020   2.815   3.002
 5318SOL     OW16081   3.934   2.573   0.652
 5318SOL    HW116082   3.867   2.524   0.699
 5318SOL    HW216083   4.017   2.532   0.678
 5319SOL     OW16084   4.100   3.176   5.219
 5319SOL    HW116085   4.149   3.177   5.301
 5319SOL    HW216086   4.008   3.173   5.246
 5320SOL     OW16087   1.816   6.819   0.155
 5320SOL    HW116088   1.789   6.910   0.142
 5320SOL    HW216089   1.736   6.769   0.140
 5321SOL     OW16090   5.174   1.435   2.083
 5321SOL    HW116091   5.136   1.521   2.098
 5321SOL    HW216092   5.141   1.408   1.997
 5322SOL     OW16093  10.071   5.613   5.108
 5322SOL    HW116094  10.104   5.590   5.195
 5322SOL    HW216095  10.031   5.699   5.119
 5323SOL     OW16096   7.841   6.601   0.904
 5323SOL    HW116097   7.809   6.533   0.964
 5323SOL    HW216098   7.875   6.669   0.962
 5324SOL     OW16099   1.556   1.704   1.682
 5324SOL    HW116100   1.618   1.680   1.751
 5324SOL    HW216101   1.580   1.793   1.658
 5325SOL     OW16102   3.534   7.044   0.913
 5325SOL    HW116103   3.547   6.951   0.894
 5325SOL    HW216104   3.509   7.046   1.006
 5326SOL     OW16105   7.046   0.933   2.815
 5326SOL    HW116106   6.986   0.994   2.858
 5326SOL    HW216107   6.988   0.880   2.760
 5327SOL     OW16108   5.975   4.291   0.367
 5327SOL    HW116109   5.885   4.324   0.362
 5327SOL    HW216110   5.982   4.252   0.454
 5328SOL     OW16111   6.648   2.972   0.601
 5328SOL    HW116112   6.563   2.941   0.633
 5328SOL    HW216113   6.657   2.931   0.514
 5329SOL     OW16114   1.711   5.954   2.302
 5329SOL    HW116115   1.673   6.038   2.276
 5329SOL    HW216116   1.719   5.905   2.221
 5330SOL     OW16117   9.218   5.996   3.603
 5330SOL    HW116118   9.308   6.015   3.628
 5330SOL    HW216119   9.213   6.018   3.510
 5331SOL     OW16120   6.650   5.482   3.159
 5331SOL    HW116121   6.654   5.426   3.236
 5331SOL    HW216122   6.741   5.508   3.143
 5332SOL     OW16123   6.366   4.890   0.827
 5332SOL    HW116124   6.400   4.960   0.883
 5332SOL    HW216125   6.339   4.822   0.888
 5333SOL     OW16126   1.260   7.293   1.730
 5333SOL    HW116127   1.205   7.220   1.758
 5333SOL    HW216128   1.350   7.261   1.742
 5334SOL     OW16129   4.815   1.785   0.427
 5334SOL    HW116130   4.720   1.788   0.437
 5334SOL    HW216131   4.840   1.697   0.455
 5335SOL     OW16132   3.069   6.073   2.692
 5335SOL    HW116133   3.138   6.072   2.759
 5335SOL    HW216134   3.109   6.115   2.616
 5336SOL     OW16135   6.709   4.324   4.503
 5336SOL    HW116136   6.625   4.280   4.493
 5336SOL    HW216137   6.732   4.311   4.596
 5337SOL     OW16138   4.418   3.551   3.486
 5337SOL    HW116139   4.512   3.537   3.480
 5337SOL    HW216140   4.408   3.646   3.479
 5338SOL     OW16141   6.267   6.448   4.773
 5338SOL    HW116142   6.339   6.418   4.829
 5338SOL    HW216143   6.288   6.539   4.753
 5339SOL     OW16144   3.230   0.830   3.473
 5339SOL    HW116145   3.285   0.883   3.415
 5339SOL    HW216146   3.155   0.806   3.420
 5340SOL     OW16147   5.571   0.888   3.057
 5340SOL    HW116148   5.648   0.862   3.108
 5340SOL    HW216149   5.583   0.982   3.043
 5341SOL     OW16150   2.247   2.277   2.004
 5341SOL    HW116151   2.291   2.249   1.923
 5341SOL    HW216152   2.247   2.199   2.059
 5342SOL     OW16153   1.479   0.787   0.227
 5342SOL    HW116154   1.437   0.726   0.287
 5342SOL    HW216155   1.554   0.821   0.276
 5343SOL     OW16156   6.043   5.498   1.773
 5343SOL    HW116157   6.083   5.552   1.842
 5343SOL    HW216158   5.965   5.546   1.747
 5344SOL     OW16159   3.836   4.507   1.750
 5344SOL    HW116160   3.741   4.500   1.761
 5344SOL    HW216161   3.866   4.417   1.741
 5345SOL     OW16162   6.921   6.392   2.508
 5345SOL    HW116163   6.965   6.404   2.424
 5345SOL    HW216164   6.991   6.369   2.569
 5346SOL     OW16165   7.827   0.134   1.729
 5346SOL    HW116166   7.794   0.044   1.739
 5346SOL    HW216167   7.894   0.142   1.798
 5347SOL     OW16168   9.704   0.788   4.885
 5347SOL    HW116169   9.697   0.875   4.846
 5347SOL    HW216170   9.728   0.805   4.977
 5348SOL     OW16171   8.225   6.577   2.587
 5348SOL    HW116172   8.151   6.600   2.531
 5348SOL    HW216173   8.244   6.486   2.565
 5349SOL     OW16174   9.016   4.110   4.720
 5349SOL    HW116175   9.070   4.178   4.759
 5349SOL    HW216176   9.025   4.035   4.778
 5350SOL     OW16177   7.914   6.412   4.715
 5350SOL    HW116178   7.977   6.485   4.712
 5350SOL    HW216179   7.869   6.415   4.631
 5351SOL     OW16180   2.507   2.470   2.932
 5351SOL    HW116181   2.413   2.486   2.924
 5351SOL    HW216182   2.514   2.401   2.997
 5352SOL     OW16183   4.632   4.579   2.984
 5352SOL    HW116184   4.662   4.616   2.901
 5352SOL    HW216185   4.600   4.654   3.033
 5353SOL     OW16186   7.021   6.208   2.911
 5353SOL    HW116187   7.116   6.203   2.904
 5353SOL    HW216188   6.994   6.256   2.832
 5354SOL     OW16189   2.593   1.327   3.237
 5354SOL    HW116190   2.630   1.413   3.220
 5354SOL    HW216191   2.547   1.336   3.321
 5355SOL     OW16192   8.021   2.978   0.903
 5355SOL    HW116193   8.054   3.055   0.948
 5355SOL    HW216194   7.926   2.992   0.899
 5356SOL     OW16195   2.338   0.233   3.296
 5356SOL    HW116196   2.329   0.291   3.220
 5356SOL    HW216197   2.365   0.291   3.367
 5357SOL     OW16198   4.789   3.343   2.232
 5357SOL    HW116199   4.840   3.413   2.192
 5357SOL    HW216200   4.720   3.325   2.169
 5358SOL     OW16201   1.210   5.732   0.735
 5358SOL    HW116202   1.158   5.707   0.658
 5358SOL    HW216203   1.170   5.813   0.766
 5359SOL     OW16204   5.311   4.651   2.370
 5359SOL    HW116205   5.280   4.649   2.460
 5359SOL    HW216206   5.406   4.648   2.377
 5360SOL     OW16207   5.336   0.836   0.228
 5360SOL    HW116208   5.308   0.881   0.148
 5360SOL    HW216209   5.257   0.829   0.281
 5361SOL     OW16210   7.751   4.643   3.193
 5361SOL    HW116211   7.771   4.714   3.132
 5361SOL    HW216212   7.733   4.567   3.137
 5362SOL     OW16213   8.638   6.606   2.944
 5362SOL    HW116214   8.709   6.543   2.930
 5362SOL    HW216215   8.568   6.577   2.886
 5363SOL     OW16216   7.263   7.132   1.919
 5363SOL    HW116217   7.187   7.190   1.911
 5363SOL    HW216218   7.225   7.047   1.940
 5364SOL     OW16219  10.468   0.268   4.402
 5364SOL    HW116220  10.378   0.297   4.416
 5364SOL    HW216221  10.498   0.243   4.489
 5365SOL     OW16222   8.231   6.961   2.607
 5365SOL    HW116223   8.159   6.934   2.550
 5365SOL    HW216224   8.294   6.890   2.601
 5366SOL     OW16225   4.443   2.726   3.706
 5366SOL    HW116226   4.470   2.775   3.628
 5366SOL    HW216227   4.389   2.655   3.671
 5367SOL     OW16228   7.879   3.520   1.247
 5367SOL    HW116229   7.964   3.484   1.271
 5367SOL    HW216230   7.824   3.443   1.230
 5368SOL     OW16231   7.984   2.112   2.886
 5368SOL    HW116232   7.996   2.191   2.833
 5368SOL    HW216233   7.949   2.048   2.824
 5369SOL     OW16234   3.340   4.188   3.410
 5369SOL    HW116235   3.343   4.265   3.353
 5369SOL    HW216236   3.249   4.158   3.405
 5370SOL     OW16237   7.361   3.672   2.977
 5370SOL    HW116238   7.302   3.730   3.025
 5370SOL    HW216239   7.382   3.602   3.039
 5371SOL     OW16240   5.593   5.047   3.024
 5371SOL    HW116241   5.521   5.094   2.983
 5371SOL    HW216242   5.672   5.094   2.995
 5372SOL     OW16243   7.357   1.612   1.721
 5372SOL    HW116244   7.291   1.549   1.748
 5372SOL    HW216245   7.346   1.619   1.626
 5373SOL     OW16246   4.325   5.602   0.940
 5373SOL    HW116247   4.244   5.576   0.983
 5373SOL    HW216248   4.392   5.545   0.978
 5374SOL     OW16249   6.520   2.677   3.540
 5374SOL    HW116250   6.577   2.667   3.464
 5374SOL    HW216251   6.432   2.661   3.507
 5375SOL     OW16252   4.736   3.092   4.376
 5375SOL    HW116253   4.698   3.162   4.429
 5375SOL    HW216254   4.695   3.102   4.290
 5376SOL     OW16255   4.488   7.443   2.997
 5376SOL    HW116256   4.461   7.441   3.088
 5376SOL    HW216257   4.481   7.352   2.968
 5377SOL     OW16258   7.609   0.297   2.149
 5377SOL    HW116259   7.624   0.263   2.237
 5377SOL    HW216260   7.600   0.220   2.094
 5378SOL     OW16261   7.813   4.295   1.407
 5378SOL    HW116262   7.847   4.363   1.348
 5378SOL    HW216263   7.806   4.217   1.353
 5379SOL     OW16264   1.007   5.004   0.881
 5379SOL    HW116265   1.059   4.956   0.817
 5379SOL    HW216266   1.033   4.967   0.966
 5380SOL     OW16267   8.697   6.249   4.698
 5380SOL    HW116268   8.616   6.240   4.749
 5380SOL    HW216269   8.763   6.203   4.749
 5381SOL     OW16270   6.936   1.363   3.300
 5381SOL    HW116271   6.885   1.419   3.358
 5381SOL    HW216272   7.027   1.376   3.328
 5382SOL     OW16273   9.198   4.399   5.259
 5382SOL    HW116274   9.229   4.391   5.169
 5382SOL    HW216275   9.176   4.492   5.268
 5383SOL     OW16276   8.120   2.298   2.220
 5383SOL    HW116277   8.174   2.369   2.254
 5383SOL    HW216278   8.110   2.318   2.127
 5384SOL     OW16279   6.072   0.914   0.163
 5384SOL    HW116280   6.116   0.882   0.242
 5384SOL    HW216281   5.985   0.940   0.193
 5385SOL     OW16282   3.143   4.803   0.515
 5385SOL    HW116283   3.220   4.782   0.462
 5385SOL    HW216284   3.178   4.838   0.597
 5386SOL     OW16285   4.378   2.497   1.636
 5386SOL    HW116286   4.456   2.498   1.692
 5386SOL    HW216287   4.404   2.443   1.561
 5387SOL     OW16288   4.659   6.300   4.321
 5387SOL    HW116289   4.682   6.314   4.229
 5387SOL    HW216290   4.600   6.224   4.320
 5388SOL     OW16291   7.020   6.242   1.684
 5388SOL    HW116292   7.031   6.147   1.689
 5388SOL    HW216293   7.088   6.277   1.741
 5389SOL     OW16294   7.031   4.286   2.336
 5389SOL    HW116295   6.955   4.250   2.382
 5389SOL    HW216296   7.107   4.251   2.384
 5390SOL     OW16297   2.824   5.621   3.072
 5390SOL    HW116298   2.740   5.667   3.083
 5390SOL    HW216299   2.876   5.678   3.015
 5391SOL     OW16300   5.054   4.522   2.592
 5391SOL    HW116301   4.966   4.522   2.555
 5391SOL    HW216302   5.049   4.581   2.667
 5392SOL     OW16303   2.071   6.446   1.290
 5392SOL    HW116304   1.993   6.437   1.236
 5392SOL    HW216305   2.077   6.363   1.338
 5393SOL     OW16306   5.120   2.943   4.091
 5393SOL    HW116307   5.041   2.920   4.140
 5393SOL    HW216308   5.098   3.024   4.046
 5394SOL     OW16309   8.346   4.194   1.516
 5394SOL    HW116310   8.345   4.122   1.452
 5394SOL    HW216311   8.293   4.163   1.589
 5395SOL     OW16312   3.579   1.103   2.115
 5395SOL    HW116313   3.498   1.134   2.074
 5395SOL    HW216314   3.583   1.010   2.095
 5396SOL     OW16315   9.493   1.058   4.271
 5396SOL    HW116316   9.399   1.041   4.280
 5396SOL    HW216317   9.535   0.977   4.300
 5397SOL     OW16318  10.273   0.285   4.923
 5397SOL    HW116319  10.179   0.268   4.920
 5397SOL    HW216320  10.294   0.293   5.016
 5398SOL     OW16321   9.051   4.890   4.318
 5398SOL    HW116322   9.145   4.878   4.305
 5398SOL    HW216323   9.023   4.942   4.242
 5399SOL     OW16324   2.224   2.604   0.963
 5399SOL    HW116325   2.277   2.560   1.029
 5399SOL    HW216326   2.137   2.565   0.972
 5400SOL     OW16327   4.817   5.256   2.639
 5400SOL    HW116328   4.731   5.282   2.606
 5400SOL    HW216329   4.875   5.328   2.613
 5401SOL     OW16330   3.226   6.396   0.412
 5401SOL    HW116331   3.168   6.431   0.480
 5401SOL    HW216332   3.189   6.429   0.330
 5402SOL     OW16333   5.366   5.975   2.876
 5402SOL    HW116334   5.391   6.038   2.809
 5402SOL    HW216335   5.284   5.939   2.845
 5403SOL     OW16336   4.619   2.707   4.782
 5403SOL    HW116337   4.549   2.650   4.751
 5403SOL    HW216338   4.593   2.731   4.871
 5404SOL     OW16339   4.048   1.004   4.734
 5404SOL    HW116340   4.026   0.953   4.811
 5404SOL    HW216341   3.994   0.967   4.664
 5405SOL     OW16342   3.220   5.861   0.482
 5405SOL    HW116343   3.208   5.950   0.516
 5405SOL    HW216344   3.298   5.867   0.427
 5406SOL     OW16345   7.995   3.954   0.797
 5406SOL    HW116346   8.022   4.012   0.868
 5406SOL    HW216347   8.014   3.866   0.829
 5407SOL     OW16348   5.598   5.950   1.128
 5407SOL    HW116349   5.617   6.043   1.133
 5407SOL    HW216350   5.680   5.909   1.101
 5408SOL     OW16351  10.538   1.435   5.021
 5408SOL    HW116352  10.496   1.482   5.093
 5408SOL    HW216353  10.502   1.346   5.026
 5409SOL     OW16354   2.176   6.806   0.884
 5409SOL    HW116355   2.188   6.834   0.975
 5409SOL    HW216356   2.167   6.887   0.835
 5410SOL     OW16357   3.412   1.458   0.788
 5410SOL    HW116358   3.390   1.500   0.705
 5410SOL    HW216359   3.328   1.429   0.823
 5411SOL     OW16360   6.638   6.958   0.180
 5411SOL    HW116361   6.555   7.002   0.196
 5411SOL    HW216362   6.686   6.967   0.262
 5412SOL     OW16363   7.088   1.877   0.945
 5412SOL    HW116364   7.034   1.800   0.964
 5412SOL    HW216365   7.178   1.846   0.950
 5413SOL     OW16366   3.035   0.913   2.578
 5413SOL    HW116367   3.032   0.857   2.501
 5413SOL    HW216368   2.945   0.915   2.610
 5414SOL     OW16369   3.890   1.975   2.641
 5414SOL    HW116370   3.858   2.054   2.597
 5414SOL    HW216371   3.906   1.913   2.569
 5415SOL     OW16372   9.480   6.132   3.386
 5415SOL    HW116373   9.502   6.140   3.479
 5415SOL    HW216374   9.463   6.039   3.374
 5416SOL     OW16375   9.566   5.352   3.819
 5416SOL    HW116376   9.478   5.361   3.856
 5416SOL    HW216377   9.580   5.434   3.771
 5417SOL     OW16378   9.574   3.878   4.170
 5417SOL    HW116379   9.644   3.880   4.104
 5417SOL    HW216380   9.531   3.794   4.156
 5418SOL     OW16381   1.317   6.905   1.229
 5418SOL    HW116382   1.241   6.874   1.180
 5418SOL    HW216383   1.388   6.847   1.202
 5419SOL     OW16384   7.621   6.785   1.943
 5419SOL    HW116385   7.583   6.788   2.031
 5419SOL    HW216386   7.695   6.725   1.950
 5420SOL     OW16387   4.458   1.952   2.124
 5420SOL    HW116388   4.365   1.945   2.148
 5420SOL    HW216389   4.472   1.882   2.061
 5421SOL     OW16390   7.518   1.634   0.687
 5421SOL    HW116391   7.590   1.658   0.628
 5421SOL    HW216392   7.442   1.625   0.629
 5422SOL     OW16393   3.151   5.008   3.328
 5422SOL    HW116394   3.086   5.064   3.286
 5422SOL    HW216395   3.233   5.028   3.281
 5423SOL     OW16396   8.718   5.977   2.619
 5423SOL    HW116397   8.774   5.931   2.557
 5423SOL    HW216398   8.747   6.068   2.616
 5424SOL     OW16399   3.552   4.513   4.905
 5424SOL    HW116400   3.499   4.466   4.970
 5424SOL    HW216401   3.635   4.466   4.903
 5425SOL     OW16402   4.442   7.248   4.155
 5425SOL    HW116403   4.426   7.298   4.075
 5425SOL    HW216404   4.491   7.171   4.127
 5426SOL     OW16405   7.463   6.443   4.793
 5426SOL    HW116406   7.370   6.423   4.795
 5426SOL    HW216407   7.470   6.529   4.835
 5427SOL     OW16408  10.240   6.964   4.432
 5427SOL    HW116409  10.268   6.913   4.357
 5427SOL    HW216410  10.151   6.934   4.451
 5428SOL     OW16411   2.579   3.262   2.982
 5428SOL    HW116412   2.527   3.327   3.030
 5428SOL    HW216413   2.592   3.301   2.896
 5429SOL     OW16414  10.343   2.201   4.848
 5429SOL    HW116415  10.344   2.154   4.764
 5429SOL    HW216416  10.255   2.238   4.853
 5430SOL     OW16417   8.214   7.135   5.223
 5430SOL    HW116418   8.141   7.077   5.245
 5430SOL    HW216419   8.174   7.204   5.169
 5431SOL     OW16420   5.189   2.556   1.361
 5431SOL    HW116421   5.176   2.605   1.442
 5431SOL    HW216422   5.183   2.623   1.292
 5432SOL     OW16423   5.206   0.728   2.438
 5432SOL    HW116424   5.186   0.753   2.528
 5432SOL    HW216425   5.168   0.641   2.427
 5433SOL     OW16426   1.777   3.992   1.503
 5433SOL    HW116427   1.816   3.980   1.590
 5433SOL    HW216428   1.702   3.933   1.502
 5434SOL     OW16429  10.319   3.371   4.313
 5434SOL    HW116430  10.344   3.458   4.345
 5434SOL    HW216431  10.322   3.315   4.391
 5435SOL     OW16432   7.175   4.627   2.098
 5435SOL    HW116433   7.242   4.593   2.039
 5435SOL    HW216434   7.216   4.629   2.184
 5436SOL     OW16435   9.208   0.731   3.529
 5436SOL    HW116436   9.237   0.641   3.512
 5436SOL    HW216437   9.117   0.733   3.498
 5437SOL     OW16438   2.007   3.882   0.020
 5437SOL    HW116439   2.073   3.921   0.077
 5437SOL    HW216440   1.986   3.950  -0.044
 5438SOL     OW16441   3.894   1.864   2.066
 5438SOL    HW116442   3.808   1.907   2.065
 5438SOL    HW216443   3.918   1.857   1.973
 5439SOL     OW16444   3.809   1.693   3.151
 5439SOL    HW116445   3.897   1.717   3.122
 5439SOL    HW216446   3.756   1.771   3.136
 5440SOL     OW16447   5.205   0.415   1.853
 5440SOL    HW116448   5.292   0.456   1.853
 5440SOL    HW216449   5.146   0.484   1.825
 5441SOL     OW16450   7.926   2.128   3.736
 5441SOL    HW116451   7.961   2.039   3.731
 5441SOL    HW216452   7.833   2.117   3.715
 5442SOL     OW16453   5.119   1.194   1.716
 5442SOL    HW116454   5.113   1.286   1.691
 5442SOL    HW216455   5.073   1.147   1.646
 5443SOL     OW16456   9.503   5.812   3.551
 5443SOL    HW116457   9.530   5.776   3.636
 5443SOL    HW216458   9.411   5.784   3.542
 5444SOL     OW16459   3.929   1.100   2.175
 5444SOL    HW116460   4.014   1.068   2.206
 5444SOL    HW216461   3.872   1.092   2.252
 5445SOL     OW16462   6.618   3.912   1.886
 5445SOL    HW116463   6.570   3.894   1.968
 5445SOL    HW216464   6.570   3.862   1.820
 5446SOL     OW16465   2.954   6.555   0.858
 5446SOL    HW116466   3.002   6.607   0.922
 5446SOL    HW216467   2.953   6.467   0.894
 5447SOL     OW16468   3.969   6.011   2.125
 5447SOL    HW116469   3.943   6.100   2.102
 5447SOL    HW216470   4.039   5.989   2.064
 5448SOL     OW16471   3.957   7.489   4.363
 5448SOL    HW116472   4.041   7.462   4.324
 5448SOL    HW216473   3.963   7.458   4.454
 5449SOL     OW16474   1.096   0.361   0.160
 5449SOL    HW116475   1.168   0.361   0.224
 5449SOL    HW216476   1.028   0.307   0.201
 5450SOL     OW16477   9.675   5.375   5.234
 5450SOL    HW116478   9.679   5.388   5.139
 5450SOL    HW216479   9.763   5.346   5.258
 5451SOL     OW16480   3.367   5.072   3.740
 5451SOL    HW116481   3.324   5.107   3.662
 5451SOL    HW216482   3.432   5.139   3.763
 5452SOL     OW16483   5.804   0.044   0.492
 5452SOL    HW116484   5.830  -0.044   0.463
 5452SOL    HW216485   5.785   0.091   0.411
 5453SOL     OW16486   5.510   4.838   0.158
 5453SOL    HW116487   5.466   4.818   0.075
 5453SOL    HW216488   5.571   4.766   0.171
 5454SOL     OW16489   2.500   6.051   0.691
 5454SOL    HW116490   2.490   5.956   0.683
 5454SOL    HW216491   2.411   6.085   0.686
 5455SOL     OW16492   5.346   5.809   4.478
 5455SOL    HW116493   5.263   5.836   4.439
 5455SOL    HW216494   5.323   5.737   4.536
 5456SOL     OW16495   8.463   6.309   3.848
 5456SOL    HW116496   8.379   6.264   3.832
 5456SOL    HW216497   8.473   6.306   3.944
 5457SOL     OW16498   4.709   3.522   1.284
 5457SOL    HW116499   4.791   3.502   1.240
 5457SOL    HW216500   4.673   3.437   1.309
 5458SOL     OW16501   4.228   4.517   1.016
 5458SOL    HW116502   4.283   4.587   0.980
 5458SOL    HW216503   4.175   4.560   1.083
 5459SOL     OW16504   7.247   4.761   4.923
 5459SOL    HW116505   7.183   4.727   4.861
 5459SOL    HW216506   7.207   4.748   5.009
 5460SOL     OW16507   9.089   5.180   2.496
 5460SOL    HW116508   8.995   5.170   2.505
 5460SOL    HW216509   9.125   5.138   2.574
 5461SOL     OW16510   7.816   3.022   2.148
 5461SOL    HW116511   7.866   2.940   2.147
 5461SOL    HW216512   7.840   3.063   2.231
 5462SOL     OW16513   0.933   1.687   0.717
 5462SOL    HW116514   0.956   1.654   0.630
 5462SOL    HW216515   0.845   1.722   0.706
 5463SOL     OW16516   3.331   4.750   3.361
 5463SOL    HW116517   3.262   4.815   3.354
 5463SOL    HW216518   3.318   4.693   3.285
 5464SOL     OW16519   5.977   3.306   4.869
 5464SOL    HW116520   6.001   3.218   4.839
 5464SOL    HW216521   5.882   3.308   4.863
 5465SOL     OW16522   3.934   5.546   0.798
 5465SOL    HW116523   3.953   5.533   0.891
 5465SOL    HW216524   3.861   5.486   0.780
 5466SOL     OW16525   9.734   6.494   4.385
 5466SOL    HW116526   9.722   6.411   4.431
 5466SOL    HW216527   9.742   6.559   4.455
 5467SOL     OW16528   1.279   2.358   0.229
 5467SOL    HW116529   1.305   2.449   0.242
 5467SOL    HW216530   1.284   2.345   0.134
 5468SOL     OW16531   5.636   5.726   0.186
 5468SOL    HW116532   5.731   5.734   0.189
 5468SOL    HW216533   5.607   5.802   0.134
 5469SOL     OW16534   8.777   1.536   2.902
 5469SOL    HW116535   8.843   1.525   2.834
 5469SOL    HW216536   8.826   1.548   2.983
 5470SOL     OW16537   7.340   6.671   4.905
 5470SOL    HW116538   7.301   6.692   4.821
 5470SOL    HW216539   7.289   6.722   4.969
 5471SOL     OW16540   8.880   3.151   3.932
 5471SOL    HW116541   8.963   3.107   3.951
 5471SOL    HW216542   8.836   3.155   4.017
 5472SOL     OW16543   5.432   6.874   4.689
 5472SOL    HW116544   5.339   6.855   4.672
 5472SOL    HW216545   5.435   6.893   4.783
 5473SOL     OW16546   8.419   4.426   2.198
 5473SOL    HW116547   8.444   4.431   2.290
 5473SOL    HW216548   8.433   4.515   2.164
 5474SOL     OW16549   7.619   2.525   2.284
 5474SOL    HW116550   7.633   2.618   2.298
 5474SOL    HW216551   7.529   2.509   2.310
 5475SOL     OW16552   6.707   2.939   0.351
 5475SOL    HW116553   6.765   2.948   0.275
 5475SOL    HW216554   6.675   2.849   0.345
 5476SOL     OW16555   2.525   3.973   3.480
 5476SOL    HW116556   2.444   3.976   3.429
 5476SOL    HW216557   2.570   4.055   3.457
 5477SOL     OW16558   9.501   4.245   3.399
 5477SOL    HW116559   9.574   4.288   3.354
 5477SOL    HW216560   9.441   4.220   3.329
 5478SOL     OW16561   6.945   5.546   5.031
 5478SOL    HW116562   6.962   5.495   5.110
 5478SOL    HW216563   7.030   5.587   5.011
 5479SOL     OW16564   9.322   5.501   3.912
 5479SOL    HW116565   9.299   5.547   3.831
 5479SOL    HW216566   9.307   5.566   3.981
 5480SOL     OW16567   5.869   2.993   2.449
 5480SOL    HW116568   5.873   3.068   2.390
 5480SOL    HW216569   5.959   2.979   2.477
 5481SOL     OW16570   7.423   1.606   1.105
 5481SOL    HW116571   7.398   1.698   1.117
 5481SOL    HW216572   7.410   1.566   1.191
 5482SOL     OW16573   7.161   6.388   4.830
 5482SOL    HW116574   7.124   6.323   4.771
 5482SOL    HW216575   7.101   6.462   4.826
 5483SOL     OW16576   4.583   1.500   0.196
 5483SOL    HW116577   4.514   1.559   0.167
 5483SOL    HW216578   4.664   1.548   0.180
 5484SOL     OW16579   7.334   6.034   0.833
 5484SOL    HW116580   7.416   6.083   0.832
 5484SOL    HW216581   7.272   6.091   0.879
 5485SOL     OW16582   5.516   3.456   1.256
 5485SOL    HW116583   5.533   3.488   1.344
 5485SOL    HW216584   5.488   3.534   1.207
 5486SOL     OW16585   2.489   2.156  -0.030
 5486SOL    HW116586   2.546   2.111   0.032
 5486SOL    HW216587   2.461   2.235   0.016
 5487SOL     OW16588   7.088   6.212   2.635
 5487SOL    HW116589   7.088   6.119   2.657
 5487SOL    HW216590   7.174   6.227   2.595
 5488SOL     OW16591   3.700   5.084   0.387
 5488SOL    HW116592   3.791   5.114   0.382
 5488SOL    HW216593   3.661   5.137   0.457
 5489SOL     OW16594   7.399   4.407   4.597
 5489SOL    HW116595   7.438   4.381   4.681
 5489SOL    HW216596   7.407   4.502   4.596
 5490SOL     OW16597   7.860   1.983   5.014
 5490SOL    HW116598   7.947   2.013   5.042
 5490SOL    HW216599   7.853   1.894   5.049
 5491SOL     OW16600   9.883   6.525   4.043
 5491SOL    HW116601   9.976   6.511   4.060
 5491SOL    HW216602   9.859   6.596   4.102
 5492SOL     OW16603   4.779   0.423   0.077
 5492SOL    HW116604   4.840   0.455   0.011
 5492SOL    HW216605   4.720   0.364   0.030
 5493SOL     OW16606   6.226   4.383   4.125
 5493SOL    HW116607   6.235   4.351   4.215
 5493SOL    HW216608   6.144   4.346   4.094
 5494SOL     OW16609   7.404   5.732   5.271
 5494SOL    HW116610   7.372   5.775   5.191
 5494SOL    HW216611   7.483   5.782   5.293
 5495SOL     OW16612   7.569   3.876   3.019
 5495SOL    HW116613   7.550   3.784   2.998
 5495SOL    HW216614   7.654   3.873   3.061
 5496SOL     OW16615   7.350   6.791   2.629
 5496SOL    HW116616   7.428   6.816   2.579
 5496SOL    HW216617   7.335   6.866   2.688
 5497SOL     OW16618   6.022   4.320   1.346
 5497SOL    HW116619   5.989   4.277   1.425
 5497SOL    HW216620   5.948   4.371   1.313
 5498SOL     OW16621   5.785   0.203   2.791
 5498SOL    HW116622   5.875   0.170   2.791
 5498SOL    HW216623   5.769   0.226   2.699
 5499SOL     OW16624   2.176   0.009   2.800
 5499SOL    HW116625   2.115   0.072   2.762
 5499SOL    HW216626   2.214   0.053   2.876
 5500SOL     OW16627   3.569   5.765   4.469
 5500SOL    HW116628   3.512   5.790   4.541
 5500SOL    HW216629   3.652   5.809   4.486
 5501SOL     OW16630   7.120   0.993   0.608
 5501SOL    HW116631   7.169   0.969   0.529
 5501SOL    HW216632   7.187   1.020   0.670
 5502SOL     OW16633   7.084   4.934   3.900
 5502SOL    HW116634   7.136   4.907   3.975
 5502SOL    HW216635   7.109   4.872   3.831
 5503SOL     OW16636   6.885   2.309   3.745
 5503SOL    HW116637   6.875   2.404   3.741
 5503SOL    HW216638   6.973   2.294   3.779
 5504SOL     OW16639   0.793   4.032   0.680
 5504SOL    HW116640   0.755   3.999   0.761
 5504SOL    HW216641   0.888   4.035   0.698
 5505SOL     OW16642   3.060   4.440   1.870
 5505SOL    HW116643   2.993   4.420   1.936
 5505SOL    HW216644   3.088   4.355   1.838
 5506SOL     OW16645   5.876   5.685   3.306
 5506SOL    HW116646   5.918   5.771   3.298
 5506SOL    HW216647   5.874   5.650   3.217
 5507SOL     OW16648   8.888   5.395   3.521
 5507SOL    HW116649   8.860   5.436   3.440
 5507SOL    HW216650   8.956   5.453   3.555
 5508SOL     OW16651   5.214   0.338   3.606
 5508SOL    HW116652   5.247   0.419   3.568
 5508SOL    HW216653   5.284   0.308   3.664
 5509SOL     OW16654   5.368   5.155   2.206
 5509SOL    HW116655   5.452   5.126   2.242
 5509SOL    HW216656   5.392   5.207   2.130
 5510SOL     OW16657   3.048   4.362   1.196
 5510SOL    HW116658   3.084   4.451   1.196
 5510SOL    HW216659   2.957   4.373   1.223
 5511SOL     OW16660   5.893   6.690   3.746
 5511SOL    HW116661   5.956   6.620   3.732
 5511SOL    HW216662   5.918   6.728   3.831
 5512SOL     OW16663   7.125   6.648   1.665
 5512SOL    HW116664   7.175   6.725   1.690
 5512SOL    HW216665   7.040   6.660   1.707
 5513SOL     OW16666   1.686   6.929   0.583
 5513SOL    HW116667   1.705   6.875   0.659
 5513SOL    HW216668   1.719   6.880   0.508
 5514SOL     OW16669   4.835   3.347   3.145
 5514SOL    HW116670   4.763   3.315   3.091
 5514SOL    HW216671   4.793   3.389   3.220
 5515SOL     OW16672   5.903   4.818   4.354
 5515SOL    HW116673   5.861   4.896   4.389
 5515SOL    HW216674   5.859   4.802   4.271
 5516SOL     OW16675   3.741   5.866   2.988
 5516SOL    HW116676   3.687   5.873   3.066
 5516SOL    HW216677   3.830   5.854   3.021
 5517SOL     OW16678   1.662   6.754   1.964
 5517SOL    HW116679   1.652   6.842   1.928
 5517SOL    HW216680   1.573   6.717   1.961
 5518SOL     OW16681   5.061   0.855   4.189
 5518SOL    HW116682   5.051   0.824   4.100
 5518SOL    HW216683   5.061   0.776   4.243
 5519SOL     OW16684   4.341   1.437   1.983
 5519SOL    HW116685   4.336   1.430   2.078
 5519SOL    HW216686   4.249   1.439   1.954
 5520SOL     OW16687   5.808   2.226   2.380
 5520SOL    HW116688   5.854   2.178   2.449
 5520SOL    HW216689   5.733   2.170   2.358
 5521SOL     OW16690  10.066   4.484   3.728
 5521SOL    HW116691   9.999   4.552   3.723
 5521SOL    HW216692  10.047   4.439   3.811
 5522SOL     OW16693   7.410   1.639   4.871
 5522SOL    HW116694   7.437   1.668   4.958
 5522SOL    HW216695   7.424   1.544   4.872
 5523SOL     OW16696  10.768   2.408   4.912
 5523SOL    HW116697  10.852   2.451   4.926
 5523SOL    HW216698  10.774   2.327   4.964
 5524SOL     OW16699   9.348   6.690   4.990
 5524SOL    HW116700   9.337   6.761   5.053
 5524SOL    HW216701   9.260   6.678   4.953
 5525SOL     OW16702   3.693   3.194   1.061
 5525SOL    HW116703   3.746   3.126   1.020
 5525SOL    HW216704   3.694   3.173   1.154
 5526SOL     OW16705   3.851   3.158   2.632
 5526SOL    HW116706   3.925   3.110   2.667
 5526SOL    HW216707   3.781   3.093   2.626
 5527SOL     OW16708   6.596   3.393   5.182
 5527SOL    HW116709   6.636   3.357   5.103
 5527SOL    HW216710   6.608   3.324   5.248
 5528SOL     OW16711   3.087   5.168   0.578
 5528SOL    HW116712   3.051   5.252   0.551
 5528SOL    HW216713   3.017   5.126   0.628
 5529SOL     OW16714   2.081   6.086   0.036
 5529SOL    HW116715   1.987   6.071   0.045
 5529SOL    HW216716   2.115   6.001   0.005
 5530SOL     OW16717   8.661   3.605   4.713
 5530SOL    HW116718   8.668   3.540   4.643
 5530SOL    HW216719   8.632   3.685   4.670
 5531SOL     OW16720   4.279   2.629   3.932
 5531SOL    HW116721   4.366   2.617   3.969
 5531SOL    HW216722   4.294   2.662   3.844
 5532SOL     OW16723   5.213   4.853   0.872
 5532SOL    HW116724   5.263   4.809   0.941
 5532SOL    HW216725   5.267   4.842   0.794
 5533SOL     OW16726   2.482   3.456   1.092
 5533SOL    HW116727   2.511   3.467   1.002
 5533SOL    HW216728   2.562   3.463   1.144
 5534SOL     OW16729   8.762   5.967   3.219
 5534SOL    HW116730   8.825   5.913   3.172
 5534SOL    HW216731   8.700   5.996   3.153
 5535SOL     OW16732   2.648   4.410   2.540
 5535SOL    HW116733   2.589   4.393   2.467
 5535SOL    HW216734   2.640   4.332   2.595
 5536SOL     OW16735   3.204   0.447   1.186
 5536SOL    HW116736   3.150   0.471   1.262
 5536SOL    HW216737   3.152   0.474   1.110
 5537SOL     OW16738   9.825   3.144   4.811
 5537SOL    HW116739   9.869   3.207   4.869
 5537SOL    HW216740   9.867   3.157   4.726
 5538SOL     OW16741   7.143   4.610   5.144
 5538SOL    HW116742   7.074   4.555   5.107
 5538SOL    HW216743   7.212   4.549   5.171
 5539SOL     OW16744   0.656   7.000   0.307
 5539SOL    HW116745   0.629   7.060   0.238
 5539SOL    HW216746   0.575   6.955   0.333
 5540SOL     OW16747   5.241   0.642   1.125
 5540SOL    HW116748   5.300   0.669   1.055
 5540SOL    HW216749   5.153   0.660   1.091
 5541SOL     OW16750   2.407   6.133   2.981
 5541SOL    HW116751   2.392   6.210   2.926
 5541SOL    HW216752   2.337   6.137   3.047
 5542SOL     OW16753   4.264   1.590   1.519
 5542SOL    HW116754   4.241   1.583   1.426
 5542SOL    HW216755   4.273   1.499   1.548
 5543SOL     OW16756   4.581   3.608   2.165
 5543SOL    HW116757   4.600   3.656   2.245
 5543SOL    HW216758   4.643   3.642   2.100
 5544SOL     OW16759   7.375   2.479   1.849
 5544SOL    HW116760   7.285   2.446   1.855
 5544SOL    HW216761   7.407   2.479   1.940
 5545SOL     OW16762   2.245   3.179   2.593
 5545SOL    HW116763   2.230   3.202   2.502
 5545SOL    HW216764   2.178   3.114   2.613
 5546SOL     OW16765   4.627   0.242   5.105
 5546SOL    HW116766   4.577   0.277   5.031
 5546SOL    HW216767   4.713   0.221   5.068
 5547SOL     OW16768   7.850   3.937   3.080
 5547SOL    HW116769   7.925   3.892   3.120
 5547SOL    HW216770   7.884   3.974   2.999
 5548SOL     OW16771   3.021   3.382   2.430
 5548SOL    HW116772   3.065   3.462   2.403
 5548SOL    HW216773   2.930   3.407   2.442
 5549SOL     OW16774   4.580   0.574   4.247
 5549SOL    HW116775   4.583   0.627   4.167
 5549SOL    HW216776   4.611   0.633   4.316
 5550SOL     OW16777   5.852   4.532   2.226
 5550SOL    HW116778   5.862   4.520   2.320
 5550SOL    HW216779   5.762   4.564   2.216
 5551SOL     OW16780   6.525   6.753   2.699
 5551SOL    HW116781   6.589   6.796   2.755
 5551SOL    HW216782   6.477   6.695   2.758
 5552SOL     OW16783   4.547   2.778   3.141
 5552SOL    HW116784   4.641   2.780   3.157
 5552SOL    HW216785   4.523   2.685   3.147
 5553SOL     OW16786   2.161   3.396   1.401
 5553SOL    HW116787   2.139   3.404   1.308
 5553SOL    HW216788   2.185   3.304   1.413
 5554SOL     OW16789   2.308   0.730   1.456
 5554SOL    HW116790   2.352   0.724   1.540
 5554SOL    HW216791   2.217   0.753   1.477
 5555SOL     OW16792  10.738   4.801   5.236
 5555SOL    HW116793  10.752   4.821   5.143
 5555SOL    HW216794  10.827   4.790   5.271
 5556SOL     OW16795   6.587   4.135   4.059
 5556SOL    HW116796   6.546   4.197   3.999
 5556SOL    HW216797   6.642   4.188   4.116
 5557SOL     OW16798   7.347   0.110   3.211
 5557SOL    HW116799   7.372   0.190   3.166
 5557SOL    HW216800   7.363   0.128   3.304
 5558SOL     OW16801   3.406   4.430   3.231
 5558SOL    HW116802   3.474   4.478   3.278
 5558SOL    HW216803   3.411   4.462   3.141
 5559SOL     OW16804   1.447   4.090   1.620
 5559SOL    HW116805   1.472   4.148   1.548
 5559SOL    HW216806   1.492   4.124   1.697
 5560SOL     OW16807   8.653   5.358   4.585
 5560SOL    HW116808   8.567   5.339   4.548
 5560SOL    HW216809   8.704   5.278   4.571
 5561SOL     OW16810   4.468   0.293   3.199
 5561SOL    HW116811   4.469   0.302   3.294
 5561SOL    HW216812   4.556   0.319   3.171
 5562SOL     OW16813   5.136   5.508   3.158
 5562SOL    HW116814   5.223   5.472   3.177
 5562SOL    HW216815   5.093   5.440   3.106
 5563SOL     OW16816   2.962   2.059   0.439
 5563SOL    HW116817   2.937   2.149   0.459
 5563SOL    HW216818   2.883   2.019   0.403
 5564SOL     OW16819   7.605   1.414   1.481
 5564SOL    HW116820   7.575   1.359   1.409
 5564SOL    HW216821   7.611   1.502   1.443
 5565SOL     OW16822   1.467   0.953   1.022
 5565SOL    HW116823   1.485   0.859   1.014
 5565SOL    HW216824   1.531   0.995   0.965
 5566SOL     OW16825   8.681   2.918   3.266
 5566SOL    HW116826   8.625   2.876   3.201
 5566SOL    HW216827   8.761   2.867   3.267
 5567SOL     OW16828   1.289   0.182   1.101
 5567SOL    HW116829   1.249   0.103   1.137
 5567SOL    HW216830   1.372   0.151   1.063
 5568SOL     OW16831   5.534   3.585   3.662
 5568SOL    HW116832   5.528   3.492   3.641
 5568SOL    HW216833   5.531   3.588   3.757
 5569SOL     OW16834   5.928   7.427   2.384
 5569SOL    HW116835   5.916   7.458   2.473
 5569SOL    HW216836   5.840   7.402   2.355
 5570SOL     OW16837   5.431   5.892   4.007
 5570SOL    HW116838   5.379   5.820   3.973
 5570SOL    HW216839   5.503   5.849   4.054
 5571SOL     OW16840   5.649   6.207   5.123
 5571SOL    HW116841   5.621   6.297   5.109
 5571SOL    HW216842   5.664   6.173   5.035
 5572SOL     OW16843   2.340   1.756   0.819
 5572SOL    HW116844   2.367   1.844   0.792
 5572SOL    HW216845   2.245   1.761   0.826
 5573SOL     OW16846   5.792   0.123   4.642
 5573SOL    HW116847   5.784   0.035   4.607
 5573SOL    HW216848   5.737   0.177   4.585
 5574SOL     OW16849   8.245   0.651   4.186
 5574SOL    HW116850   8.157   0.627   4.214
 5574SOL    HW216851   8.234   0.681   4.096
 5575SOL     OW16852   9.679   4.283   3.155
 5575SOL    HW116853   9.600   4.321   3.115
 5575SOL    HW216854   9.751   4.318   3.103
 5576SOL     OW16855   3.241   5.731   0.936
 5576SOL    HW116856   3.239   5.785   1.015
 5576SOL    HW216857   3.324   5.753   0.894
 5577SOL     OW16858   7.234   3.000   2.873
 5577SOL    HW116859   7.293   2.989   2.948
 5577SOL    HW216860   7.278   3.062   2.816
 5578SOL     OW16861   8.327   2.609   1.224
 5578SOL    HW116862   8.254   2.603   1.286
 5578SOL    HW216863   8.286   2.606   1.137
 5579SOL     OW16864   2.816   6.242   3.693
 5579SOL    HW116865   2.737   6.188   3.696
 5579SOL    HW216866   2.788   6.324   3.653
 5580SOL     OW16867   2.933   4.376   3.733
 5580SOL    HW116868   3.007   4.340   3.686
 5580SOL    HW216869   2.871   4.304   3.741
 5581SOL     OW16870   0.729   6.216   0.381
 5581SOL    HW116871   0.809   6.208   0.329
 5581SOL    HW216872   0.759   6.246   0.467
 5582SOL     OW16873   8.762   3.247   1.799
 5582SOL    HW116874   8.729   3.312   1.862
 5582SOL    HW216875   8.707   3.260   1.721
 5583SOL     OW16876   6.470   2.478   0.635
 5583SOL    HW116877   6.430   2.535   0.569
 5583SOL    HW216878   6.411   2.403   0.641
 5584SOL     OW16879   1.442   4.267   0.799
 5584SOL    HW116880   1.457   4.184   0.843
 5584SOL    HW216881   1.516   4.322   0.824
 5585SOL     OW16882   7.444   4.488   3.024
 5585SOL    HW116883   7.363   4.537   3.043
 5585SOL    HW216884   7.475   4.459   3.110
 5586SOL     OW16885   2.779   2.222   3.365
 5586SOL    HW116886   2.856   2.277   3.378
 5586SOL    HW216887   2.718   2.252   3.433
 5587SOL     OW16888   7.457   5.568   4.516
 5587SOL    HW116889   7.497   5.483   4.498
 5587SOL    HW216890   7.400   5.553   4.591
 5588SOL     OW16891   0.415   1.156   0.466
 5588SOL    HW116892   0.450   1.219   0.402
 5588SOL    HW216893   0.362   1.210   0.525
 5589SOL     OW16894   5.814   2.153   4.051
 5589SOL    HW116895   5.837   2.076   4.000
 5589SOL    HW216896   5.744   2.195   4.000
 5590SOL     OW16897   8.631   4.391   3.365
 5590SOL    HW116898   8.647   4.415   3.457
 5590SOL    HW216899   8.641   4.474   3.317
 5591SOL     OW16900   0.901   6.576   1.240
 5591SOL    HW116901   0.901   6.483   1.262
 5591SOL    HW216902   0.871   6.580   1.149
 5592SOL     OW16903   4.112   5.382   3.807
 5592SOL    HW116904   4.123   5.299   3.761
 5592SOL    HW216905   4.039   5.425   3.762
 5593SOL     OW16906   1.463   3.030   1.616
 5593SOL    HW116907   1.437   3.057   1.528
 5593SOL    HW216908   1.404   3.077   1.675
 5594SOL     OW16909   9.225   4.640   2.852
 5594SOL    HW116910   9.154   4.686   2.896
 5594SOL    HW216911   9.182   4.583   2.788
 5595SOL     OW16912   8.384   2.160   3.676
 5595SOL    HW116913   8.435   2.143   3.755
 5595SOL    HW216914   8.310   2.213   3.706
 5596SOL     OW16915   8.298   0.888   4.817
 5596SOL    HW116916   8.376   0.888   4.761
 5596SOL    HW216917   8.228   0.919   4.759
 5597SOL     OW16918   4.343   1.056   1.040
 5597SOL    HW116919   4.380   1.032   0.955
 5597SOL    HW216920   4.268   0.998   1.051
 5598SOL     OW16921   4.197   5.141   0.853
 5598SOL    HW116922   4.187   5.230   0.885
 5598SOL    HW216923   4.277   5.109   0.896
 5599SOL     OW16924   6.318   1.175   3.321
 5599SOL    HW116925   6.277   1.190   3.236
 5599SOL    HW216926   6.262   1.110   3.363
 5600SOL     OW16927  10.856   3.229   4.800
 5600SOL    HW116928  10.786   3.276   4.755
 5600SOL    HW216929  10.895   3.294   4.859
 5601SOL     OW16930   4.520   2.651   0.461
 5601SOL    HW116931   4.488   2.705   0.533
 5601SOL    HW216932   4.453   2.659   0.393
 5602SOL     OW16933   4.635   5.099   3.695
 5602SOL    HW116934   4.593   5.182   3.676
 5602SOL    HW216935   4.609   5.079   3.785
 5603SOL     OW16936   8.236   4.918   1.689
 5603SOL    HW116937   8.301   4.976   1.728
 5603SOL    HW216938   8.154   4.941   1.731
 5604SOL     OW16939   5.019   2.043   1.887
 5604SOL    HW116940   5.068   1.967   1.919
 5604SOL    HW216941   4.928   2.012   1.880
 5605SOL     OW16942   6.863   7.156   2.452
 5605SOL    HW116943   6.888   7.073   2.412
 5605SOL    HW216944   6.789   7.187   2.400
 5606SOL     OW16945   7.992   0.331   2.011
 5606SOL    HW116946   7.983   0.238   1.990
 5606SOL    HW216947   7.938   0.342   2.090
 5607SOL     OW16948   4.200   0.844   2.614
 5607SOL    HW116949   4.139   0.895   2.561
 5607SOL    HW216950   4.154   0.761   2.632
 5608SOL     OW16951   7.901   1.787   2.199
 5608SOL    HW116952   7.985   1.741   2.207
 5608SOL    HW216953   7.925   1.875   2.169
 5609SOL     OW16954   7.310   2.174   0.658
 5609SOL    HW116955   7.405   2.168   0.664
 5609SOL    HW216956   7.279   2.153   0.746
 5610SOL     OW16957   8.171   3.484   1.487
 5610SOL    HW116958   8.145   3.571   1.458
 5610SOL    HW216959   8.129   3.424   1.425
 5611SOL     OW16960   6.104   2.266   2.984
 5611SOL    HW116961   6.171   2.316   2.938
 5611SOL    HW216962   6.025   2.277   2.932
 5612SOL     OW16963   6.030   7.443   3.316
 5612SOL    HW116964   6.027   7.363   3.264
 5612SOL    HW216965   6.078   7.418   3.395
 5613SOL     OW16966   7.102   6.125   1.054
 5613SOL    HW116967   7.025   6.157   1.101
 5613SOL    HW216968   7.146   6.067   1.117
 5614SOL     OW16969   9.033   3.341   2.880
 5614SOL    HW116970   8.975   3.413   2.904
 5614SOL    HW216971   9.120   3.379   2.878
 5615SOL     OW16972   5.093   3.768   1.850
 5615SOL    HW116973   5.096   3.820   1.770
 5615SOL    HW216974   5.136   3.823   1.916
 5616SOL     OW16975   2.468   2.694   2.369
 5616SOL    HW116976   2.552   2.674   2.409
 5616SOL    HW216977   2.458   2.630   2.300
 5617SOL     OW16978   8.615   2.859   4.894
 5617SOL    HW116979   8.583   2.769   4.904
 5617SOL    HW216980   8.694   2.862   4.948
 5618SOL     OW16981   6.827   3.383   3.235
 5618SOL    HW116982   6.757   3.321   3.253
 5618SOL    HW216983   6.856   3.361   3.146
 5619SOL     OW16984   4.406   0.772   3.493
 5619SOL    HW116985   4.490   0.787   3.538
 5619SOL    HW216986   4.341   0.813   3.549
 5620SOL     OW16987   7.739   1.082   2.872
 5620SOL    HW116988   7.750   1.148   2.940
 5620SOL    HW216989   7.719   1.001   2.920
 5621SOL     OW16990   2.895   0.182   2.445
 5621SOL    HW116991   2.910   0.160   2.537
 5621SOL    HW216992   2.837   0.259   2.448
 5622SOL     OW16993   3.701   7.185   0.499
 5622SOL    HW116994   3.671   7.121   0.563
 5622SOL    HW216995   3.730   7.133   0.424
 5623SOL     OW16996  10.758   4.711   4.934
 5623SOL    HW116997  10.833   4.720   4.876
 5623SOL    HW216998  10.685   4.690   4.876
 5624SOL     OW16999   4.730   4.119   0.749
 5624SOL    HW117000   4.821   4.148   0.737
 5624SOL    HW217001   4.737   4.033   0.791
 5625SOL     OW17002   5.584   2.616   0.339
 5625SOL    HW117003   5.598   2.605   0.244
 5625SOL    HW217004   5.520   2.549   0.362
 5626SOL     OW17005   9.654   3.835   3.664
 5626SOL    HW117006   9.665   3.914   3.610
 5626SOL    HW217007   9.728   3.779   3.640
 5627SOL     OW17008   8.783   3.846   4.077
 5627SOL    HW117009   8.844   3.878   4.012
 5627SOL    HW217010   8.716   3.800   4.027
 5628SOL     OW17011   8.394   5.600   5.200
 5628SOL    HW117012   8.340   5.521   5.198
 5628SOL    HW217013   8.382   5.635   5.288
 5629SOL     OW17014   3.521   2.787   4.116
 5629SOL    HW117015   3.565   2.718   4.165
 5629SOL    HW217016   3.451   2.817   4.175
 5630SOL     OW17017   3.887   1.690   0.965
 5630SOL    HW117018   3.803   1.688   0.921
 5630SOL    HW217019   3.951   1.668   0.897
 5631SOL     OW17020   4.998   4.756   1.349
 5631SOL    HW117021   5.026   4.700   1.422
 5631SOL    HW217022   5.067   4.821   1.340
 5632SOL     OW17023   8.628   6.165   2.974
 5632SOL    HW117024   8.587   6.102   2.915
 5632SOL    HW217025   8.719   6.170   2.943
 5633SOL     OW17026   3.269   5.473   0.776
 5633SOL    HW117027   3.286   5.545   0.716
 5633SOL    HW217028   3.228   5.514   0.852
 5634SOL     OW17029   8.561   6.908   2.064
 5634SOL    HW117030   8.507   6.959   2.124
 5634SOL    HW217031   8.530   6.818   2.075
 5635SOL     OW17032   4.234   4.256   2.549
 5635SOL    HW117033   4.202   4.326   2.492
 5635SOL    HW217034   4.271   4.191   2.490
 5636SOL     OW17035   2.317   1.033   3.175
 5636SOL    HW117036   2.283   1.015   3.088
 5636SOL    HW217037   2.273   0.971   3.232
 5637SOL     OW17038   4.556   5.809   0.969
 5637SOL    HW117039   4.510   5.725   0.959
 5637SOL    HW217040   4.530   5.860   0.892
 5638SOL     OW17041   3.790   4.438   3.282
 5638SOL    HW117042   3.873   4.418   3.324
 5638SOL    HW217043   3.790   4.384   3.203
 5639SOL     OW17044   4.410   5.208   2.036
 5639SOL    HW117045   4.338   5.144   2.039
 5639SOL    HW217046   4.462   5.182   1.961
 5640SOL     OW17047   4.719   6.964   0.759
 5640SOL    HW117048   4.729   6.884   0.811
 5640SOL    HW217049   4.640   7.005   0.793
 5641SOL     OW17050   1.347   5.908   0.291
 5641SOL    HW117051   1.252   5.903   0.281
 5641SOL    HW217052   1.374   5.819   0.313
 5642SOL     OW17053   5.722   2.005   4.278
 5642SOL    HW117054   5.698   2.081   4.224
 5642SOL    HW217055   5.678   2.021   4.361
 5643SOL     OW17056   9.522   6.513   4.667
 5643SOL    HW117057   9.615   6.521   4.688
 5643SOL    HW217058   9.514   6.546   4.578
 5644SOL     OW17059   2.819   4.708   1.246
 5644SOL    HW117060   2.768   4.781   1.212
 5644SOL    HW217061   2.880   4.748   1.308
 5645SOL     OW17062   2.840   0.785   2.092
 5645SOL    HW117063   2.848   0.703   2.140
 5645SOL    HW217064   2.927   0.826   2.100
 5646SOL     OW17065   3.644   0.318   4.754
 5646SOL    HW117066   3.702   0.329   4.830
 5646SOL    HW217067   3.703   0.298   4.681
 5647SOL     OW17068   2.875   0.613   1.646
 5647SOL    HW117069   2.941   0.679   1.666
 5647SOL    HW217070   2.906   0.573   1.564
 5648SOL     OW17071   6.426   3.000   3.048
 5648SOL    HW117072   6.396   2.909   3.051
 5648SOL    HW217073   6.359   3.049   3.096
 5649SOL     OW17074   7.861   4.831   4.854
 5649SOL    HW117075   7.901   4.770   4.915
 5649SOL    HW217076   7.934   4.879   4.814
 5650SOL     OW17077   2.258   0.568   0.521
 5650SOL    HW117078   2.324   0.543   0.586
 5650SOL    HW217079   2.183   0.597   0.573
 5651SOL     OW17080   1.362   7.014   1.760
 5651SOL    HW117081   1.326   7.004   1.672
 5651SOL    HW217082   1.287   7.043   1.813
 5652SOL     OW17083   7.415   6.267   3.158
 5652SOL    HW117084   7.371   6.310   3.085
 5652SOL    HW217085   7.444   6.183   3.122
 5653SOL     OW17086   5.422   3.388   4.526
 5653SOL    HW117087   5.487   3.362   4.461
 5653SOL    HW217088   5.345   3.336   4.506
 5654SOL     OW17089   1.313   0.275   0.348
 5654SOL    HW117090   1.306   0.220   0.270
 5654SOL    HW217091   1.367   0.224   0.409
 5655SOL     OW17092   6.453   4.485   0.265
 5655SOL    HW117093   6.479   4.407   0.216
 5655SOL    HW217094   6.495   4.475   0.350
 5656SOL     OW17095   4.365   7.191   2.547
 5656SOL    HW117096   4.435   7.198   2.612
 5656SOL    HW217097   4.286   7.217   2.595
 5657SOL     OW17098   9.184   0.745   4.201
 5657SOL    HW117099   9.221   0.658   4.214
 5657SOL    HW217100   9.154   0.772   4.289
 5658SOL     OW17101   4.154   2.575   0.812
 5658SOL    HW117102   4.227   2.591   0.871
 5658SOL    HW217103   4.087   2.534   0.867
 5659SOL     OW17104   2.967   5.107   1.075
 5659SOL    HW117105   2.878   5.099   1.109
 5659SOL    HW217106   2.978   5.200   1.056
 5660SOL     OW17107   3.144   7.066   0.123
 5660SOL    HW117108   3.054   7.073   0.092
 5660SOL    HW217109   3.157   7.144   0.176
 5661SOL     OW17110   8.247   7.381   2.441
 5661SOL    HW117111   8.293   7.309   2.484
 5661SOL    HW217112   8.308   7.454   2.445
 5662SOL     OW17113   4.223   2.725   0.410
 5662SOL    HW117114   4.211   2.674   0.330
 5662SOL    HW217115   4.135   2.759   0.430
 5663SOL     OW17116   7.688   4.598   2.615
 5663SOL    HW117117   7.671   4.579   2.523
 5663SOL    HW217118   7.606   4.638   2.646
 5664SOL     OW17119   6.990   6.165   3.206
 5664SOL    HW117120   6.943   6.160   3.289
 5664SOL    HW217121   7.063   6.103   3.215
 5665SOL     OW17122   6.510   0.934   0.710
 5665SOL    HW117123   6.460   0.903   0.785
 5665SOL    HW217124   6.550   1.016   0.739
 5666SOL     OW17125   7.198   4.994   2.906
 5666SOL    HW117126   7.121   5.026   2.859
 5666SOL    HW217127   7.200   4.900   2.886
 5667SOL     OW17128   5.823   4.988   5.218
 5667SOL    HW117129   5.894   4.927   5.237
 5667SOL    HW217130   5.830   5.055   5.286
 5668SOL     OW17131   3.480   7.325   0.571
 5668SOL    HW117132   3.451   7.242   0.608
 5668SOL    HW217133   3.569   7.309   0.540
 5669SOL     OW17134   9.486   3.553   2.914
 5669SOL    HW117135   9.510   3.641   2.942
 5669SOL    HW217136   9.559   3.526   2.857
 5670SOL     OW17137   3.299   5.169   1.717
 5670SOL    HW117138   3.366   5.127   1.771
 5670SOL    HW217139   3.345   5.240   1.672
 5671SOL     OW17140   6.205   7.050   3.597
 5671SOL    HW117141   6.271   6.995   3.554
 5671SOL    HW217142   6.151   6.988   3.646
 5672SOL     OW17143   8.313   3.145   4.228
 5672SOL    HW117144   8.306   3.233   4.190
 5672SOL    HW217145   8.223   3.117   4.241
 5673SOL     OW17146   5.826   6.208   2.169
 5673SOL    HW117147   5.810   6.302   2.179
 5673SOL    HW217148   5.913   6.203   2.129
 5674SOL     OW17149   4.930   5.279   2.000
 5674SOL    HW117150   4.876   5.334   1.944
 5674SOL    HW217151   5.006   5.256   1.946
 5675SOL     OW17152   4.158   7.051   2.473
 5675SOL    HW117153   4.140   7.046   2.567
 5675SOL    HW217154   4.237   7.105   2.467
 5676SOL     OW17155   4.008   2.302   0.350
 5676SOL    HW117156   3.968   2.364   0.289
 5676SOL    HW217157   3.945   2.230   0.355
 5677SOL     OW17158   6.928   1.078   2.525
 5677SOL    HW117159   7.002   1.122   2.567
 5677SOL    HW217160   6.851   1.124   2.558
 5678SOL     OW17161   9.676   1.145   4.925
 5678SOL    HW117162   9.682   1.126   5.019
 5678SOL    HW217163   9.610   1.214   4.919
 5679SOL     OW17164   8.753   1.125   3.637
 5679SOL    HW117165   8.847   1.142   3.640
 5679SOL    HW217166   8.746   1.037   3.600
 5680SOL     OW17167   6.859   3.502   3.506
 5680SOL    HW117168   6.849   3.408   3.519
 5680SOL    HW217169   6.907   3.510   3.423
 5681SOL     OW17170   3.763   6.731   2.821
 5681SOL    HW117171   3.806   6.658   2.865
 5681SOL    HW217172   3.736   6.789   2.892
 5682SOL     OW17173   7.270   5.152   0.355
 5682SOL    HW117174   7.351   5.164   0.306
 5682SOL    HW217175   7.288   5.078   0.413
 5683SOL     OW17176   7.106   1.381   3.553
 5683SOL    HW117177   7.132   1.442   3.622
 5683SOL    HW217178   7.028   1.337   3.587
 5684SOL     OW17179   6.061   1.577   4.213
 5684SOL    HW117180   6.025   1.493   4.186
 5684SOL    HW217181   5.985   1.629   4.238
 5685SOL     OW17182  10.078   2.932   3.807
 5685SOL    HW117183  10.132   3.008   3.827
 5685SOL    HW217184  10.096   2.915   3.714
 5686SOL     OW17185   7.160   4.402   1.816
 5686SOL    HW117186   7.069   4.386   1.840
 5686SOL    HW217187   7.211   4.376   1.893
 5687SOL     OW17188   5.105   6.005   3.069
 5687SOL    HW117189   5.076   6.009   2.978
 5687SOL    HW217190   5.131   5.914   3.083
 5688SOL     OW17191   7.059   1.288   2.698
 5688SOL    HW117192   7.123   1.256   2.761
 5688SOL    HW217193   6.987   1.322   2.752
 5689SOL     OW17194   3.992   5.040   3.247
 5689SOL    HW117195   3.913   5.020   3.197
 5689SOL    HW217196   3.969   5.116   3.300
 5690SOL     OW17197   2.001   3.291   0.941
 5690SOL    HW117198   2.047   3.213   0.974
 5690SOL    HW217199   2.033   3.363   0.995
 5691SOL     OW17200   2.904   2.552   1.282
 5691SOL    HW117201   2.913   2.568   1.189
 5691SOL    HW217202   2.841   2.618   1.312
 5692SOL     OW17203   2.691   1.811   0.442
 5692SOL    HW117204   2.718   1.719   0.451
 5692SOL    HW217205   2.700   1.848   0.529
 5693SOL     OW17206  10.252   1.596   4.554
 5693SOL    HW117207  10.319   1.539   4.593
 5693SOL    HW217208  10.293   1.682   4.549
 5694SOL     OW17209   2.040   3.895   1.119
 5694SOL    HW117210   2.018   3.968   1.178
 5694SOL    HW217211   2.037   3.933   1.032
 5695SOL     OW17212   7.571   3.315   4.441
 5695SOL    HW117213   7.592   3.393   4.494
 5695SOL    HW217214   7.655   3.271   4.430
 5696SOL     OW17215   3.096   6.017   4.196
 5696SOL    HW117216   3.081   6.027   4.290
 5696SOL    HW217217   3.012   6.040   4.156
 5697SOL     OW17218   7.301   3.479   5.240
 5697SOL    HW117219   7.344   3.419   5.301
 5697SOL    HW217220   7.373   3.519   5.190
 5698SOL     OW17221   5.281   6.474   5.255
 5698SOL    HW117222   5.345   6.537   5.291
 5698SOL    HW217223   5.239   6.522   5.184
 5699SOL     OW17224   7.882   1.288   2.427
 5699SOL    HW117225   7.907   1.330   2.344
 5699SOL    HW217226   7.960   1.296   2.482
 5700SOL     OW17227   9.831   0.986   4.223
 5700SOL    HW117228   9.922   0.962   4.240
 5700SOL    HW217229   9.826   1.079   4.243
 5701SOL     OW17230   6.333   1.138   1.081
 5701SOL    HW117231   6.353   1.230   1.096
 5701SOL    HW217232   6.358   1.095   1.163
 5702SOL     OW17233   7.571   6.861   0.736
 5702SOL    HW117234   7.541   6.862   0.827
 5702SOL    HW217235   7.515   6.925   0.692
 5703SOL     OW17236   8.230   2.610   2.165
 5703SOL    HW117237   8.155   2.666   2.147
 5703SOL    HW217238   8.240   2.612   2.260
 5704SOL     OW17239   7.163   1.783   4.896
 5704SOL    HW117240   7.218   1.862   4.894
 5704SOL    HW217241   7.223   1.712   4.875
 5705SOL     OW17242   3.468   1.714   2.761
 5705SOL    HW117243   3.466   1.784   2.827
 5705SOL    HW217244   3.435   1.637   2.808
 5706SOL     OW17245   5.377   0.738   0.882
 5706SOL    HW117246   5.333   0.656   0.861
 5706SOL    HW217247   5.449   0.713   0.941
 5707SOL     OW17248   7.545   1.534   2.613
 5707SOL    HW117249   7.455   1.522   2.643
 5707SOL    HW217250   7.539   1.538   2.518
 5708SOL     OW17251   4.685   6.179   2.394
 5708SOL    HW117252   4.634   6.209   2.319
 5708SOL    HW217253   4.640   6.217   2.470
 5709SOL     OW17254   3.444   5.557   2.712
 5709SOL    HW117255   3.412   5.637   2.754
 5709SOL    HW217256   3.403   5.486   2.761
 5710SOL     OW17257   4.186   4.851   1.225
 5710SOL    HW117258   4.262   4.848   1.168
 5710SOL    HW217259   4.212   4.910   1.296
 5711SOL     OW17260   2.675   2.942   2.436
 5711SOL    HW117261   2.650   2.883   2.507
 5711SOL    HW217262   2.689   2.884   2.361
 5712SOL     OW17263   6.746   1.343   2.457
 5712SOL    HW117264   6.819   1.373   2.512
 5712SOL    HW217265   6.754   1.395   2.377
 5713SOL     OW17266   2.447   0.735   1.964
 5713SOL    HW117267   2.424   0.776   1.880
 5713SOL    HW217268   2.370   0.683   1.987
 5714SOL     OW17269   7.949   3.079   2.691
 5714SOL    HW117270   7.909   3.164   2.706
 5714SOL    HW217271   8.041   3.092   2.714
 5715SOL     OW17272  10.514   5.369   4.721
 5715SOL    HW117273  10.576   5.341   4.654
 5715SOL    HW217274  10.458   5.293   4.736
 5716SOL     OW17275   9.183   5.588   2.517
 5716SOL    HW117276   9.220   5.640   2.588
 5716SOL    HW217277   9.097   5.561   2.549
 5717SOL     OW17278   4.573   5.214   2.443
 5717SOL    HW117279   4.638   5.251   2.383
 5717SOL    HW217280   4.542   5.135   2.398
 5718SOL     OW17281   4.226   0.049   3.637
 5718SOL    HW117282   4.172   0.004   3.572
 5718SOL    HW217283   4.303   0.079   3.588
 5719SOL     OW17284   5.488   3.024   1.886
 5719SOL    HW117285   5.499   3.098   1.946
 5719SOL    HW217286   5.510   2.947   1.938
 5720SOL     OW17287   9.974   4.988   3.602
 5720SOL    HW117288   9.900   5.025   3.650
 5720SOL    HW217289  10.024   5.064   3.573
 5721SOL     OW17290   2.324   1.728   0.485
 5721SOL    HW117291   2.383   1.800   0.507
 5721SOL    HW217292   2.328   1.722   0.389
 5722SOL     OW17293   9.016   0.667   2.880
 5722SOL    HW117294   8.942   0.610   2.858
 5722SOL    HW217295   9.082   0.607   2.916
 5723SOL     OW17296   4.364   1.892   0.520
 5723SOL    HW117297   4.408   1.858   0.598
 5723SOL    HW217298   4.431   1.945   0.477
 5724SOL     OW17299   4.377   6.656   1.307
 5724SOL    HW117300   4.292   6.694   1.329
 5724SOL    HW217301   4.356   6.574   1.262
 5725SOL     OW17302  10.179   0.399   5.200
 5725SOL    HW117303  10.130   0.383   5.119
 5725SOL    HW217304  10.203   0.312   5.232
 5726SOL     OW17305   5.522   5.733   0.884
 5726SOL    HW117306   5.582   5.695   0.820
 5726SOL    HW217307   5.577   5.793   0.935
 5727SOL     OW17308   5.676   0.246   2.350
 5727SOL    HW117309   5.733   0.232   2.274
 5727SOL    HW217310   5.735   0.277   2.419
 5728SOL     OW17311   0.405   0.768   0.107
 5728SOL    HW117312   0.389   0.774   0.012
 5728SOL    HW217313   0.348   0.697   0.136
 5729SOL     OW17314   5.236   0.527   3.843
 5729SOL    HW117315   5.273   0.444   3.813
 5729SOL    HW217316   5.218   0.512   3.936
 5730SOL     OW17317   7.051   1.481   2.277
 5730SOL    HW117318   7.013   1.564   2.248
 5730SOL    HW217319   7.006   1.415   2.225
 5731SOL     OW17320   3.399   5.788   2.459
 5731SOL    HW117321   3.367   5.823   2.542
 5731SOL    HW217322   3.352   5.705   2.449
 5732SOL     OW17323   7.158   0.918   1.174
 5732SOL    HW117324   7.082   0.928   1.115
 5732SOL    HW217325   7.218   0.862   1.125
 5733SOL     OW17326   8.317   6.506   3.488
 5733SOL    HW117327   8.228   6.517   3.521
 5733SOL    HW217328   8.339   6.415   3.510
 5734SOL     OW17329   3.595   6.190   3.125
 5734SOL    HW117330   3.597   6.282   3.097
 5734SOL    HW217331   3.677   6.153   3.092
 5735SOL     OW17332   3.559   0.559   3.935
 5735SOL    HW117333   3.553   0.496   4.007
 5735SOL    HW217334   3.475   0.553   3.890
 5736SOL     OW17335   6.262   6.378   2.977
 5736SOL    HW117336   6.170   6.359   2.998
 5736SOL    HW217337   6.305   6.293   2.984
 5737SOL     OW17338   7.202   5.441   4.304
 5737SOL    HW117339   7.107   5.435   4.296
 5737SOL    HW217340   7.234   5.355   4.278
 5738SOL     OW17341   5.581   4.662   1.684
 5738SOL    HW117342   5.656   4.651   1.626
 5738SOL    HW217343   5.505   4.644   1.629
 5739SOL     OW17344   7.084   6.806   0.757
 5739SOL    HW117345   7.045   6.719   0.747
 5739SOL    HW217346   7.041   6.843   0.834
 5740SOL     OW17347   6.794   6.318   1.444
 5740SOL    HW117348   6.883   6.288   1.426
 5740SOL    HW217349   6.739   6.241   1.430
 5741SOL     OW17350   3.320   2.038   1.516
 5741SOL    HW117351   3.376   1.964   1.493
 5741SOL    HW217352   3.365   2.114   1.479
 5742SOL     OW17353   2.278   4.136   0.533
 5742SOL    HW117354   2.308   4.048   0.559
 5742SOL    HW217355   2.216   4.120   0.463
 5743SOL     OW17356   7.909   0.472   5.271
 5743SOL    HW117357   7.948   0.513   5.194
 5743SOL    HW217358   7.962   0.503   5.345
 5744SOL     OW17359   6.547   1.869   2.983
 5744SOL    HW117360   6.567   1.815   2.907
 5744SOL    HW217361   6.451   1.873   2.985
 5745SOL     OW17362   4.092   1.280   1.492
 5745SOL    HW117363   4.070   1.195   1.532
 5745SOL    HW217364   4.024   1.293   1.426
 5746SOL     OW17365   7.640   6.285   2.308
 5746SOL    HW117366   7.588   6.300   2.387
 5746SOL    HW217367   7.646   6.371   2.266
 5747SOL     OW17368   5.016   6.752   2.657
 5747SOL    HW117369   5.077   6.694   2.612
 5747SOL    HW217370   5.011   6.718   2.747
 5748SOL     OW17371   7.501   5.667   2.487
 5748SOL    HW117372   7.515   5.762   2.481
 5748SOL    HW217373   7.468   5.654   2.576
 5749SOL     OW17374   3.882   5.313   4.360
 5749SOL    HW117375   3.825   5.382   4.327
 5749SOL    HW217376   3.970   5.353   4.361
 5750SOL     OW17377  10.195   4.850   5.038
 5750SOL    HW117378  10.218   4.943   5.043
 5750SOL    HW217379  10.231   4.812   5.117
 5751SOL     OW17380   2.755   1.951   3.157
 5751SOL    HW117381   2.729   2.005   3.083
 5751SOL    HW217382   2.802   2.010   3.215
 5752SOL     OW17383   7.472   2.899   1.364
 5752SOL    HW117384   7.378   2.886   1.377
 5752SOL    HW217385   7.514   2.835   1.422
 5753SOL     OW17386   7.065   5.042   4.846
 5753SOL    HW117387   7.064   4.953   4.881
 5753SOL    HW217388   6.993   5.044   4.782
 5754SOL     OW17389   4.731   6.774   4.213
 5754SOL    HW117390   4.812   6.725   4.227
 5754SOL    HW217391   4.692   6.733   4.136
 5755SOL     OW17392   3.291   1.671   1.936
 5755SOL    HW117393   3.212   1.617   1.939
 5755SOL    HW217394   3.262   1.758   1.963
 5756SOL     OW17395   4.427   7.430   2.286
 5756SOL    HW117396   4.412   7.396   2.197
 5756SOL    HW217397   4.390   7.518   2.284
 5757SOL     OW17398   7.244   5.300   3.623
 5757SOL    HW117399   7.231   5.220   3.571
 5757SOL    HW217400   7.178   5.294   3.692
 5758SOL     OW17401   1.194   7.389   1.131
 5758SOL    HW117402   1.227   7.316   1.185
 5758SOL    HW217403   1.187   7.353   1.043
 5759SOL     OW17404   9.048   3.214   4.411
 5759SOL    HW117405   8.975   3.225   4.351
 5759SOL    HW217406   9.110   3.283   4.386
 5760SOL     OW17407   8.735   2.596   3.527
 5760SOL    HW117408   8.689   2.513   3.514
 5760SOL    HW217409   8.775   2.615   3.443
 5761SOL     OW17410   4.439   0.886   1.769
 5761SOL    HW117411   4.456   0.793   1.783
 5761SOL    HW217412   4.435   0.922   1.858
 5762SOL     OW17413   6.655   1.901   1.464
 5762SOL    HW117414   6.630   1.810   1.450
 5762SOL    HW217415   6.654   1.939   1.376
 5763SOL     OW17416   4.632   4.102   2.731
 5763SOL    HW117417   4.705   4.126   2.674
 5763SOL    HW217418   4.570   4.173   2.724
 5764SOL     OW17419   4.933   2.550   0.386
 5764SOL    HW117420   4.979   2.621   0.340
 5764SOL    HW217421   4.856   2.532   0.332
 5765SOL     OW17422   5.785   2.751   1.801
 5765SOL    HW117423   5.862   2.694   1.801
 5765SOL    HW217424   5.711   2.693   1.782
 5766SOL     OW17425   9.887   3.015   4.122
 5766SOL    HW117426   9.829   2.939   4.126
 5766SOL    HW217427   9.971   2.979   4.093
 5767SOL     OW17428   5.957   6.002   2.740
 5767SOL    HW117429   5.967   5.942   2.667
 5767SOL    HW217430   5.883   6.057   2.715
 5768SOL     OW17431   7.328   5.880   0.612
 5768SOL    HW117432   7.383   5.804   0.632
 5768SOL    HW217433   7.328   5.932   0.692
 5769SOL     OW17434   7.213   7.086   4.997
 5769SOL    HW117435   7.136   7.133   4.965
 5769SOL    HW217436   7.250   7.143   5.064
 5770SOL     OW17437   4.845   5.154   0.315
 5770SOL    HW117438   4.843   5.090   0.386
 5770SOL    HW217439   4.804   5.232   0.352
 5771SOL     OW17440   9.752   0.868   4.518
 5771SOL    HW117441   9.734   0.777   4.542
 5771SOL    HW217442   9.790   0.863   4.430
 5772SOL     OW17443   3.039   7.015   3.514
 5772SOL    HW117444   2.999   7.043   3.596
 5772SOL    HW217445   3.075   7.095   3.476
 5773SOL     OW17446   4.208   6.613   2.025
 5773SOL    HW117447   4.262   6.534   2.025
 5773SOL    HW217448   4.259   6.676   2.077
 5774SOL     OW17449   5.656   7.042   1.232
 5774SOL    HW117450   5.687   6.952   1.218
 5774SOL    HW217451   5.622   7.042   1.322
 5775SOL     OW17452   5.589   6.469   1.623
 5775SOL    HW117453   5.536   6.465   1.544
 5775SOL    HW217454   5.589   6.561   1.648
 5776SOL     OW17455   5.075   4.448   3.448
 5776SOL    HW117456   5.168   4.441   3.424
 5776SOL    HW217457   5.069   4.532   3.494
 5777SOL     OW17458   4.813   6.113   4.831
 5777SOL    HW117459   4.728   6.132   4.870
 5777SOL    HW217460   4.805   6.144   4.741
 5778SOL     OW17461   6.953   3.383   1.931
 5778SOL    HW117462   7.030   3.408   1.982
 5778SOL    HW217463   6.879   3.398   1.990
 5779SOL     OW17464   7.439   1.564   3.005
 5779SOL    HW117465   7.477   1.559   3.092
 5779SOL    HW217466   7.494   1.508   2.951
 5780SOL     OW17467   4.811   7.155   2.431
 5780SOL    HW117468   4.718   7.169   2.414
 5780SOL    HW217469   4.814   7.067   2.470
 5781SOL     OW17470   3.220   3.527   1.786
 5781SOL    HW117471   3.279   3.523   1.710
 5781SOL    HW217472   3.141   3.480   1.758
 5782SOL     OW17473   2.219   7.436   0.904
 5782SOL    HW117474   2.157   7.424   0.832
 5782SOL    HW217475   2.178   7.501   0.961
 5783SOL     OW17476   3.890   5.497   0.436
 5783SOL    HW117477   3.967   5.544   0.466
 5783SOL    HW217478   3.880   5.424   0.497
 5784SOL     OW17479   3.810   6.493   2.485
 5784SOL    HW117480   3.863   6.421   2.519
 5784SOL    HW217481   3.872   6.565   2.476
 5785SOL     OW17482   5.304   1.752   1.396
 5785SOL    HW117483   5.287   1.687   1.327
 5785SOL    HW217484   5.243   1.823   1.377
 5786SOL     OW17485   7.891   2.092   1.759
 5786SOL    HW117486   7.840   2.043   1.824
 5786SOL    HW217487   7.826   2.140   1.708
 5787SOL     OW17488   4.701   4.989   1.362
 5787SOL    HW117489   4.727   5.001   1.453
 5787SOL    HW217490   4.621   4.936   1.367
 5788SOL     OW17491   6.222   2.654   2.962
 5788SOL    HW117492   6.150   2.711   2.933
 5788SOL    HW217493   6.252   2.693   3.044
 5789SOL     OW17494   2.757   6.745   2.231
 5789SOL    HW117495   2.726   6.824   2.275
 5789SOL    HW217496   2.844   6.768   2.198
 5790SOL     OW17497   8.259   3.482   2.836
 5790SOL    HW117498   8.211   3.532   2.902
 5790SOL    HW217499   8.351   3.505   2.851
 5791SOL     OW17500   5.197   1.654   4.027
 5791SOL    HW117501   5.141   1.588   4.069
 5791SOL    HW217502   5.285   1.630   4.054
 5792SOL     OW17503   7.604   6.519   5.087
 5792SOL    HW117504   7.590   6.428   5.061
 5792SOL    HW217505   7.550   6.530   5.166
 5793SOL     OW17506   6.742   2.531   4.209
 5793SOL    HW117507   6.679   2.467   4.243
 5793SOL    HW217508   6.767   2.496   4.123
 5794SOL     OW17509   3.570   3.807   0.675
 5794SOL    HW117510   3.620   3.883   0.705
 5794SOL    HW217511   3.597   3.736   0.734
 5795SOL     OW17512   8.044   3.662   2.466
 5795SOL    HW117513   8.048   3.618   2.381
 5795SOL    HW217514   8.117   3.626   2.515
 5796SOL     OW17515  10.305   6.716   4.268
 5796SOL    HW117516  10.289   6.641   4.210
 5796SOL    HW217517  10.382   6.691   4.319
 5797SOL     OW17518   4.030   1.399   2.185
 5797SOL    HW117519   4.039   1.315   2.140
 5797SOL    HW217520   4.013   1.463   2.116
 5798SOL     OW17521   7.363   1.979   4.386
 5798SOL    HW117522   7.271   1.971   4.362
 5798SOL    HW217523   7.367   1.946   4.476
 5799SOL     OW17524   7.974   2.929   3.348
 5799SOL    HW117525   8.011   2.841   3.340
 5799SOL    HW217526   7.881   2.918   3.332
 5800SOL     OW17527   6.787   7.141   2.705
 5800SOL    HW117528   6.776   7.101   2.619
 5800SOL    HW217529   6.718   7.207   2.711
 5801SOL     OW17530   1.768   2.848   1.291
 5801SOL    HW117531   1.798   2.887   1.374
 5801SOL    HW217532   1.796   2.757   1.296
 5802SOL     OW17533   4.086   0.949   2.398
 5802SOL    HW117534   3.993   0.929   2.398
 5802SOL    HW217535   4.090   1.044   2.406
 5803SOL     OW17536   7.660   1.805   3.820
 5803SOL    HW117537   7.565   1.821   3.813
 5803SOL    HW217538   7.699   1.869   3.762
 5804SOL     OW17539   7.150   2.896   1.221
 5804SOL    HW117540   7.168   2.909   1.314
 5804SOL    HW217541   7.112   2.808   1.216
 5805SOL     OW17542  10.221   4.766   4.065
 5805SOL    HW117543  10.245   4.683   4.023
 5805SOL    HW217544  10.156   4.741   4.131
 5806SOL     OW17545   7.989   1.739   4.137
 5806SOL    HW117546   7.907   1.697   4.111
 5806SOL    HW217547   8.030   1.764   4.054
 5807SOL     OW17548   8.518   3.565   2.715
 5807SOL    HW117549   8.471   3.638   2.674
 5807SOL    HW217550   8.543   3.598   2.801
 5808SOL     OW17551   3.968   0.003   3.901
 5808SOL    HW117552   3.919  -0.039   3.971
 5808SOL    HW217553   3.918   0.082   3.881
 5809SOL     OW17554   4.658   5.208   0.613
 5809SOL    HW117555   4.727   5.270   0.637
 5809SOL    HW217556   4.577   5.250   0.644
 5810SOL     OW17557   2.529   4.297   1.099
 5810SOL    HW117558   2.521   4.387   1.130
 5810SOL    HW217559   2.545   4.305   1.005
 5811SOL     OW17560   7.591   3.550   3.524
 5811SOL    HW117561   7.577   3.464   3.564
 5811SOL    HW217562   7.579   3.534   3.430
 5812SOL     OW17563   7.415   0.493   5.260
 5812SOL    HW117564   7.498   0.531   5.232
 5812SOL    HW217565   7.430   0.399   5.258
 5813SOL     OW17566   3.563   1.374   1.063
 5813SOL    HW117567   3.503   1.368   1.138
 5813SOL    HW217568   3.506   1.389   0.988
 5814SOL     OW17569   5.525   1.144   2.875
 5814SOL    HW117570   5.611   1.177   2.900
 5814SOL    HW217571   5.501   1.195   2.797
 5815SOL     OW17572   8.004   1.734   4.964
 5815SOL    HW117573   8.094   1.701   4.957
 5815SOL    HW217574   7.973   1.701   5.048
 5816SOL     OW17575   3.301   2.512   4.641
 5816SOL    HW117576   3.310   2.527   4.736
 5816SOL    HW217577   3.364   2.573   4.602
 5817SOL     OW17578   3.860   0.217   3.486
 5817SOL    HW117579   3.909   0.142   3.450
 5817SOL    HW217580   3.768   0.191   3.475
 5818SOL     OW17581   2.930   2.094   1.660
 5818SOL    HW117582   3.021   2.114   1.637
 5818SOL    HW217583   2.920   2.127   1.749
 5819SOL     OW17584   4.386   1.519   2.431
 5819SOL    HW117585   4.434   1.588   2.477
 5819SOL    HW217586   4.305   1.509   2.480
 5820SOL     OW17587   7.297   3.871   4.259
 5820SOL    HW117588   7.233   3.942   4.253
 5820SOL    HW217589   7.322   3.869   4.352
 5821SOL     OW17590   7.717   5.262   2.146
 5821SOL    HW117591   7.793   5.210   2.171
 5821SOL    HW217592   7.691   5.308   2.225
 5822SOL     OW17593   9.765   0.588   4.056
 5822SOL    HW117594   9.771   0.589   4.151
 5822SOL    HW217595   9.706   0.660   4.034
 5823SOL     OW17596   2.116   2.249   0.576
 5823SOL    HW117597   2.188   2.312   0.578
 5823SOL    HW217598   2.054   2.286   0.514
 5824SOL     OW17599   6.261   2.777   2.402
 5824SOL    HW117600   6.198   2.805   2.468
 5824SOL    HW217601   6.222   2.699   2.364
 5825SOL     OW17602   3.669   3.465   3.929
 5825SOL    HW117603   3.624   3.413   3.863
 5825SOL    HW217604   3.603   3.482   3.996
 5826SOL     OW17605   9.150   4.932   4.914
 5826SOL    HW117606   9.126   4.842   4.893
 5826SOL    HW217607   9.236   4.926   4.955
 5827SOL     OW17608   5.254   3.514   3.953
 5827SOL    HW117609   5.262   3.430   3.907
 5827SOL    HW217610   5.182   3.559   3.909
 5828SOL     OW17611   5.139   1.015   3.522
 5828SOL    HW117612   5.182   1.012   3.608
 5828SOL    HW217613   5.176   1.093   3.480
 5829SOL     OW17614   8.562   3.329   4.859
 5829SOL    HW117615   8.528   3.389   4.925
 5829SOL    HW217616   8.553   3.376   4.776
 5830SOL     OW17617   3.299   5.814   2.728
 5830SOL    HW117618   3.223   5.771   2.688
 5830SOL    HW217619   3.265   5.855   2.807
 5831SOL     OW17620  10.611   2.177   4.923
 5831SOL    HW117621  10.550   2.143   4.857
 5831SOL    HW217622  10.581   2.138   5.005
 5832SOL     OW17623   8.469   5.352   2.327
 5832SOL    HW117624   8.497   5.424   2.383
 5832SOL    HW217625   8.374   5.348   2.338
 5833SOL     OW17626   6.484   2.944   2.110
 5833SOL    HW117627   6.541   2.903   2.175
 5833SOL    HW217628   6.446   3.019   2.156
 5834SOL     OW17629   8.420   6.606   1.619
 5834SOL    HW117630   8.504   6.572   1.650
 5834SOL    HW217631   8.440   6.650   1.537
 5835SOL     OW17632   9.159   1.963   5.127
 5835SOL    HW117633   9.238   2.012   5.104
 5835SOL    HW217634   9.088   2.008   5.081
 5836SOL     OW17635   9.171   2.868   4.338
 5836SOL    HW117636   9.098   2.860   4.398
 5836SOL    HW217637   9.164   2.957   4.302
 5837SOL     OW17638   6.438   4.381   0.873
 5837SOL    HW117639   6.466   4.294   0.846
 5837SOL    HW217640   6.489   4.400   0.952
 5838SOL     OW17641   8.367   7.449   4.351
 5838SOL    HW117642   8.369   7.540   4.380
 5838SOL    HW217643   8.437   7.407   4.400
 5839SOL     OW17644   6.440   6.826   0.409
 5839SOL    HW117645   6.447   6.818   0.314
 5839SOL    HW217646   6.426   6.919   0.424
 5840SOL     OW17647   2.836   2.399   2.437
 5840SOL    HW117648   2.930   2.380   2.442
 5840SOL    HW217649   2.820   2.414   2.344
 5841SOL     OW17650   4.118   5.082   3.984
 5841SOL    HW117651   4.125   5.029   4.063
 5841SOL    HW217652   4.028   5.114   3.984
 5842SOL     OW17653  10.078   1.902   3.820
 5842SOL    HW117654  10.020   1.850   3.875
 5842SOL    HW217655  10.020   1.951   3.762
 5843SOL     OW17656   6.336   7.190   2.899
 5843SOL    HW117657   6.345   7.095   2.893
 5843SOL    HW217658   6.328   7.207   2.993
 5844SOL     OW17659   1.726   2.144   1.652
 5844SOL    HW117660   1.655   2.202   1.625
 5844SOL    HW217661   1.722   2.144   1.748
 5845SOL     OW17662   4.605   2.373   1.098
 5845SOL    HW117663   4.630   2.328   1.018
 5845SOL    HW217664   4.595   2.303   1.163
 5846SOL     OW17665   4.789   2.982   2.620
 5846SOL    HW117666   4.809   2.997   2.528
 5846SOL    HW217667   4.780   2.887   2.629
 5847SOL     OW17668   4.261   5.492   5.126
 5847SOL    HW117669   4.210   5.436   5.067
 5847SOL    HW217670   4.351   5.482   5.096
 5848SOL     OW17671   3.490   6.912   4.850
 5848SOL    HW117672   3.448   6.829   4.871
 5848SOL    HW217673   3.511   6.950   4.936
 5849SOL     OW17674   7.844   0.025   1.443
 5849SOL    HW117675   7.886   0.049   1.526
 5849SOL    HW217676   7.866   0.096   1.383
 5850SOL     OW17677   3.936   6.873   3.455
 5850SOL    HW117678   3.949   6.828   3.372
 5850SOL    HW217679   3.916   6.963   3.430
 5851SOL     OW17680   2.465   5.194   0.268
 5851SOL    HW117681   2.494   5.275   0.310
 5851SOL    HW217682   2.386   5.170   0.316
 5852SOL     OW17683   8.792   3.844   2.724
 5852SOL    HW117684   8.717   3.859   2.666
 5852SOL    HW217685   8.842   3.925   2.721
 5853SOL     OW17686   1.711   2.876   2.158
 5853SOL    HW117687   1.646   2.944   2.140
 5853SOL    HW217688   1.795   2.920   2.146
 5854SOL     OW17689   4.780   2.249   1.637
 5854SOL    HW117690   4.836   2.219   1.709
 5854SOL    HW217691   4.711   2.300   1.679
 5855SOL     OW17692   9.741   5.952   4.129
 5855SOL    HW117693   9.825   5.999   4.137
 5855SOL    HW217694   9.765   5.866   4.094
 5856SOL     OW17695   9.266   0.257   3.251
 5856SOL    HW117696   9.217   0.193   3.303
 5856SOL    HW217697   9.265   0.222   3.162
 5857SOL     OW17698   6.770   5.261   2.031
 5857SOL    HW117699   6.781   5.294   1.942
 5857SOL    HW217700   6.796   5.169   2.026
 5858SOL     OW17701   2.564   0.606   2.891
 5858SOL    HW117702   2.525   0.684   2.933
 5858SOL    HW217703   2.565   0.540   2.960
 5859SOL     OW17704  10.491   0.113   4.625
 5859SOL    HW117705  10.561   0.167   4.662
 5859SOL    HW217706  10.496   0.030   4.674
 5860SOL     OW17707   2.675   2.444   0.841
 5860SOL    HW117708   2.606   2.431   0.776
 5860SOL    HW217709   2.723   2.521   0.810
 5861SOL     OW17710   8.190   1.619   3.784
 5861SOL    HW117711   8.233   1.565   3.851
 5861SOL    HW217712   8.098   1.620   3.809
 5862SOL     OW17713   3.141   4.429   0.176
 5862SOL    HW117714   3.089   4.506   0.196
 5862SOL    HW217715   3.179   4.446   0.089
 5863SOL     OW17716   5.244   3.785   4.300
 5863SOL    HW117717   5.296   3.705   4.300
 5863SOL    HW217718   5.241   3.811   4.208
 5864SOL     OW17719   5.507   2.129   2.804
 5864SOL    HW117720   5.463   2.146   2.888
 5864SOL    HW217721   5.453   2.176   2.740
 5865SOL     OW17722   9.316   1.438   3.079
 5865SOL    HW117723   9.325   1.493   3.001
 5865SOL    HW217724   9.330   1.499   3.152
 5866SOL     OW17725   7.860   3.312   3.579
 5866SOL    HW117726   7.777   3.328   3.623
 5866SOL    HW217727   7.890   3.398   3.551
 5867SOL     OW17728   5.977   6.729   0.138
 5867SOL    HW117729   6.034   6.653   0.133
 5867SOL    HW217730   5.893   6.694   0.168
 5868SOL     OW17731   3.964   5.422   2.684
 5868SOL    HW117732   3.920   5.466   2.757
 5868SOL    HW217733   4.008   5.493   2.637
 5869SOL     OW17734   7.948   4.291   3.500
 5869SOL    HW117735   7.883   4.283   3.430
 5869SOL    HW217736   7.948   4.205   3.542
 5870SOL     OW17737   5.618   4.480   0.833
 5870SOL    HW117738   5.616   4.562   0.883
 5870SOL    HW217739   5.562   4.496   0.757
 5871SOL     OW17740   9.202   6.928   3.000
 5871SOL    HW117741   9.243   6.933   2.914
 5871SOL    HW217742   9.273   6.899   3.058
 5872SOL     OW17743   3.867   3.605   1.527
 5872SOL    HW117744   3.773   3.618   1.538
 5872SOL    HW217745   3.897   3.681   1.478
 5873SOL     OW17746   5.314   4.787   4.121
 5873SOL    HW117747   5.225   4.765   4.148
 5873SOL    HW217748   5.366   4.781   4.201
 5874SOL     OW17749   9.582   1.315   4.311
 5874SOL    HW117750   9.630   1.347   4.235
 5874SOL    HW217751   9.546   1.231   4.284
 5875SOL     OW17752   5.209   3.903   4.036
 5875SOL    HW117753   5.154   3.913   3.957
 5875SOL    HW217754   5.246   3.990   4.050
 5876SOL     OW17755   7.791   7.333   1.765
 5876SOL    HW117756   7.725   7.303   1.828
 5876SOL    HW217757   7.856   7.263   1.763
 5877SOL     OW17758   5.891   4.924   4.850
 5877SOL    HW117759   5.865   4.928   4.758
 5877SOL    HW217760   5.954   4.852   4.854
 5878SOL     OW17761   9.709   3.336   4.017
 5878SOL    HW117762   9.694   3.424   3.981
 5878SOL    HW217763   9.776   3.349   4.084
 5879SOL     OW17764   4.201   0.480   0.630
 5879SOL    HW117765   4.199   0.454   0.722
 5879SOL    HW217766   4.260   0.417   0.588
 5880SOL     OW17767   8.431   2.536   2.767
 5880SOL    HW117768   8.376   2.615   2.767
 5880SOL    HW217769   8.520   2.569   2.754
 5881SOL     OW17770   6.290   6.517   1.875
 5881SOL    HW117771   6.195   6.527   1.873
 5881SOL    HW217772   6.323   6.602   1.902
 5882SOL     OW17773   3.309   4.194   2.491
 5882SOL    HW117774   3.233   4.209   2.434
 5882SOL    HW217775   3.287   4.114   2.539
 5883SOL     OW17776   7.652   2.343   4.422
 5883SOL    HW117777   7.708   2.356   4.499
 5883SOL    HW217778   7.567   2.378   4.448
 5884SOL     OW17779   4.115   2.527   1.079
 5884SOL    HW117780   4.199   2.487   1.101
 5884SOL    HW217781   4.050   2.466   1.112
 5885SOL     OW17782   8.003   5.138   2.460
 5885SOL    HW117783   7.915   5.101   2.456
 5885SOL    HW217784   8.061   5.061   2.463
 5886SOL     OW17785   0.646   0.018   0.258
 5886SOL    HW117786   0.611   0.015   0.169
 5886SOL    HW217787   0.734  -0.018   0.250
 5887SOL     OW17788   3.867   5.561   1.957
 5887SOL    HW117789   3.819   5.482   1.933
 5887SOL    HW217790   3.954   5.530   1.981
 5888SOL     OW17791   9.313   3.740   3.409
 5888SOL    HW117792   9.407   3.760   3.411
 5888SOL    HW217793   9.271   3.824   3.390
 5889SOL     OW17794   9.063   3.649   3.493
 5889SOL    HW117795   9.143   3.646   3.440
 5889SOL    HW217796   9.063   3.567   3.542
 5890SOL     OW17797   2.142   5.617   1.358
 5890SOL    HW117798   2.156   5.601   1.265
 5890SOL    HW217799   2.080   5.550   1.385
 5891SOL     OW17800   5.327   3.302   1.874
 5891SOL    HW117801   5.336   3.220   1.825
 5891SOL    HW217802   5.412   3.315   1.916
 5892SOL     OW17803   3.072   0.670   2.790
 5892SOL    HW117804   2.992   0.672   2.842
 5892SOL    HW217805   3.042   0.682   2.700
 5893SOL     OW17806   3.236   6.562   3.345
 5893SOL    HW117807   3.279   6.607   3.273
 5893SOL    HW217808   3.291   6.579   3.421
 5894SOL     OW17809   3.582   6.845   0.103
 5894SOL    HW117810   3.529   6.916   0.139
 5894SOL    HW217811   3.523   6.800   0.043
 5895SOL     OW17812   3.396   6.462   0.071
 5895SOL    HW117813   3.395   6.390   0.008
 5895SOL    HW217814   3.473   6.514   0.047
 5896SOL     OW17815   8.463   3.936   3.124
 5896SOL    HW117816   8.420   3.881   3.189
 5896SOL    HW217817   8.488   3.875   3.054
 5897SOL     OW17818   8.316   4.406   1.378
 5897SOL    HW117819   8.406   4.424   1.353
 5897SOL    HW217820   8.323   4.344   1.451
 5898SOL     OW17821   6.689   3.384   4.917
 5898SOL    HW117822   6.708   3.314   4.855
 5898SOL    HW217823   6.611   3.427   4.883
 5899SOL     OW17824   7.518   5.006   2.140
 5899SOL    HW117825   7.547   5.097   2.136
 5899SOL    HW217826   7.446   5.006   2.203
 5900SOL     OW17827   7.057   6.218   5.209
 5900SOL    HW117828   7.119   6.276   5.164
 5900SOL    HW217829   7.088   6.215   5.299
 5901SOL     OW17830   7.173   5.031   3.646
 5901SOL    HW117831   7.146   5.015   3.737
 5901SOL    HW217832   7.102   4.996   3.593
 5902SOL     OW17833   4.614   2.862   2.246
 5902SOL    HW117834   4.661   2.917   2.183
 5902SOL    HW217835   4.569   2.924   2.303
 5903SOL     OW17836   7.523   1.004   0.541
 5903SOL    HW117837   7.523   1.092   0.578
 5903SOL    HW217838   7.599   1.002   0.484
 5904SOL     OW17839   2.780   3.291   1.892
 5904SOL    HW117840   2.854   3.347   1.917
 5904SOL    HW217841   2.822   3.211   1.860
 5905SOL     OW17842   7.727   1.931   1.955
 5905SOL    HW117843   7.635   1.933   1.982
 5905SOL    HW217844   7.776   1.947   2.035
 5906SOL     OW17845   9.085   6.842   4.481
 5906SOL    HW117846   9.129   6.927   4.487
 5906SOL    HW217847   8.995   6.863   4.457
 5907SOL     OW17848   5.833   3.610   4.361
 5907SOL    HW117849   5.761   3.608   4.298
 5907SOL    HW217850   5.907   3.571   4.314
 5908SOL     OW17851   2.392   1.245   1.323
 5908SOL    HW117852   2.386   1.341   1.327
 5908SOL    HW217853   2.484   1.227   1.305
 5909SOL     OW17854   1.325   3.228   1.012
 5909SOL    HW117855   1.246   3.241   0.960
 5909SOL    HW217856   1.317   3.139   1.047
 5910SOL     OW17857   5.488   5.102   1.037
 5910SOL    HW117858   5.489   5.074   0.945
 5910SOL    HW217859   5.537   5.184   1.037
 5911SOL     OW17860   7.201   2.898   0.620
 5911SOL    HW117861   7.220   2.966   0.555
 5911SOL    HW217862   7.116   2.924   0.656
 5912SOL     OW17863   7.187   3.264   4.714
 5912SOL    HW117864   7.272   3.233   4.682
 5912SOL    HW217865   7.163   3.200   4.782
 5913SOL     OW17866   4.033   4.955   1.633
 5913SOL    HW117867   4.079   4.933   1.552
 5913SOL    HW217868   4.031   4.874   1.683
 5914SOL     OW17869   3.106   7.016   1.932
 5914SOL    HW117870   3.181   6.966   1.964
 5914SOL    HW217871   3.060   6.954   1.875
 5915SOL     OW17872   7.781   6.765   2.691
 5915SOL    HW117873   7.740   6.704   2.753
 5915SOL    HW217874   7.832   6.709   2.633
 5916SOL     OW17875   4.324   0.782   1.437
 5916SOL    HW117876   4.261   0.714   1.460
 5916SOL    HW217877   4.344   0.766   1.345
 5917SOL     OW17878   8.714   0.232   3.869
 5917SOL    HW117879   8.702   0.137   3.875
 5917SOL    HW217880   8.745   0.258   3.956
 5918SOL     OW17881   6.100   3.448   3.570
 5918SOL    HW117882   6.115   3.357   3.596
 5918SOL    HW217883   6.097   3.496   3.653
 5919SOL     OW17884   7.403   7.045   0.699
 5919SOL    HW117885   7.393   7.140   0.692
 5919SOL    HW217886   7.361   7.022   0.782
 5920SOL     OW17887   3.057   4.359   0.658
 5920SOL    HW117888   3.046   4.447   0.623
 5920SOL    HW217889   3.039   4.300   0.584
 5921SOL     OW17890   4.516   5.477   5.110
 5921SOL    HW117891   4.532   5.549   5.172
 5921SOL    HW217892   4.602   5.436   5.099
 5922SOL     OW17893   5.511   6.675   1.969
 5922SOL    HW117894   5.448   6.746   1.964
 5922SOL    HW217895   5.487   6.627   2.048
 5923SOL     OW17896   6.055   1.895   4.828
 5923SOL    HW117897   6.061   1.990   4.816
 5923SOL    HW217898   6.083   1.858   4.745
 5924SOL     OW17899   8.576   7.269   2.328
 5924SOL    HW117900   8.644   7.253   2.264
 5924SOL    HW217901   8.583   7.363   2.347
 5925SOL     OW17902   6.569   6.978   1.847
 5925SOL    HW117903   6.645   6.962   1.790
 5925SOL    HW217904   6.566   6.901   1.903
 5926SOL     OW17905   8.370   5.627   2.519
 5926SOL    HW117906   8.345   5.632   2.426
 5926SOL    HW217907   8.313   5.560   2.555
 5927SOL     OW17908   8.145   3.050   1.326
 5927SOL    HW117909   8.152   3.067   1.420
 5927SOL    HW217910   8.066   2.996   1.317
 5928SOL     OW17911   7.332   3.029   2.049
 5928SOL    HW117912   7.407   3.018   1.990
 5928SOL    HW217913   7.363   2.998   2.134
 5929SOL     OW17914   3.097   1.484   0.026
 5929SOL    HW117915   3.086   1.394   0.057
 5929SOL    HW217916   3.168   1.479  -0.037
 5930SOL     OW17917   8.776   5.463   2.121
 5930SOL    HW117918   8.802   5.371   2.113
 5930SOL    HW217919   8.758   5.475   2.214
 5931SOL     OW17920   3.860   5.114   2.200
 5931SOL    HW117921   3.861   5.042   2.264
 5931SOL    HW217922   3.802   5.180   2.239
 5932SOL     OW17923   3.948   5.003   1.133
 5932SOL    HW117924   3.996   4.933   1.177
 5932SOL    HW217925   4.010   5.038   1.070
 5933SOL     OW17926   3.578   2.794   2.464
 5933SOL    HW117927   3.660   2.770   2.509
 5933SOL    HW217928   3.600   2.873   2.416
 5934SOL     OW17929   9.662   5.985   3.857
 5934SOL    HW117930   9.695   6.070   3.888
 5934SOL    HW217931   9.740   5.929   3.854
 5935SOL     OW17932   5.043   5.961   4.490
 5935SOL    HW117933   5.026   5.880   4.538
 5935SOL    HW217934   5.047   6.029   4.558
 5936SOL     OW17935   5.265   4.555   4.548
 5936SOL    HW117936   5.318   4.615   4.601
 5936SOL    HW217937   5.310   4.553   4.463
 5937SOL     OW17938   9.798   5.685   4.734
 5937SOL    HW117939   9.731   5.623   4.704
 5937SOL    HW217940   9.755   5.770   4.731
 5938SOL     OW17941   6.703   1.503   3.758
 5938SOL    HW117942   6.786   1.505   3.709
 5938SOL    HW217943   6.720   1.444   3.831
 5939SOL     OW17944   7.706   1.525   3.235
 5939SOL    HW117945   7.726   1.488   3.149
 5939SOL    HW217946   7.752   1.609   3.237
 5940SOL     OW17947   8.219   3.889   4.391
 5940SOL    HW117948   8.262   3.804   4.398
 5940SOL    HW217949   8.158   3.879   4.318
 5941SOL     OW17950   2.711   2.715   1.459
 5941SOL    HW117951   2.746   2.752   1.540
 5941SOL    HW217952   2.677   2.630   1.485
 5942SOL     OW17953  10.669   0.256   4.804
 5942SOL    HW117954  10.735   0.190   4.824
 5942SOL    HW217955  10.714   0.340   4.816
 5943SOL     OW17956   6.600   6.388   3.816
 5943SOL    HW117957   6.544   6.397   3.893
 5943SOL    HW217958   6.570   6.307   3.774
 5944SOL     OW17959   5.843   0.817   1.144
 5944SOL    HW117960   5.886   0.855   1.221
 5944SOL    HW217961   5.817   0.893   1.092
 5945SOL     OW17962   4.229   5.083   2.906
 5945SOL    HW117963   4.190   5.025   2.841
 5945SOL    HW217964   4.302   5.124   2.860
 5946SOL     OW17965   5.929   4.704   3.019
 5946SOL    HW117966   5.849   4.734   3.062
 5946SOL    HW217967   5.982   4.783   3.008
 5947SOL     OW17968   6.676   0.909   0.026
 5947SOL    HW117969   6.718   0.885  -0.056
 5947SOL    HW217970   6.705   0.999   0.042
 5948SOL     OW17971  10.070   4.598   4.694
 5948SOL    HW117972  10.049   4.629   4.782
 5948SOL    HW217973  10.111   4.672   4.650
 5949SOL     OW17974   6.759   6.274   3.388
 5949SOL    HW117975   6.751   6.191   3.435
 5949SOL    HW217976   6.710   6.260   3.307
 5950SOL     OW17977   2.663   1.750   2.497
 5950SOL    HW117978   2.714   1.670   2.504
 5950SOL    HW217979   2.573   1.721   2.480
 5951SOL     OW17980   5.260   1.905   0.947
 5951SOL    HW117981   5.194   1.837   0.962
 5951SOL    HW217982   5.210   1.986   0.942
 5952SOL     OW17983   3.328   4.460   4.674
 5952SOL    HW117984   3.319   4.416   4.758
 5952SOL    HW217985   3.341   4.389   4.611
 5953SOL     OW17986   7.065   6.066   0.024
 5953SOL    HW117987   7.118   6.005  -0.027
 5953SOL    HW217988   7.072   6.036   0.114
 5954SOL     OW17989   1.832   5.970   0.759
 5954SOL    HW117990   1.787   5.900   0.711
 5954SOL    HW217991   1.919   5.934   0.777
 5955SOL     OW17992   7.435   0.539   2.096
 5955SOL    HW117993   7.454   0.577   2.182
 5955SOL    HW217994   7.494   0.464   2.090
 5956SOL     OW17995   8.572   0.580   1.902
 5956SOL    HW117996   8.535   0.544   1.822
 5956SOL    HW217997   8.608   0.505   1.948
 5957SOL     OW17998   4.010   7.443   1.329
 5957SOL    HW117999   3.968   7.503   1.268
 5957SOL    HW218000   3.994   7.356   1.292
 5958SOL     OW18001   2.228   7.113   1.842
 5958SOL    HW118002   2.237   7.208   1.836
 5958SOL    HW218003   2.210   7.097   1.935
 5959SOL     OW18004   2.368   6.368   2.559
 5959SOL    HW118005   2.422   6.311   2.614
 5959SOL    HW218006   2.389   6.457   2.590
 5960SOL     OW18007   5.459   0.288   1.472
 5960SOL    HW118008   5.363   0.295   1.465
 5960SOL    HW218009   5.473   0.197   1.499
 5961SOL     OW18010   2.609   6.973   3.142
 5961SOL    HW118011   2.537   7.033   3.122
 5961SOL    HW218012   2.585   6.935   3.226
 5962SOL     OW18013   0.639   6.305   0.037
 5962SOL    HW118014   0.568   6.311  -0.027
 5962SOL    HW218015   0.598   6.328   0.120
 5963SOL     OW18016   9.135   6.311   3.544
 5963SOL    HW118017   9.095   6.228   3.517
 5963SOL    HW218018   9.158   6.354   3.462
 5964SOL     OW18019   3.499   3.622   3.248
 5964SOL    HW118020   3.460   3.642   3.334
 5964SOL    HW218021   3.573   3.566   3.269
 5965SOL     OW18022   4.848   0.258   2.295
 5965SOL    HW118023   4.892   0.192   2.240
 5965SOL    HW218024   4.819   0.209   2.372
 5966SOL     OW18025   2.245   3.988   0.163
 5966SOL    HW118026   2.230   4.001   0.257
 5966SOL    HW218027   2.272   4.074   0.131
 5967SOL     OW18028   0.990   4.329   0.228
 5967SOL    HW118029   1.012   4.251   0.279
 5967SOL    HW218030   0.934   4.297   0.157
 5968SOL     OW18031   5.874   4.527   1.167
 5968SOL    HW118032   5.892   4.617   1.142
 5968SOL    HW218033   5.900   4.475   1.090
 5969SOL     OW18034   5.810   0.694   1.809
 5969SOL    HW118035   5.890   0.641   1.805
 5969SOL    HW218036   5.742   0.632   1.835
 5970SOL     OW18037   7.990   3.916   1.545
 5970SOL    HW118038   8.005   3.937   1.453
 5970SOL    HW218039   7.912   3.861   1.545
 5971SOL     OW18040   3.088   3.230   0.649
 5971SOL    HW118041   3.032   3.159   0.678
 5971SOL    HW218042   3.120   3.270   0.730
 5972SOL     OW18043   4.466   0.085   2.765
 5972SOL    HW118044   4.471   0.049   2.854
 5972SOL    HW218045   4.451   0.179   2.778
 5973SOL     OW18046   5.912   3.263   0.926
 5973SOL    HW118047   5.932   3.357   0.928
 5973SOL    HW218048   5.927   3.237   0.835
 5974SOL     OW18049   3.119   6.373   1.795
 5974SOL    HW118050   3.188   6.373   1.729
 5974SOL    HW218051   3.103   6.281   1.815
 5975SOL     OW18052   1.253   2.111   0.763
 5975SOL    HW118053   1.272   2.116   0.857
 5975SOL    HW218054   1.238   2.202   0.737
 5976SOL     OW18055   7.093   2.105   3.878
 5976SOL    HW118056   7.137   2.172   3.930
 5976SOL    HW218057   7.130   2.022   3.910
 5977SOL     OW18058   4.484   4.264   2.372
 5977SOL    HW118059   4.574   4.242   2.348
 5977SOL    HW218060   4.481   4.255   2.467
 5978SOL     OW18061   4.481   3.890   4.750
 5978SOL    HW118062   4.443   3.870   4.664
 5978SOL    HW218063   4.441   3.975   4.773
 5979SOL     OW18064   8.252   0.372   5.005
 5979SOL    HW118065   8.339   0.403   4.978
 5979SOL    HW218066   8.197   0.450   5.000
 5980SOL     OW18067   4.833   4.243   1.512
 5980SOL    HW118068   4.865   4.162   1.472
 5980SOL    HW218069   4.871   4.312   1.457
 5981SOL     OW18070   1.559   4.088   0.975
 5981SOL    HW118071   1.565   4.082   1.071
 5981SOL    HW218072   1.612   4.163   0.952
 5982SOL     OW18073   4.268   6.918   3.113
 5982SOL    HW118074   4.280   7.010   3.089
 5982SOL    HW218075   4.254   6.919   3.207
 5983SOL     OW18076   1.349   3.104   1.354
 5983SOL    HW118077   1.303   3.186   1.337
 5983SOL    HW218078   1.321   3.046   1.282
 5984SOL     OW18079   1.285   6.241   1.295
 5984SOL    HW118080   1.366   6.216   1.250
 5984SOL    HW218081   1.223   6.172   1.273
 5985SOL     OW18082   7.648   6.416   2.770
 5985SOL    HW118083   7.585   6.468   2.820
 5985SOL    HW218084   7.597   6.381   2.697
 5986SOL     OW18085   6.324   6.782   1.913
 5986SOL    HW118086   6.314   6.853   1.976
 5986SOL    HW218087   6.299   6.820   1.829
 5987SOL     OW18088   8.686   3.120   3.461
 5987SOL    HW118089   8.677   3.051   3.396
 5987SOL    HW218090   8.718   3.075   3.539
 5988SOL     OW18091   8.842   0.019   2.553
 5988SOL    HW118092   8.882   0.082   2.614
 5988SOL    HW218093   8.839   0.066   2.470
 5989SOL     OW18094   5.447   6.698   4.375
 5989SOL    HW118095   5.540   6.701   4.400
 5989SOL    HW218096   5.423   6.606   4.384
 5990SOL     OW18097   3.717   3.796   3.920
 5990SOL    HW118098   3.646   3.824   3.979
 5990SOL    HW218099   3.691   3.708   3.893
 5991SOL     OW18100   8.604   4.658   2.103
 5991SOL    HW118101   8.581   4.694   2.018
 5991SOL    HW218102   8.635   4.733   2.153
 5992SOL     OW18103   8.991   5.662   4.240
 5992SOL    HW118104   8.992   5.566   4.235
 5992SOL    HW218105   8.928   5.682   4.308
 5993SOL     OW18106   5.704   1.243   3.604
 5993SOL    HW118107   5.629   1.256   3.547
 5993SOL    HW218108   5.778   1.284   3.558
 5994SOL     OW18109   6.612   4.300   2.733
 5994SOL    HW118110   6.519   4.286   2.753
 5994SOL    HW218111   6.632   4.239   2.663
 5995SOL     OW18112   4.385   0.411   4.113
 5995SOL    HW118113   4.438   0.471   4.165
 5995SOL    HW218114   4.312   0.464   4.082
 5996SOL     OW18115   7.515   5.836   4.467
 5996SOL    HW118116   7.522   5.752   4.512
 5996SOL    HW218117   7.484   5.896   4.535
 5997SOL     OW18118   9.339   5.912   3.212
 5997SOL    HW118119   9.392   5.845   3.167
 5997SOL    HW218120   9.249   5.888   3.190
 5998SOL     OW18121   3.877   3.896   1.519
 5998SOL    HW118122   3.794   3.869   1.479
 5998SOL    HW218123   3.858   3.980   1.561
 5999SOL     OW18124   7.650   0.043   1.988
 5999SOL    HW118125   7.629  -0.048   2.005
 5999SOL    HW218126   7.710   0.040   1.913
 6000SOL     OW18127   1.468   3.508   2.013
 6000SOL    HW118128   1.496   3.460   1.935
 6000SOL    HW218129   1.391   3.558   1.984
 6001SOL     OW18130  10.567   3.944   4.773
 6001SOL    HW118131  10.604   4.029   4.797
 6001SOL    HW218132  10.637   3.881   4.790
 6002SOL     OW18133   5.794   6.266   4.819
 6002SOL    HW118134   5.869   6.206   4.819
 6002SOL    HW218135   5.750   6.249   4.736
 6003SOL     OW18136   4.723   2.052   3.946
 6003SOL    HW118137   4.796   2.025   3.891
 6003SOL    HW218138   4.696   2.136   3.910
 6004SOL     OW18139   4.223   2.959   4.268
 6004SOL    HW118140   4.185   2.964   4.181
 6004SOL    HW218141   4.149   2.937   4.325
 6005SOL     OW18142   5.502   2.303   0.946
 6005SOL    HW118143   5.553   2.279   0.869
 6005SOL    HW218144   5.540   2.252   1.017
 6006SOL     OW18145   6.090   1.608   4.873
 6006SOL    HW118146   6.014   1.573   4.919
 6006SOL    HW218147   6.053   1.659   4.801
 6007SOL     OW18148   0.839   3.504   0.465
 6007SOL    HW118149   0.773   3.547   0.411
 6007SOL    HW218150   0.788   3.451   0.526
 6008SOL     OW18151   8.472   4.340   1.828
 6008SOL    HW118152   8.482   4.246   1.816
 6008SOL    HW218153   8.523   4.359   1.907
 6009SOL     OW18154   6.524   2.175   3.535
 6009SOL    HW118155   6.609   2.217   3.520
 6009SOL    HW218156   6.543   2.082   3.534
 6010SOL     OW18157   4.911   1.890   0.056
 6010SOL    HW118158   4.842   1.933   0.106
 6010SOL    HW218159   4.880   1.891  -0.034
 6011SOL     OW18160   3.418   6.905   2.657
 6011SOL    HW118161   3.350   6.965   2.627
 6011SOL    HW218162   3.500   6.954   2.645
 6012SOL     OW18163   7.555   0.396   0.457
 6012SOL    HW118164   7.544   0.468   0.394
 6012SOL    HW218165   7.646   0.367   0.444
 6013SOL     OW18166   7.974   5.445   4.783
 6013SOL    HW118167   7.919   5.522   4.765
 6013SOL    HW218168   8.059   5.482   4.807
 6014SOL     OW18169   3.403   5.694   0.627
 6014SOL    HW118170   3.338   5.759   0.599
 6014SOL    HW218171   3.465   5.690   0.554
 6015SOL     OW18172   7.912   4.076   4.047
 6015SOL    HW118173   7.927   4.167   4.020
 6015SOL    HW218174   7.872   4.083   4.134
 6016SOL     OW18175   2.887   0.344   1.215
 6016SOL    HW118176   2.903   0.261   1.261
 6016SOL    HW218177   2.939   0.408   1.264
 6017SOL     OW18178   4.819   1.334   2.443
 6017SOL    HW118179   4.877   1.310   2.371
 6017SOL    HW218180   4.856   1.289   2.519
 6018SOL     OW18181   4.552   2.075   0.478
 6018SOL    HW118182   4.502   2.127   0.542
 6018SOL    HW218183   4.589   2.003   0.530
 6019SOL     OW18184   7.963   4.035   3.677
 6019SOL    HW118185   7.900   3.969   3.647
 6019SOL    HW218186   8.020   3.987   3.737
 6020SOL     OW18187   7.148   4.732   4.304
 6020SOL    HW118188   7.081   4.667   4.325
 6020SOL    HW218189   7.163   4.722   4.210
 6021SOL     OW18190   3.186   2.320   2.052
 6021SOL    HW118191   3.131   2.376   1.998
 6021SOL    HW218192   3.181   2.234   2.010
 6022SOL     OW18193  10.757   0.526   4.807
 6022SOL    HW118194  10.690   0.592   4.788
 6022SOL    HW218195  10.823   0.539   4.740
 6023SOL     OW18196   4.336   6.371   2.051
 6023SOL    HW118197   4.332   6.339   1.961
 6023SOL    HW218198   4.366   6.296   2.103
 6024SOL     OW18199   1.236   7.162   1.260
 6024SOL    HW118200   1.261   7.073   1.235
 6024SOL    HW218201   1.238   7.162   1.356
 6025SOL     OW18202   5.334   2.287   4.797
 6025SOL    HW118203   5.383   2.363   4.829
 6025SOL    HW218204   5.400   2.228   4.762
 6026SOL     OW18205   6.740   4.997   1.948
 6026SOL    HW118206   6.829   4.964   1.931
 6026SOL    HW218207   6.685   4.951   1.884
 6027SOL     OW18208   7.073   2.672   1.761
 6027SOL    HW118209   7.072   2.713   1.848
 6027SOL    HW218210   7.101   2.582   1.777
 6028SOL     OW18211   7.870   3.873   4.402
 6028SOL    HW118212   7.821   3.933   4.457
 6028SOL    HW218213   7.892   3.924   4.324
 6029SOL     OW18214   2.721   7.353   3.406
 6029SOL    HW118215   2.666   7.316   3.475
 6029SOL    HW218216   2.781   7.412   3.452
 6030SOL     OW18217   5.127   0.184   1.478
 6030SOL    HW118218   5.056   0.158   1.419
 6030SOL    HW218219   5.132   0.279   1.469
 6031SOL     OW18220   5.397   1.532   4.496
 6031SOL    HW118221   5.304   1.555   4.493
 6031SOL    HW218222   5.442   1.610   4.464
 6032SOL     OW18223   8.753   4.882   2.160
 6032SOL    HW118224   8.813   4.857   2.230
 6032SOL    HW218225   8.800   4.861   2.079
 6033SOL     OW18226   3.219   5.431   1.834
 6033SOL    HW118227   3.211   5.431   1.738
 6033SOL    HW218228   3.297   5.484   1.851
 6034SOL     OW18229   5.117   2.921   2.519
 6034SOL    HW118230   5.159   3.007   2.516
 6034SOL    HW218231   5.084   2.907   2.430
 6035SOL     OW18232   4.254   0.486   4.534
 6035SOL    HW118233   4.218   0.551   4.473
 6035SOL    HW218234   4.338   0.524   4.562
 6036SOL     OW18235   7.637   3.139   0.951
 6036SOL    HW118236   7.603   3.058   0.988
 6036SOL    HW218237   7.559   3.185   0.919
 6037SOL     OW18238   8.627   5.231   1.854
 6037SOL    HW118239   8.722   5.228   1.866
 6037SOL    HW218240   8.592   5.240   1.943
 6038SOL     OW18241   4.549   3.827   4.129
 6038SOL    HW118242   4.621   3.888   4.145
 6038SOL    HW218243   4.497   3.869   4.061
 6039SOL     OW18244   5.379   5.674   2.441
 6039SOL    HW118245   5.439   5.680   2.516
 6039SOL    HW218246   5.411   5.738   2.378
 6040SOL     OW18247   8.654   2.100   2.725
 6040SOL    HW118248   8.583   2.045   2.690
 6040SOL    HW218249   8.637   2.103   2.819
 6041SOL     OW18250   4.664   0.829   3.552
 6041SOL    HW118251   4.742   0.881   3.533
 6041SOL    HW218252   4.685   0.741   3.520
 6042SOL     OW18253   7.359   0.155   0.559
 6042SOL    HW118254   7.287   0.148   0.622
 6042SOL    HW218255   7.437   0.165   0.613
 6043SOL     OW18256   4.792   0.674   2.496
 6043SOL    HW118257   4.797   0.662   2.591
 6043SOL    HW218258   4.864   0.622   2.461
 6044SOL     OW18259   3.902   5.424   3.173
 6044SOL    HW118260   3.815   5.458   3.152
 6044SOL    HW218261   3.922   5.362   3.103
 6045SOL     OW18262   3.898   2.532   5.041
 6045SOL    HW118263   3.993   2.529   5.050
 6045SOL    HW218264   3.868   2.580   5.118
 6046SOL     OW18265   2.588   3.793   1.175
 6046SOL    HW118266   2.559   3.855   1.108
 6046SOL    HW218267   2.507   3.750   1.205
 6047SOL     OW18268   4.433   6.037   3.460
 6047SOL    HW118269   4.431   6.102   3.389
 6047SOL    HW218270   4.346   5.997   3.457
 6048SOL     OW18271   2.552   6.264   1.779
 6048SOL    HW118272   2.614   6.330   1.749
 6048SOL    HW218273   2.474   6.278   1.725
 6049SOL     OW18274   6.892   6.917   1.901
 6049SOL    HW118275   6.868   6.881   1.815
 6049SOL    HW218276   6.840   6.867   1.963
 6050SOL     OW18277   2.951   1.117   1.188
 6050SOL    HW118278   2.950   1.069   1.270
 6050SOL    HW218279   2.892   1.068   1.131
 6051SOL     OW18280   3.250   5.249   3.596
 6051SOL    HW118281   3.155   5.241   3.600
 6051SOL    HW218282   3.269   5.262   3.503
 6052SOL     OW18283   4.382   1.652   0.659
 6052SOL    HW118284   4.447   1.638   0.591
 6052SOL    HW218285   4.317   1.583   0.645
 6053SOL     OW18286   8.254   6.096   4.611
 6053SOL    HW118287   8.170   6.092   4.566
 6053SOL    HW218288   8.288   6.007   4.607
 6054SOL     OW18289   5.549   3.690   4.595
 6054SOL    HW118290   5.543   3.664   4.687
 6054SOL    HW218291   5.622   3.753   4.593
 6055SOL     OW18292   8.901   4.346   2.849
 6055SOL    HW118293   8.827   4.343   2.789
 6055SOL    HW218294   8.863   4.366   2.935
 6056SOL     OW18295   7.631   1.047   3.270
 6056SOL    HW118296   7.598   0.958   3.259
 6056SOL    HW218297   7.652   1.054   3.363
 6057SOL     OW18298   5.388   6.697   4.955
 6057SOL    HW118299   5.316   6.707   4.893
 6057SOL    HW218300   5.409   6.604   4.953
 6058SOL     OW18301   5.182   5.082   4.609
 6058SOL    HW118302   5.190   5.143   4.535
 6058SOL    HW218303   5.124   5.128   4.670
 6059SOL     OW18304   6.462   5.571   4.384
 6059SOL    HW118305   6.400   5.590   4.455
 6059SOL    HW218306   6.414   5.590   4.304
 6060SOL     OW18307   2.574   2.127   0.431
 6060SOL    HW118308   2.594   2.180   0.508
 6060SOL    HW218309   2.598   2.182   0.356
 6061SOL     OW18310   2.245   4.561   0.442
 6061SOL    HW118311   2.182   4.522   0.381
 6061SOL    HW218312   2.212   4.650   0.455
 6062SOL     OW18313   5.489   0.613   4.505
 6062SOL    HW118314   5.451   0.690   4.462
 6062SOL    HW218315   5.571   0.598   4.458
 6063SOL     OW18316   4.447   1.445   4.144
 6063SOL    HW118317   4.509   1.416   4.211
 6063SOL    HW218318   4.500   1.452   4.064
 6064SOL     OW18319   4.425   0.729   1.127
 6064SOL    HW118320   4.383   0.667   1.067
 6064SOL    HW218321   4.504   0.757   1.081
 6065SOL     OW18322   5.361   1.831   2.568
 6065SOL    HW118323   5.319   1.845   2.484
 6065SOL    HW218324   5.296   1.860   2.632
 6066SOL     OW18325   7.905   6.686   1.367
 6066SOL    HW118326   7.905   6.780   1.384
 6066SOL    HW218327   7.854   6.677   1.286
 6067SOL     OW18328   2.278   0.657   3.055
 6067SOL    HW118329   2.265   0.566   3.084
 6067SOL    HW218330   2.278   0.708   3.136
 6068SOL     OW18331   7.737   3.780   3.594
 6068SOL    HW118332   7.672   3.815   3.657
 6068SOL    HW218333   7.722   3.686   3.595
 6069SOL     OW18334   4.992   4.740   3.966
 6069SOL    HW118335   4.905   4.771   3.939
 6069SOL    HW218336   5.052   4.784   3.906
 6070SOL     OW18337   4.496   6.751   4.342
 6070SOL    HW118338   4.519   6.817   4.407
 6070SOL    HW218339   4.575   6.742   4.288
 6071SOL     OW18340   8.225   0.120   1.907
 6071SOL    HW118341   8.293   0.183   1.883
 6071SOL    HW218342   8.250   0.089   1.994
 6072SOL     OW18343   6.488   6.387   1.201
 6072SOL    HW118344   6.580   6.361   1.208
 6072SOL    HW218345   6.448   6.319   1.146
 6073SOL     OW18346   7.644   2.779   0.579
 6073SOL    HW118347   7.614   2.835   0.650
 6073SOL    HW218348   7.586   2.704   0.581
 6074SOL     OW18349   6.501   4.538   2.393
 6074SOL    HW118350   6.425   4.480   2.393
 6074SOL    HW218351   6.467   4.623   2.418
 6075SOL     OW18352   4.813   3.941   3.412
 6075SOL    HW118353   4.880   3.910   3.351
 6075SOL    HW218354   4.859   4.003   3.468
 6076SOL     OW18355   3.891   3.424   5.217
 6076SOL    HW118356   3.896   3.372   5.297
 6076SOL    HW218357   3.961   3.488   5.226
 6077SOL     OW18358   6.597   6.071   4.369
 6077SOL    HW118359   6.638   6.119   4.441
 6077SOL    HW218360   6.506   6.060   4.396
 6078SOL     OW18361   7.604   3.422   2.336
 6078SOL    HW118362   7.671   3.359   2.360
 6078SOL    HW218363   7.604   3.421   2.240
 6079SOL     OW18364   3.325   0.564   3.811
 6079SOL    HW118365   3.336   0.654   3.782
 6079SOL    HW218366   3.328   0.512   3.730
 6080SOL     OW18367   3.134   4.252   3.601
 6080SOL    HW118368   3.143   4.166   3.560
 6080SOL    HW218369   3.200   4.253   3.670
 6081SOL     OW18370   5.148   5.343   3.807
 6081SOL    HW118371   5.118   5.431   3.785
 6081SOL    HW218372   5.221   5.357   3.867
 6082SOL     OW18373   4.409   1.089   2.915
 6082SOL    HW118374   4.326   1.061   2.953
 6082SOL    HW218375   4.474   1.072   2.983
 6083SOL     OW18376   9.283   1.678   5.310
 6083SOL    HW118377   9.331   1.605   5.270
 6083SOL    HW218378   9.313   1.756   5.264
 6084SOL     OW18379   4.492   1.247   1.853
 6084SOL    HW118380   4.402   1.245   1.820
 6084SOL    HW218381   4.491   1.315   1.921
 6085SOL     OW18382   5.820   1.497   4.516
 6085SOL    HW118383   5.871   1.420   4.491
 6085SOL    HW218384   5.763   1.467   4.586
 6086SOL     OW18385   5.436   2.423   5.280
 6086SOL    HW118386   5.484   2.341   5.274
 6086SOL    HW218387   5.344   2.397   5.279
 6087SOL     OW18388   4.737   0.775   4.153
 6087SOL    HW118389   4.796   0.827   4.207
 6087SOL    HW218390   4.795   0.730   4.091
 6088SOL     OW18391   0.646   1.147   0.616
 6088SOL    HW118392   0.706   1.204   0.568
 6088SOL    HW218393   0.574   1.131   0.555
 6089SOL     OW18394   5.524   5.524   5.043
 6089SOL    HW118395   5.484   5.610   5.029
 6089SOL    HW218396   5.481   5.490   5.121
 6090SOL     OW18397   6.773   1.814   3.120
 6090SOL    HW118398   6.738   1.772   3.041
 6090SOL    HW218399   6.822   1.744   3.163
 6091SOL     OW18400   9.535   6.492   4.941
 6091SOL    HW118401   9.530   6.515   4.848
 6091SOL    HW218402   9.473   6.552   4.984
 6092SOL     OW18403   0.979   7.278   1.417
 6092SOL    HW118404   1.063   7.236   1.398
 6092SOL    HW218405   0.927   7.263   1.338
 6093SOL     OW18406   7.858   7.332   5.228
 6093SOL    HW118407   7.766   7.323   5.206
 6093SOL    HW218408   7.877   7.258   5.286
 6094SOL     OW18409   2.305   3.649   2.270
 6094SOL    HW118410   2.246   3.644   2.344
 6094SOL    HW218411   2.383   3.695   2.303
 6095SOL     OW18412   0.640   5.420   0.820
 6095SOL    HW118413   0.700   5.494   0.808
 6095SOL    HW218414   0.570   5.435   0.756
 6096SOL     OW18415   6.065   1.979   2.799
 6096SOL    HW118416   6.085   2.071   2.784
 6096SOL    HW218417   5.969   1.976   2.803
 6097SOL     OW18418   4.869   2.379   3.788
 6097SOL    HW118419   4.951   2.363   3.836
 6097SOL    HW218420   4.857   2.473   3.793
 6098SOL     OW18421   4.054   3.672   0.746
 6098SOL    HW118422   4.070   3.622   0.826
 6098SOL    HW218423   3.972   3.718   0.763
 6099SOL     OW18424   9.272   6.570   3.227
 6099SOL    HW118425   9.319   6.495   3.189
 6099SOL    HW218426   9.180   6.548   3.218
 6100SOL     OW18427   5.562   1.028   0.996
 6100SOL    HW118428   5.654   1.043   0.975
 6100SOL    HW218429   5.564   0.980   1.079
 6101SOL     OW18430   3.620   5.779   1.789
 6101SOL    HW118431   3.680   5.811   1.857
 6101SOL    HW218432   3.551   5.845   1.785
 6102SOL     OW18433   4.805   0.598   2.920
 6102SOL    HW118434   4.738   0.663   2.941
 6102SOL    HW218435   4.764   0.514   2.941
 6103SOL     OW18436   2.848   5.815   0.763
 6103SOL    HW118437   2.814   5.756   0.831
 6103SOL    HW218438   2.801   5.789   0.684
 6104SOL     OW18439   5.680   6.197   3.332
 6104SOL    HW118440   5.647   6.158   3.251
 6104SOL    HW218441   5.747   6.136   3.363
 6105SOL     OW18442   8.219   6.475   5.223
 6105SOL    HW118443   8.147   6.535   5.244
 6105SOL    HW218444   8.283   6.488   5.292
 6106SOL     OW18445   7.506   4.215   1.937
 6106SOL    HW118446   7.594   4.241   1.910
 6106SOL    HW218447   7.449   4.242   1.865
 6107SOL     OW18448   2.988   5.750   2.875
 6107SOL    HW118449   2.998   5.660   2.844
 6107SOL    HW218450   2.971   5.801   2.796
 6108SOL     OW18451   7.825   0.834   5.010
 6108SOL    HW118452   7.909   0.834   5.057
 6108SOL    HW218453   7.814   0.925   4.981
 6109SOL     OW18454   7.572   4.323   4.180
 6109SOL    HW118455   7.625   4.402   4.184
 6109SOL    HW218456   7.559   4.299   4.272
 6110SOL     OW18457   7.802   2.310   0.979
 6110SOL    HW118458   7.742   2.238   0.958
 6110SOL    HW218459   7.745   2.378   1.016
 6111SOL     OW18460   8.811   3.867   4.500
 6111SOL    HW118461   8.880   3.894   4.440
 6111SOL    HW218462   8.856   3.813   4.566
 6112SOL     OW18463   5.490   1.053   3.997
 6112SOL    HW118464   5.395   1.053   3.998
 6112SOL    HW218465   5.514   1.073   3.907
 6113SOL     OW18466   7.970   2.788   3.629
 6113SOL    HW118467   8.000   2.877   3.612
 6113SOL    HW218468   7.979   2.778   3.724
 6114SOL     OW18469   3.914   6.032   0.082
 6114SOL    HW118470   3.866   5.949   0.090
 6114SOL    HW218471   3.850   6.093   0.044
 6115SOL     OW18472   3.665   1.985   2.057
 6115SOL    HW118473   3.683   2.034   2.137
 6115SOL    HW218474   3.589   2.030   2.018
 6116SOL     OW18475   2.472   7.403   3.270
 6116SOL    HW118476   2.497   7.433   3.183
 6116SOL    HW218477   2.554   7.400   3.319
 6117SOL     OW18478   2.507   7.293   2.911
 6117SOL    HW118479   2.550   7.319   2.830
 6117SOL    HW218480   2.477   7.376   2.950
 6118SOL     OW18481   9.019   3.861   4.299
 6118SOL    HW118482   9.003   3.941   4.248
 6118SOL    HW218483   8.979   3.791   4.248
 6119SOL     OW18484   5.510   5.569   2.016
 6119SOL    HW118485   5.455   5.644   1.993
 6119SOL    HW218486   5.511   5.570   2.112
 6120SOL     OW18487   5.242   1.058   1.915
 6120SOL    HW118488   5.162   1.043   1.965
 6120SOL    HW218489   5.218   1.124   1.851
 6121SOL     OW18490   4.513   5.928   0.452
 6121SOL    HW118491   4.594   5.963   0.490
 6121SOL    HW218492   4.511   5.962   0.363
 6122SOL     OW18493   7.998   0.071   2.225
 6122SOL    HW118494   7.962   0.076   2.314
 6122SOL    HW218495   8.089   0.046   2.238
 6123SOL     OW18496   4.659   1.364   1.632
 6123SOL    HW118497   4.615   1.329   1.710
 6123SOL    HW218498   4.617   1.448   1.617
 6124SOL     OW18499   3.614   5.960   1.291
 6124SOL    HW118500   3.709   5.963   1.283
 6124SOL    HW218501   3.596   5.990   1.380
 6125SOL     OW18502   7.914   5.202   1.401
 6125SOL    HW118503   7.922   5.108   1.417
 6125SOL    HW218504   7.974   5.243   1.463
 6126SOL     OW18505   2.925   2.888   2.860
 6126SOL    HW118506   2.914   2.905   2.953
 6126SOL    HW218507   2.860   2.944   2.818
 6127SOL     OW18508   7.474   4.134   0.302
 6127SOL    HW118509   7.379   4.131   0.290
 6127SOL    HW218510   7.500   4.219   0.267
 6128SOL     OW18511   3.689   0.232   0.916
 6128SOL    HW118512   3.632   0.177   0.862
 6128SOL    HW218513   3.767   0.246   0.862
 6129SOL     OW18514   2.616   0.671   2.199
 6129SOL    HW118515   2.628   0.754   2.152
 6129SOL    HW218516   2.527   0.644   2.178
 6130SOL     OW18517   7.491   1.400   3.348
 6130SOL    HW118518   7.546   1.333   3.307
 6130SOL    HW218519   7.527   1.483   3.318
 6131SOL     OW18520   3.922   0.287   2.251
 6131SOL    HW118521   4.001   0.235   2.264
 6131SOL    HW218522   3.850   0.228   2.274
 6132SOL     OW18523   5.503   5.383   1.475
 6132SOL    HW118524   5.443   5.315   1.444
 6132SOL    HW218525   5.533   5.350   1.560
 6133SOL     OW18526   8.968   4.789   2.314
 6133SOL    HW118527   8.966   4.693   2.312
 6133SOL    HW218528   9.060   4.811   2.300
 6134SOL     OW18529   7.521   0.985   5.109
 6134SOL    HW118530   7.574   0.961   5.184
 6134SOL    HW218531   7.520   1.081   5.110
 6135SOL     OW18532   5.007   2.953   4.500
 6135SOL    HW118533   5.001   2.943   4.595
 6135SOL    HW218534   4.991   2.865   4.465
 6136SOL     OW18535   9.338   3.249   3.280
 6136SOL    HW118536   9.250   3.288   3.283
 6136SOL    HW218537   9.382   3.283   3.358
 6137SOL     OW18538   3.140   2.539   0.765
 6137SOL    HW118539   3.112   2.589   0.841
 6137SOL    HW218540   3.169   2.605   0.702
 6138SOL     OW18541   1.380   6.518   0.396
 6138SOL    HW118542   1.416   6.448   0.342
 6138SOL    HW218543   1.452   6.542   0.455
 6139SOL     OW18544   7.346   6.187   0.515
 6139SOL    HW118545   7.440   6.204   0.504
 6139SOL    HW218546   7.343   6.103   0.560
 6140SOL     OW18547   3.014   4.861   3.963
 6140SOL    HW118548   2.936   4.830   3.918
 6140SOL    HW218549   3.029   4.797   4.032
 6141SOL     OW18550   6.898   7.211   1.104
 6141SOL    HW118551   6.894   7.306   1.090
 6141SOL    HW218552   6.907   7.201   1.199
 6142SOL     OW18553   4.375   2.291   3.631
 6142SOL    HW118554   4.321   2.351   3.682
 6142SOL    HW218555   4.405   2.342   3.556
 6143SOL     OW18556   6.269   5.691   3.126
 6143SOL    HW118557   6.219   5.633   3.069
 6143SOL    HW218558   6.300   5.761   3.069
 6144SOL     OW18559   6.504   6.112   0.071
 6144SOL    HW118560   6.415   6.091   0.102
 6144SOL    HW218561   6.495   6.114  -0.024
 6145SOL     OW18562   5.684   5.824   4.014
 6145SOL    HW118563   5.679   5.919   4.027
 6145SOL    HW218564   5.768   5.799   4.053
 6146SOL     OW18565   9.004   5.926   3.109
 6146SOL    HW118566   9.058   5.934   3.030
 6146SOL    HW218567   9.007   6.012   3.149
 6147SOL     OW18568   4.931   3.832   0.602
 6147SOL    HW118569   4.950   3.860   0.691
 6147SOL    HW218570   5.012   3.793   0.571
 6148SOL     OW18571   3.731   0.012   2.870
 6148SOL    HW118572   3.639   0.014   2.845
 6148SOL    HW218573   3.778  -0.006   2.789
 6149SOL     OW18574   4.693   2.470   0.268
 6149SOL    HW118575   4.675   2.402   0.203
 6149SOL    HW218576   4.607   2.492   0.303
 6150SOL     OW18577   4.396   2.639   3.411
 6150SOL    HW118578   4.450   2.715   3.435
 6150SOL    HW218579   4.459   2.575   3.376
 6151SOL     OW18580   3.522   5.317   3.816
 6151SOL    HW118581   3.616   5.324   3.799
 6151SOL    HW218582   3.502   5.391   3.873
 6152SOL     OW18583   4.269   5.140   1.653
 6152SOL    HW118584   4.267   5.229   1.619
 6152SOL    HW218585   4.181   5.125   1.688
 6153SOL     OW18586   6.009   0.583   3.457
 6153SOL    HW118587   6.048   0.653   3.403
 6153SOL    HW218588   6.083   0.529   3.482
 6154SOL     OW18589   8.138   2.062   4.699
 6154SOL    HW118590   8.185   1.988   4.663
 6154SOL    HW218591   8.198   2.100   4.763
 6155SOL     OW18592   4.367   3.609   4.014
 6155SOL    HW118593   4.398   3.697   3.996
 6155SOL    HW218594   4.414   3.582   4.093
 6156SOL     OW18595   5.713   1.540   0.529
 6156SOL    HW118596   5.806   1.524   0.544
 6156SOL    HW218597   5.692   1.613   0.588
 6157SOL     OW18598   7.078   6.672   3.623
 6157SOL    HW118599   7.018   6.699   3.693
 6157SOL    HW218600   7.036   6.595   3.584
 6158SOL     OW18601   8.040   3.076   4.047
 6158SOL    HW118602   7.981   3.090   4.121
 6158SOL    HW218603   8.024   3.151   3.990
 6159SOL     OW18604   5.975   3.463   5.103
 6159SOL    HW118605   6.050   3.439   5.050
 6159SOL    HW218606   5.903   3.473   5.040
 6160SOL     OW18607   9.266   0.493   5.288
 6160SOL    HW118608   9.280   0.438   5.211
 6160SOL    HW218609   9.171   0.498   5.297
 6161SOL     OW18610   8.872   5.192   2.091
 6161SOL    HW118611   8.863   5.098   2.107
 6161SOL    HW218612   8.939   5.198   2.023
 6162SOL     OW18613   7.410   3.212   0.857
 6162SOL    HW118614   7.363   3.211   0.940
 6162SOL    HW218615   7.364   3.278   0.804
 6163SOL     OW18616   1.197   3.644   0.590
 6163SOL    HW118617   1.243   3.599   0.660
 6163SOL    HW218618   1.146   3.575   0.547
 6164SOL     OW18619   8.193   0.646   3.539
 6164SOL    HW118620   8.282   0.679   3.546
 6164SOL    HW218621   8.189   0.573   3.601
 6165SOL     OW18622   8.399   3.723   3.270
 6165SOL    HW118623   8.400   3.682   3.356
 6165SOL    HW218624   8.408   3.650   3.208
 6166SOL     OW18625   7.455   4.293   1.665
 6166SOL    HW118626   7.520   4.242   1.617
 6166SOL    HW218627   7.409   4.343   1.597
 6167SOL     OW18628   3.209   0.941   0.734
 6167SOL    HW118629   3.230   1.011   0.671
 6167SOL    HW218630   3.263   0.867   0.707
 6168SOL     OW18631   8.062   2.778   3.947
 6168SOL    HW118632   8.007   2.726   4.005
 6168SOL    HW218633   8.126   2.820   4.005
 6169SOL     OW18634   2.422   7.205   0.389
 6169SOL    HW118635   2.442   7.139   0.323
 6169SOL    HW218636   2.502   7.215   0.439
 6170SOL     OW18637   7.648   6.099   3.854
 6170SOL    HW118638   7.556   6.073   3.857
 6170SOL    HW218639   7.648   6.182   3.806
 6171SOL     OW18640   3.657   3.539   2.186
 6171SOL    HW118641   3.727   3.601   2.207
 6171SOL    HW218642   3.665   3.526   2.091
 6172SOL     OW18643   1.220   2.723   1.027
 6172SOL    HW118644   1.250   2.727   0.937
 6172SOL    HW218645   1.144   2.782   1.030
 6173SOL     OW18646   4.647   3.244   1.070
 6173SOL    HW118647   4.661   3.237   0.976
 6173SOL    HW218648   4.726   3.205   1.109
 6174SOL     OW18649   3.655   2.669   0.880
 6174SOL    HW118650   3.662   2.738   0.813
 6174SOL    HW218651   3.688   2.711   0.960
 6175SOL     OW18652   8.810   1.644   3.287
 6175SOL    HW118653   8.736   1.699   3.260
 6175SOL    HW218654   8.842   1.686   3.367
 6176SOL     OW18655   1.273   3.532   0.246
 6176SOL    HW118656   1.215   3.493   0.312
 6176SOL    HW218657   1.360   3.498   0.267
 6177SOL     OW18658   7.324   4.202   4.145
 6177SOL    HW118659   7.356   4.176   4.232
 6177SOL    HW218660   7.397   4.252   4.107
 6178SOL     OW18661   1.372   3.570   1.656
 6178SOL    HW118662   1.329   3.508   1.598
 6178SOL    HW218663   1.463   3.541   1.659
 6179SOL     OW18664   5.838   5.077   4.634
 6179SOL    HW118665   5.867   5.163   4.604
 6179SOL    HW218666   5.743   5.083   4.634
 6180SOL     OW18667   1.538   5.220   0.364
 6180SOL    HW118668   1.623   5.223   0.319
 6180SOL    HW218669   1.476   5.255   0.300
 6181SOL     OW18670   6.999   4.677   4.799
 6181SOL    HW118671   6.922   4.721   4.835
 6181SOL    HW218672   6.983   4.584   4.815
 6182SOL     OW18673   9.973   3.997   4.271
 6182SOL    HW118674  10.033   4.027   4.339
 6182SOL    HW218675   9.973   4.068   4.207
 6183SOL     OW18676   7.345   0.766   2.579
 6183SOL    HW118677   7.307   0.836   2.525
 6183SOL    HW218678   7.341   0.800   2.668
 6184SOL     OW18679   8.155   6.420   2.356
 6184SOL    HW118680   8.214   6.350   2.384
 6184SOL    HW218681   8.167   6.424   2.261
 6185SOL     OW18682   7.560   3.627   4.632
 6185SOL    HW118683   7.619   3.634   4.707
 6185SOL    HW218684   7.476   3.600   4.671
 6186SOL     OW18685   6.314   1.089   3.857
 6186SOL    HW118686   6.236   1.086   3.802
 6186SOL    HW218687   6.386   1.066   3.799
 6187SOL     OW18688   3.989   4.110   0.378
 6187SOL    HW118689   4.017   4.196   0.409
 6187SOL    HW218690   4.065   4.054   0.393
 6188SOL     OW18691   6.093   6.966   3.250
 6188SOL    HW118692   6.033   6.908   3.298
 6188SOL    HW218693   6.066   6.958   3.158
 6189SOL     OW18694   5.138   4.878   3.588
 6189SOL    HW118695   5.056   4.881   3.539
 6189SOL    HW218696   5.207   4.880   3.521
 6190SOL     OW18697   7.168   1.743   2.604
 6190SOL    HW118698   7.171   1.652   2.574
 6190SOL    HW218699   7.217   1.743   2.686
 6191SOL     OW18700   5.552   1.327   2.070
 6191SOL    HW118701   5.591   1.266   2.007
 6191SOL    HW218702   5.471   1.284   2.097
 6192SOL     OW18703   3.744   1.486   5.207
 6192SOL    HW118704   3.820   1.432   5.183
 6192SOL    HW218705   3.711   1.520   5.124
 6193SOL     OW18706   8.014   1.115   5.187
 6193SOL    HW118707   8.034   1.026   5.156
 6193SOL    HW218708   7.960   1.152   5.117
 6194SOL     OW18709   6.838   1.545   1.938
 6194SOL    HW118710   6.912   1.601   1.960
 6194SOL    HW218711   6.868   1.493   1.864
 6195SOL     OW18712   7.182   5.124   3.169
 6195SOL    HW118713   7.149   5.110   3.080
 6195SOL    HW218714   7.181   5.038   3.209
 6196SOL     OW18715   3.034   3.923   4.165
 6196SOL    HW118716   3.066   3.985   4.231
 6196SOL    HW218717   3.010   3.845   4.215
 6197SOL     OW18718   8.243   4.642   4.095
 6197SOL    HW118719   8.306   4.573   4.116
 6197SOL    HW218720   8.167   4.622   4.150
 6198SOL     OW18721   6.725   0.192   0.339
 6198SOL    HW118722   6.797   0.186   0.401
 6198SOL    HW218723   6.688   0.279   0.353
 6199SOL     OW18724   3.897   0.934   0.879
 6199SOL    HW118725   3.852   1.007   0.922
 6199SOL    HW218726   3.960   0.903   0.945
 6200SOL     OW18727   6.238   5.346   1.698
 6200SOL    HW118728   6.216   5.259   1.733
 6200SOL    HW218729   6.162   5.400   1.720
 6201SOL     OW18730   3.653   2.169   2.615
 6201SOL    HW118731   3.708   2.113   2.669
 6201SOL    HW218732   3.711   2.240   2.587
 6202SOL     OW18733   8.409   6.342   4.704
 6202SOL    HW118734   8.380   6.418   4.654
 6202SOL    HW218735   8.365   6.268   4.662
 6203SOL     OW18736   7.921   2.046   1.213
 6203SOL    HW118737   7.913   2.047   1.309
 6203SOL    HW218738   7.841   2.088   1.182
 6204SOL     OW18739   4.235   6.429   5.217
 6204SOL    HW118740   4.156   6.474   5.186
 6204SOL    HW218741   4.301   6.447   5.151
 6205SOL     OW18742   4.976   3.433   4.601
 6205SOL    HW118743   4.977   3.468   4.512
 6205SOL    HW218744   4.985   3.511   4.657
 6206SOL     OW18745   6.433   6.864   5.154
 6206SOL    HW118746   6.432   6.771   5.129
 6206SOL    HW218747   6.346   6.896   5.131
 6207SOL     OW18748   6.832   5.056   1.198
 6207SOL    HW118749   6.738   5.062   1.215
 6207SOL    HW218750   6.870   5.129   1.246
 6208SOL     OW18751   4.516   1.677   2.245
 6208SOL    HW118752   4.499   1.585   2.268
 6208SOL    HW218753   4.460   1.727   2.304
 6209SOL     OW18754   7.774   5.574   4.523
 6209SOL    HW118755   7.734   5.605   4.604
 6209SOL    HW218756   7.709   5.514   4.486
 6210SOL     OW18757   5.385   6.402   1.838
 6210SOL    HW118758   5.351   6.491   1.831
 6210SOL    HW218759   5.461   6.400   1.779
 6211SOL     OW18760   8.790   1.787   1.954
 6211SOL    HW118761   8.879   1.821   1.944
 6211SOL    HW218762   8.734   1.858   1.922
 6212SOL     OW18763   4.766   5.836   4.998
 6212SOL    HW118764   4.794   5.875   5.081
 6212SOL    HW218765   4.818   5.881   4.932
 6213SOL     OW18766   9.682   4.743   3.118
 6213SOL    HW118767   9.632   4.806   3.171
 6213SOL    HW218768   9.699   4.670   3.178
 6214SOL     OW18769   1.028   0.408   0.497
 6214SOL    HW118770   1.102   0.411   0.557
 6214SOL    HW218771   1.034   0.489   0.446
 6215SOL     OW18772   6.183   5.648   1.986
 6215SOL    HW118773   6.204   5.738   2.009
 6215SOL    HW218774   6.260   5.597   2.012
 6216SOL     OW18775   5.785   5.611   0.744
 6216SOL    HW118776   5.808   5.540   0.684
 6216SOL    HW218777   5.773   5.688   0.687
 6217SOL     OW18778   7.136   5.973   4.317
 6217SOL    HW118779   7.123   6.012   4.404
 6217SOL    HW218780   7.196   5.900   4.333
 6218SOL     OW18781   5.800   4.751  -0.029
 6218SOL    HW118782   5.880   4.709   0.004
 6218SOL    HW218783   5.742   4.755   0.047
 6219SOL     OW18784   4.630   1.620   0.768
 6219SOL    HW118785   4.535   1.616   0.754
 6219SOL    HW218786   4.640   1.633   0.862
 6220SOL     OW18787   8.690   4.131   4.066
 6220SOL    HW118788   8.686   4.217   4.108
 6220SOL    HW218789   8.741   4.077   4.126
 6221SOL     OW18790   1.573   4.378   0.523
 6221SOL    HW118791   1.505   4.376   0.590
 6221SOL    HW218792   1.654   4.356   0.568
 6222SOL     OW18793   8.280   6.245   2.642
 6222SOL    HW118794   8.319   6.198   2.716
 6222SOL    HW218795   8.189   6.259   2.668
 6223SOL     OW18796   6.072   5.239   2.197
 6223SOL    HW118797   6.100   5.320   2.241
 6223SOL    HW218798   5.996   5.266   2.145
 6224SOL     OW18799   6.687   3.003   3.532
 6224SOL    HW118800   6.668   2.909   3.540
 6224SOL    HW218801   6.603   3.046   3.545
 6225SOL     OW18802   7.070   0.351   4.818
 6225SOL    HW118803   7.010   0.395   4.758
 6225SOL    HW218804   7.097   0.420   4.879
 6226SOL     OW18805   1.848   7.353   1.287
 6226SOL    HW118806   1.933   7.389   1.314
 6226SOL    HW218807   1.863   7.259   1.279
 6227SOL     OW18808   6.719   5.419   3.492
 6227SOL    HW118809   6.632   5.386   3.473
 6227SOL    HW218810   6.778   5.349   3.464
 6228SOL     OW18811   5.586   7.036   0.449
 6228SOL    HW118812   5.599   6.993   0.533
 6228SOL    HW218813   5.553   6.968   0.391
 6229SOL     OW18814   4.079   5.737   4.541
 6229SOL    HW118815   4.090   5.824   4.502
 6229SOL    HW218816   4.114   5.677   4.475
 6230SOL     OW18817   6.998   4.243   1.528
 6230SOL    HW118818   6.908   4.256   1.557
 6230SOL    HW218819   7.039   4.193   1.598
 6231SOL     OW18820   7.043   6.319   0.653
 6231SOL    HW118821   7.025   6.233   0.616
 6231SOL    HW218822   7.095   6.301   0.732
 6232SOL     OW18823   7.827   4.864   3.063
 6232SOL    HW118824   7.801   4.947   3.022
 6232SOL    HW218825   7.882   4.821   2.998
 6233SOL     OW18826   2.556   0.857   3.012
 6233SOL    HW118827   2.531   0.906   2.934
 6233SOL    HW218828   2.585   0.923   3.074
 6234SOL     OW18829   8.162   2.375   3.388
 6234SOL    HW118830   8.231   2.379   3.321
 6234SOL    HW218831   8.137   2.466   3.402
 6235SOL     OW18832   2.640   1.025   1.495
 6235SOL    HW118833   2.591   0.967   1.553
 6235SOL    HW218834   2.604   1.008   1.408
 6236SOL     OW18835   9.111   3.745   4.002
 6236SOL    HW118836   9.122   3.820   4.061
 6236SOL    HW218837   9.051   3.776   3.935
 6237SOL     OW18838   5.858   1.919   0.417
 6237SOL    HW118839   5.799   1.963   0.477
 6237SOL    HW218840   5.806   1.848   0.378
 6238SOL     OW18841   8.620   7.021   4.472
 6238SOL    HW118842   8.547   6.965   4.447
 6238SOL    HW218843   8.593   7.058   4.556
 6239SOL     OW18844   8.307   6.534   4.940
 6239SOL    HW118845   8.273   6.511   5.027
 6239SOL    HW218846   8.315   6.449   4.896
 6240SOL     OW18847   4.240   2.558   0.182
 6240SOL    HW118848   4.282   2.572   0.097
 6240SOL    HW218849   4.301   2.502   0.230
 6241SOL     OW18850   3.237   5.997   3.380
 6241SOL    HW118851   3.172   6.008   3.449
 6241SOL    HW218852   3.264   5.906   3.387
 6242SOL     OW18853   7.552   4.695   1.411
 6242SOL    HW118854   7.560   4.707   1.506
 6242SOL    HW218855   7.629   4.737   1.374
 6243SOL     OW18856  10.207   5.871   5.260
 6243SOL    HW118857  10.121   5.909   5.277
 6243SOL    HW218858  10.236   5.913   5.179
 6244SOL     OW18859   2.904   3.010   0.529
 6244SOL    HW118860   2.846   3.063   0.474
 6244SOL    HW218861   2.847   2.976   0.598
 6245SOL     OW18862   6.905   7.166   1.681
 6245SOL    HW118863   7.000   7.161   1.676
 6245SOL    HW218864   6.877   7.078   1.705
 6246SOL     OW18865   3.443   0.732   4.368
 6246SOL    HW118866   3.494   0.676   4.427
 6246SOL    HW218867   3.504   0.754   4.297
 6247SOL     OW18868   6.131   7.200   3.393
 6247SOL    HW118869   6.110   7.117   3.350
 6247SOL    HW218870   6.166   7.174   3.478
 6248SOL     OW18871   6.110   6.143   0.928
 6248SOL    HW118872   6.085   6.121   0.838
 6248SOL    HW218873   6.072   6.073   0.981
 6249SOL     OW18874   7.628   5.379   4.406
 6249SOL    HW118875   7.674   5.296   4.396
 6249SOL    HW218876   7.581   5.390   4.323
 6250SOL     OW18877   6.643   3.636   1.824
 6250SOL    HW118878   6.681   3.678   1.900
 6250SOL    HW218879   6.555   3.611   1.852
 6251SOL     OW18880   5.913   4.836   2.261
 6251SOL    HW118881   5.984   4.893   2.233
 6251SOL    HW218882   5.839   4.895   2.276
 6252SOL     OW18883   8.744   2.295   3.228
 6252SOL    HW118884   8.811   2.354   3.262
 6252SOL    HW218885   8.668   2.310   3.284
 6253SOL     OW18886   1.893   5.454   2.009
 6253SOL    HW118887   1.848   5.520   1.958
 6253SOL    HW218888   1.824   5.410   2.059
 6254SOL     OW18889   6.245   0.887   3.510
 6254SOL    HW118890   6.158   0.887   3.471
 6254SOL    HW218891   6.302   0.849   3.443
 6255SOL     OW18892   7.690   5.946   2.163
 6255SOL    HW118893   7.664   6.027   2.119
 6255SOL    HW218894   7.645   5.948   2.248
 6256SOL     OW18895   6.166   6.858   1.110
 6256SOL    HW118896   6.078   6.895   1.116
 6256SOL    HW218897   6.182   6.819   1.196
 6257SOL     OW18898   4.668   1.467   5.195
 6257SOL    HW118899   4.601   1.456   5.263
 6257SOL    HW218900   4.726   1.535   5.229
 6258SOL     OW18901   7.215   4.691   0.808
 6258SOL    HW118902   7.204   4.644   0.891
 6258SOL    HW218903   7.130   4.732   0.793
 6259SOL     OW18904   2.407   4.964   1.576
 6259SOL    HW118905   2.423   4.906   1.651
 6259SOL    HW218906   2.388   4.905   1.503
 6260SOL     OW18907   3.807   2.716   2.792
 6260SOL    HW118908   3.899   2.701   2.809
 6260SOL    HW218909   3.794   2.689   2.701
 6261SOL     OW18910   3.759   6.533   1.096
 6261SOL    HW118911   3.670   6.506   1.073
 6261SOL    HW218912   3.758   6.540   1.192
 6262SOL     OW18913   3.717   2.311   1.393
 6262SOL    HW118914   3.718   2.386   1.333
 6262SOL    HW218915   3.801   2.267   1.378
 6263SOL     OW18916   4.890   5.248   4.056
 6263SOL    HW118917   4.836   5.243   3.977
 6263SOL    HW218918   4.967   5.297   4.028
 6264SOL     OW18919   2.445   5.016   2.835
 6264SOL    HW118920   2.461   4.993   2.926
 6264SOL    HW218921   2.379   5.086   2.839
 6265SOL     OW18922  10.520   2.473   4.858
 6265SOL    HW118923  10.488   2.387   4.884
 6265SOL    HW218924  10.610   2.476   4.889
 6266SOL     OW18925   3.526   2.468   0.808
 6266SOL    HW118926   3.562   2.542   0.858
 6266SOL    HW218927   3.443   2.448   0.853
 6267SOL     OW18928   3.274   4.891   2.260
 6267SOL    HW118929   3.179   4.884   2.245
 6267SOL    HW218930   3.296   4.981   2.234
 6268SOL     OW18931   7.890   6.558   2.489
 6268SOL    HW118932   7.959   6.560   2.422
 6268SOL    HW218933   7.930   6.510   2.562
 6269SOL     OW18934   5.811   4.396   4.651
 6269SOL    HW118935   5.801   4.312   4.605
 6269SOL    HW218936   5.892   4.386   4.701
 6270SOL     OW18937   6.451   6.570   4.538
 6270SOL    HW118938   6.479   6.591   4.448
 6270SOL    HW218939   6.377   6.629   4.554
 6271SOL     OW18940   7.431   5.289   1.973
 6271SOL    HW118941   7.503   5.328   1.923
 6271SOL    HW218942   7.384   5.363   2.010
 6272SOL     OW18943  11.007   5.429   5.039
 6272SOL    HW118944  10.935   5.411   5.100
 6272SOL    HW218945  11.062   5.493   5.085
 6273SOL     OW18946   7.563   2.610   2.697
 6273SOL    HW118947   7.571   2.609   2.601
 6273SOL    HW218948   7.530   2.698   2.717
 6274SOL     OW18949   4.156   3.683   2.770
 6274SOL    HW118950   4.178   3.646   2.856
 6274SOL    HW218951   4.065   3.710   2.779
 6275SOL     OW18952   6.879   6.165   4.339
 6275SOL    HW118953   6.877   6.212   4.256
 6275SOL    HW218954   6.866   6.233   4.405
 6276SOL     OW18955   7.136   0.230   4.418
 6276SOL    HW118956   7.151   0.321   4.392
 6276SOL    HW218957   7.152   0.229   4.512
 6277SOL     OW18958   3.980   4.369   1.189
 6277SOL    HW118959   3.999   4.457   1.220
 6277SOL    HW218960   4.064   4.323   1.193
 6278SOL     OW18961   1.074   2.747   1.240
 6278SOL    HW118962   1.021   2.693   1.299
 6278SOL    HW218963   1.039   2.730   1.153
 6279SOL     OW18964   7.795   3.148   4.163
 6279SOL    HW118965   7.753   3.161   4.078
 6279SOL    HW218966   7.827   3.235   4.187
 6280SOL     OW18967   5.784   2.702   3.017
 6280SOL    HW118968   5.757   2.759   2.946
 6280SOL    HW218969   5.735   2.734   3.093
 6281SOL     OW18970   6.888   6.778   3.877
 6281SOL    HW118971   6.840   6.797   3.797
 6281SOL    HW218972   6.855   6.842   3.940
 6282SOL     OW18973   2.746   0.949   1.892
 6282SOL    HW118974   2.803   0.876   1.918
 6282SOL    HW218975   2.664   0.933   1.938
 6283SOL     OW18976   8.673   7.348   3.884
 6283SOL    HW118977   8.643   7.392   3.804
 6283SOL    HW218978   8.633   7.261   3.879
 6284SOL     OW18979   8.595   7.067   1.838
 6284SOL    HW118980   8.526   7.026   1.786
 6284SOL    HW218981   8.594   7.018   1.921
 6285SOL     OW18982   4.900   6.634   1.556
 6285SOL    HW118983   4.932   6.651   1.645
 6285SOL    HW218984   4.848   6.554   1.564
 6286SOL     OW18985   4.022   6.776   5.243
 6286SOL    HW118986   3.999   6.695   5.288
 6286SOL    HW218987   4.080   6.822   5.303
 6287SOL     OW18988   3.602   4.912   5.117
 6287SOL    HW118989   3.613   4.968   5.194
 6287SOL    HW218990   3.689   4.905   5.079
 6288SOL     OW18991   3.692   6.854   1.110
 6288SOL    HW118992   3.671   6.780   1.167
 6288SOL    HW218993   3.682   6.931   1.167
 6289SOL     OW18994   8.989   0.152   3.299
 6289SOL    HW118995   9.056   0.101   3.345
 6289SOL    HW218996   9.005   0.243   3.326
 6290SOL     OW18997   4.622   6.392   4.941
 6290SOL    HW118998   4.582   6.363   5.023
 6290SOL    HW218999   4.556   6.374   4.874
 6291SOL     OW19000   8.972   1.464   3.107
 6291SOL    HW119001   8.912   1.450   3.181
 6291SOL    HW219002   9.020   1.543   3.130
 6292SOL     OW19003   1.773   2.217   0.683
 6292SOL    HW119004   1.845   2.188   0.627
 6292SOL    HW219005   1.694   2.195   0.634
 6293SOL     OW19006   6.427   5.152   0.917
 6293SOL    HW119007   6.410   5.122   1.006
 6293SOL    HW219008   6.518   5.127   0.899
 6294SOL     OW19009   1.921   1.221   1.751
 6294SOL    HW119010   2.003   1.232   1.799
 6294SOL    HW219011   1.855   1.262   1.806
 6295SOL     OW19012   2.423   1.686   0.229
 6295SOL    HW119013   2.381   1.737   0.160
 6295SOL    HW219014   2.499   1.739   0.254
 6296SOL     OW19015   8.204   1.536   4.639
 6296SOL    HW119016   8.176   1.446   4.660
 6296SOL    HW219017   8.283   1.549   4.692
 6297SOL     OW19018   5.459   3.258   2.430
 6297SOL    HW119019   5.442   3.250   2.336
 6297SOL    HW219020   5.554   3.264   2.436
 6298SOL     OW19021   3.206   7.077   1.425
 6298SOL    HW119022   3.192   7.136   1.499
 6298SOL    HW219023   3.234   6.995   1.466
 6299SOL     OW19024   2.660   3.579   2.406
 6299SOL    HW119025   2.731   3.628   2.448
 6299SOL    HW219026   2.592   3.645   2.389
 6300SOL     OW19027   3.648   3.602   2.725
 6300SOL    HW119028   3.607   3.573   2.807
 6300SOL    HW219029   3.709   3.532   2.703
 6301SOL     OW19030   9.478   2.129   4.512
 6301SOL    HW119031   9.434   2.169   4.437
 6301SOL    HW219032   9.445   2.177   4.588
 6302SOL     OW19033   3.134   6.830   3.109
 6302SOL    HW119034   3.222   6.798   3.130
 6302SOL    HW219035   3.134   6.921   3.138
 6303SOL     OW19036   4.616   4.493   1.287
 6303SOL    HW119037   4.653   4.579   1.272
 6303SOL    HW219038   4.634   4.475   1.380
 6304SOL     OW19039   7.223   6.465   5.108
 6304SOL    HW119040   7.239   6.555   5.080
 6304SOL    HW219041   7.272   6.412   5.046
 6305SOL     OW19042   8.101   7.105   2.110
 6305SOL    HW119043   8.012   7.110   2.074
 6305SOL    HW219044   8.116   7.011   2.123
 6306SOL     OW19045   1.401   7.375   0.424
 6306SOL    HW119046   1.343   7.302   0.401
 6306SOL    HW219047   1.475   7.334   0.468
 6307SOL     OW19048   4.308   4.868   2.123
 6307SOL    HW119049   4.304   4.860   2.218
 6307SOL    HW219050   4.219   4.851   2.094
 6308SOL     OW19051   7.780   4.697   3.865
 6308SOL    HW119052   7.811   4.627   3.808
 6308SOL    HW219053   7.806   4.778   3.821
 6309SOL     OW19054   1.743   5.264   0.580
 6309SOL    HW119055   1.697   5.282   0.663
 6309SOL    HW219056   1.685   5.203   0.534
 6310SOL     OW19057   5.516   5.276   4.877
 6310SOL    HW119058   5.527   5.361   4.921
 6310SOL    HW219059   5.605   5.240   4.874
 6311SOL     OW19060   2.834   7.295   0.886
 6311SOL    HW119061   2.835   7.391   0.895
 6311SOL    HW219062   2.885   7.264   0.961
 6312SOL     OW19063   1.402   4.640   0.060
 6312SOL    HW119064   1.452   4.721   0.064
 6312SOL    HW219065   1.465   4.572   0.084
 6313SOL     OW19066   7.283   7.107   1.038
 6313SOL    HW119067   7.361   7.097   1.093
 6313SOL    HW219068   7.249   7.018   1.029
 6314SOL     OW19069   6.914   4.695   2.856
 6314SOL    HW119070   6.988   4.713   2.798
 6314SOL    HW219071   6.844   4.752   2.824
 6315SOL     OW19072   3.244   1.960   0.648
 6315SOL    HW119073   3.192   2.005   0.715
 6315SOL    HW219074   3.283   2.031   0.597
 6316SOL     OW19075   4.714   5.376   3.871
 6316SOL    HW119076   4.676   5.459   3.901
 6316SOL    HW219077   4.639   5.327   3.836
 6317SOL     OW19078   2.240   6.731   2.813
 6317SOL    HW119079   2.245   6.761   2.723
 6317SOL    HW219080   2.184   6.653   2.809
 6318SOL     OW19081   6.441   3.529   4.679
 6318SOL    HW119082   6.403   3.458   4.731
 6318SOL    HW219083   6.477   3.485   4.602
 6319SOL     OW19084   5.803   7.424   3.580
 6319SOL    HW119085   5.824   7.469   3.499
 6319SOL    HW219086   5.790   7.494   3.644
 6320SOL     OW19087   4.073   0.672   3.551
 6320SOL    HW119088   4.055   0.668   3.645
 6320SOL    HW219089   3.987   0.662   3.510
 6321SOL     OW19090   9.472   5.785   3.871
 6321SOL    HW119091   9.421   5.830   3.938
 6321SOL    HW219092   9.531   5.852   3.836
 6322SOL     OW19093   6.156   2.149   1.654
 6322SOL    HW119094   6.153   2.058   1.683
 6322SOL    HW219095   6.196   2.145   1.567
 6323SOL     OW19096   4.472   6.187   3.204
 6323SOL    HW119097   4.468   6.191   3.108
 6323SOL    HW219098   4.394   6.234   3.233
 6324SOL     OW19099   7.061   1.885   2.983
 6324SOL    HW119100   7.092   1.830   2.912
 6324SOL    HW219101   7.029   1.823   3.049
 6325SOL     OW19102   6.980   3.900   1.080
 6325SOL    HW119103   6.953   3.860   0.997
 6325SOL    HW219104   7.051   3.959   1.056
 6326SOL     OW19105   7.196   2.161   3.625
 6326SOL    HW119106   7.166   2.153   3.715
 6326SOL    HW219107   7.120   2.136   3.572
 6327SOL     OW19108   7.861   6.814   1.046
 6327SOL    HW119109   7.798   6.855   1.105
 6327SOL    HW219110   7.907   6.887   1.005
 6328SOL     OW19111   6.353   1.501   1.159
 6328SOL    HW119112   6.449   1.498   1.150
 6328SOL    HW219113   6.323   1.533   1.074
 6329SOL     OW19114   7.638   3.940   2.082
 6329SOL    HW119115   7.646   3.983   2.167
 6329SOL    HW219116   7.564   3.880   2.091
 6330SOL     OW19117   5.051   1.856   3.283
 6330SOL    HW119118   5.080   1.801   3.211
 6330SOL    HW219119   4.955   1.859   3.275
 6331SOL     OW19120   4.375   6.639   3.706
 6331SOL    HW119121   4.310   6.650   3.774
 6331SOL    HW219122   4.459   6.636   3.753
 6332SOL     OW19123   5.656   2.387   0.678
 6332SOL    HW119124   5.614   2.460   0.721
 6332SOL    HW219125   5.611   2.380   0.593
 6333SOL     OW19126   4.921   3.767   3.705
 6333SOL    HW119127   5.000   3.820   3.716
 6333SOL    HW219128   4.862   3.797   3.774
 6334SOL     OW19129   6.483   3.799   5.059
 6334SOL    HW119130   6.467   3.706   5.075
 6334SOL    HW219131   6.502   3.804   4.965
 6335SOL     OW19132   9.964   4.875   3.909
 6335SOL    HW119133  10.031   4.944   3.904
 6335SOL    HW219134  10.012   4.797   3.935
 6336SOL     OW19135   2.645   2.782   0.274
 6336SOL    HW119136   2.694   2.856   0.238
 6336SOL    HW219137   2.671   2.708   0.219
 6337SOL     OW19138   9.853   6.895   5.275
 6337SOL    HW119139   9.795   6.958   5.232
 6337SOL    HW219140   9.926   6.884   5.215
 6338SOL     OW19141   2.556   4.812   0.057
 6338SOL    HW119142   2.616   4.755   0.105
 6338SOL    HW219143   2.613   4.864  -0.001
 6339SOL     OW19144   4.049   1.748   4.388
 6339SOL    HW119145   3.987   1.683   4.355
 6339SOL    HW219146   4.122   1.697   4.424
 6340SOL     OW19147   2.194   6.482   0.136
 6340SOL    HW119148   2.190   6.446   0.225
 6340SOL    HW219149   2.190   6.577   0.148
 6341SOL     OW19150   3.192   2.990   0.558
 6341SOL    HW119151   3.115   2.944   0.589
 6341SOL    HW219152   3.158   3.061   0.504
 6342SOL     OW19153   3.026   4.851   1.379
 6342SOL    HW119154   3.033   4.939   1.417
 6342SOL    HW219155   3.092   4.849   1.310
 6343SOL     OW19156   4.019   1.633   4.787
 6343SOL    HW119157   4.083   1.699   4.762
 6343SOL    HW219158   3.950   1.683   4.831
 6344SOL     OW19159   9.674   7.260   5.071
 6344SOL    HW119160   9.674   7.337   5.014
 6344SOL    HW219161   9.592   7.215   5.050
 6345SOL     OW19162   2.941   3.465   4.002
 6345SOL    HW119163   2.971   3.420   4.081
 6345SOL    HW219164   2.875   3.407   3.964
 6346SOL     OW19165   1.496   4.921   1.709
 6346SOL    HW119166   1.475   5.004   1.751
 6346SOL    HW219167   1.524   4.944   1.621
 6347SOL     OW19168   0.624   6.862   0.806
 6347SOL    HW119169   0.661   6.913   0.734
 6347SOL    HW219170   0.631   6.920   0.882
 6348SOL     OW19171   2.423   0.348   2.853
 6348SOL    HW119172   2.448   0.438   2.832
 6348SOL    HW219173   2.454   0.334   2.942
 6349SOL     OW19174   8.895   6.105   2.896
 6349SOL    HW119175   8.884   6.141   2.807
 6349SOL    HW219176   8.982   6.135   2.923
 6350SOL     OW19177   2.357   3.661   1.366
 6350SOL    HW119178   2.406   3.582   1.347
 6350SOL    HW219179   2.315   3.644   1.451
 6351SOL     OW19180   4.388   0.921   0.615
 6351SOL    HW119181   4.401   0.976   0.538
 6351SOL    HW219182   4.390   0.831   0.582
 6352SOL     OW19183   7.588   4.818   3.509
 6352SOL    HW119184   7.674   4.809   3.549
 6352SOL    HW219185   7.574   4.734   3.465
 6353SOL     OW19186   8.598   4.041   2.770
 6353SOL    HW119187   8.586   4.066   2.861
 6353SOL    HW219188   8.516   4.065   2.727
 6354SOL     OW19189   2.865   1.888   0.670
 6354SOL    HW119190   2.930   1.845   0.615
 6354SOL    HW219191   2.909   1.966   0.704
 6355SOL     OW19192   3.739   7.234   0.826
 6355SOL    HW119193   3.695   7.309   0.865
 6355SOL    HW219194   3.711   7.160   0.881
 6356SOL     OW19195   8.740   5.301   2.539
 6356SOL    HW119196   8.714   5.209   2.550
 6356SOL    HW219197   8.690   5.348   2.605
 6357SOL     OW19198   6.709   4.224   1.358
 6357SOL    HW119199   6.736   4.300   1.305
 6357SOL    HW219200   6.781   4.162   1.348
 6358SOL     OW19201   3.709   6.773   0.412
 6358SOL    HW119202   3.766   6.701   0.437
 6358SOL    HW219203   3.649   6.735   0.348
 6359SOL     OW19204   5.176   2.703   3.035
 6359SOL    HW119205   5.108   2.677   3.097
 6359SOL    HW219206   5.193   2.625   2.982
 6360SOL     OW19207   8.587   4.887   3.460
 6360SOL    HW119208   8.563   4.799   3.489
 6360SOL    HW219209   8.506   4.924   3.425
 6361SOL     OW19210   8.487   0.467   2.494
 6361SOL    HW119211   8.402   0.511   2.505
 6361SOL    HW219212   8.477   0.384   2.539
 6362SOL     OW19213   5.552   3.511   3.921
 6362SOL    HW119214   5.596   3.427   3.910
 6362SOL    HW219215   5.530   3.516   4.014
 6363SOL     OW19216   4.887   3.798   2.788
 6363SOL    HW119217   4.934   3.720   2.818
 6363SOL    HW219218   4.795   3.771   2.786
 6364SOL     OW19219  10.343   3.502   4.952
 6364SOL    HW119220  10.315   3.587   4.919
 6364SOL    HW219221  10.337   3.511   5.048
 6365SOL     OW19222   9.676   4.982   5.082
 6365SOL    HW119223   9.647   4.921   5.014
 6365SOL    HW219224   9.757   4.943   5.116
 6366SOL     OW19225   1.326   3.967   0.896
 6366SOL    HW119226   1.323   4.060   0.918
 6366SOL    HW219227   1.414   3.939   0.919
 6367SOL     OW19228   3.872   0.670   4.406
 6367SOL    HW119229   3.802   0.695   4.346
 6367SOL    HW219230   3.869   0.574   4.408
 6368SOL     OW19231   2.893   0.176   0.756
 6368SOL    HW119232   2.876   0.191   0.849
 6368SOL    HW219233   2.849   0.248   0.711
 6369SOL     OW19234   4.807   5.710   3.467
 6369SOL    HW119235   4.883   5.692   3.522
 6369SOL    HW219236   4.795   5.805   3.472
 6370SOL     OW19237   3.310   7.470   0.416
 6370SOL    HW119238   3.218   7.479   0.441
 6370SOL    HW219239   3.352   7.431   0.492
 6371SOL     OW19240   6.871   0.399   4.640
 6371SOL    HW119241   6.845   0.408   4.548
 6371SOL    HW219242   6.791   0.370   4.684
 6372SOL     OW19243   3.534   1.187   2.367
 6372SOL    HW119244   3.576   1.108   2.333
 6372SOL    HW219245   3.572   1.258   2.316
 6373SOL     OW19246   6.199   3.681   0.081
 6373SOL    HW119247   6.254   3.635   0.145
 6373SOL    HW219248   6.113   3.637   0.088
 6374SOL     OW19249   4.715   0.148   0.329
 6374SOL    HW119250   4.621   0.162   0.317
 6374SOL    HW219251   4.745   0.225   0.376
 6375SOL     OW19252   7.408   3.681   1.049
 6375SOL    HW119253   7.497   3.657   1.022
 6375SOL    HW219254   7.377   3.738   0.979
 6376SOL     OW19255   6.168   6.777   4.567
 6376SOL    HW119256   6.146   6.868   4.545
 6376SOL    HW219257   6.210   6.782   4.652
 6377SOL     OW19258   2.218   4.370   0.690
 6377SOL    HW119259   2.273   4.438   0.651
 6377SOL    HW219260   2.241   4.290   0.643
 6378SOL     OW19261   8.050   0.893   0.910
 6378SOL    HW119262   8.056   0.988   0.898
 6378SOL    HW219263   8.086   0.856   0.829
 6379SOL     OW19264   3.954   6.108   1.543
 6379SOL    HW119265   3.951   6.190   1.494
 6379SOL    HW219266   4.024   6.121   1.607
 6380SOL     OW19267   2.977   2.061   4.206
 6380SOL    HW119268   2.983   2.156   4.207
 6380SOL    HW219269   2.918   2.041   4.132
 6381SOL     OW19270   6.571   6.733   4.311
 6381SOL    HW119271   6.598   6.685   4.233
 6381SOL    HW219272   6.497   6.786   4.283
 6382SOL     OW19273   5.697   3.499   0.941
 6382SOL    HW119274   5.758   3.553   0.991
 6382SOL    HW219275   5.611   3.536   0.960
 6383SOL     OW19276   7.118   0.619   0.079
 6383SOL    HW119277   7.176   0.633   0.154
 6383SOL    HW219278   7.042   0.573   0.117
 6384SOL     OW19279   5.637   6.058   3.736
 6384SOL    HW119280   5.622   6.147   3.703
 6384SOL    HW219281   5.716   6.067   3.790
 6385SOL     OW19282   0.389   4.708   0.135
 6385SOL    HW119283   0.301   4.745   0.145
 6385SOL    HW219284   0.374   4.617   0.112
 6386SOL     OW19285   2.957   1.529   2.525
 6386SOL    HW119286   3.026   1.595   2.520
 6386SOL    HW219287   2.952   1.493   2.437
 6387SOL     OW19288   6.618   0.421   0.391
 6387SOL    HW119289   6.535   0.462   0.417
 6387SOL    HW219290   6.683   0.462   0.449
 6388SOL     OW19291   2.098   1.881   0.826
 6388SOL    HW119292   2.039   1.809   0.850
 6388SOL    HW219293   2.102   1.936   0.904
 6389SOL     OW19294   4.218   3.948   0.381
 6389SOL    HW119295   4.304   3.992   0.381
 6389SOL    HW219296   4.224   3.884   0.451
 6390SOL     OW19297   3.441   5.657   1.953
 6390SOL    HW119298   3.510   5.685   1.893
 6390SOL    HW219299   3.447   5.716   2.027
 6391SOL     OW19300   5.643   4.602   2.822
 6391SOL    HW119301   5.564   4.655   2.820
 6391SOL    HW219302   5.644   4.564   2.910
 6392SOL     OW19303   3.289   1.606   2.297
 6392SOL    HW119304   3.275   1.639   2.386
 6392SOL    HW219305   3.203   1.609   2.257
 6393SOL     OW19306   7.450   6.968   4.395
 6393SOL    HW119307   7.431   6.994   4.485
 6393SOL    HW219308   7.365   6.962   4.353
 6394SOL     OW19309   9.324   5.148   4.533
 6394SOL    HW119310   9.340   5.221   4.472
 6394SOL    HW219311   9.230   5.131   4.526
 6395SOL     OW19312   6.267   2.547   2.633
 6395SOL    HW119313   6.255   2.511   2.545
 6395SOL    HW219314   6.181   2.578   2.658
 6396SOL     OW19315   2.976   3.441   2.112
 6396SOL    HW119316   2.994   3.463   2.021
 6396SOL    HW219317   2.885   3.468   2.125
 6397SOL     OW19318   2.229   0.386   2.654
 6397SOL    HW119319   2.278   0.463   2.682
 6397SOL    HW219320   2.263   0.315   2.708
 6398SOL     OW19321   5.981   4.666   1.628
 6398SOL    HW119322   5.949   4.691   1.714
 6398SOL    HW219323   5.904   4.672   1.571
 6399SOL     OW19324   7.951   5.775   2.521
 6399SOL    HW119325   7.919   5.707   2.580
 6399SOL    HW219326   7.879   5.837   2.516
 6400SOL     OW19327   2.099   0.405   1.204
 6400SOL    HW119328   2.029   0.370   1.149
 6400SOL    HW219329   2.178   0.361   1.175
 6401SOL     OW19330   2.101   6.854   0.453
 6401SOL    HW119331   2.124   6.944   0.430
 6401SOL    HW219332   2.180   6.819   0.494
 6402SOL     OW19333   8.369   6.756   3.513
 6402SOL    HW119334   8.383   6.668   3.478
 6402SOL    HW219335   8.287   6.784   3.473
 6403SOL     OW19336   3.546   0.042   1.552
 6403SOL    HW119337   3.571   0.100   1.479
 6403SOL    HW219338   3.478  -0.013   1.515
 6404SOL     OW19339   3.090   6.571   0.220
 6404SOL    HW119340   3.109   6.652   0.268
 6404SOL    HW219341   3.153   6.571   0.148
 6405SOL     OW19342   3.638   1.665   1.994
 6405SOL    HW119343   3.556   1.711   1.974
 6405SOL    HW219344   3.679   1.651   1.909
 6406SOL     OW19345   8.028   6.861   2.931
 6406SOL    HW119346   7.988   6.934   2.884
 6406SOL    HW219347   8.080   6.903   3.000
 6407SOL     OW19348   8.407   0.246   2.859
 6407SOL    HW119349   8.382   0.267   2.769
 6407SOL    HW219350   8.336   0.282   2.912
 6408SOL     OW19351   1.824   4.208   2.189
 6408SOL    HW119352   1.847   4.130   2.139
 6408SOL    HW219353   1.741   4.185   2.232
 6409SOL     OW19354   9.021   4.119   2.285
 6409SOL    HW119355   8.926   4.118   2.286
 6409SOL    HW219356   9.047   4.056   2.352
 6410SOL     OW19357   3.904   7.167   3.583
 6410SOL    HW119358   3.914   7.127   3.670
 6410SOL    HW219359   3.966   7.240   3.583
 6411SOL     OW19360   4.183   4.861   3.132
 6411SOL    HW119361   4.116   4.915   3.174
 6411SOL    HW219362   4.245   4.924   3.096
 6412SOL     OW19363   2.976   4.665   0.350
 6412SOL    HW119364   3.035   4.720   0.401
 6412SOL    HW219365   2.897   4.658   0.404
 6413SOL     OW19366   4.674   6.830   4.653
 6413SOL    HW119367   4.741   6.803   4.715
 6413SOL    HW219368   4.702   6.792   4.570
 6414SOL     OW19369   6.203   4.243   2.533
 6414SOL    HW119370   6.255   4.301   2.588
 6414SOL    HW219371   6.123   4.292   2.516
 6415SOL     OW19372   4.876   0.113   5.096
 6415SOL    HW119373   4.896   0.098   5.188
 6415SOL    HW219374   4.867   0.026   5.058
 6416SOL     OW19375   8.112   3.119   3.106
 6416SOL    HW119376   8.075   3.074   3.182
 6416SOL    HW219377   8.138   3.049   3.046
 6417SOL     OW19378   4.172   5.266   0.239
 6417SOL    HW119379   4.239   5.247   0.305
 6417SOL    HW219380   4.136   5.350   0.265
 6418SOL     OW19381   6.898   2.306   2.000
 6418SOL    HW119382   6.827   2.351   1.954
 6418SOL    HW219383   6.878   2.318   2.093
 6419SOL     OW19384   8.629   4.581   4.677
 6419SOL    HW119385   8.688   4.558   4.606
 6419SOL    HW219386   8.611   4.497   4.720
 6420SOL     OW19387   1.175   5.066   1.415
 6420SOL    HW119388   1.127   4.984   1.425
 6420SOL    HW219389   1.254   5.055   1.466
 6421SOL     OW19390   2.759   3.600   1.545
 6421SOL    HW119391   2.677   3.569   1.506
 6421SOL    HW219392   2.731   3.665   1.610
 6422SOL     OW19393   8.226   1.855   3.970
 6422SOL    HW119394   8.164   1.928   3.973
 6422SOL    HW219395   8.223   1.825   3.880
 6423SOL     OW19396   6.572   3.421   0.285
 6423SOL    HW119397   6.602   3.500   0.331
 6423SOL    HW219398   6.508   3.381   0.343
 6424SOL     OW19399   7.760   2.514   2.896
 6424SOL    HW119400   7.729   2.423   2.888
 6424SOL    HW219401   7.706   2.563   2.833
 6425SOL     OW19402   6.054   0.643   1.019
 6425SOL    HW119403   6.036   0.737   1.030
 6425SOL    HW219404   6.027   0.604   1.102
 6426SOL     OW19405   5.104   5.892   0.909
 6426SOL    HW119406   5.025   5.866   0.863
 6426SOL    HW219407   5.107   5.835   0.986
 6427SOL     OW19408   7.238   6.198   3.571
 6427SOL    HW119409   7.155   6.163   3.603
 6427SOL    HW219410   7.233   6.293   3.587
 6428SOL     OW19411   7.386   6.802   1.778
 6428SOL    HW119412   7.461   6.829   1.830
 6428SOL    HW219413   7.327   6.758   1.840
 6429SOL     OW19414  10.203   2.220   5.098
 6429SOL    HW119415  10.249   2.256   5.022
 6429SOL    HW219416  10.125   2.177   5.061
 6430SOL     OW19417   4.344   5.415   0.075
 6430SOL    HW119418   4.353   5.381   0.164
 6430SOL    HW219419   4.418   5.475   0.065
 6431SOL     OW19420   7.648   5.744   4.773
 6431SOL    HW119421   7.647   5.822   4.717
 6431SOL    HW219422   7.634   5.779   4.861
 6432SOL     OW19423   7.212   5.684   3.811
 6432SOL    HW119424   7.276   5.733   3.863
 6432SOL    HW219425   7.176   5.619   3.872
 6433SOL     OW19426   9.875   5.365   4.713
 6433SOL    HW119427   9.802   5.310   4.685
 6433SOL    HW219428   9.839   5.418   4.784
 6434SOL     OW19429   3.054   5.286   2.490
 6434SOL    HW119430   3.057   5.206   2.436
 6434SOL    HW219431   2.990   5.266   2.558
 6435SOL     OW19432   6.383   1.857   3.689
 6435SOL    HW119433   6.295   1.881   3.716
 6435SOL    HW219434   6.436   1.864   3.768
 6436SOL     OW19435   6.642   5.772   5.177
 6436SOL    HW119436   6.622   5.744   5.266
 6436SOL    HW219437   6.717   5.831   5.187
 6437SOL     OW19438   6.301   2.125   0.247
 6437SOL    HW119439   6.216   2.084   0.256
 6437SOL    HW219440   6.360   2.073   0.302
 6438SOL     OW19441   8.427   7.300   1.895
 6438SOL    HW119442   8.408   7.372   1.834
 6438SOL    HW219443   8.417   7.221   1.842
 6439SOL     OW19444   3.596   4.746   4.058
 6439SOL    HW119445   3.593   4.838   4.035
 6439SOL    HW219446   3.523   4.734   4.119
 6440SOL     OW19447   7.388   0.518   4.783
 6440SOL    HW119448   7.330   0.526   4.859
 6440SOL    HW219449   7.365   0.593   4.728
 6441SOL     OW19450   4.324   3.717   1.929
 6441SOL    HW119451   4.321   3.648   1.863
 6441SOL    HW219452   4.392   3.689   1.990
 6442SOL     OW19453   2.120   0.664   2.533
 6442SOL    HW119454   2.197   0.648   2.479
 6442SOL    HW219455   2.140   0.626   2.618
 6443SOL     OW19456   1.427   6.612   1.884
 6443SOL    HW119457   1.348   6.651   1.847
 6443SOL    HW219458   1.405   6.519   1.896
 6444SOL     OW19459   9.737   6.068   3.207
 6444SOL    HW119460   9.697   6.131   3.266
 6444SOL    HW219461   9.690   5.986   3.222
 6445SOL     OW19462   5.173   6.499   2.108
 6445SOL    HW119463   5.101   6.470   2.164
 6445SOL    HW219464   5.184   6.592   2.130
 6446SOL     OW19465   6.256   2.187   5.101
 6446SOL    HW119466   6.253   2.276   5.135
 6446SOL    HW219467   6.318   2.190   5.029
 6447SOL     OW19468   9.571   2.754   4.132
 6447SOL    HW119469   9.550   2.812   4.059
 6447SOL    HW219470   9.529   2.795   4.208
 6448SOL     OW19471   7.006   4.713   2.325
 6448SOL    HW119472   6.916   4.737   2.350
 6448SOL    HW219473   7.056   4.794   2.333
 6449SOL     OW19474   3.413   7.356   1.338
 6449SOL    HW119475   3.483   7.384   1.279
 6449SOL    HW219476   3.444   7.273   1.375
 6450SOL     OW19477   3.316   5.592   2.274
 6450SOL    HW119478   3.248   5.655   2.301
 6450SOL    HW219479   3.300   5.516   2.329
 6451SOL     OW19480   8.545   1.192   2.605
 6451SOL    HW119481   8.500   1.149   2.532
 6451SOL    HW219482   8.589   1.267   2.565
 6452SOL     OW19483   6.759   6.114   3.045
 6452SOL    HW119484   6.721   6.118   3.133
 6452SOL    HW219485   6.846   6.151   3.055
 6453SOL     OW19486   5.575   2.494   2.995
 6453SOL    HW119487   5.587   2.401   2.980
 6453SOL    HW219488   5.646   2.536   2.947
 6454SOL     OW19489   4.661   6.437   1.269
 6454SOL    HW119490   4.616   6.485   1.339
 6454SOL    HW219491   4.590   6.399   1.217
 6455SOL     OW19492   6.086   5.052   5.122
 6455SOL    HW119493   5.996   5.019   5.123
 6455SOL    HW219494   6.134   4.989   5.069
 6456SOL     OW19495   4.798   2.240   2.514
 6456SOL    HW119496   4.815   2.198   2.598
 6456SOL    HW219497   4.876   2.293   2.498
 6457SOL     OW19498   6.311   0.922   1.911
 6457SOL    HW119499   6.355   0.988   1.857
 6457SOL    HW219500   6.380   0.860   1.934
 6458SOL     OW19501   4.464   7.385   3.928
 6458SOL    HW119502   4.460   7.358   3.836
 6458SOL    HW219503   4.457   7.480   3.925
 6459SOL     OW19504   4.747   4.130   1.884
 6459SOL    HW119505   4.683   4.086   1.939
 6459SOL    HW219506   4.825   4.136   1.939
 6460SOL     OW19507   1.819   2.430   1.435
 6460SOL    HW119508   1.907   2.467   1.445
 6460SOL    HW219509   1.825   2.343   1.475
 6461SOL     OW19510   7.092   1.424   0.985
 6461SOL    HW119511   7.080   1.510   1.024
 6461SOL    HW219512   7.086   1.440   0.890
 6462SOL     OW19513  10.132   3.499   3.893
 6462SOL    HW119514  10.144   3.422   3.948
 6462SOL    HW219515  10.045   3.488   3.854
 6463SOL     OW19516   2.562   6.988   2.285
 6463SOL    HW119517   2.658   6.991   2.288
 6463SOL    HW219518   2.540   7.035   2.204
 6464SOL     OW19519   7.593   7.087   4.919
 6464SOL    HW119520   7.587   6.992   4.923
 6464SOL    HW219521   7.679   7.105   4.881
 6465SOL     OW19522   7.315   0.015   1.369
 6465SOL    HW119523   7.269  -0.055   1.321
 6465SOL    HW219524   7.271   0.095   1.341
 6466SOL     OW19525   9.118   3.388   3.590
 6466SOL    HW119526   9.039   3.369   3.641
 6466SOL    HW219527   9.181   3.420   3.655
 6467SOL     OW19528   5.659   0.861   2.394
 6467SOL    HW119529   5.713   0.937   2.371
 6467SOL    HW219530   5.698   0.789   2.346
 6468SOL     OW19531   6.476   5.807   0.397
 6468SOL    HW119532   6.509   5.850   0.476
 6468SOL    HW219533   6.540   5.829   0.330
 6469SOL     OW19534   4.357   3.370   1.639
 6469SOL    HW119535   4.437   3.418   1.659
 6469SOL    HW219536   4.311   3.425   1.576
 6470SOL     OW19537   6.477   6.981   2.259
 6470SOL    HW119538   6.399   6.974   2.203
 6470SOL    HW219539   6.473   6.903   2.315
 6471SOL     OW19540   9.012   4.351   2.448
 6471SOL    HW119541   8.972   4.425   2.402
 6471SOL    HW219542   9.043   4.293   2.378
 6472SOL     OW19543   2.085   5.759   2.756
 6472SOL    HW119544   2.133   5.701   2.697
 6472SOL    HW219545   2.060   5.703   2.830
 6473SOL     OW19546   8.231   3.890   1.669
 6473SOL    HW119547   8.183   3.915   1.591
 6473SOL    HW219548   8.164   3.853   1.727
 6474SOL     OW19549   8.146   6.826   2.152
 6474SOL    HW119550   8.229   6.780   2.161
 6474SOL    HW219551   8.082   6.757   2.131
 6475SOL     OW19552   9.253   2.787   3.288
 6475SOL    HW119553   9.202   2.837   3.224
 6475SOL    HW219554   9.262   2.847   3.363
 6476SOL     OW19555   5.377   7.497   2.584
 6476SOL    HW119556   5.425   7.423   2.545
 6476SOL    HW219557   5.393   7.488   2.678
 6477SOL     OW19558   7.784   5.136   3.540
 6477SOL    HW119559   7.731   5.169   3.612
 6477SOL    HW219560   7.874   5.155   3.564
 6478SOL     OW19561   7.337   4.955   2.333
 6478SOL    HW119562   7.262   4.929   2.279
 6478SOL    HW219563   7.309   4.934   2.422
 6479SOL     OW19564   6.340   3.025   2.360
 6479SOL    HW119565   6.322   2.932   2.346
 6479SOL    HW219566   6.431   3.028   2.387
 6480SOL     OW19567   7.310   3.252   4.342
 6480SOL    HW119568   7.319   3.170   4.390
 6480SOL    HW219569   7.389   3.301   4.362
 6481SOL     OW19570   7.177   4.661   1.098
 6481SOL    HW119571   7.252   4.662   1.157
 6481SOL    HW219572   7.107   4.704   1.147
 6482SOL     OW19573   5.948   6.233   1.217
 6482SOL    HW119574   6.038   6.257   1.197
 6482SOL    HW219575   5.908   6.215   1.132
 6483SOL     OW19576   3.003   2.109   1.073
 6483SOL    HW119577   2.967   2.123   1.160
 6483SOL    HW219578   3.021   2.015   1.068
 6484SOL     OW19579   2.728   3.363   1.131
 6484SOL    HW119580   2.656   3.317   1.089
 6484SOL    HW219581   2.802   3.351   1.072
 6485SOL     OW19582   4.760   4.709   1.174
 6485SOL    HW119583   4.811   4.761   1.236
 6485SOL    HW219584   4.783   4.745   1.088
 6486SOL     OW19585   4.878   7.217   4.231
 6486SOL    HW119586   4.897   7.248   4.319
 6486SOL    HW219587   4.891   7.294   4.176
 6487SOL     OW19588   9.355   0.485   4.206
 6487SOL    HW119589   9.361   0.463   4.299
 6487SOL    HW219590   9.366   0.401   4.161
 6488SOL     OW19591   7.352   2.861   2.632
 6488SOL    HW119592   7.266   2.853   2.671
 6488SOL    HW219593   7.405   2.904   2.699
 6489SOL     OW19594   5.075   1.242   3.240
 6489SOL    HW119595   4.994   1.212   3.281
 6489SOL    HW219596   5.093   1.177   3.172
 6490SOL     OW19597   5.500   1.588   2.048
 6490SOL    HW119598   5.487   1.581   1.954
 6490SOL    HW219599   5.517   1.498   2.077
 6491SOL     OW19600   6.557   1.935   4.667
 6491SOL    HW119601   6.645   1.956   4.698
 6491SOL    HW219602   6.513   2.020   4.661
 6492SOL     OW19603   4.121   1.406   5.121
 6492SOL    HW119604   4.135   1.371   5.033
 6492SOL    HW219605   4.039   1.366   5.150
 6493SOL     OW19606   8.407   5.030   4.200
 6493SOL    HW119607   8.425   5.098   4.265
 6493SOL    HW219608   8.448   4.951   4.234
 6494SOL     OW19609   8.438   1.464   1.739
 6494SOL    HW119610   8.518   1.517   1.741
 6494SOL    HW219611   8.470   1.374   1.733
 6495SOL     OW19612   6.063   3.546   4.746
 6495SOL    HW119613   6.023   3.478   4.800
 6495SOL    HW219614   6.109   3.498   4.677
 6496SOL     OW19615   5.539   0.791   4.273
 6496SOL    HW119616   5.473   0.859   4.291
 6496SOL    HW219617   5.511   0.751   4.191
 6497SOL     OW19618   4.476   5.256   0.283
 6497SOL    HW119619   4.567   5.236   0.304
 6497SOL    HW219620   4.463   5.218   0.196
 6498SOL     OW19621   4.261   2.780   2.892
 6498SOL    HW119622   4.239   2.872   2.882
 6498SOL    HW219623   4.211   2.752   2.968
 6499SOL     OW19624   9.631   6.359   4.116
 6499SOL    HW119625   9.575   6.380   4.191
 6499SOL    HW219626   9.718   6.387   4.143
 6500SOL     OW19627   5.063   1.543   0.673
 6500SOL    HW119628   5.085   1.450   0.669
 6500SOL    HW219629   5.102   1.580   0.594
 6501SOL     OW19630   9.241   3.142   3.634
 6501SOL    HW119631   9.194   3.225   3.626
 6501SOL    HW219632   9.291   3.133   3.553
 6502SOL     OW19633   3.979   1.163   0.708
 6502SOL    HW119634   3.939   1.078   0.728
 6502SOL    HW219635   4.073   1.150   0.725
 6503SOL     OW19636   5.930   1.505   0.692
 6503SOL    HW119637   5.910   1.423   0.647
 6503SOL    HW219638   5.994   1.480   0.759
 6504SOL     OW19639   6.242   1.902   3.108
 6504SOL    HW119640   6.147   1.891   3.107
 6504SOL    HW219641   6.274   1.830   3.163
 6505SOL     OW19642   6.112   6.764   2.129
 6505SOL    HW119643   6.189   6.757   2.073
 6505SOL    HW219644   6.039   6.777   2.069
 6506SOL     OW19645   4.008   0.588   2.652
 6506SOL    HW119646   3.984   0.508   2.605
 6506SOL    HW219647   4.046   0.557   2.734
 6507SOL     OW19648   1.760   3.940   2.441
 6507SOL    HW119649   1.824   4.008   2.418
 6507SOL    HW219650   1.720   3.972   2.522
 6508SOL     OW19651   3.025   3.230   4.166
 6508SOL    HW119652   2.948   3.263   4.213
 6508SOL    HW219653   3.092   3.297   4.180
 6509SOL     OW19654   8.799   1.524   4.715
 6509SOL    HW119655   8.705   1.510   4.704
 6509SOL    HW219656   8.807   1.566   4.800
 6510SOL     OW19657   1.411   4.363   0.296
 6510SOL    HW119658   1.392   4.429   0.229
 6510SOL    HW219659   1.495   4.326   0.269
 6511SOL     OW19660   7.545   3.176   1.407
 6511SOL    HW119661   7.500   3.092   1.400
 6511SOL    HW219662   7.638   3.155   1.392
 6512SOL     OW19663   5.223   5.708   3.756
 6512SOL    HW119664   5.213   5.801   3.774
 6512SOL    HW219665   5.136   5.671   3.769
 6513SOL     OW19666   1.676   1.529   0.115
 6513SOL    HW119667   1.602   1.583   0.088
 6513SOL    HW219668   1.707   1.489   0.033
 6514SOL     OW19669   1.890   4.728   1.418
 6514SOL    HW119670   1.893   4.664   1.489
 6514SOL    HW219671   1.911   4.812   1.460
 6515SOL     OW19672   6.550   4.365   0.517
 6515SOL    HW119673   6.613   4.357   0.589
 6515SOL    HW219674   6.469   4.392   0.559
 6516SOL     OW19675   3.391   2.268   2.571
 6516SOL    HW119676   3.468   2.227   2.611
 6516SOL    HW219677   3.337   2.195   2.543
 6517SOL     OW19678   1.828   6.013   2.018
 6517SOL    HW119679   1.854   6.069   1.945
 6517SOL    HW219680   1.838   5.924   1.984
 6518SOL     OW19681   7.496   7.293   1.900
 6518SOL    HW119682   7.443   7.222   1.937
 6518SOL    HW219683   7.437   7.369   1.902
 6519SOL     OW19684   5.410   6.276   3.445
 6519SOL    HW119685   5.362   6.197   3.470
 6519SOL    HW219686   5.499   6.245   3.429
 6520SOL     OW19687   7.888   4.288   5.046
 6520SOL    HW119688   7.975   4.286   5.086
 6520SOL    HW219689   7.854   4.375   5.066
 6521SOL     OW19690   4.936   0.326   1.225
 6521SOL    HW119691   4.933   0.381   1.147
 6521SOL    HW219692   4.853   0.342   1.269
 6522SOL     OW19693   7.968   4.015   1.845
 6522SOL    HW119694   8.014   4.085   1.799
 6522SOL    HW219695   7.991   3.936   1.797
 6523SOL     OW19696   1.905   6.623   1.495
 6523SOL    HW119697   1.973   6.610   1.561
 6523SOL    HW219698   1.824   6.630   1.545
 6524SOL     OW19699   3.876   3.525   3.772
 6524SOL    HW119700   3.945   3.536   3.838
 6524SOL    HW219701   3.797   3.507   3.823
 6525SOL     OW19702   2.263   2.986   0.115
 6525SOL    HW119703   2.323   2.915   0.090
 6525SOL    HW219704   2.243   2.968   0.207
 6526SOL     OW19705   4.413   1.498   2.852
 6526SOL    HW119706   4.493   1.462   2.890
 6526SOL    HW219707   4.342   1.460   2.904
 6527SOL     OW19708   7.953   1.591   4.537
 6527SOL    HW119709   7.952   1.533   4.461
 6527SOL    HW219710   8.045   1.597   4.562
 6528SOL     OW19711   2.737   0.968   1.051
 6528SOL    HW119712   2.658   0.939   1.007
 6528SOL    HW219713   2.806   0.912   1.016
 6529SOL     OW19714   5.878   5.891   4.229
 6529SOL    HW119715   5.824   5.968   4.245
 6529SOL    HW219716   5.949   5.897   4.293
 6530SOL     OW19717   8.236   3.421   3.968
 6530SOL    HW119718   8.227   3.472   4.049
 6530SOL    HW219719   8.151   3.377   3.958
 6531SOL     OW19720   1.419   6.493   1.026
 6531SOL    HW119721   1.340   6.506   0.974
 6531SOL    HW219722   1.454   6.581   1.040
 6532SOL     OW19723   1.186   1.868   1.073
 6532SOL    HW119724   1.175   1.811   0.997
 6532SOL    HW219725   1.236   1.942   1.041
 6533SOL     OW19726   2.400   7.061   0.833
 6533SOL    HW119727   2.312   7.038   0.803
 6533SOL    HW219728   2.388   7.145   0.878
 6534SOL     OW19729   9.570   0.343   5.026
 6534SOL    HW119730   9.584   0.362   4.933
 6534SOL    HW219731   9.576   0.429   5.068
 6535SOL     OW19732   7.998   7.281   4.167
 6535SOL    HW119733   7.989   7.290   4.072
 6535SOL    HW219734   8.092   7.293   4.183
 6536SOL     OW19735   4.441   4.290   2.713
 6536SOL    HW119736   4.355   4.314   2.676
 6536SOL    HW219737   4.436   4.319   2.804
 6537SOL     OW19738   7.040   3.104   5.250
 6537SOL    HW119739   6.960   3.100   5.198
 6537SOL    HW219740   7.018   3.164   5.322
 6538SOL     OW19741   8.851   2.063   4.491
 6538SOL    HW119742   8.860   1.974   4.458
 6538SOL    HW219743   8.797   2.054   4.570
 6539SOL     OW19744   6.684   5.124   0.928
 6539SOL    HW119745   6.759   5.065   0.928
 6539SOL    HW219746   6.712   5.199   0.981
 6540SOL     OW19747   3.173   3.874   3.898
 6540SOL    HW119748   3.260   3.880   3.858
 6540SOL    HW219749   3.184   3.911   3.985
 6541SOL     OW19750   0.877   5.716   0.961
 6541SOL    HW119751   0.837   5.775   0.897
 6541SOL    HW219752   0.822   5.724   1.039
 6542SOL     OW19753   2.048   2.829   0.939
 6542SOL    HW119754   1.978   2.764   0.935
 6542SOL    HW219755   2.127   2.778   0.955
 6543SOL     OW19756   4.577   1.286   2.664
 6543SOL    HW119757   4.483   1.296   2.649
 6543SOL    HW219758   4.599   1.202   2.624
 6544SOL     OW19759   7.531   7.287   2.724
 6544SOL    HW119760   7.608   7.300   2.668
 6544SOL    HW219761   7.555   7.329   2.807
 6545SOL     OW19762   9.275   0.276   5.044
 6545SOL    HW119763   9.369   0.257   5.039
 6545SOL    HW219764   9.238   0.203   5.093
 6546SOL     OW19765   7.938   2.890   1.544
 6546SOL    HW119766   8.003   2.848   1.600
 6546SOL    HW219767   7.924   2.977   1.584
 6547SOL     OW19768   2.388   0.143   0.356
 6547SOL    HW119769   2.349   0.096   0.282
 6547SOL    HW219770   2.461   0.192   0.317
 6548SOL     OW19771   6.818   0.176   0.636
 6548SOL    HW119772   6.751   0.113   0.609
 6548SOL    HW219773   6.850   0.142   0.720
 6549SOL     OW19774   1.422   1.583   0.421
 6549SOL    HW119775   1.478   1.609   0.494
 6549SOL    HW219776   1.430   1.655   0.358
 6550SOL     OW19777   5.144   4.214   3.910
 6550SOL    HW119778   5.082   4.287   3.915
 6550SOL    HW219779   5.227   4.251   3.942
 6551SOL     OW19780   1.477   3.522   0.519
 6551SOL    HW119781   1.506   3.478   0.439
 6551SOL    HW219782   1.391   3.483   0.538
 6552SOL     OW19783   3.590   3.763   4.531
 6552SOL    HW119784   3.618   3.674   4.512
 6552SOL    HW219785   3.652   3.819   4.484
 6553SOL     OW19786   7.603   3.416   2.996
 6553SOL    HW119787   7.658   3.492   3.015
 6553SOL    HW219788   7.529   3.424   3.056
 6554SOL     OW19789   9.645   4.053   4.348
 6554SOL    HW119790   9.737   4.038   4.368
 6554SOL    HW219791   9.626   3.991   4.277
 6555SOL     OW19792   3.879   0.643   4.068
 6555SOL    HW119793   3.820   0.583   4.115
 6555SOL    HW219794   3.963   0.598   4.066
 6556SOL     OW19795   6.820   5.730   2.468
 6556SOL    HW119796   6.842   5.688   2.385
 6556SOL    HW219797   6.755   5.672   2.507
 6557SOL     OW19798   8.340   2.581   3.089
 6557SOL    HW119799   8.255   2.616   3.116
 6557SOL    HW219800   8.388   2.657   3.055
 6558SOL     OW19801   1.556   0.456   1.116
 6558SOL    HW119802   1.463   0.467   1.136
 6558SOL    HW219803   1.598   0.446   1.201
 6559SOL     OW19804   7.638   6.023   0.440
 6559SOL    HW119805   7.664   5.931   0.449
 6559SOL    HW219806   7.683   6.068   0.512
 6560SOL     OW19807   2.115   0.966   1.200
 6560SOL    HW119808   2.021   0.970   1.214
 6560SOL    HW219809   2.134   0.873   1.187
 6561SOL     OW19810   5.600   5.318   4.236
 6561SOL    HW119811   5.602   5.237   4.184
 6561SOL    HW219812   5.656   5.299   4.311
 6562SOL     OW19813   6.618   6.526   5.195
 6562SOL    HW119814   6.627   6.433   5.217
 6562SOL    HW219815   6.708   6.558   5.194
 6563SOL     OW19816   4.526   4.175   1.080
 6563SOL    HW119817   4.617   4.148   1.063
 6563SOL    HW219818   4.501   4.225   1.003
 6564SOL     OW19819   7.130   0.699   3.023
 6564SOL    HW119820   7.219   0.734   3.029
 6564SOL    HW219821   7.089   0.749   2.953
 6565SOL     OW19822   1.494   2.205   1.924
 6565SOL    HW119823   1.449   2.281   1.886
 6565SOL    HW219824   1.424   2.155   1.967
 6566SOL     OW19825   7.378   0.564   1.004
 6566SOL    HW119826   7.437   0.489   0.995
 6566SOL    HW219827   7.328   0.546   1.083
 6567SOL     OW19828   4.792   5.694   2.646
 6567SOL    HW119829   4.789   5.715   2.739
 6567SOL    HW219830   4.854   5.621   2.640
 6568SOL     OW19831   3.675   2.291   4.304
 6568SOL    HW119832   3.603   2.254   4.254
 6568SOL    HW219833   3.653   2.273   4.396
 6569SOL     OW19834   4.813   5.371   2.343
 6569SOL    HW119835   4.851   5.341   2.261
 6569SOL    HW219836   4.888   5.391   2.398
 6570SOL     OW19837   5.058   0.853   4.495
 6570SOL    HW119838   5.022   0.933   4.536
 6570SOL    HW219839   5.009   0.782   4.537
 6571SOL     OW19840   4.863   1.443   0.866
 6571SOL    HW119841   4.768   1.452   0.860
 6571SOL    HW219842   4.895   1.477   0.783
 6572SOL     OW19843   6.440   0.712   4.338
 6572SOL    HW119844   6.384   0.741   4.266
 6572SOL    HW219845   6.474   0.794   4.376
 6573SOL     OW19846  10.149   7.044   5.010
 6573SOL    HW119847  10.097   7.117   5.045
 6573SOL    HW219848  10.174   7.073   4.922
 6574SOL     OW19849   5.422   3.720   4.883
 6574SOL    HW119850   5.419   3.721   4.978
 6574SOL    HW219851   5.331   3.709   4.856
 6575SOL     OW19852   2.115   6.089   1.139
 6575SOL    HW119853   2.061   6.154   1.184
 6575SOL    HW219854   2.163   6.044   1.208
 6576SOL     OW19855   4.792   4.238   3.102
 6576SOL    HW119856   4.717   4.186   3.074
 6576SOL    HW219857   4.800   4.219   3.196
 6577SOL     OW19858   5.621   2.881   0.852
 6577SOL    HW119859   5.694   2.832   0.815
 6577SOL    HW219860   5.636   2.879   0.946
 6578SOL     OW19861   2.458   6.329   0.375
 6578SOL    HW119862   2.393   6.272   0.333
 6578SOL    HW219863   2.535   6.273   0.388
 6579SOL     OW19864   1.726   1.025   1.627
 6579SOL    HW119865   1.646   1.032   1.678
 6579SOL    HW219866   1.778   1.101   1.654
 6580SOL     OW19867   6.565   7.062   4.647
 6580SOL    HW119868   6.521   7.049   4.730
 6580SOL    HW219869   6.628   7.133   4.663
 6581SOL     OW19870   7.050   6.951   2.713
 6581SOL    HW119871   7.142   6.952   2.740
 6581SOL    HW219872   7.036   7.037   2.674
 6582SOL     OW19873   3.594   1.560   2.506
 6582SOL    HW119874   3.522   1.499   2.524
 6582SOL    HW219875   3.654   1.549   2.580
 6583SOL     OW19876   2.775   4.944   0.281
 6583SOL    HW119877   2.744   4.989   0.359
 6583SOL    HW219878   2.745   4.998   0.208
 6584SOL     OW19879   5.857   6.475   3.589
 6584SOL    HW119880   5.774   6.444   3.554
 6584SOL    HW219881   5.834   6.547   3.648
 6585SOL     OW19882   1.896   4.074   1.301
 6585SOL    HW119883   1.965   4.133   1.332
 6585SOL    HW219884   1.852   4.045   1.381
 6586SOL     OW19885   8.090   7.016   4.154
 6586SOL    HW119886   8.107   6.994   4.062
 6586SOL    HW219887   8.029   7.089   4.150
 6587SOL     OW19888   4.404   2.970   3.895
 6587SOL    HW119889   4.495   2.978   3.924
 6587SOL    HW219890   4.377   2.883   3.924
 6588SOL     OW19891   4.205   0.744   0.046
 6588SOL    HW119892   4.292   0.784   0.043
 6588SOL    HW219893   4.202   0.700   0.131
 6589SOL     OW19894   6.874   5.853   3.575
 6589SOL    HW119895   6.927   5.911   3.629
 6589SOL    HW219896   6.930   5.776   3.561
 6590SOL     OW19897   7.042   5.258   1.302
 6590SOL    HW119898   7.091   5.293   1.228
 6590SOL    HW219899   6.989   5.331   1.333
 6591SOL     OW19900   2.502   5.886   2.893
 6591SOL    HW119901   2.586   5.931   2.907
 6591SOL    HW219902   2.441   5.957   2.872
 6592SOL     OW19903   8.029   5.005   1.872
 6592SOL    HW119904   7.939   5.038   1.864
 6592SOL    HW219905   8.021   4.932   1.933
 6593SOL     OW19906  10.025   1.610   4.706
 6593SOL    HW119907  10.098   1.592   4.647
 6593SOL    HW219908   9.950   1.625   4.648
 6594SOL     OW19909   2.076   0.769   2.234
 6594SOL    HW119910   2.041   0.858   2.229
 6594SOL    HW219911   2.029   0.729   2.308
 6595SOL     OW19912   3.894   6.404   3.149
 6595SOL    HW119913   3.982   6.410   3.113
 6595SOL    HW219914   3.843   6.361   3.080
 6596SOL     OW19915   6.291   4.561   0.033
 6596SOL    HW119916   6.314   4.489  -0.026
 6596SOL    HW219917   6.349   4.550   0.109
 6597SOL     OW19918   7.647   0.154   3.186
 6597SOL    HW119919   7.613   0.111   3.107
 6597SOL    HW219920   7.589   0.229   3.199
 6598SOL     OW19921   9.190   1.711   4.135
 6598SOL    HW119922   9.263   1.653   4.114
 6598SOL    HW219923   9.114   1.671   4.093
 6599SOL     OW19924   4.387   6.361   4.504
 6599SOL    HW119925   4.354   6.403   4.425
 6599SOL    HW219926   4.389   6.267   4.483
 6600SOL     OW19927   1.504   5.751   1.147
 6600SOL    HW119928   1.522   5.692   1.074
 6600SOL    HW219929   1.430   5.711   1.193
 6601SOL     OW19930   5.773   1.818   3.067
 6601SOL    HW119931   5.713   1.875   3.115
 6601SOL    HW219932   5.721   1.788   2.992
 6602SOL     OW19933   5.793   1.937   1.346
 6602SOL    HW119934   5.749   1.973   1.423
 6602SOL    HW219935   5.883   1.971   1.351
 6603SOL     OW19936   7.457   3.726   0.130
 6603SOL    HW119937   7.498   3.746   0.045
 6603SOL    HW219938   7.383   3.670   0.108
 6604SOL     OW19939   5.784   7.166   2.772
 6604SOL    HW119940   5.688   7.158   2.764
 6604SOL    HW219941   5.814   7.171   2.681
 6605SOL     OW19942   4.802   1.742   2.224
 6605SOL    HW119943   4.721   1.766   2.179
 6605SOL    HW219944   4.860   1.712   2.155
 6606SOL     OW19945   1.149   2.847   0.515
 6606SOL    HW119946   1.080   2.911   0.530
 6606SOL    HW219947   1.229   2.899   0.511
 6607SOL     OW19948   3.363   6.122   3.744
 6607SOL    HW119949   3.343   6.197   3.800
 6607SOL    HW219950   3.318   6.048   3.786
 6608SOL     OW19951   3.873   0.955   0.052
 6608SOL    HW119952   3.851   0.945  -0.041
 6608SOL    HW219953   3.808   1.018   0.085
 6609SOL     OW19954   7.043   4.774   3.436
 6609SOL    HW119955   6.975   4.820   3.485
 6609SOL    HW219956   7.062   4.832   3.362
 6610SOL     OW19957   4.105   0.897   4.192
 6610SOL    HW119958   4.012   0.887   4.172
 6610SOL    HW219959   4.110   0.979   4.240
 6611SOL     OW19960   3.578   1.442   2.170
 6611SOL    HW119961   3.572   1.537   2.162
 6611SOL    HW219962   3.665   1.420   2.136
 6612SOL     OW19963   6.504   3.015   3.961
 6612SOL    HW119964   6.505   3.098   4.009
 6612SOL    HW219965   6.590   2.977   3.978
 6613SOL     OW19966   4.067   3.217   3.668
 6613SOL    HW119967   4.088   3.132   3.708
 6613SOL    HW219968   4.142   3.272   3.688
 6614SOL     OW19969   3.590   2.543   2.757
 6614SOL    HW119970   3.629   2.625   2.790
 6614SOL    HW219971   3.661   2.479   2.764
 6615SOL     OW19972   5.120   6.825   3.254
 6615SOL    HW119973   5.172   6.871   3.188
 6615SOL    HW219974   5.146   6.733   3.246
 6616SOL     OW19975   4.020   2.280   1.912
 6616SOL    HW119976   4.057   2.319   1.991
 6616SOL    HW219977   4.055   2.333   1.840
 6617SOL     OW19978   4.036   5.759   1.171
 6617SOL    HW119979   3.955   5.810   1.168
 6617SOL    HW219980   4.099   5.811   1.120
 6618SOL     OW19981   4.024   4.867   2.102
 6618SOL    HW119982   3.990   4.876   2.191
 6618SOL    HW219983   3.949   4.837   2.051
 6619SOL     OW19984   7.275   7.101   2.677
 6619SOL    HW119985   7.360   7.140   2.697
 6619SOL    HW219986   7.214   7.175   2.675
 6620SOL     OW19987   8.050   5.604   4.438
 6620SOL    HW119988   8.105   5.562   4.505
 6620SOL    HW219989   7.964   5.564   4.450
 6621SOL     OW19990   3.444   1.011   2.926
 6621SOL    HW119991   3.482   1.090   2.964
 6621SOL    HW219992   3.356   1.037   2.899
 6622SOL     OW19993   6.496   0.972   4.729
 6622SOL    HW119994   6.544   0.915   4.668
 6622SOL    HW219995   6.483   0.917   4.806
 6623SOL     OW19996   1.281   4.682   1.405
 6623SOL    HW119997   1.302   4.769   1.371
 6623SOL    HW219998   1.355   4.660   1.462
 6624SOL     OW19999   5.980   1.062   4.724
 6624SOL    HW120000   6.006   1.005   4.796
 6624SOL    HW220001   5.886   1.044   4.713
 6625SOL     OW20002   3.706   4.751   4.854
 6625SOL    HW120003   3.765   4.693   4.902
 6625SOL    HW220004   3.626   4.700   4.844
 6626SOL     OW20005   9.207   6.279   4.137
 6626SOL    HW120006   9.242   6.317   4.217
 6626SOL    HW220007   9.140   6.218   4.167
 6627SOL     OW20008   4.150   0.595   5.036
 6627SOL    HW120009   4.231   0.617   5.082
 6627SOL    HW220010   4.099   0.547   5.101
 6628SOL     OW20011   6.561   0.930   0.442
 6628SOL    HW120012   6.524   0.921   0.530
 6628SOL    HW220013   6.645   0.973   0.456
 6629SOL     OW20014   4.625   1.766   4.629
 6629SOL    HW120015   4.550   1.803   4.581
 6629SOL    HW220016   4.697   1.826   4.609
 6630SOL     OW20017   6.270   2.542   3.510
 6630SOL    HW120018   6.242   2.455   3.480
 6630SOL    HW220019   6.200   2.572   3.568
 6631SOL     OW20020   6.004   0.072   4.118
 6631SOL    HW120021   5.917   0.111   4.105
 6631SOL    HW220022   5.992  -0.020   4.094
 6632SOL     OW20023   5.443   2.436   0.428
 6632SOL    HW120024   5.386   2.454   0.502
 6632SOL    HW220025   5.447   2.341   0.423
 6633SOL     OW20026   2.743   3.553   2.795
 6633SOL    HW120027   2.796   3.594   2.726
 6633SOL    HW220028   2.748   3.459   2.776
 6634SOL     OW20029   8.218   4.030   4.636
 6634SOL    HW120030   8.220   4.020   4.541
 6634SOL    HW220031   8.196   3.942   4.669
 6635SOL     OW20032   1.602   4.261   1.470
 6635SOL    HW120033   1.662   4.294   1.403
 6635SOL    HW220034   1.636   4.295   1.552
 6636SOL     OW20035   2.868   2.090   2.023
 6636SOL    HW120036   2.948   2.067   1.976
 6636SOL    HW220037   2.871   2.185   2.030
 6637SOL     OW20038   6.113   4.474   2.161
 6637SOL    HW120039   6.019   4.486   2.167
 6637SOL    HW220040   6.134   4.487   2.069
 6638SOL     OW20041   2.257   5.077   1.288
 6638SOL    HW120042   2.343   5.045   1.314
 6638SOL    HW220043   2.273   5.166   1.257
 6639SOL     OW20044   9.834   0.259   4.473
 6639SOL    HW120045   9.883   0.180   4.495
 6639SOL    HW220046   9.880   0.330   4.516
 6640SOL     OW20047   7.241   0.732   2.032
 6640SOL    HW120048   7.304   0.666   2.061
 6640SOL    HW220049   7.167   0.682   1.998
 6641SOL     OW20050   4.145   6.762   2.874
 6641SOL    HW120051   4.141   6.748   2.968
 6641SOL    HW220052   4.216   6.705   2.844
 6642SOL     OW20053   6.354   6.309   2.081
 6642SOL    HW120054   6.319   6.370   2.147
 6642SOL    HW220055   6.325   6.346   1.997
 6643SOL     OW20056   3.723   4.944   1.283
 6643SOL    HW120057   3.804   4.941   1.232
 6643SOL    HW220058   3.655   4.962   1.218
 6644SOL     OW20059   9.679   2.046   4.676
 6644SOL    HW120060   9.628   2.005   4.746
 6644SOL    HW220061   9.613   2.085   4.619
 6645SOL     OW20062   4.543   0.070   1.301
 6645SOL    HW120063   4.503   0.015   1.368
 6645SOL    HW220064   4.527   0.024   1.219
 6646SOL     OW20065   2.250   0.727   0.933
 6646SOL    HW120066   2.276   0.751   1.022
 6646SOL    HW220067   2.154   0.725   0.935
 6647SOL     OW20068   8.775   6.140   3.455
 6647SOL    HW120069   8.769   6.052   3.417
 6647SOL    HW220070   8.716   6.137   3.531
 6648SOL     OW20071   8.588   4.177   2.995
 6648SOL    HW120072   8.556   4.125   3.069
 6648SOL    HW220073   8.595   4.266   3.029
 6649SOL     OW20074   4.205   2.342   4.318
 6649SOL    HW120075   4.298   2.329   4.299
 6649SOL    HW220076   4.165   2.257   4.300
 6650SOL     OW20077   5.000   1.943   2.991
 6650SOL    HW120078   5.019   2.033   3.016
 6650SOL    HW220079   4.911   1.947   2.954
 6651SOL     OW20080   1.013   6.975   0.848
 6651SOL    HW120081   1.101   6.982   0.885
 6651SOL    HW220082   0.955   6.986   0.924
 6652SOL     OW20083   6.844   4.474   0.547
 6652SOL    HW120084   6.766   4.529   0.547
 6652SOL    HW220085   6.836   4.421   0.468
 6653SOL     OW20086   3.317   3.106   4.213
 6653SOL    HW120087   3.283   3.158   4.286
 6653SOL    HW220088   3.278   3.146   4.135
 6654SOL     OW20089   3.896   3.975   2.453
 6654SOL    HW120090   3.869   3.965   2.361
 6654SOL    HW220091   3.878   3.890   2.493
 6655SOL     OW20092   8.645   1.515   5.228
 6655SOL    HW120093   8.691   1.437   5.198
 6655SOL    HW220094   8.643   1.506   5.323
 6656SOL     OW20095   7.913   1.179   4.235
 6656SOL    HW120096   7.834   1.161   4.285
 6656SOL    HW220097   7.956   1.094   4.225
 6657SOL     OW20098   9.539   0.577   5.180
 6657SOL    HW120099   9.513   0.660   5.140
 6657SOL    HW220100   9.471   0.559   5.245
 6658SOL     OW20101   3.345   0.594   1.773
 6658SOL    HW120102   3.440   0.590   1.777
 6658SOL    HW220103   3.327   0.642   1.692
 6659SOL     OW20104   4.382   6.669   0.156
 6659SOL    HW120105   4.309   6.682   0.215
 6659SOL    HW220106   4.437   6.747   0.167
 6660SOL     OW20107   7.159   3.477   3.551
 6660SOL    HW120108   7.094   3.414   3.583
 6660SOL    HW220109   7.223   3.483   3.622
 6661SOL     OW20110   9.041   2.107   3.545
 6661SOL    HW120111   9.061   2.159   3.468
 6661SOL    HW220112   9.034   2.171   3.616
 6662SOL     OW20113   9.734   5.420   4.959
 6662SOL    HW120114   9.736   5.514   4.977
 6662SOL    HW220115   9.821   5.388   4.987
 6663SOL     OW20116   7.046   0.704   3.566
 6663SOL    HW120117   7.131   0.660   3.570
 6663SOL    HW220118   7.067   0.798   3.564
 6664SOL     OW20119  10.525   1.508   4.695
 6664SOL    HW120120  10.620   1.509   4.704
 6664SOL    HW220121  10.503   1.416   4.680
 6665SOL     OW20122   1.689   3.654   0.065
 6665SOL    HW120123   1.594   3.665   0.055
 6665SOL    HW220124   1.699   3.614   0.152
 6666SOL     OW20125   7.913   4.035   2.829
 6666SOL    HW120126   7.875   3.977   2.762
 6666SOL    HW220127   7.863   4.117   2.820
 6667SOL     OW20128   7.978   2.727   2.227
 6667SOL    HW120129   7.970   2.692   2.316
 6667SOL    HW220130   7.888   2.732   2.195
 6668SOL     OW20131   1.363   3.771   0.392
 6668SOL    HW120132   1.406   3.713   0.455
 6668SOL    HW220133   1.270   3.765   0.413
 6669SOL     OW20134   3.649   5.499   1.662
 6669SOL    HW120135   3.705   5.449   1.602
 6669SOL    HW220136   3.675   5.590   1.649
 6670SOL     OW20137   6.978   7.465   2.201
 6670SOL    HW120138   6.935   7.442   2.283
 6670SOL    HW220139   7.065   7.496   2.227
 6671SOL     OW20140   3.732   0.065   4.112
 6671SOL    HW120141   3.703   0.095   4.198
 6671SOL    HW220142   3.660   0.009   4.081
 6672SOL     OW20143   2.736   0.804   3.811
 6672SOL    HW120144   2.823   0.774   3.835
 6672SOL    HW220145   2.677   0.755   3.868
 6673SOL     OW20146   0.822   0.804   0.189
 6673SOL    HW120147   0.730   0.788   0.169
 6673SOL    HW220148   0.869   0.780   0.109
 6674SOL     OW20149  10.885   5.082   5.036
 6674SOL    HW120150  10.930   4.997   5.036
 6674SOL    HW220151  10.951   5.145   5.064
 6675SOL     OW20152   9.413   1.247   4.610
 6675SOL    HW120153   9.494   1.206   4.580
 6675SOL    HW220154   9.410   1.331   4.564
 6676SOL     OW20155   3.342   2.276   3.965
 6676SOL    HW120156   3.357   2.199   3.910
 6676SOL    HW220157   3.353   2.245   4.054
 6677SOL     OW20158   4.530   2.815   0.671
 6677SOL    HW120159   4.620   2.806   0.702
 6677SOL    HW220160   4.497   2.893   0.717
 6678SOL     OW20161   8.040   3.709   4.193
 6678SOL    HW120162   8.073   3.794   4.164
 6678SOL    HW220163   8.016   3.722   4.284
 6679SOL     OW20164   9.282   1.716   4.688
 6679SOL    HW120165   9.283   1.633   4.640
 6679SOL    HW220166   9.251   1.692   4.775
 6680SOL     OW20167   7.053   3.199   0.860
 6680SOL    HW120168   7.017   3.126   0.809
 6680SOL    HW220169   7.076   3.265   0.795
 6681SOL     OW20170   9.091   1.203   4.400
 6681SOL    HW120171   9.073   1.285   4.355
 6681SOL    HW220172   9.150   1.156   4.341
 6682SOL     OW20173   3.388   6.778   4.222
 6682SOL    HW120174   3.366   6.865   4.190
 6682SOL    HW220175   3.333   6.719   4.170
 6683SOL     OW20176   0.975   1.590   0.429
 6683SOL    HW120177   1.018   1.586   0.343
 6683SOL    HW220178   0.886   1.618   0.411
 6684SOL     OW20179   3.408   3.049   4.497
 6684SOL    HW120180   3.376   2.978   4.441
 6684SOL    HW220181   3.503   3.034   4.504
 6685SOL     OW20182   5.457   6.794   5.260
 6685SOL    HW120183   5.502   6.738   5.196
 6685SOL    HW220184   5.371   6.811   5.221
 6686SOL     OW20185   4.614   3.994   3.112
 6686SOL    HW120186   4.529   3.951   3.113
 6686SOL    HW220187   4.662   3.955   3.186
 6687SOL     OW20188   5.564   2.613   1.564
 6687SOL    HW120189   5.528   2.692   1.605
 6687SOL    HW220190   5.633   2.645   1.507
 6688SOL     OW20191   1.854   0.805   1.512
 6688SOL    HW120192   1.844   0.829   1.419
 6688SOL    HW220193   1.836   0.886   1.559
 6689SOL     OW20194   2.837   3.295   0.383
 6689SOL    HW120195   2.928   3.319   0.370
 6689SOL    HW220196   2.820   3.226   0.319
 6690SOL     OW20197   5.182   3.115   3.481
 6690SOL    HW120198   5.165   3.169   3.404
 6690SOL    HW220199   5.245   3.166   3.532
 6691SOL     OW20200   1.276   6.529   1.301
 6691SOL    HW120201   1.287   6.435   1.312
 6691SOL    HW220202   1.182   6.544   1.311
 6692SOL     OW20203   5.929   5.935   3.776
 6692SOL    HW120204   6.024   5.935   3.783
 6692SOL    HW220205   5.908   5.851   3.733
 6693SOL     OW20206   7.505   1.217   2.557
 6693SOL    HW120207   7.511   1.256   2.470
 6693SOL    HW220208   7.511   1.291   2.617
 6694SOL     OW20209   9.090   1.517   4.594
 6694SOL    HW120210   9.074   1.515   4.499
 6694SOL    HW220211   9.017   1.568   4.629
 6695SOL     OW20212   8.162   4.305   2.821
 6695SOL    HW120213   8.094   4.367   2.847
 6695SOL    HW220214   8.244   4.355   2.828
 6696SOL     OW20215   7.014   0.325   0.525
 6696SOL    HW120216   6.948   0.303   0.591
 6696SOL    HW220217   7.039   0.241   0.487
 6697SOL     OW20218   9.520   1.872   3.461
 6697SOL    HW120219   9.553   1.960   3.478
 6697SOL    HW220220   9.598   1.820   3.442
 6698SOL     OW20221   9.133  -0.006   4.899
 6698SOL    HW120222   9.147   0.085   4.873
 6698SOL    HW220223   9.214  -0.031   4.945
 6699SOL     OW20224   8.627   0.770   4.627
 6699SOL    HW120225   8.641   0.864   4.635
 6699SOL    HW220226   8.650   0.735   4.713
 6700SOL     OW20227   4.856   7.460   3.461
 6700SOL    HW120228   4.832   7.374   3.426
 6700SOL    HW220229   4.924   7.441   3.526
 6701SOL     OW20230   6.421   0.558   0.787
 6701SOL    HW120231   6.378   0.499   0.849
 6701SOL    HW220232   6.353   0.622   0.764
 6702SOL     OW20233   7.368   0.871   2.982
 6702SOL    HW120234   7.426   0.892   2.909
 6702SOL    HW220235   7.287   0.918   2.963
 6703SOL     OW20236   9.327   1.768   3.601
 6703SOL    HW120237   9.386   1.833   3.564
 6703SOL    HW220238   9.381   1.690   3.612
 6704SOL     OW20239   3.766   0.692   0.970
 6704SOL    HW120240   3.822   0.617   0.990
 6704SOL    HW220241   3.795   0.722   0.884
 6705SOL     OW20242   3.744   0.323   1.986
 6705SOL    HW120243   3.833   0.312   2.021
 6705SOL    HW220244   3.689   0.270   2.045
 6706SOL     OW20245   4.399   5.108   4.587
 6706SOL    HW120246   4.410   5.138   4.497
 6706SOL    HW220247   4.326   5.047   4.584
 6707SOL     OW20248   5.833   3.225   1.559
 6707SOL    HW120249   5.868   3.307   1.594
 6707SOL    HW220250   5.884   3.210   1.479
 6708SOL     OW20251   7.842   3.702   1.497
 6708SOL    HW120252   7.923   3.653   1.508
 6708SOL    HW220253   7.796   3.657   1.426
 6709SOL     OW20254   6.131   6.115   2.117
 6709SOL    HW120255   6.143   6.146   2.027
 6709SOL    HW220256   6.216   6.078   2.141
 6710SOL     OW20257   2.727   3.560   3.072
 6710SOL    HW120258   2.735   3.558   2.976
 6710SOL    HW220259   2.634   3.575   3.088
 6711SOL     OW20260   4.200   6.479   1.785
 6711SOL    HW120261   4.237   6.523   1.861
 6711SOL    HW220262   4.238   6.526   1.710
 6712SOL     OW20263   7.573   2.531   3.469
 6712SOL    HW120264   7.552   2.447   3.429
 6712SOL    HW220265   7.663   2.523   3.499
 6713SOL     OW20266   3.316   3.444   1.286
 6713SOL    HW120267   3.306   3.533   1.318
 6713SOL    HW220268   3.306   3.452   1.191
 6714SOL     OW20269   8.705   3.215   5.102
 6714SOL    HW120270   8.667   3.298   5.130
 6714SOL    HW220271   8.649   3.148   5.142
 6715SOL     OW20272   4.369   2.435   1.014
 6715SOL    HW120273   4.368   2.403   0.924
 6715SOL    HW220274   4.460   2.425   1.042
 6716SOL     OW20275   8.990   4.790   3.580
 6716SOL    HW120276   9.044   4.764   3.505
 6716SOL    HW220277   8.951   4.873   3.555
 6717SOL     OW20278   6.153   4.826   4.905
 6717SOL    HW120279   6.192   4.759   4.849
 6717SOL    HW220280   6.190   4.909   4.873
 6718SOL     OW20281   7.293   1.341   2.304
 6718SOL    HW120282   7.339   1.341   2.220
 6718SOL    HW220283   7.206   1.376   2.283
 6719SOL     OW20284   6.483   0.276   0.075
 6719SOL    HW120285   6.559   0.288   0.132
 6719SOL    HW220286   6.418   0.234   0.130
 6720SOL     OW20287   1.893   0.504   0.780
 6720SOL    HW120288   1.855   0.418   0.763
 6720SOL    HW220289   1.981   0.485   0.814
 6721SOL     OW20290   4.489   3.373   3.296
 6721SOL    HW120291   4.442   3.423   3.362
 6721SOL    HW220292   4.558   3.433   3.265
 6722SOL     OW20293   5.768   5.890   0.538
 6722SOL    HW120294   5.711   5.813   0.533
 6722SOL    HW220295   5.721   5.950   0.596
 6723SOL     OW20296   1.867   4.435   0.076
 6723SOL    HW120297   1.871   4.519   0.121
 6723SOL    HW220298   1.911   4.451  -0.008
 6724SOL     OW20299   8.555   4.620   1.752
 6724SOL    HW120300   8.537   4.548   1.813
 6724SOL    HW220301   8.533   4.583   1.666
 6725SOL     OW20302   4.256   5.846   2.519
 6725SOL    HW120303   4.224   5.928   2.557
 6725SOL    HW220304   4.302   5.873   2.440
 6726SOL     OW20305  10.378   6.557   4.993
 6726SOL    HW120306  10.302   6.525   5.042
 6726SOL    HW220307  10.342   6.584   4.909
 6727SOL     OW20308   3.450   7.105   1.758
 6727SOL    HW120309   3.465   7.131   1.667
 6727SOL    HW220310   3.469   7.184   1.809
 6728SOL     OW20311   4.773   1.166   3.330
 6728SOL    HW120312   4.768   1.260   3.315
 6728SOL    HW220313   4.725   1.152   3.412
 6729SOL     OW20314   2.264   5.883   0.950
 6729SOL    HW120315   2.227   5.962   0.909
 6729SOL    HW220316   2.345   5.913   0.990
 6730SOL     OW20317   3.759   4.011   2.190
 6730SOL    HW120318   3.753   3.992   2.097
 6730SOL    HW220319   3.668   4.025   2.218
 6731SOL     OW20320   9.691   3.516   4.812
 6731SOL    HW120321   9.607   3.564   4.816
 6731SOL    HW220322   9.666   3.424   4.819
 6732SOL     OW20323   7.310   0.733   3.679
 6732SOL    HW120324   7.263   0.712   3.760
 6732SOL    HW220325   7.363   0.809   3.700
 6733SOL     OW20326   4.403   5.570   3.682
 6733SOL    HW120327   4.459   5.539   3.754
 6733SOL    HW220328   4.446   5.651   3.653
 6734SOL     OW20329   5.785   3.887   5.056
 6734SOL    HW120330   5.854   3.953   5.043
 6734SOL    HW220331   5.704   3.938   5.060
 6735SOL     OW20332   5.666   6.465   2.859
 6735SOL    HW120333   5.613   6.478   2.938
 6735SOL    HW220334   5.607   6.486   2.787
 6736SOL     OW20335   8.845   5.032   3.500
 6736SOL    HW120336   8.895   5.016   3.419
 6736SOL    HW220337   8.757   5.002   3.480
 6737SOL     OW20338   5.858   6.210   3.866
 6737SOL    HW120339   5.916   6.173   3.800
 6737SOL    HW220340   5.895   6.181   3.950
 6738SOL     OW20341   2.577   6.878   0.084
 6738SOL    HW120342   2.595   6.874   0.178
 6738SOL    HW220343   2.591   6.789   0.053
 6739SOL     OW20344   3.128   1.868   4.082
 6739SOL    HW120345   3.131   1.799   4.148
 6739SOL    HW220346   3.065   1.931   4.116
 6740SOL     OW20347   6.901   5.803   4.794
 6740SOL    HW120348   6.913   5.720   4.749
 6740SOL    HW220349   6.923   5.870   4.728
 6741SOL     OW20350   6.390   5.029   1.165
 6741SOL    HW120351   6.418   4.938   1.156
 6741SOL    HW220352   6.458   5.071   1.218
 6742SOL     OW20353   5.405   7.203   0.654
 6742SOL    HW120354   5.368   7.278   0.700
 6742SOL    HW220355   5.481   7.238   0.607
 6743SOL     OW20356   4.992   5.494   3.496
 6743SOL    HW120357   5.055   5.562   3.472
 6743SOL    HW220358   5.036   5.443   3.564
 6744SOL     OW20359   3.112   5.229   2.019
 6744SOL    HW120360   3.184   5.288   1.995
 6744SOL    HW220361   3.037   5.287   2.031
 6745SOL     OW20362   2.391   2.723   3.249
 6745SOL    HW120363   2.461   2.788   3.244
 6745SOL    HW220364   2.357   2.717   3.160
 6746SOL     OW20365   2.106   1.287   2.459
 6746SOL    HW120366   2.048   1.289   2.534
 6746SOL    HW220367   2.047   1.290   2.383
 6747SOL     OW20368   5.603   7.290   4.909
 6747SOL    HW120369   5.544   7.254   4.976
 6747SOL    HW220370   5.547   7.301   4.832
 6748SOL     OW20371   6.181   5.633   4.886
 6748SOL    HW120372   6.216   5.722   4.888
 6748SOL    HW220373   6.211   5.593   4.968
 6749SOL     OW20374   3.784   2.288   0.010
 6749SOL    HW120375   3.819   2.375   0.031
 6749SOL    HW220376   3.857   2.228   0.026
 6750SOL     OW20377   5.838   5.779   4.721
 6750SOL    HW120378   5.752   5.805   4.753
 6750SOL    HW220379   5.860   5.701   4.771
 6751SOL     OW20380   8.047   2.088   2.439
 6751SOL    HW120381   8.096   2.027   2.493
 6751SOL    HW220382   8.025   2.039   2.360
 6752SOL     OW20383   9.153   3.318   4.053
 6752SOL    HW120384   9.107   3.245   4.011
 6752SOL    HW220385   9.120   3.396   4.008
 6753SOL     OW20386   5.626   7.037   3.605
 6753SOL    HW120387   5.623   7.055   3.699
 6753SOL    HW220388   5.566   6.963   3.593
 6754SOL     OW20389   9.409   4.289   3.164
 6754SOL    HW120390   9.349   4.286   3.090
 6754SOL    HW220391   9.366   4.345   3.229
 6755SOL     OW20392   5.176   0.487   0.253
 6755SOL    HW120393   5.103   0.522   0.304
 6755SOL    HW220394   5.158   0.393   0.246
 6756SOL     OW20395   4.635   4.863   0.964
 6756SOL    HW120396   4.600   4.778   0.992
 6756SOL    HW220397   4.692   4.841   0.890
 6757SOL     OW20398   4.489   6.416   0.019
 6757SOL    HW120399   4.455   6.480   0.082
 6757SOL    HW220400   4.411   6.372  -0.015
 6758SOL     OW20401   5.146   1.797   1.948
 6758SOL    HW120402   5.215   1.834   2.003
 6758SOL    HW220403   5.183   1.794   1.860
 6759SOL     OW20404   4.993   0.631   5.248
 6759SOL    HW120405   4.948   0.641   5.164
 6759SOL    HW220406   4.978   0.714   5.294
 6760SOL     OW20407   7.394   5.477   0.235
 6760SOL    HW120408   7.339   5.414   0.188
 6760SOL    HW220409   7.483   5.455   0.209
 6761SOL     OW20410   3.226   2.865   3.994
 6761SOL    HW120411   3.252   2.781   3.957
 6761SOL    HW220412   3.306   2.900   4.032
 6762SOL     OW20413   7.092   7.275   2.945
 6762SOL    HW120414   7.027   7.339   2.973
 6762SOL    HW220415   7.041   7.205   2.904
 6763SOL     OW20416   5.335   2.308   2.642
 6763SOL    HW120417   5.281   2.294   2.564
 6763SOL    HW220418   5.376   2.393   2.629
 6764SOL     OW20419   4.681   2.223   2.926
 6764SOL    HW120420   4.681   2.129   2.909
 6764SOL    HW220421   4.596   2.254   2.896
 6765SOL     OW20422   2.807   0.856   0.571
 6765SOL    HW120423   2.827   0.798   0.645
 6765SOL    HW220424   2.856   0.936   0.589
 6766SOL     OW20425   4.978   3.607   3.095
 6766SOL    HW120426   4.985   3.589   3.002
 6766SOL    HW220427   4.924   3.536   3.130
 6767SOL     OW20428   4.802   4.176   0.443
 6767SOL    HW120429   4.755   4.118   0.504
 6767SOL    HW220430   4.735   4.239   0.414
 6768SOL     OW20431   2.330   4.419   1.284
 6768SOL    HW120432   2.370   4.367   1.353
 6768SOL    HW220433   2.400   4.478   1.255
 6769SOL     OW20434   4.973   3.298   0.965
 6769SOL    HW120435   4.879   3.295   0.983
 6769SOL    HW220436   5.013   3.250   1.037
 6770SOL     OW20437   5.776   4.617   1.446
 6770SOL    HW120438   5.754   4.707   1.421
 6770SOL    HW220439   5.779   4.569   1.363
 6771SOL     OW20440   2.176   2.757   1.233
 6771SOL    HW120441   2.209   2.786   1.317
 6771SOL    HW220442   2.202   2.825   1.171
 6772SOL     OW20443   7.630   3.430   1.521
 6772SOL    HW120444   7.606   3.349   1.476
 6772SOL    HW220445   7.557   3.489   1.505
 6773SOL     OW20446   6.553   3.493   3.486
 6773SOL    HW120447   6.646   3.504   3.505
 6773SOL    HW220448   6.551   3.440   3.406
 6774SOL     OW20449   6.531   0.468   2.978
 6774SOL    HW120450   6.531   0.483   3.072
 6774SOL    HW220451   6.504   0.552   2.940
 6775SOL     OW20452   4.828   4.977   4.258
 6775SOL    HW120453   4.807   5.017   4.343
 6775SOL    HW220454   4.791   5.037   4.194
 6776SOL     OW20455   2.734   0.514   1.078
 6776SOL    HW120456   2.778   0.445   1.128
 6776SOL    HW220457   2.670   0.551   1.139
 6777SOL     OW20458  10.919   0.395   5.218
 6777SOL    HW120459  11.004   0.362   5.191
 6777SOL    HW220460  10.858   0.324   5.199
 6778SOL     OW20461   8.248   5.062   2.828
 6778SOL    HW120462   8.330   5.025   2.858
 6778SOL    HW220463   8.190   4.986   2.816
 6779SOL     OW20464   5.066   4.792   0.005
 6779SOL    HW120465   5.067   4.874   0.054
 6779SOL    HW220466   5.052   4.725   0.072
 6780SOL     OW20467   7.807   2.593   4.396
 6780SOL    HW120468   7.861   2.607   4.474
 6780SOL    HW220469   7.726   2.555   4.429
 6781SOL     OW20470   2.861   2.362   1.522
 6781SOL    HW120471   2.801   2.306   1.571
 6781SOL    HW220472   2.808   2.397   1.450
 6782SOL     OW20473   0.231  -0.017   0.025
 6782SOL    HW120474   0.269   0.067   0.001
 6782SOL    HW220475   0.240  -0.022   0.120
 6783SOL     OW20476   8.124   2.647   3.391
 6783SOL    HW120477   8.200   2.699   3.361
 6783SOL    HW220478   8.107   2.678   3.480
 6784SOL     OW20479   4.994   4.579   0.171
 6784SOL    HW120480   4.978   4.485   0.179
 6784SOL    HW220481   4.926   4.620   0.223
 6785SOL     OW20482   3.114   0.348   3.929
 6785SOL    HW120483   3.159   0.314   4.006
 6785SOL    HW220484   3.039   0.397   3.965
 6786SOL     OW20485   3.756   1.384   0.726
 6786SOL    HW120486   3.826   1.328   0.693
 6786SOL    HW220487   3.686   1.323   0.750
 6787SOL     OW20488   8.470   4.343   2.557
 6787SOL    HW120489   8.404   4.411   2.540
 6787SOL    HW220490   8.437   4.266   2.512
 6788SOL     OW20491   7.111   6.121   4.709
 6788SOL    HW120492   7.095   6.081   4.795
 6788SOL    HW220493   7.162   6.056   4.661
 6789SOL     OW20494  11.015   7.338   5.212
 6789SOL    HW120495  10.927   7.302   5.219
 6789SOL    HW220496  11.069   7.263   5.186
 6790SOL     OW20497   2.740   3.329   2.422
 6790SOL    HW120498   2.715   3.420   2.407
 6790SOL    HW220499   2.657   3.281   2.428
 6791SOL     OW20500   4.952   4.923   0.901
 6791SOL    HW120501   5.040   4.897   0.928
 6791SOL    HW220502   4.964   5.007   0.856
 6792SOL     OW20503  10.038   4.286   4.017
 6792SOL    HW120504  10.122   4.316   4.051
 6792SOL    HW220505  10.055   4.197   3.986
 6793SOL     OW20506   2.536   4.583   3.020
 6793SOL    HW120507   2.502   4.621   3.101
 6793SOL    HW220508   2.593   4.651   2.984
 6794SOL     OW20509   4.871   5.764   0.923
 6794SOL    HW120510   4.800   5.711   0.961
 6794SOL    HW220511   4.931   5.700   0.885
 6795SOL     OW20512   4.714   1.008   4.743
 6795SOL    HW120513   4.628   1.048   4.757
 6795SOL    HW220514   4.698   0.936   4.682
 6796SOL     OW20515   3.155   4.898   1.027
 6796SOL    HW120516   3.138   4.892   0.933
 6796SOL    HW220517   3.124   4.984   1.052
 6797SOL     OW20518   2.357   1.257   2.215
 6797SOL    HW120519   2.446   1.259   2.250
 6797SOL    HW220520   2.368   1.270   2.121
 6798SOL     OW20521   5.459   0.281   4.129
 6798SOL    HW120522   5.406   0.319   4.199
 6798SOL    HW220523   5.483   0.356   4.074
 6799SOL     OW20524   7.806   1.095   4.924
 6799SOL    HW120525   7.751   1.049   4.861
 6799SOL    HW220526   7.760   1.177   4.941
 6800SOL     OW20527  10.337   5.228   5.294
 6800SOL    HW120528  10.369   5.307   5.250
 6800SOL    HW220529  10.243   5.227   5.275
 6801SOL     OW20530  11.114   2.834   5.205
 6801SOL    HW120531  11.126   2.757   5.260
 6801SOL    HW220532  11.123   2.908   5.265
 6802SOL     OW20533   6.731   1.053   0.907
 6802SOL    HW120534   6.685   1.135   0.924
 6802SOL    HW220535   6.809   1.079   0.858
 6803SOL     OW20536   9.969   0.795   4.844
 6803SOL    HW120537   9.893   0.742   4.866
 6803SOL    HW220538  10.042   0.755   4.891
 6804SOL     OW20539   6.421   5.448   2.384
 6804SOL    HW120540   6.452   5.359   2.372
 6804SOL    HW220541   6.473   5.500   2.322
 6805SOL     OW20542   1.341   2.388   1.722
 6805SOL    HW120543   1.276   2.381   1.792
 6805SOL    HW220544   1.403   2.454   1.753
 6806SOL     OW20545   4.834   3.097   1.172
 6806SOL    HW120546   4.898   3.026   1.166
 6806SOL    HW220547   4.852   3.138   1.257
 6807SOL     OW20548   5.847   0.351   0.988
 6807SOL    HW120549   5.887   0.419   0.935
 6807SOL    HW220550   5.806   0.292   0.924
 6808SOL     OW20551   3.057   1.805   3.582
 6808SOL    HW120552   3.060   1.866   3.509
 6808SOL    HW220553   2.980   1.831   3.632
 6809SOL     OW20554   8.177   5.587   1.387
 6809SOL    HW120555   8.262   5.557   1.419
 6809SOL    HW220556   8.144   5.513   1.335
 6810SOL     OW20557   9.372   5.346   3.496
 6810SOL    HW120558   9.278   5.335   3.509
 6810SOL    HW220559   9.384   5.440   3.487
 6811SOL     OW20560   6.329   4.833   5.180
 6811SOL    HW120561   6.349   4.749   5.139
 6811SOL    HW220562   6.408   4.886   5.168
 6812SOL     OW20563   0.804   1.193   1.087
 6812SOL    HW120564   0.717   1.206   1.051
 6812SOL    HW220565   0.863   1.197   1.011
 6813SOL     OW20566   3.348   1.041   2.525
 6813SOL    HW120567   3.400   1.103   2.473
 6813SOL    HW220568   3.266   1.033   2.477
 6814SOL     OW20569   5.958   4.583   4.910
 6814SOL    HW120570   6.027   4.641   4.942
 6814SOL    HW220571   5.928   4.623   4.828
 6815SOL     OW20572  10.851   2.749   5.125
 6815SOL    HW120573  10.840   2.784   5.036
 6815SOL    HW220574  10.943   2.767   5.146
 6816SOL     OW20575   4.659   1.896   2.416
 6816SOL    HW120576   4.642   1.819   2.363
 6816SOL    HW220577   4.658   1.969   2.354
 6817SOL     OW20578  10.672   2.586   5.255
 6817SOL    HW120579  10.750   2.633   5.225
 6817SOL    HW220580  10.702   2.497   5.269
 6818SOL     OW20581   6.549   4.335   3.548
 6818SOL    HW120582   6.470   4.333   3.602
 6818SOL    HW220583   6.617   4.365   3.607
 6819SOL     OW20584   4.866   4.502   3.166
 6819SOL    HW120585   4.804   4.466   3.103
 6819SOL    HW220586   4.871   4.437   3.235
 6820SOL     OW20587   2.384   1.872   2.772
 6820SOL    HW120588   2.461   1.927   2.782
 6820SOL    HW220589   2.416   1.782   2.784
 6821SOL     OW20590   0.161   6.351   0.099
 6821SOL    HW120591   0.143   6.261   0.127
 6821SOL    HW220592   0.198   6.394   0.177
 6822SOL     OW20593   3.667   5.665   0.388
 6822SOL    HW120594   3.687   5.728   0.318
 6822SOL    HW220595   3.750   5.622   0.406
 6823SOL     OW20596   7.965   3.844   4.770
 6823SOL    HW120597   7.937   3.936   4.774
 6823SOL    HW220598   7.898   3.797   4.820
 6824SOL     OW20599   4.990   0.668   0.934
 6824SOL    HW120600   4.895   0.682   0.942
 6824SOL    HW220601   5.006   0.666   0.840
 6825SOL     OW20602   9.735   0.103   5.014
 6825SOL    HW120603   9.737   0.097   4.919
 6825SOL    HW220604   9.671   0.172   5.033
 6826SOL     OW20605   6.392   3.930   4.082
 6826SOL    HW120606   6.459   3.998   4.078
 6826SOL    HW220607   6.310   3.977   4.065
 6827SOL     OW20608   1.659   2.477   0.515
 6827SOL    HW120609   1.630   2.390   0.546
 6827SOL    HW220610   1.699   2.460   0.430
 6828SOL     OW20611   8.104   3.318   1.285
 6828SOL    HW120612   8.127   3.313   1.192
 6828SOL    HW220613   8.105   3.227   1.315
 6829SOL     OW20614   9.794   2.281   4.093
 6829SOL    HW120615   9.761   2.200   4.131
 6829SOL    HW220616   9.723   2.344   4.104
 6830SOL     OW20617   7.476   4.426   2.183
 6830SOL    HW120618   7.565   4.412   2.151
 6830SOL    HW220619   7.421   4.383   2.118
 6831SOL     OW20620   7.462   6.266   5.109
 6831SOL    HW120621   7.397   6.239   5.174
 6831SOL    HW220622   7.501   6.184   5.077
 6832SOL     OW20623   1.763   6.091   0.983
 6832SOL    HW120624   1.684   6.053   1.021
 6832SOL    HW220625   1.768   6.051   0.896
 6833SOL     OW20626   8.596   2.335   2.951
 6833SOL    HW120627   8.556   2.262   2.997
 6833SOL    HW220628   8.534   2.358   2.882
 6834SOL     OW20629   6.003   5.275   2.461
 6834SOL    HW120630   5.969   5.187   2.442
 6834SOL    HW220631   5.944   5.310   2.528
 6835SOL     OW20632   8.449   4.159   3.420
 6835SOL    HW120633   8.358   4.151   3.392
 6835SOL    HW220634   8.469   4.252   3.409
 6836SOL     OW20635   5.941   5.062   3.512
 6836SOL    HW120636   5.934   5.016   3.428
 6836SOL    HW220637   5.934   5.155   3.488
 6837SOL     OW20638   4.142   5.715   2.177
 6837SOL    HW120639   4.205   5.773   2.134
 6837SOL    HW220640   4.066   5.771   2.195
 6838SOL     OW20641   2.263   3.905   2.603
 6838SOL    HW120642   2.168   3.899   2.586
 6838SOL    HW220643   2.299   3.827   2.562
 6839SOL     OW20644   6.952   3.279   4.997
 6839SOL    HW120645   6.892   3.212   5.029
 6839SOL    HW220646   6.895   3.351   4.970
 6840SOL     OW20647   8.095   0.131   3.424
 6840SOL    HW120648   8.034   0.141   3.496
 6840SOL    HW220649   8.040   0.122   3.346
 6841SOL     OW20650   5.454   7.246   2.071
 6841SOL    HW120651   5.489   7.174   2.123
 6841SOL    HW220652   5.387   7.285   2.127
 6842SOL     OW20653   8.380   2.677   3.746
 6842SOL    HW120654   8.354   2.650   3.834
 6842SOL    HW220655   8.312   2.738   3.718
 6843SOL     OW20656   6.039   2.295   2.174
 6843SOL    HW120657   6.086   2.221   2.135
 6843SOL    HW220658   5.979   2.255   2.236
 6844SOL     OW20659   7.874   6.695   4.860
 6844SOL    HW120660   7.874   6.788   4.838
 6844SOL    HW220661   7.781   6.674   4.876
 6845SOL     OW20662   5.716   0.406   3.484
 6845SOL    HW120663   5.777   0.441   3.419
 6845SOL    HW220664   5.721   0.311   3.475
 6846SOL     OW20665   6.392   4.897   4.629
 6846SOL    HW120666   6.329   4.947   4.578
 6846SOL    HW220667   6.339   4.848   4.692
 6847SOL     OW20668   5.513   1.427   0.388
 6847SOL    HW120669   5.585   1.459   0.442
 6847SOL    HW220670   5.439   1.420   0.449
 6848SOL     OW20671   8.850   0.780   4.095
 6848SOL    HW120672   8.839   0.788   4.190
 6848SOL    HW220673   8.931   0.828   4.076
 6849SOL     OW20674   5.269   0.920   4.322
 6849SOL    HW120675   5.183   0.898   4.287
 6849SOL    HW220676   5.251   0.959   4.407
 6850SOL     OW20677   6.249   4.028   0.836
 6850SOL    HW120678   6.212   4.091   0.897
 6850SOL    HW220679   6.295   3.965   0.891
 6851SOL     OW20680   6.975   1.157   0.773
 6851SOL    HW120681   7.011   1.127   0.857
 6851SOL    HW220682   7.005   1.091   0.710
 6852SOL     OW20683   8.532   3.031   4.716
 6852SOL    HW120684   8.606   3.076   4.674
 6852SOL    HW220685   8.573   2.965   4.772
 6853SOL     OW20686   4.770   6.520   2.827
 6853SOL    HW120687   4.743   6.578   2.899
 6853SOL    HW220688   4.774   6.433   2.866
 6854SOL     OW20689   3.135   0.195   0.209
 6854SOL    HW120690   3.142   0.105   0.178
 6854SOL    HW220691   3.225   0.229   0.204
 6855SOL     OW20692   9.588   5.991   4.745
 6855SOL    HW120693   9.539   5.970   4.825
 6855SOL    HW220694   9.525   5.979   4.674
 6856SOL     OW20695   4.867   7.175   3.359
 6856SOL    HW120696   4.892   7.152   3.449
 6856SOL    HW220697   4.851   7.091   3.316
 6857SOL     OW20698   7.986   5.133   2.186
 6857SOL    HW120699   8.057   5.078   2.155
 6857SOL    HW220700   8.002   5.143   2.280
 6858SOL     OW20701   1.366   5.701   1.652
 6858SOL    HW120702   1.307   5.653   1.594
 6858SOL    HW220703   1.325   5.696   1.738
 6859SOL     OW20704   4.264   2.374   2.576
 6859SOL    HW120705   4.267   2.405   2.486
 6859SOL    HW220706   4.349   2.401   2.613
 6860SOL     OW20707   6.310   7.238   1.627
 6860SOL    HW120708   6.348   7.159   1.586
 6860SOL    HW220709   6.326   7.308   1.564
 6861SOL     OW20710   6.268   4.300   1.266
 6861SOL    HW120711   6.177   4.323   1.280
 6861SOL    HW220712   6.286   4.232   1.330
 6862SOL     OW20713   3.172   2.683   3.119
 6862SOL    HW120714   3.084   2.687   3.083
 6862SOL    HW220715   3.229   2.684   3.042
 6863SOL     OW20716   3.667   2.658   4.918
 6863SOL    HW120717   3.756   2.639   4.946
 6863SOL    HW220718   3.673   2.741   4.870
 6864SOL     OW20719   6.453   4.479   1.368
 6864SOL    HW120720   6.371   4.432   1.351
 6864SOL    HW220721   6.440   4.518   1.455
 6865SOL     OW20722   6.529   1.138   0.217
 6865SOL    HW120723   6.600   1.193   0.250
 6865SOL    HW220724   6.476   1.118   0.294
 6866SOL     OW20725   5.004   5.109   3.829
 6866SOL    HW120726   5.047   5.194   3.819
 6866SOL    HW220727   5.076   5.047   3.842
 6867SOL     OW20728   4.050   1.578   3.990
 6867SOL    HW120729   4.139   1.564   3.959
 6867SOL    HW220730   4.037   1.672   3.985
 6868SOL     OW20731   4.453   4.410   1.972
 6868SOL    HW120732   4.443   4.361   1.891
 6868SOL    HW220733   4.372   4.461   1.979
 6869SOL     OW20734   5.314   0.134   4.853
 6869SOL    HW120735   5.336   0.204   4.792
 6869SOL    HW220736   5.344   0.167   4.939
 6870SOL     OW20737   2.845   6.790   3.176
 6870SOL    HW120738   2.925   6.842   3.191
 6870SOL    HW220739   2.778   6.855   3.154
 6871SOL     OW20740   8.162   1.909   1.159
 6871SOL    HW120741   8.098   1.979   1.172
 6871SOL    HW220742   8.185   1.881   1.248
 6872SOL     OW20743   8.759   6.547   4.395
 6872SOL    HW120744   8.824   6.521   4.461
 6872SOL    HW220745   8.695   6.476   4.395
 6873SOL     OW20746   9.486   3.061   2.845
 6873SOL    HW120747   9.395   3.052   2.873
 6873SOL    HW220748   9.496   2.998   2.774
 6874SOL     OW20749   2.058   6.241   0.644
 6874SOL    HW120750   2.088   6.245   0.735
 6874SOL    HW220751   2.103   6.314   0.601
 6875SOL     OW20752   6.487   4.624   0.735
 6875SOL    HW120753   6.466   4.699   0.790
 6875SOL    HW220754   6.433   4.553   0.770
 6876SOL     OW20755   1.167   7.002   1.473
 6876SOL    HW120756   1.088   6.979   1.424
 6876SOL    HW220757   1.240   6.975   1.416
 6877SOL     OW20758   6.692   3.875   4.646
 6877SOL    HW120759   6.760   3.807   4.642
 6877SOL    HW220760   6.705   3.916   4.732
 6878SOL     OW20761   4.998   0.432   2.613
 6878SOL    HW120762   5.083   0.403   2.647
 6878SOL    HW220763   4.998   0.527   2.628
 6879SOL     OW20764   6.877   4.109   0.407
 6879SOL    HW120765   6.848   4.200   0.417
 6879SOL    HW220766   6.807   4.058   0.447
 6880SOL     OW20767   6.298   4.698   2.973
 6880SOL    HW120768   6.265   4.687   2.884
 6880SOL    HW220769   6.358   4.624   2.985
 6881SOL     OW20770   3.632   3.730   1.360
 6881SOL    HW120771   3.537   3.724   1.368
 6881SOL    HW220772   3.648   3.728   1.265
 6882SOL     OW20773   2.762   3.079   0.240
 6882SOL    HW120774   2.804   3.084   0.155
 6882SOL    HW220775   2.679   3.126   0.229
 6883SOL     OW20776   2.543   0.203   2.424
 6883SOL    HW120777   2.476   0.259   2.384
 6883SOL    HW220778   2.582   0.258   2.492
 6884SOL     OW20779   5.671   3.290   3.782
 6884SOL    HW120780   5.746   3.236   3.805
 6884SOL    HW220781   5.611   3.231   3.737
 6885SOL     OW20782   4.580   6.942   2.830
 6885SOL    HW120783   4.644   6.923   2.899
 6885SOL    HW220784   4.545   6.856   2.805
 6886SOL     OW20785   5.378   6.438   2.752
 6886SOL    HW120786   5.377   6.416   2.845
 6886SOL    HW220787   5.293   6.479   2.736
 6887SOL     OW20788   4.719   3.774   1.182
 6887SOL    HW120789   4.812   3.799   1.178
 6887SOL    HW220790   4.720   3.686   1.220
 6888SOL     OW20791   5.389   0.363   3.049
 6888SOL    HW120792   5.348   0.306   2.984
 6888SOL    HW220793   5.431   0.303   3.111
 6889SOL     OW20794   6.411   2.822   0.619
 6889SOL    HW120795   6.356   2.898   0.642
 6889SOL    HW220796   6.442   2.789   0.703
 6890SOL     OW20797   1.295   5.385   0.876
 6890SOL    HW120798   1.307   5.303   0.924
 6890SOL    HW220799   1.223   5.429   0.922
 6891SOL     OW20800   7.500   0.651   2.341
 6891SOL    HW120801   7.413   0.629   2.375
 6891SOL    HW220802   7.525   0.731   2.388
 6892SOL     OW20803   6.303   3.953   2.964
 6892SOL    HW120804   6.224   3.899   2.961
 6892SOL    HW220805   6.321   3.964   3.057
 6893SOL     OW20806   5.781   5.556   3.616
 6893SOL    HW120807   5.853   5.581   3.674
 6893SOL    HW220808   5.720   5.630   3.621
 6894SOL     OW20809   5.365   1.627   0.147
 6894SOL    HW120810   5.320   1.585   0.074
 6894SOL    HW220811   5.451   1.584   0.150
 6895SOL     OW20812   2.275   4.087   0.856
 6895SOL    HW120813   2.348   4.030   0.833
 6895SOL    HW220814   2.268   4.147   0.782
 6896SOL     OW20815   2.320   0.192   1.167
 6896SOL    HW120816   2.372   0.178   1.087
 6896SOL    HW220817   2.385   0.207   1.235
 6897SOL     OW20818   5.099   1.470   1.545
 6897SOL    HW120819   5.167   1.414   1.511
 6897SOL    HW220820   5.021   1.414   1.551
 6898SOL     OW20821   7.981   4.641   1.214
 6898SOL    HW120822   8.033   4.627   1.135
 6898SOL    HW220823   7.906   4.693   1.185
 6899SOL     OW20824   1.897   6.889   2.098
 6899SOL    HW120825   1.873   6.797   2.084
 6899SOL    HW220826   1.849   6.916   2.176
 6900SOL     OW20827   8.615   0.126   4.806
 6900SOL    HW120828   8.608   0.153   4.897
 6900SOL    HW220829   8.702   0.086   4.799
 6901SOL     OW20830   6.354   5.602   4.112
 6901SOL    HW120831   6.324   5.593   4.022
 6901SOL    HW220832   6.447   5.624   4.105
 6902SOL     OW20833   2.807   3.040   1.102
 6902SOL    HW120834   2.757   3.072   1.027
 6902SOL    HW220835   2.884   2.998   1.063
 6903SOL     OW20836   2.231   3.168   2.996
 6903SOL    HW120837   2.222   3.263   2.998
 6903SOL    HW220838   2.166   3.139   2.931
 6904SOL     OW20839   3.190   3.964   4.449
 6904SOL    HW120840   3.269   3.954   4.502
 6904SOL    HW220841   3.146   4.040   4.488
 6905SOL     OW20842   1.936   0.626   0.339
 6905SOL    HW120843   1.999   0.670   0.396
 6905SOL    HW220844   1.956   0.659   0.251
 6906SOL     OW20845   5.206   2.746   1.581
 6906SOL    HW120846   5.236   2.755   1.672
 6906SOL    HW220847   5.270   2.795   1.530
 6907SOL     OW20848   0.394   4.313   0.519
 6907SOL    HW120849   0.346   4.231   0.521
 6907SOL    HW220850   0.471   4.298   0.575
 6908SOL     OW20851   5.497   1.264   3.402
 6908SOL    HW120852   5.446   1.258   3.322
 6908SOL    HW220853   5.542   1.348   3.397
 6909SOL     OW20854   2.961   6.910   4.063
 6909SOL    HW120855   3.017   6.949   4.131
 6909SOL    HW220856   2.886   6.875   4.111
 6910SOL     OW20857   2.749   5.173   1.241
 6910SOL    HW120858   2.700   5.247   1.205
 6910SOL    HW220859   2.730   5.176   1.335
 6911SOL     OW20860   2.065   7.382   2.270
 6911SOL    HW120861   2.064   7.473   2.298
 6911SOL    HW220862   2.122   7.338   2.333
 6912SOL     OW20863   3.055   2.659   2.854
 6912SOL    HW120864   3.005   2.739   2.837
 6912SOL    HW220865   3.005   2.590   2.811
 6913SOL     OW20866   6.202   0.338   3.618
 6913SOL    HW120867   6.249   0.357   3.537
 6913SOL    HW220868   6.265   0.289   3.671
 6914SOL     OW20869   7.117   0.558   4.583
 6914SOL    HW120870   7.038   0.507   4.600
 6914SOL    HW220871   7.131   0.608   4.664
 6915SOL     OW20872   7.560   4.564   0.876
 6915SOL    HW120873   7.643   4.527   0.906
 6915SOL    HW220874   7.566   4.561   0.781
 6916SOL     OW20875   7.899   1.206   1.015
 6916SOL    HW120876   7.908   1.203   1.110
 6916SOL    HW220877   7.920   1.296   0.991
 6917SOL     OW20878   1.610   0.482   2.075
 6917SOL    HW120879   1.581   0.526   1.995
 6917SOL    HW220880   1.698   0.515   2.090
 6918SOL     OW20881   7.374   4.656   4.487
 6918SOL    HW120882   7.450   4.637   4.432
 6918SOL    HW220883   7.312   4.700   4.429
 6919SOL     OW20884   5.631   6.354   3.835
 6919SOL    HW120885   5.713   6.304   3.842
 6919SOL    HW220886   5.658   6.446   3.839
 6920SOL     OW20887   6.769   1.347   2.884
 6920SOL    HW120888   6.729   1.339   2.798
 6920SOL    HW220889   6.719   1.415   2.928
 6921SOL     OW20890   3.579   0.708   1.600
 6921SOL    HW120891   3.577   0.795   1.562
 6921SOL    HW220892   3.636   0.657   1.542
 6922SOL     OW20893   8.176   4.204   1.820
 6922SOL    HW120894   8.181   4.175   1.910
 6922SOL    HW220895   8.264   4.235   1.799
 6923SOL     OW20896   5.047   4.173   3.632
 6923SOL    HW120897   5.106   4.158   3.559
 6923SOL    HW220898   5.104   4.171   3.709
 6924SOL     OW20899   3.927   5.364   2.397
 6924SOL    HW120900   3.903   5.451   2.431
 6924SOL    HW220901   3.995   5.382   2.332
 6925SOL     OW20902   6.609   2.051   1.227
 6925SOL    HW120903   6.519   2.076   1.251
 6925SOL    HW220904   6.598   1.992   1.153
 6926SOL     OW20905   5.225   0.015   2.014
 6926SOL    HW120906   5.162   0.049   2.077
 6926SOL    HW220907   5.186   0.032   1.929
 6927SOL     OW20908   6.954   4.627   0.023
 6927SOL    HW120909   7.001   4.638  -0.059
 6927SOL    HW220910   6.969   4.536   0.048
 6928SOL     OW20911   8.558   2.374   3.485
 6928SOL    HW120912   8.503   2.400   3.558
 6928SOL    HW220913   8.503   2.318   3.431
 6929SOL     OW20914   4.119   6.197   1.749
 6929SOL    HW120915   4.133   6.288   1.723
 6929SOL    HW220916   4.085   6.202   1.838
 6930SOL     OW20917   8.615   7.394   2.727
 6930SOL    HW120918   8.658   7.383   2.642
 6930SOL    HW220919   8.686   7.398   2.790
 6931SOL     OW20920   5.838   7.162   1.969
 6931SOL    HW120921   5.844   7.091   1.905
 6931SOL    HW220922   5.797   7.122   2.046
 6932SOL     OW20923   3.757   5.351   5.236
 6932SOL    HW120924   3.782   5.361   5.144
 6932SOL    HW220925   3.667   5.385   5.240
 6933SOL     OW20926   3.982   5.917   3.214
 6933SOL    HW120927   3.984   6.005   3.252
 6933SOL    HW220928   3.981   5.858   3.289
 6934SOL     OW20929   4.530   0.366   0.212
 6934SOL    HW120930   4.615   0.325   0.190
 6934SOL    HW220931   4.554   0.446   0.259
 6935SOL     OW20932   7.543   2.091   2.543
 6935SOL    HW120933   7.552   2.100   2.448
 6935SOL    HW220934   7.484   2.016   2.554
 6936SOL     OW20935   1.088   0.124   0.825
 6936SOL    HW120936   1.071   0.166   0.741
 6936SOL    HW220937   1.183   0.108   0.825
 6937SOL     OW20938   3.407   1.335   4.397
 6937SOL    HW120939   3.492   1.312   4.360
 6937SOL    HW220940   3.344   1.288   4.343
 6938SOL     OW20941   7.530   5.272   5.247
 6938SOL    HW120942   7.456   5.223   5.211
 6938SOL    HW220943   7.596   5.206   5.266
 6939SOL     OW20944   7.200   2.748   0.852
 6939SOL    HW120945   7.218   2.790   0.768
 6939SOL    HW220946   7.190   2.820   0.914
 6940SOL     OW20947   8.194   3.964   3.822
 6940SOL    HW120948   8.161   3.896   3.881
 6940SOL    HW220949   8.270   3.924   3.780
 6941SOL     OW20950   0.471   2.890   0.399
 6941SOL    HW120951   0.392   2.845   0.369
 6941SOL    HW220952   0.472   2.972   0.349
 6942SOL     OW20953   4.866   5.352   1.024
 6942SOL    HW120954   4.825   5.268   1.045
 6942SOL    HW220955   4.960   5.336   1.034
 6943SOL     OW20956   6.406   5.035   2.112
 6943SOL    HW120957   6.441   5.057   2.198
 6943SOL    HW220958   6.407   4.939   2.109
 6944SOL     OW20959   4.205   3.558   1.507
 6944SOL    HW120960   4.226   3.617   1.579
 6944SOL    HW220961   4.157   3.614   1.444
 6945SOL     OW20962   5.507   2.646   0.712
 6945SOL    HW120963   5.481   2.708   0.781
 6945SOL    HW220964   5.571   2.695   0.659
 6946SOL     OW20965   8.321   5.374   2.568
 6946SOL    HW120966   8.298   5.358   2.659
 6946SOL    HW220967   8.349   5.288   2.535
 6947SOL     OW20968   5.633   1.935   0.593
 6947SOL    HW120969   5.611   1.983   0.672
 6947SOL    HW220970   5.648   1.845   0.623
 6948SOL     OW20971   2.168   4.426   0.181
 6948SOL    HW120972   2.132   4.364   0.117
 6948SOL    HW220973   2.262   4.407   0.181
 6949SOL     OW20974   8.759   6.815   4.694
 6949SOL    HW120975   8.758   6.850   4.605
 6949SOL    HW220976   8.753   6.720   4.682
 6950SOL     OW20977   2.807   4.906   2.054
 6950SOL    HW120978   2.851   4.878   1.973
 6950SOL    HW220979   2.771   4.993   2.033
 6951SOL     OW20980   5.015   1.817   3.950
 6951SOL    HW120981   5.091   1.763   3.972
 6951SOL    HW220982   4.950   1.794   4.016
 6952SOL     OW20983   4.084   0.033   2.915
 6952SOL    HW120984   4.093   0.094   2.842
 6952SOL    HW220985   4.073  -0.053   2.873
 6953SOL     OW20986   4.158   3.298   2.445
 6953SOL    HW120987   4.224   3.289   2.377
 6953SOL    HW220988   4.079   3.261   2.407
 6954SOL     OW20989   1.805   1.103   2.434
 6954SOL    HW120990   1.812   1.196   2.409
 6954SOL    HW220991   1.736   1.068   2.378
 6955SOL     OW20992   6.150   2.904   2.030
 6955SOL    HW120993   6.205   2.865   1.963
 6955SOL    HW220994   6.151   2.998   2.011
 6956SOL     OW20995   3.482   3.918   1.009
 6956SOL    HW120996   3.503   3.987   1.072
 6956SOL    HW220997   3.392   3.937   0.982
 6957SOL     OW20998   8.225   3.758   4.755
 6957SOL    HW120999   8.270   3.708   4.687
 6957SOL    HW221000   8.132   3.749   4.734
 6958SOL     OW21001   3.096   6.981   2.558
 6958SOL    HW121002   3.107   6.894   2.595
 6958SOL    HW221003   3.133   6.975   2.470
 6959SOL     OW21004   5.579   5.534   4.682
 6959SOL    HW121005   5.645   5.557   4.617
 6959SOL    HW221006   5.514   5.483   4.634
 6960SOL     OW21007   7.814   0.042   5.038
 6960SOL    HW121008   7.855  -0.005   5.111
 6960SOL    HW221009   7.870   0.119   5.026
 6961SOL     OW21010   6.381   1.341   3.015
 6961SOL    HW121011   6.450   1.381   3.069
 6961SOL    HW221012   6.354   1.264   3.064
 6962SOL     OW21013   1.603   0.705   1.830
 6962SOL    HW121014   1.689   0.677   1.799
 6962SOL    HW221015   1.556   0.731   1.751
 6963SOL     OW21016   3.007   2.367   0.189
 6963SOL    HW121017   2.933   2.427   0.202
 6963SOL    HW221018   2.994   2.331   0.102
 6964SOL     OW21019   5.205   5.250   5.051
 6964SOL    HW121020   5.133   5.254   5.113
 6964SOL    HW221021   5.281   5.227   5.104
 6965SOL     OW21022   5.611   3.279   2.687
 6965SOL    HW121023   5.521   3.251   2.670
 6965SOL    HW221024   5.602   3.354   2.746
 6966SOL     OW21025   7.903   1.362   5.006
 6966SOL    HW121026   7.959   1.319   4.942
 6966SOL    HW221027   7.874   1.443   4.963
 6967SOL     OW21028   3.296   1.957   3.374
 6967SOL    HW121029   3.238   2.014   3.424
 6967SOL    HW221030   3.274   1.976   3.282
 6968SOL     OW21031   6.002   4.216   0.108
 6968SOL    HW121032   5.981   4.278   0.178
 6968SOL    HW221033   5.989   4.129   0.147
 6969SOL     OW21034   1.966   0.177   2.373
 6969SOL    HW121035   1.884   0.166   2.325
 6969SOL    HW221036   1.998   0.263   2.348
 6970SOL     OW21037   3.700   7.135   1.191
 6970SOL    HW121038   3.768   7.167   1.251
 6970SOL    HW221039   3.667   7.214   1.148
 6971SOL     OW21040   3.782   6.211   1.149
 6971SOL    HW121041   3.710   6.261   1.186
 6971SOL    HW221042   3.740   6.140   1.101
 6972SOL     OW21043   2.890   4.264   0.116
 6972SOL    HW121044   2.870   4.274   0.209
 6972SOL    HW221045   2.957   4.195   0.113
 6973SOL     OW21046   1.885   2.753   0.106
 6973SOL    HW121047   1.904   2.823   0.169
 6973SOL    HW221048   1.906   2.792   0.021
 6974SOL     OW21049   6.761   6.027   5.206
 6974SOL    HW121050   6.809   6.101   5.171
 6974SOL    HW221051   6.672   6.037   5.171
 6975SOL     OW21052   6.400   3.260   2.632
 6975SOL    HW121053   6.366   3.322   2.567
 6975SOL    HW221054   6.376   3.299   2.716
 6976SOL     OW21055   3.564   4.157   3.216
 6976SOL    HW121056   3.600   4.195   3.296
 6976SOL    HW221057   3.526   4.231   3.169
 6977SOL     OW21058   5.615   3.949   0.953
 6977SOL    HW121059   5.579   3.870   0.995
 6977SOL    HW221060   5.594   4.020   1.013
 6978SOL     OW21061   6.201   3.693   3.092
 6978SOL    HW121062   6.154   3.643   3.158
 6978SOL    HW221063   6.266   3.744   3.141
 6979SOL     OW21064   7.914   1.199   1.269
 6979SOL    HW121065   7.889   1.258   1.341
 6979SOL    HW221066   7.988   1.149   1.304
 6980SOL     OW21067   6.336   7.506   3.065
 6980SOL    HW121068   6.274   7.439   3.094
 6980SOL    HW221069   6.390   7.463   2.999
 6981SOL     OW21070   6.691   1.697   4.158
 6981SOL    HW121071   6.650   1.688   4.244
 6981SOL    HW221072   6.656   1.779   4.124
 6982SOL     OW21073   7.236   0.077   2.254
 6982SOL    HW121074   7.282   0.158   2.274
 6982SOL    HW221075   7.254   0.020   2.330
 6983SOL     OW21076   7.822   3.980   3.423
 6983SOL    HW121077   7.804   3.928   3.344
 6983SOL    HW221078   7.797   3.924   3.495
 6984SOL     OW21079   9.510   3.173   3.502
 6984SOL    HW121080   9.536   3.085   3.475
 6984SOL    HW221081   9.524   3.175   3.597
 6985SOL     OW21082   5.691   3.002   4.937
 6985SOL    HW121083   5.696   3.002   5.033
 6985SOL    HW221084   5.603   3.033   4.918
 6986SOL     OW21085   3.167   4.136   0.113
 6986SOL    HW121086   3.171   4.227   0.143
 6986SOL    HW221087   3.121   4.089   0.183
 6987SOL     OW21088   5.995   3.430   1.700
 6987SOL    HW121089   6.068   3.384   1.659
 6987SOL    HW221090   6.019   3.523   1.693
 6988SOL     OW21091   3.914   5.604   5.023
 6988SOL    HW121092   3.962   5.535   4.977
 6988SOL    HW221093   3.823   5.576   5.020
 6989SOL     OW21094   8.969   1.250   3.878
 6989SOL    HW121095   9.030   1.246   3.804
 6989SOL    HW221096   9.000   1.323   3.932
 6990SOL     OW21097  10.211   0.652   4.999
 6990SOL    HW121098  10.219   0.641   5.094
 6990SOL    HW221099  10.270   0.724   4.977
 6991SOL     OW21100   2.135   6.652   1.862
 6991SOL    HW121101   2.111   6.728   1.808
 6991SOL    HW221102   2.209   6.682   1.914
 6992SOL     OW21103   2.515   6.227   2.311
 6992SOL    HW121104   2.519   6.257   2.402
 6992SOL    HW221105   2.444   6.276   2.272
 6993SOL     OW21106   3.868   3.357   0.276
 6993SOL    HW121107   3.929   3.369   0.203
 6993SOL    HW221108   3.905   3.409   0.347
 6994SOL     OW21109   5.999   2.701   1.481
 6994SOL    HW121110   6.077   2.757   1.478
 6994SOL    HW221111   6.010   2.641   1.407
 6995SOL     OW21112   3.949   3.907   4.694
 6995SOL    HW121113   4.028   3.955   4.720
 6995SOL    HW221114   3.933   3.846   4.766
 6996SOL     OW21115   6.907   0.471   0.228
 6996SOL    HW121116   6.895   0.376   0.236
 6996SOL    HW221117   6.894   0.504   0.317
 6997SOL     OW21118   0.949   2.460   0.715
 6997SOL    HW121119   0.956   2.367   0.693
 6997SOL    HW221120   0.983   2.506   0.638
 6998SOL     OW21121  10.464   4.292   4.714
 6998SOL    HW121122  10.514   4.257   4.787
 6998SOL    HW221123  10.399   4.350   4.754
 6999SOL     OW21124   8.330   2.814   3.362
 6999SOL    HW121125   8.364   2.877   3.426
 6999SOL    HW221126   8.408   2.778   3.320
 7000SOL     OW21127   4.763   7.058   1.949
 7000SOL    HW121128   4.764   7.119   1.875
 7000SOL    HW221129   4.845   7.009   1.940
 7001SOL     OW21130   7.072   1.806   1.730
 7001SOL    HW121131   7.125   1.863   1.676
 7001SOL    HW221132   7.017   1.757   1.668
 7002SOL     OW21133   6.662   4.833   0.847
 7002SOL    HW121134   6.662   4.865   0.937
 7002SOL    HW221135   6.753   4.806   0.832
 7003SOL     OW21136   4.491   1.838   1.743
 7003SOL    HW121137   4.483   1.808   1.834
 7003SOL    HW221138   4.406   1.820   1.704
 7004SOL     OW21139   0.938   6.307   1.249
 7004SOL    HW121140   0.916   6.222   1.212
 7004SOL    HW221141   1.011   6.289   1.309
 7005SOL     OW21142   3.306   0.453   0.746
 7005SOL    HW121143   3.391   0.452   0.702
 7005SOL    HW221144   3.256   0.383   0.704
 7006SOL     OW21145   4.876   2.065   0.625
 7006SOL    HW121146   4.955   2.014   0.609
 7006SOL    HW221147   4.843   2.087   0.538
 7007SOL     OW21148   8.083   2.716   1.376
 7007SOL    HW121149   8.170   2.725   1.413
 7007SOL    HW221150   8.032   2.787   1.416
 7008SOL     OW21151   4.718   3.008   4.779
 7008SOL    HW121152   4.781   3.071   4.745
 7008SOL    HW221153   4.759   2.972   4.857
 7009SOL     OW21154   9.182   2.614   4.691
 7009SOL    HW121155   9.239   2.545   4.656
 7009SOL    HW221156   9.093   2.585   4.668
 7010SOL     OW21157   3.689   7.387   0.230
 7010SOL    HW121158   3.770   7.345   0.260
 7010SOL    HW221159   3.694   7.476   0.265
 7011SOL     OW21160   9.026   3.582   3.039
 7011SOL    HW121161   9.040   3.666   2.994
 7011SOL    HW221162   8.964   3.602   3.108
 7012SOL     OW21163   3.027   2.093   0.793
 7012SOL    HW121164   3.002   2.124   0.880
 7012SOL    HW221165   3.057   2.171   0.747
 7013SOL     OW21166   8.254   0.285   2.275
 7013SOL    HW121167   8.164   0.279   2.242
 7013SOL    HW221168   8.281   0.375   2.256
 7014SOL     OW21169   3.186   0.045   1.759
 7014SOL    HW121170   3.104   0.074   1.719
 7014SOL    HW221171   3.251   0.109   1.732
 7015SOL     OW21172   3.830   4.660   1.430
 7015SOL    HW121173   3.901   4.723   1.428
 7015SOL    HW221174   3.764   4.700   1.486
 7016SOL     OW21175   4.025   6.481   1.553
 7016SOL    HW121176   3.981   6.520   1.628
 7016SOL    HW221177   4.118   6.496   1.568
 7017SOL     OW21178   6.667   1.365   1.660
 7017SOL    HW121179   6.707   1.279   1.677
 7017SOL    HW221180   6.741   1.426   1.664
 7018SOL     OW21181   2.513   0.938   1.250
 7018SOL    HW121182   2.458   0.896   1.185
 7018SOL    HW221183   2.572   0.994   1.199
 7019SOL     OW21184   7.321   4.020   4.647
 7019SOL    HW121185   7.390   3.960   4.621
 7019SOL    HW221186   7.243   3.989   4.602
 7020SOL     OW21187   6.653   6.292   4.911
 7020SOL    HW121188   6.736   6.339   4.920
 7020SOL    HW221189   6.663   6.215   4.967
 7021SOL     OW21190   7.104   3.655   5.168
 7021SOL    HW121191   7.094   3.571   5.214
 7021SOL    HW221192   7.197   3.675   5.176
 7022SOL     OW21193   3.990   5.663   2.432
 7022SOL    HW121194   4.078   5.659   2.394
 7022SOL    HW221195   4.000   5.714   2.512
 7023SOL     OW21196  10.216   6.224   4.849
 7023SOL    HW121197  10.133   6.261   4.879
 7023SOL    HW221198  10.192   6.159   4.783
 7024SOL     OW21199   7.981   5.146   3.219
 7024SOL    HW121200   8.032   5.207   3.272
 7024SOL    HW221201   8.000   5.060   3.258
 7025SOL     OW21202   7.805   7.291   3.290
 7025SOL    HW121203   7.868   7.252   3.350
 7025SOL    HW221204   7.727   7.307   3.344
 7026SOL     OW21205   3.686   4.071   2.685
 7026SOL    HW121206   3.697   3.978   2.665
 7026SOL    HW221207   3.755   4.114   2.635
 7027SOL     OW21208   7.508   4.852   4.639
 7027SOL    HW121209   7.450   4.795   4.588
 7027SOL    HW221210   7.481   4.941   4.616
 7028SOL     OW21211   4.696   5.560   1.149
 7028SOL    HW121212   4.724   5.643   1.188
 7028SOL    HW221213   4.777   5.513   1.132
 7029SOL     OW21214   8.824   2.173   2.429
 7029SOL    HW121215   8.794   2.142   2.343
 7029SOL    HW221216   8.751   2.153   2.488
 7030SOL     OW21217   8.433   6.967   3.267
 7030SOL    HW121218   8.390   6.882   3.274
 7030SOL    HW221219   8.457   6.974   3.174
 7031SOL     OW21220   3.192   1.144   0.099
 7031SOL    HW121221   3.217   1.213   0.160
 7031SOL    HW221222   3.268   1.085   0.097
 7032SOL     OW21223   1.898   3.206   1.520
 7032SOL    HW121224   1.922   3.244   1.605
 7032SOL    HW221225   1.982   3.190   1.477
 7033SOL     OW21226   4.786   5.961   3.496
 7033SOL    HW121227   4.751   6.012   3.569
 7033SOL    HW221228   4.793   6.023   3.424
 7034SOL     OW21229   9.479   3.145   3.784
 7034SOL    HW121230   9.445   3.194   3.859
 7034SOL    HW221231   9.400   3.118   3.736
 7035SOL     OW21232   1.842   3.955   1.751
 7035SOL    HW121233   1.888   3.873   1.767
 7035SOL    HW221234   1.867   4.011   1.824
 7036SOL     OW21235   4.241   0.091   4.062
 7036SOL    HW121236   4.170   0.148   4.091
 7036SOL    HW221237   4.204   0.042   3.988
 7037SOL     OW21238   4.403   0.974   2.490
 7037SOL    HW121239   4.417   1.060   2.529
 7037SOL    HW221240   4.339   0.932   2.548
 7038SOL     OW21241   7.323   1.736   1.971
 7038SOL    HW121242   7.358   1.655   2.009
 7038SOL    HW221243   7.309   1.714   1.879
 7039SOL     OW21244   5.907   3.901   4.498
 7039SOL    HW121245   6.001   3.919   4.493
 7039SOL    HW221246   5.901   3.820   4.549
 7040SOL     OW21247   6.023   6.455   3.341
 7040SOL    HW121248   6.049   6.511   3.268
 7040SOL    HW221249   5.954   6.503   3.385
 7041SOL     OW21250   3.927   5.099   5.111
 7041SOL    HW121251   3.921   5.005   5.128
 7041SOL    HW221252   3.949   5.138   5.196
 7042SOL     OW21253   3.539   5.032   4.016
 7042SOL    HW121254   3.505   5.118   4.042
 7042SOL    HW221255   3.487   5.009   3.939
 7043SOL     OW21256   7.236   5.025   0.683
 7043SOL    HW121257   7.163   5.016   0.622
 7043SOL    HW221258   7.198   5.009   0.770
 7044SOL     OW21259   8.988   4.864   4.655
 7044SOL    HW121260   9.067   4.901   4.695
 7044SOL    HW221261   9.020   4.816   4.579
 7045SOL     OW21262  10.260   3.920   4.877
 7045SOL    HW121263  10.354   3.928   4.862
 7045SOL    HW221264  10.239   3.995   4.934
 7046SOL     OW21265   2.593   1.226   1.799
 7046SOL    HW121266   2.552   1.215   1.713
 7046SOL    HW221267   2.678   1.266   1.780
 7047SOL     OW21268   1.859   6.283   1.837
 7047SOL    HW121269   1.830   6.374   1.827
 7047SOL    HW221270   1.951   6.284   1.807
 7048SOL     OW21271   8.129   5.274   1.561
 7048SOL    HW121272   8.164   5.202   1.614
 7048SOL    HW221273   8.200   5.338   1.558
 7049SOL     OW21274   4.188   2.230   0.865
 7049SOL    HW121275   4.135   2.289   0.918
 7049SOL    HW221276   4.142   2.224   0.781
 7050SOL     OW21277   3.269   7.291   4.307
 7050SOL    HW121278   3.183   7.329   4.289
 7050SOL    HW221279   3.278   7.295   4.402
 7051SOL     OW21280   5.272   6.414   0.293
 7051SOL    HW121281   5.231   6.497   0.268
 7051SOL    HW221282   5.283   6.367   0.211
 7052SOL     OW21283   5.374   3.344   2.144
 7052SOL    HW121284   5.290   3.367   2.104
 7052SOL    HW221285   5.405   3.425   2.184
 7053SOL     OW21286   9.595   2.470   4.096
 7053SOL    HW121287   9.534   2.448   4.166
 7053SOL    HW221288   9.609   2.565   4.104
 7054SOL     OW21289   5.051   7.121   4.575
 7054SOL    HW121290   5.066   7.191   4.511
 7054SOL    HW221291   5.135   7.075   4.579
 7055SOL     OW21292   5.257   3.227   4.191
 7055SOL    HW121293   5.173   3.256   4.227
 7055SOL    HW221294   5.251   3.131   4.192
 7056SOL     OW21295   6.889   0.810   0.726
 7056SOL    HW121296   6.957   0.752   0.692
 7056SOL    HW221297   6.899   0.891   0.676
 7057SOL     OW21298   5.161   0.774   1.398
 7057SOL    HW121299   5.187   0.751   1.310
 7057SOL    HW221300   5.066   0.790   1.392
 7058SOL     OW21301   6.246   4.419   0.507
 7058SOL    HW121302   6.185   4.432   0.435
 7058SOL    HW221303   6.273   4.327   0.500
 7059SOL     OW21304   2.226   3.274   0.357
 7059SOL    HW121305   2.307   3.324   0.368
 7059SOL    HW221306   2.242   3.192   0.405
 7060SOL     OW21307   4.053   0.740   0.712
 7060SOL    HW121308   4.144   0.741   0.741
 7060SOL    HW221309   4.009   0.682   0.774
 7061SOL     OW21310   2.170   3.279   1.889
 7061SOL    HW121311   2.130   3.246   1.969
 7061SOL    HW221312   2.100   3.277   1.824
 7062SOL     OW21313   3.486   0.747   2.344
 7062SOL    HW121314   3.582   0.748   2.337
 7062SOL    HW221315   3.468   0.696   2.423
 7063SOL     OW21316   9.072   7.390   4.483
 7063SOL    HW121317   9.149   7.446   4.469
 7063SOL    HW221318   9.107   7.312   4.525
 7064SOL     OW21319   4.357   4.857   1.732
 7064SOL    HW121320   4.444   4.895   1.748
 7064SOL    HW221321   4.299   4.932   1.724
 7065SOL     OW21322   4.829   7.377   2.902
 7065SOL    HW121323   4.782   7.384   2.819
 7065SOL    HW221324   4.765   7.338   2.962
 7066SOL     OW21325   1.401   6.219   0.995
 7066SOL    HW121326   1.398   6.312   1.017
 7066SOL    HW221327   1.423   6.216   0.902
 7067SOL     OW21328   6.948   6.582   0.691
 7067SOL    HW121329   6.872   6.577   0.633
 7067SOL    HW221330   7.009   6.517   0.656
 7068SOL     OW21331   6.890   5.494   3.751
 7068SOL    HW121332   6.951   5.538   3.692
 7068SOL    HW221333   6.808   5.491   3.702
 7069SOL     OW21334   9.101   3.894   3.672
 7069SOL    HW121335   9.124   3.857   3.587
 7069SOL    HW221336   9.183   3.895   3.721
 7070SOL     OW21337   5.819   7.327   4.694
 7070SOL    HW121338   5.767   7.265   4.643
 7070SOL    HW221339   5.809   7.299   4.785
 7071SOL     OW21340   5.945   3.861   0.565
 7071SOL    HW121341   6.009   3.860   0.494
 7071SOL    HW221342   5.984   3.917   0.632
 7072SOL     OW21343   4.086   3.112   1.010
 7072SOL    HW121344   4.038   3.128   1.091
 7072SOL    HW221345   4.027   3.141   0.940
 7073SOL     OW21346   5.490   5.469   1.004
 7073SOL    HW121347   5.527   5.495   1.089
 7073SOL    HW221348   5.500   5.547   0.949
 7074SOL     OW21349   6.035   5.559   1.296
 7074SOL    HW121350   6.046   5.639   1.245
 7074SOL    HW221351   6.021   5.490   1.232
 7075SOL     OW21352   3.817   4.597   5.143
 7075SOL    HW121353   3.835   4.537   5.071
 7075SOL    HW221354   3.840   4.549   5.222
 7076SOL     OW21355   5.858   6.910   4.083
 7076SOL    HW121356   5.907   6.991   4.099
 7076SOL    HW221357   5.924   6.849   4.050
 7077SOL     OW21358   8.508   6.178   1.458
 7077SOL    HW121359   8.537   6.257   1.503
 7077SOL    HW221360   8.486   6.117   1.528
 7078SOL     OW21361   4.182   2.002   2.193
 7078SOL    HW121362   4.150   2.057   2.265
 7078SOL    HW221363   4.115   2.011   2.125
 7079SOL     OW21364   1.666   4.588   1.343
 7079SOL    HW121365   1.704   4.643   1.412
 7079SOL    HW221366   1.737   4.528   1.319
 7080SOL     OW21367   7.631   2.617   3.848
 7080SOL    HW121368   7.654   2.699   3.803
 7080SOL    HW221369   7.708   2.561   3.836
 7081SOL     OW21370   2.532   6.831   2.717
 7081SOL    HW121371   2.442   6.821   2.750
 7081SOL    HW221372   2.528   6.909   2.661
 7082SOL     OW21373  10.467   6.851   4.693
 7082SOL    HW121374  10.546   6.798   4.705
 7082SOL    HW221375  10.432   6.824   4.608
 7083SOL     OW21376   6.106   4.987   2.094
 7083SOL    HW121377   6.200   4.997   2.110
 7083SOL    HW221378   6.068   5.070   2.122
 7084SOL     OW21379   6.776   0.159   3.274
 7084SOL    HW121380   6.723   0.238   3.282
 7084SOL    HW221381   6.866   0.188   3.285
 7085SOL     OW21382   1.574   0.761   1.549
 7085SOL    HW121383   1.664   0.735   1.529
 7085SOL    HW221384   1.565   0.849   1.512
 7086SOL     OW21385   6.707   5.498   1.281
 7086SOL    HW121386   6.646   5.527   1.350
 7086SOL    HW221387   6.732   5.579   1.236
 7087SOL     OW21388   7.429   3.099   4.815
 7087SOL    HW121389   7.436   3.192   4.835
 7087SOL    HW221390   7.388   3.060   4.892
 7088SOL     OW21391   2.512   3.196   2.462
 7088SOL    HW121392   2.532   3.103   2.456
 7088SOL    HW221393   2.453   3.204   2.537
 7089SOL     OW21394   8.679   2.988   1.914
 7089SOL    HW121395   8.684   3.081   1.891
 7089SOL    HW221396   8.610   2.954   1.858
 7090SOL     OW21397   4.402   5.717   1.945
 7090SOL    HW121398   4.379   5.631   1.911
 7090SOL    HW221399   4.444   5.699   2.029
 7091SOL     OW21400   2.640   3.796   1.722
 7091SOL    HW121401   2.544   3.798   1.723
 7091SOL    HW221402   2.666   3.851   1.796
 7092SOL     OW21403   4.052   1.237   0.437
 7092SOL    HW121404   4.025   1.198   0.520
 7092SOL    HW221405   4.040   1.167   0.373
 7093SOL     OW21406  10.317   5.351   4.957
 7093SOL    HW121407  10.382   5.388   5.017
 7093SOL    HW221408  10.299   5.421   4.895
 7094SOL     OW21409   5.978   2.797   0.900
 7094SOL    HW121410   5.911   2.729   0.889
 7094SOL    HW221411   5.933   2.867   0.946
 7095SOL     OW21412   7.488   4.066   0.708
 7095SOL    HW121413   7.440   4.009   0.647
 7095SOL    HW221414   7.430   4.141   0.721
 7096SOL     OW21415   3.140   5.552   1.253
 7096SOL    HW121416   3.110   5.535   1.163
 7096SOL    HW221417   3.137   5.467   1.296
 7097SOL     OW21418   9.449   5.996   4.976
 7097SOL    HW121419   9.399   5.952   5.045
 7097SOL    HW221420   9.420   6.087   4.979
 7098SOL     OW21421   6.092   5.142   0.920
 7098SOL    HW121422   6.085   5.226   0.875
 7098SOL    HW221423   6.178   5.143   0.961
 7099SOL     OW21424   3.444   0.085   4.773
 7099SOL    HW121425   3.519   0.145   4.771
 7099SOL    HW221426   3.472   0.013   4.829
 7100SOL     OW21427   7.249   0.683   0.345
 7100SOL    HW121428   7.214   0.637   0.422
 7100SOL    HW221429   7.263   0.773   0.376
 7101SOL     OW21430   7.566   5.513   4.908
 7101SOL    HW121431   7.653   5.474   4.914
 7101SOL    HW221432   7.577   5.589   4.851
 7102SOL     OW21433   3.900   0.917   4.537
 7102SOL    HW121434   3.943   0.944   4.456
 7102SOL    HW221435   3.918   0.823   4.543
 7103SOL     OW21436   4.629   0.382   1.780
 7103SOL    HW121437   4.585   0.298   1.793
 7103SOL    HW221438   4.718   0.368   1.811
 7104SOL     OW21439   3.856   5.831   0.937
 7104SOL    HW121440   3.944   5.802   0.915
 7104SOL    HW221441   3.826   5.879   0.860
 7105SOL     OW21442   2.138   3.031   1.723
 7105SOL    HW121443   2.196   2.986   1.785
 7105SOL    HW221444   2.054   3.036   1.768
 7106SOL     OW21445   7.955   4.502   2.873
 7106SOL    HW121446   7.871   4.526   2.912
 7106SOL    HW221447   7.964   4.561   2.798
 7107SOL     OW21448   8.422   3.017   3.993
 7107SOL    HW121449   8.437   3.088   3.931
 7107SOL    HW221450   8.423   3.060   4.079
 7108SOL     OW21451   5.210   7.395   0.372
 7108SOL    HW121452   5.180   7.355   0.290
 7108SOL    HW221453   5.305   7.394   0.366
 7109SOL     OW21454   1.000   3.733   1.412
 7109SOL    HW121455   1.047   3.672   1.468
 7109SOL    HW221456   1.042   3.818   1.428
 7110SOL     OW21457   4.439   3.786  -0.018
 7110SOL    HW121458   4.361   3.759   0.030
 7110SOL    HW221459   4.463   3.870   0.022
 7111SOL     OW21460   9.766   7.415   3.732
 7111SOL    HW121461   9.742   7.506   3.716
 7111SOL    HW221462   9.683   7.369   3.742
 7112SOL     OW21463   3.320   7.418   2.356
 7112SOL    HW121464   3.392   7.396   2.297
 7112SOL    HW221465   3.347   7.380   2.440
 7113SOL     OW21466   7.377   3.368   0.355
 7113SOL    HW121467   7.390   3.355   0.261
 7113SOL    HW221468   7.462   3.351   0.394
 7114SOL     OW21469   6.445   1.186   1.835
 7114SOL    HW121470   6.513   1.155   1.776
 7114SOL    HW221471   6.480   1.265   1.875
 7115SOL     OW21472   8.419   1.774   3.543
 7115SOL    HW121473   8.342   1.824   3.518
 7115SOL    HW221474   8.493   1.827   3.513
 7116SOL     OW21475   3.794   2.700   1.390
 7116SOL    HW121476   3.852   2.625   1.406
 7116SOL    HW221477   3.851   2.777   1.400
 7117SOL     OW21478   5.117   2.913   3.283
 7117SOL    HW121479   5.166   2.995   3.288
 7117SOL    HW221480   5.068   2.920   3.201
 7118SOL     OW21481   7.490   1.395   2.033
 7118SOL    HW121482   7.542   1.325   2.073
 7118SOL    HW221483   7.471   1.364   1.944
 7119SOL     OW21484   3.442   7.248   4.123
 7119SOL    HW121485   3.444   7.337   4.090
 7119SOL    HW221486   3.372   7.247   4.188
 7120SOL     OW21487   7.839   2.209   0.712
 7120SOL    HW121488   7.902   2.271   0.673
 7120SOL    HW221489   7.846   2.225   0.806
 7121SOL     OW21490   8.638   2.374   4.402
 7121SOL    HW121491   8.573   2.319   4.359
 7121SOL    HW221492   8.683   2.316   4.463
 7122SOL     OW21493   5.225   6.828  -0.013
 7122SOL    HW121494   5.302   6.802   0.037
 7122SOL    HW221495   5.224   6.924  -0.008
 7123SOL     OW21496   2.769   4.618   0.884
 7123SOL    HW121497   2.821   4.581   0.956
 7123SOL    HW221498   2.834   4.646   0.820
 7124SOL     OW21499   6.591   4.657   1.607
 7124SOL    HW121500   6.515   4.653   1.666
 7124SOL    HW221501   6.594   4.747   1.576
 7125SOL     OW21502   4.366   6.789   3.985
 7125SOL    HW121503   4.396   6.856   4.046
 7125SOL    HW221504   4.442   6.733   3.971
 7126SOL     OW21505   9.729   6.333   5.158
 7126SOL    HW121506   9.715   6.427   5.153
 7126SOL    HW221507   9.651   6.294   5.117
 7127SOL     OW21508   6.835   0.112   2.446
 7127SOL    HW121509   6.838   0.202   2.413
 7127SOL    HW221510   6.854   0.120   2.539
 7128SOL     OW21511   6.503   4.861   2.533
 7128SOL    HW121512   6.489   4.907   2.450
 7128SOL    HW221513   6.487   4.928   2.600
 7129SOL     OW21514  10.142   2.827   5.133
 7129SOL    HW121515  10.206   2.808   5.202
 7129SOL    HW221516  10.084   2.751   5.132
 7130SOL     OW21517   1.270   1.395   1.659
 7130SOL    HW121518   1.328   1.442   1.719
 7130SOL    HW221519   1.279   1.303   1.684
 7131SOL     OW21520   3.758   3.998   5.227
 7131SOL    HW121521   3.736   3.909   5.256
 7131SOL    HW221522   3.853   3.995   5.211
 7132SOL     OW21523   9.365   3.962   4.484
 7132SOL    HW121524   9.435   3.987   4.424
 7132SOL    HW221525   9.299   4.030   4.472
 7133SOL     OW21526   8.816   7.408   5.001
 7133SOL    HW121527   8.756   7.335   4.986
 7133SOL    HW221528   8.892   7.368   5.045
 7134SOL     OW21529   9.262   4.680   5.224
 7134SOL    HW121530   9.321   4.653   5.294
 7134SOL    HW221531   9.317   4.731   5.164
 7135SOL     OW21532   3.698   0.407   0.136
 7135SOL    HW121533   3.764   0.447   0.192
 7135SOL    HW221534   3.737   0.407   0.048
 7136SOL     OW21535   2.565   2.265   1.577
 7136SOL    HW121536   2.550   2.269   1.482
 7136SOL    HW221537   2.580   2.172   1.594
 7137SOL     OW21538   3.163   0.413   2.857
 7137SOL    HW121539   3.120   0.364   2.927
 7137SOL    HW221540   3.127   0.502   2.864
 7138SOL     OW21541   3.110   0.671   0.667
 7138SOL    HW121542   3.174   0.608   0.701
 7138SOL    HW221543   3.159   0.723   0.604
 7139SOL     OW21544   5.759   0.203   3.898
 7139SOL    HW121545   5.819   0.276   3.887
 7139SOL    HW221546   5.742   0.200   3.993
 7140SOL     OW21547   9.842   1.496   4.355
 7140SOL    HW121548   9.906   1.426   4.370
 7140SOL    HW221549   9.786   1.494   4.432
 7141SOL     OW21550   7.200   5.951   2.733
 7141SOL    HW121551   7.120   5.912   2.767
 7141SOL    HW221552   7.210   5.913   2.645
 7142SOL     OW21553   6.450   5.396   3.418
 7142SOL    HW121554   6.442   5.491   3.407
 7142SOL    HW221555   6.379   5.373   3.478
 7143SOL     OW21556   5.912   4.188   4.090
 7143SOL    HW121557   5.881   4.123   4.152
 7143SOL    HW221558   5.922   4.140   4.008
 7144SOL     OW21559   4.410   5.455   3.419
 7144SOL    HW121560   4.376   5.481   3.504
 7144SOL    HW221561   4.491   5.504   3.409
 7145SOL     OW21562   5.996   4.085   2.835
 7145SOL    HW121563   6.067   4.119   2.890
 7145SOL    HW221564   5.974   4.000   2.873
 7146SOL     OW21565   8.636   5.726   4.476
 7146SOL    HW121566   8.694   5.671   4.423
 7146SOL    HW221567   8.550   5.717   4.434
 7147SOL     OW21568   6.934   5.180   2.968
 7147SOL    HW121569   6.855   5.144   3.008
 7147SOL    HW221570   6.926   5.275   2.978
 7148SOL     OW21571   5.223   2.332   3.991
 7148SOL    HW121572   5.153   2.396   3.982
 7148SOL    HW221573   5.283   2.351   3.919
 7149SOL     OW21574   1.270   2.324   0.617
 7149SOL    HW121575   1.221   2.314   0.535
 7149SOL    HW221576   1.248   2.413   0.647
 7150SOL     OW21577   5.507   1.990   1.872
 7150SOL    HW121578   5.470   2.079   1.872
 7150SOL    HW221579   5.473   1.950   1.952
 7151SOL     OW21580   5.760   0.165   4.168
 7151SOL    HW121581   5.667   0.179   4.187
 7151SOL    HW221582   5.805   0.189   4.249
 7152SOL     OW21583   7.291   1.005   2.752
 7152SOL    HW121584   7.212   0.952   2.758
 7152SOL    HW221585   7.269   1.074   2.690
 7153SOL     OW21586   9.602   5.532   4.660
 7153SOL    HW121587   9.649   5.482   4.594
 7153SOL    HW221588   9.515   5.545   4.622
 7154SOL     OW21589   2.033   1.078   0.775
 7154SOL    HW121590   2.098   1.084   0.845
 7154SOL    HW221591   1.965   1.020   0.810
 7155SOL     OW21592   3.592   3.552   3.631
 7155SOL    HW121593   3.559   3.626   3.681
 7155SOL    HW221594   3.545   3.476   3.667
 7156SOL     OW21595   7.172   7.444   3.558
 7156SOL    HW121596   7.144   7.418   3.470
 7156SOL    HW221597   7.207   7.365   3.597
 7157SOL     OW21598   2.301   2.942   3.090
 7157SOL    HW121599   2.278   3.026   3.051
 7157SOL    HW221600   2.278   2.952   3.183
 7158SOL     OW21601   6.484   1.347   3.777
 7158SOL    HW121602   6.552   1.413   3.761
 7158SOL    HW221603   6.404   1.398   3.789
 7159SOL     OW21604   8.194   5.271   2.261
 7159SOL    HW121605   8.169   5.269   2.354
 7159SOL    HW221606   8.116   5.302   2.216
 7160SOL     OW21607   8.900   5.455   2.419
 7160SOL    HW121608   8.839   5.409   2.476
 7160SOL    HW221609   8.976   5.398   2.412
 7161SOL     OW21610   5.524   2.791   2.064
 7161SOL    HW121611   5.571   2.862   2.108
 7161SOL    HW221612   5.590   2.747   2.011
 7162SOL     OW21613   4.620   4.221   3.529
 7162SOL    HW121614   4.670   4.161   3.584
 7162SOL    HW221615   4.571   4.275   3.591
 7163SOL     OW21616   7.752   6.460   3.417
 7163SOL    HW121617   7.668   6.414   3.413
 7163SOL    HW221618   7.816   6.396   3.384
 7164SOL     OW21619   7.033   0.376   2.314
 7164SOL    HW121620   6.994   0.458   2.284
 7164SOL    HW221621   7.060   0.331   2.235
 7165SOL     OW21622   8.204   2.956   3.739
 7165SOL    HW121623   8.146   3.006   3.682
 7165SOL    HW221624   8.167   2.967   3.827
 7166SOL     OW21625   5.202   2.644   2.682
 7166SOL    HW121626   5.192   2.635   2.587
 7166SOL    HW221627   5.255   2.724   2.693
 7167SOL     OW21628   8.469   2.859   2.762
 7167SOL    HW121629   8.381   2.845   2.796
 7167SOL    HW221630   8.481   2.954   2.765
 7168SOL     OW21631   7.660   2.503   2.010
 7168SOL    HW121632   7.736   2.548   1.974
 7168SOL    HW221633   7.662   2.522   2.103
 7169SOL     OW21634   6.775   0.229   1.828
 7169SOL    HW121635   6.860   0.186   1.832
 7169SOL    HW221636   6.715   0.171   1.875
 7170SOL     OW21637   5.665   1.571   1.746
 7170SOL    HW121638   5.686   1.646   1.802
 7170SOL    HW221639   5.601   1.605   1.683
 7171SOL     OW21640   9.099   1.773   4.923
 7171SOL    HW121641   9.079   1.836   4.992
 7171SOL    HW221642   9.063   1.690   4.955
 7172SOL     OW21643   8.210   5.048   4.463
 7172SOL    HW121644   8.180   5.138   4.475
 7172SOL    HW221645   8.153   5.014   4.393
 7173SOL     OW21646   5.223   4.478   4.104
 7173SOL    HW121647   5.174   4.457   4.183
 7173SOL    HW221648   5.164   4.532   4.052
 7174SOL     OW21649   5.027   3.800   2.537
 7174SOL    HW121650   4.960   3.836   2.479
 7174SOL    HW221651   5.006   3.836   2.623
 7175SOL     OW21652   3.266   2.159   3.153
 7175SOL    HW121653   3.184   2.119   3.124
 7175SOL    HW221654   3.334   2.104   3.117
 7176SOL     OW21655   8.216   2.418   2.913
 7176SOL    HW121656   8.286   2.477   2.942
 7176SOL    HW221657   8.145   2.432   2.976
 7177SOL     OW21658   5.852   0.937   2.953
 7177SOL    HW121659   5.780   0.902   2.900
 7177SOL    HW221660   5.923   0.950   2.890
 7178SOL     OW21661   6.183   3.764   4.814
 7178SOL    HW121662   6.183   3.803   4.901
 7178SOL    HW221663   6.144   3.677   4.826
 7179SOL     OW21664   2.889   0.122   1.636
 7179SOL    HW121665   2.851   0.151   1.719
 7179SOL    HW221666   2.820   0.071   1.594
 7180SOL     OW21667   6.217   1.330   1.334
 7180SOL    HW121668   6.216   1.246   1.289
 7180SOL    HW221669   6.248   1.393   1.269
 7181SOL     OW21670   2.583   2.173   2.166
 7181SOL    HW121671   2.555   2.094   2.212
 7181SOL    HW221672   2.676   2.158   2.147
 7182SOL     OW21673   6.495   1.646   4.890
 7182SOL    HW121674   6.494   1.648   4.794
 7182SOL    HW221675   6.526   1.733   4.915
 7183SOL     OW21676   5.309   6.880   0.597
 7183SOL    HW121677   5.328   6.924   0.680
 7183SOL    HW221678   5.329   6.946   0.530
 7184SOL     OW21679   7.624   3.019   3.871
 7184SOL    HW121680   7.581   2.949   3.920
 7184SOL    HW221681   7.700   2.978   3.831
 7185SOL     OW21682   4.452   2.625   4.268
 7185SOL    HW121683   4.414   2.640   4.354
 7185SOL    HW221684   4.530   2.680   4.265
 7186SOL     OW21685   5.828   6.882   5.272
 7186SOL    HW121686   5.887   6.908   5.202
 7186SOL    HW221687   5.876   6.814   5.320
 7187SOL     OW21688   6.258   4.398   1.536
 7187SOL    HW121689   6.179   4.452   1.537
 7187SOL    HW221690   6.291   4.402   1.626
 7188SOL     OW21691   8.987   7.006   4.723
 7188SOL    HW121692   8.988   6.911   4.714
 7188SOL    HW221693   8.910   7.025   4.776
 7189SOL     OW21694   5.797   6.740   4.895
 7189SOL    HW121695   5.855   6.729   4.820
 7189SOL    HW221696   5.764   6.830   4.887
 7190SOL     OW21697   6.610   2.070   0.243
 7190SOL    HW121698   6.566   2.148   0.209
 7190SOL    HW221699   6.580   2.063   0.334
 7191SOL     OW21700   5.355   3.343   0.964
 7191SOL    HW121701   5.441   3.310   0.938
 7191SOL    HW221702   5.369   3.436   0.980
 7192SOL     OW21703   2.298   5.673   2.056
 7192SOL    HW121704   2.233   5.737   2.083
 7192SOL    HW221705   2.276   5.655   1.964
 7193SOL     OW21706   0.703   2.738   0.382
 7193SOL    HW121707   0.636   2.690   0.333
 7193SOL    HW221708   0.654   2.803   0.432
 7194SOL     OW21709   7.106   4.977   2.473
 7194SOL    HW121710   7.075   5.018   2.393
 7194SOL    HW221711   7.051   5.014   2.542
 7195SOL     OW21712   4.672   6.011   1.379
 7195SOL    HW121713   4.661   5.917   1.393
 7195SOL    HW221714   4.636   6.051   1.459
 7196SOL     OW21715   5.620   0.388   5.174
 7196SOL    HW121716   5.533   0.357   5.198
 7196SOL    HW221717   5.611   0.416   5.082
 7197SOL     OW21718   4.033   5.566   4.028
 7197SOL    HW121719   3.946   5.586   3.994
 7197SOL    HW221720   4.067   5.500   3.968
 7198SOL     OW21721   4.654   1.014   2.789
 7198SOL    HW121722   4.660   1.016   2.694
 7198SOL    HW221723   4.562   1.034   2.808
 7199SOL     OW21724   6.621   4.919   1.503
 7199SOL    HW121725   6.572   5.000   1.512
 7199SOL    HW221726   6.709   4.946   1.478
 7200SOL     OW21727   7.765   1.782   0.484
 7200SOL    HW121728   7.791   1.855   0.541
 7200SOL    HW221729   7.712   1.824   0.416
 7201SOL     OW21730   3.215   4.967   0.749
 7201SOL    HW121731   3.189   5.057   0.768
 7201SOL    HW221732   3.308   4.964   0.768
 7202SOL     OW21733   6.876   0.447   4.015
 7202SOL    HW121734   6.794   0.449   4.064
 7202SOL    HW221735   6.924   0.523   4.046
 7203SOL     OW21736   6.978   3.083   2.806
 7203SOL    HW121737   6.956   3.149   2.871
 7203SOL    HW221738   7.046   3.030   2.848
 7204SOL     OW21739   7.703   1.731   4.611
 7204SOL    HW121740   7.757   1.658   4.580
 7204SOL    HW221741   7.765   1.787   4.657
 7205SOL     OW21742   7.286   5.876   5.009
 7205SOL    HW121743   7.332   5.929   4.944
 7205SOL    HW221744   7.198   5.914   5.015
 7206SOL     OW21745   6.779   0.284   5.131
 7206SOL    HW121746   6.772   0.310   5.040
 7206SOL    HW221747   6.689   0.287   5.164
 7207SOL     OW21748   4.629   0.465   2.377
 7207SOL    HW121749   4.709   0.518   2.373
 7207SOL    HW221750   4.659   0.375   2.381
 7208SOL     OW21751   2.192   6.099   1.708
 7208SOL    HW121752   2.195   6.188   1.744
 7208SOL    HW221753   2.191   6.043   1.785
 7209SOL     OW21754   6.066   5.714   4.123
 7209SOL    HW121755   6.015   5.792   4.146
 7209SOL    HW221756   6.157   5.744   4.127
 7210SOL     OW21757   6.788   2.070   2.154
 7210SOL    HW121758   6.715   2.010   2.167
 7210SOL    HW221759   6.851   2.021   2.102
 7211SOL     OW21760   3.966   2.747   3.399
 7211SOL    HW121761   3.924   2.833   3.399
 7211SOL    HW221762   3.894   2.685   3.390
 7212SOL     OW21763   3.739   6.036   3.414
 7212SOL    HW121764   3.706   5.989   3.337
 7212SOL    HW221765   3.818   5.989   3.438
 7213SOL     OW21766   8.463   4.065   1.778
 7213SOL    HW121767   8.388   4.022   1.737
 7213SOL    HW221768   8.535   4.003   1.770
 7214SOL     OW21769   8.456   0.256   4.323
 7214SOL    HW121770   8.496   0.223   4.403
 7214SOL    HW221771   8.474   0.350   4.323
 7215SOL     OW21772   5.147   7.142   2.120
 7215SOL    HW121773   5.152   7.048   2.137
 7215SOL    HW221774   5.057   7.166   2.142
 7216SOL     OW21775   1.100   0.822   1.080
 7216SOL    HW121776   1.008   0.822   1.056
 7216SOL    HW221777   1.146   0.844   0.999
 7217SOL     OW21778   6.108   0.720   1.972
 7217SOL    HW121779   6.170   0.774   1.923
 7217SOL    HW221780   6.057   0.783   2.024
 7218SOL     OW21781   1.273   2.785   1.630
 7218SOL    HW121782   1.295   2.736   1.550
 7218SOL    HW221783   1.340   2.853   1.636
 7219SOL     OW21784   0.744   3.178   0.229
 7219SOL    HW121785   0.654   3.158   0.256
 7219SOL    HW221786   0.737   3.262   0.183
 7220SOL     OW21787   3.789   5.752   4.047
 7220SOL    HW121788   3.878   5.781   4.028
 7220SOL    HW221789   3.740   5.833   4.062
 7221SOL     OW21790   2.874   5.366   2.211
 7221SOL    HW121791   2.812   5.313   2.161
 7221SOL    HW221792   2.820   5.417   2.271
 7222SOL     OW21793   9.892   3.292   4.442
 7222SOL    HW121794   9.908   3.257   4.530
 7222SOL    HW221795   9.950   3.241   4.385
 7223SOL     OW21796   6.726   0.991   2.865
 7223SOL    HW121797   6.673   0.920   2.829
 7223SOL    HW221798   6.715   1.063   2.804
 7224SOL     OW21799   3.017   2.519   3.321
 7224SOL    HW121800   3.059   2.573   3.254
 7224SOL    HW221801   2.977   2.582   3.381
 7225SOL     OW21802   9.033   2.585   4.316
 7225SOL    HW121803   9.019   2.490   4.312
 7225SOL    HW221804   8.956   2.622   4.272
 7226SOL     OW21805   2.063   4.198   1.664
 7226SOL    HW121806   2.062   4.225   1.572
 7226SOL    HW221807   2.084   4.104   1.661
 7227SOL     OW21808   3.301   6.488   4.425
 7227SOL    HW121809   3.318   6.397   4.449
 7227SOL    HW221810   3.370   6.509   4.362
 7228SOL     OW21811   9.573   1.702   3.960
 7228SOL    HW121812   9.640   1.766   3.933
 7228SOL    HW221813   9.492   1.734   3.921
 7229SOL     OW21814   2.749   5.981   2.964
 7229SOL    HW121815   2.813   6.036   2.920
 7229SOL    HW221816   2.801   5.924   3.021
 7230SOL     OW21817   9.129   4.861   2.973
 7230SOL    HW121818   9.178   4.929   2.928
 7230SOL    HW221819   9.099   4.902   3.054
 7231SOL     OW21820   2.927   6.698  -0.005
 7231SOL    HW121821   2.951   6.688   0.087
 7231SOL    HW221822   2.875   6.619  -0.025
 7232SOL     OW21823   9.754   2.325   4.775
 7232SOL    HW121824   9.802   2.248   4.744
 7232SOL    HW221825   9.799   2.399   4.735
 7233SOL     OW21826   5.689   6.882   3.833
 7233SOL    HW121827   5.695   6.817   3.904
 7233SOL    HW221828   5.665   6.830   3.756
 7234SOL     OW21829   4.461   4.173   0.537
 7234SOL    HW121830   4.490   4.139   0.453
 7234SOL    HW221831   4.452   4.096   0.593
 7235SOL     OW21832   9.803   4.420   3.971
 7235SOL    HW121833   9.889   4.381   3.984
 7235SOL    HW221834   9.821   4.508   3.939
 7236SOL     OW21835   3.281   2.025   2.508
 7236SOL    HW121836   3.256   2.033   2.416
 7236SOL    HW221837   3.330   1.942   2.513
 7237SOL     OW21838   8.713   1.887   5.141
 7237SOL    HW121839   8.801   1.888   5.178
 7237SOL    HW221840   8.664   1.948   5.196
 7238SOL     OW21841   3.822   2.494   1.843
 7238SOL    HW121842   3.873   2.413   1.841
 7238SOL    HW221843   3.738   2.470   1.804
 7239SOL     OW21844   3.491   5.858   4.723
 7239SOL    HW121845   3.522   5.935   4.770
 7239SOL    HW221846   3.534   5.784   4.766
 7240SOL     OW21847   4.480   4.809   1.466
 7240SOL    HW121848   4.460   4.719   1.494
 7240SOL    HW221849   4.482   4.859   1.547
 7241SOL     OW21850   9.952   0.744   3.912
 7241SOL    HW121851   9.872   0.758   3.862
 7241SOL    HW221852   9.925   0.692   3.988
 7242SOL     OW21853   8.534   7.122   5.073
 7242SOL    HW121854   8.448   7.087   5.051
 7242SOL    HW221855   8.591   7.093   5.002
 7243SOL     OW21856   7.699   6.718   3.430
 7243SOL    HW121857   7.719   6.722   3.337
 7243SOL    HW221858   7.702   6.625   3.452
 7244SOL     OW21859   2.812   1.876   2.728
 7244SOL    HW121860   2.767   1.887   2.812
 7244SOL    HW221861   2.747   1.834   2.671
 7245SOL     OW21862   1.927   0.475   1.796
 7245SOL    HW121863   1.872   0.409   1.754
 7245SOL    HW221864   2.012   0.467   1.754
 7246SOL     OW21865   8.383   7.183   2.604
 7246SOL    HW121866   8.460   7.128   2.616
 7246SOL    HW221867   8.309   7.121   2.601
 7247SOL     OW21868   3.354   1.323   0.242
 7247SOL    HW121869   3.399   1.304   0.159
 7247SOL    HW221870   3.332   1.416   0.236
 7248SOL     OW21871   3.326   3.266   2.443
 7248SOL    HW121872   3.299   3.358   2.440
 7248SOL    HW221873   3.419   3.267   2.424
 7249SOL     OW21874   5.240   4.373   2.322
 7249SOL    HW121875   5.280   4.459   2.310
 7249SOL    HW221876   5.147   4.388   2.311
 7250SOL     OW21877   9.077   0.632   3.250
 7250SOL    HW121878   8.996   0.647   3.200
 7250SOL    HW221879   9.128   0.712   3.238
 7251SOL     OW21880   5.554   3.695   3.075
 7251SOL    HW121881   5.497   3.694   2.998
 7251SOL    HW221882   5.625   3.755   3.050
 7252SOL     OW21883   5.708   4.742   3.763
 7252SOL    HW121884   5.771   4.773   3.828
 7252SOL    HW221885   5.728   4.794   3.685
 7253SOL     OW21886   8.523   6.722   2.545
 7253SOL    HW121887   8.542   6.692   2.456
 7253SOL    HW221888   8.443   6.676   2.569
 7254SOL     OW21889   7.432   4.181   4.394
 7254SOL    HW121890   7.372   4.243   4.435
 7254SOL    HW221891   7.478   4.140   4.468
 7255SOL     OW21892   4.257   5.820   1.590
 7255SOL    HW121893   4.200   5.829   1.666
 7255SOL    HW221894   4.240   5.898   1.538
 7256SOL     OW21895   7.328   2.069   0.315
 7256SOL    HW121896   7.307   2.161   0.332
 7256SOL    HW221897   7.423   2.068   0.308
 7257SOL     OW21898   8.676   0.842   3.745
 7257SOL    HW121899   8.681   0.763   3.798
 7257SOL    HW221900   8.658   0.913   3.807
 7258SOL     OW21901   3.062   2.012   3.079
 7258SOL    HW121902   3.040   1.940   3.020
 7258SOL    HW221903   2.991   2.075   3.068
 7259SOL     OW21904   3.825   0.165   1.670
 7259SOL    HW121905   3.742   0.205   1.643
 7259SOL    HW221906   3.839   0.196   1.759
 7260SOL     OW21907   5.696   2.329   3.194
 7260SOL    HW121908   5.707   2.423   3.177
 7260SOL    HW221909   5.757   2.311   3.266
 7261SOL     OW21910   7.199   0.836   4.470
 7261SOL    HW121911   7.136   0.895   4.511
 7261SOL    HW221912   7.211   0.765   4.534
 7262SOL     OW21913   8.169   6.475   4.487
 7262SOL    HW121914   8.151   6.539   4.556
 7262SOL    HW221915   8.087   6.427   4.477
 7263SOL     OW21916   7.630   6.501   4.575
 7263SOL    HW121917   7.579   6.581   4.562
 7263SOL    HW221918   7.603   6.470   4.661
 7264SOL     OW21919   4.877   2.549   0.070
 7264SOL    HW121920   4.815   2.508   0.130
 7264SOL    HW221921   4.832   2.549  -0.015
 7265SOL     OW21922   3.178   2.888   1.759
 7265SOL    HW121923   3.270   2.888   1.785
 7265SOL    HW221924   3.145   2.973   1.788
 7266SOL     OW21925   2.358   2.146   1.791
 7266SOL    HW121926   2.359   2.152   1.696
 7266SOL    HW221927   2.411   2.069   1.811
 7267SOL     OW21928   8.173   1.370   2.490
 7267SOL    HW121929   8.206   1.445   2.440
 7267SOL    HW221930   8.135   1.408   2.569
 7268SOL     OW21931   4.233   0.191   4.436
 7268SOL    HW121932   4.214   0.269   4.489
 7268SOL    HW221933   4.314   0.212   4.391
 7269SOL     OW21934   6.635   5.292   4.612
 7269SOL    HW121935   6.649   5.268   4.520
 7269SOL    HW221936   6.558   5.241   4.639
 7270SOL     OW21937   8.612   1.521   1.938
 7270SOL    HW121938   8.568   1.437   1.949
 7270SOL    HW221939   8.701   1.499   1.913
 7271SOL     OW21940   1.835   0.799   0.138
 7271SOL    HW121941   1.878   0.874   0.098
 7271SOL    HW221942   1.797   0.834   0.219
 7272SOL     OW21943   8.761   4.067   2.191
 7272SOL    HW121944   8.754   4.051   2.097
 7272SOL    HW221945   8.773   3.980   2.230
 7273SOL     OW21946   6.476   6.147   2.548
 7273SOL    HW121947   6.498   6.133   2.456
 7273SOL    HW221948   6.558   6.174   2.589
 7274SOL     OW21949   9.585   1.500   3.453
 7274SOL    HW121950   9.605   1.551   3.531
 7274SOL    HW221951   9.654   1.434   3.449
 7275SOL     OW21952   2.102   1.963   0.305
 7275SOL    HW121953   2.085   1.970   0.399
 7275SOL    HW221954   2.196   1.945   0.298
 7276SOL     OW21955   2.988   5.587   0.974
 7276SOL    HW121956   3.070   5.633   0.953
 7276SOL    HW221957   2.919   5.647   0.946
 7277SOL     OW21958   3.198   4.664   3.049
 7277SOL    HW121959   3.211   4.712   2.968
 7277SOL    HW221960   3.129   4.712   3.095
 7278SOL     OW21961   5.670   4.088   2.605
 7278SOL    HW121962   5.643   3.998   2.586
 7278SOL    HW221963   5.633   4.140   2.534
 7279SOL     OW21964   5.781   0.014   3.062
 7279SOL    HW121965   5.720   0.008   3.136
 7279SOL    HW221966   5.729   0.050   2.991
 7280SOL     OW21967   8.141   5.243   3.450
 7280SOL    HW121968   8.164   5.315   3.508
 7280SOL    HW221969   8.219   5.187   3.449
 7281SOL     OW21970   8.108   5.277   4.610
 7281SOL    HW121971   8.067   5.354   4.651
 7281SOL    HW221972   8.132   5.221   4.684
 7282SOL     OW21973   7.632   0.597   5.116
 7282SOL    HW121974   7.617   0.627   5.027
 7282SOL    HW221975   7.699   0.656   5.151
 7283SOL     OW21976   8.670   4.943   4.290
 7283SOL    HW121977   8.672   4.870   4.229
 7283SOL    HW221978   8.682   4.903   4.376
 7284SOL     OW21979   3.252   0.079   2.735
 7284SOL    HW121980   3.216   0.047   2.818
 7284SOL    HW221981   3.197   0.040   2.668
 7285SOL     OW21982   7.662   2.778   2.302
 7285SOL    HW121983   7.636   2.840   2.371
 7285SOL    HW221984   7.609   2.803   2.227
 7286SOL     OW21985   2.438   6.419   1.173
 7286SOL    HW121986   2.413   6.491   1.115
 7286SOL    HW221987   2.478   6.462   1.249
 7287SOL     OW21988   6.426   6.132   2.979
 7287SOL    HW121989   6.388   6.047   2.959
 7287SOL    HW221990   6.478   6.154   2.901
 7288SOL     OW21991   6.350   3.271   3.404
 7288SOL    HW121992   6.385   3.257   3.492
 7288SOL    HW221993   6.258   3.294   3.418
 7289SOL     OW21994   5.644   1.159   0.420
 7289SOL    HW121995   5.619   1.166   0.328
 7289SOL    HW221996   5.601   1.233   0.463
 7290SOL     OW21997   5.852   2.327   4.234
 7290SOL    HW121998   5.827   2.276   4.156
 7290SOL    HW221999   5.785   2.306   4.299
 7291SOL     OW22000   3.057   6.126   0.279
 7291SOL    HW122001   3.052   6.138   0.374
 7291SOL    HW222002   2.966   6.112   0.251
 7292SOL     OW22003   7.378   2.558   2.449
 7292SOL    HW122004   7.368   2.643   2.492
 7292SOL    HW222005   7.372   2.495   2.520
 7293SOL     OW22006   2.565   2.451   2.635
 7293SOL    HW122007   2.598   2.382   2.578
 7293SOL    HW222008   2.629   2.455   2.707
 7294SOL     OW22009   1.502   1.192   1.524
 7294SOL    HW122010   1.459   1.276   1.535
 7294SOL    HW222011   1.578   1.211   1.469
 7295SOL     OW22012   3.942   3.894   3.699
 7295SOL    HW122013   3.876   3.878   3.766
 7295SOL    HW222014   4.025   3.891   3.747
 7296SOL     OW22015   8.967   7.160   2.913
 7296SOL    HW122016   9.043   7.114   2.949
 7296SOL    HW222017   8.903   7.090   2.897
 7297SOL     OW22018  10.073   0.501   3.773
 7297SOL    HW122019  10.102   0.461   3.855
 7297SOL    HW222020  10.086   0.595   3.787
 7298SOL     OW22021   7.092   3.441   3.252
 7298SOL    HW122022   7.013   3.398   3.285
 7298SOL    HW222023   7.138   3.472   3.331
 7299SOL     OW22024   3.818   2.130   3.279
 7299SOL    HW122025   3.911   2.106   3.281
 7299SOL    HW222026   3.815   2.215   3.323
 7300SOL     OW22027   4.999   7.401   4.039
 7300SOL    HW122028   4.932   7.467   4.019
 7300SOL    HW222029   5.081   7.442   4.013
 7301SOL     OW22030   4.629   5.518   0.814
 7301SOL    HW122031   4.671   5.464   0.881
 7301SOL    HW222032   4.685   5.509   0.737
 7302SOL     OW22033   7.557   3.078   1.840
 7302SOL    HW122034   7.504   3.125   1.776
 7302SOL    HW222035   7.637   3.130   1.848
 7303SOL     OW22036  10.602   0.447   5.053
 7303SOL    HW122037  10.622   0.431   4.960
 7303SOL    HW222038  10.650   0.527   5.074
 7304SOL     OW22039   2.333   0.053   2.503
 7304SOL    HW122040   2.416   0.090   2.474
 7304SOL    HW222041   2.279   0.129   2.525
 7305SOL     OW22042   2.043   6.491   0.357
 7305SOL    HW122043   2.045   6.563   0.295
 7305SOL    HW222044   2.074   6.529   0.439
 7306SOL     OW22045   2.422   1.759   1.388
 7306SOL    HW122046   2.415   1.776   1.294
 7306SOL    HW222047   2.368   1.826   1.429
 7307SOL     OW22048   1.579   6.634   2.220
 7307SOL    HW122049   1.603   6.645   2.312
 7307SOL    HW222050   1.589   6.722   2.183
 7308SOL     OW22051   4.257   1.052   3.401
 7308SOL    HW122052   4.194   1.019   3.465
 7308SOL    HW222053   4.248   0.992   3.326
 7309SOL     OW22054   1.487   5.881   0.063
 7309SOL    HW122055   1.428   5.912  -0.005
 7309SOL    HW222056   1.440   5.897   0.145
 7310SOL     OW22057   6.777   7.434   2.715
 7310SOL    HW122058   6.841   7.423   2.785
 7310SOL    HW222059   6.760   7.528   2.712
 7311SOL     OW22060   5.597   4.492   1.234
 7311SOL    HW122061   5.682   4.507   1.193
 7311SOL    HW222062   5.537   4.478   1.160
 7312SOL     OW22063   4.097   6.012   2.795
 7312SOL    HW122064   4.099   6.035   2.887
 7312SOL    HW222065   4.057   6.087   2.752
 7313SOL     OW22066   6.522   7.433   4.556
 7313SOL    HW122067   6.495   7.357   4.506
 7313SOL    HW222068   6.570   7.488   4.493
 7314SOL     OW22069   6.963   6.961   4.699
 7314SOL    HW122070   6.954   7.040   4.753
 7314SOL    HW222071   7.029   6.984   4.634
 7315SOL     OW22072   5.621   2.530   2.255
 7315SOL    HW122073   5.704   2.572   2.233
 7315SOL    HW222074   5.556   2.600   2.248
 7316SOL     OW22075   9.546   3.686   4.447
 7316SOL    HW122076   9.632   3.649   4.468
 7316SOL    HW222077   9.565   3.775   4.419
 7317SOL     OW22078   2.968   0.203   2.124
 7317SOL    HW122079   3.050   0.161   2.149
 7317SOL    HW222080   2.980   0.295   2.147
 7318SOL     OW22081   5.482   4.514   4.048
 7318SOL    HW122082   5.389   4.491   4.056
 7318SOL    HW222083   5.483   4.588   3.987
 7319SOL     OW22084   5.988   2.296   3.231
 7319SOL    HW122085   5.980   2.201   3.244
 7319SOL    HW222086   6.033   2.306   3.148
 7320SOL     OW22087  10.694   0.710   5.068
 7320SOL    HW122088  10.709   0.729   4.976
 7320SOL    HW222089  10.610   0.750   5.088
 7321SOL     OW22090   8.167   0.611   4.838
 7321SOL    HW122091   8.136   0.575   4.755
 7321SOL    HW222092   8.233   0.675   4.813
 7322SOL     OW22093   4.655   2.648   2.049
 7322SOL    HW122094   4.649   2.715   2.117
 7322SOL    HW222095   4.633   2.567   2.094
 7323SOL     OW22096   4.145   2.618   4.161
 7323SOL    HW122097   4.238   2.603   4.180
 7323SOL    HW222098   4.144   2.647   4.069
 7324SOL     OW22099   5.898   6.724   4.646
 7324SOL    HW122100   5.972   6.784   4.644
 7324SOL    HW222101   5.937   6.640   4.670
 7325SOL     OW22102   3.597   6.830   2.345
 7325SOL    HW122103   3.632   6.769   2.410
 7325SOL    HW222104   3.633   6.915   2.369
 7326SOL     OW22105   8.288   2.077   2.207
 7326SOL    HW122106   8.367   2.125   2.182
 7326SOL    HW222107   8.226   2.145   2.233
 7327SOL     OW22108   5.341   6.224   2.140
 7327SOL    HW122109   5.408   6.290   2.125
 7327SOL    HW222110   5.306   6.206   2.052
 7328SOL     OW22111  10.577   4.247   4.463
 7328SOL    HW122112  10.552   4.297   4.542
 7328SOL    HW222113  10.671   4.234   4.472
 7329SOL     OW22114   5.513   5.478   2.281
 7329SOL    HW122115   5.515   5.527   2.363
 7329SOL    HW222116   5.551   5.393   2.302
 7330SOL     OW22117   7.366   1.914   0.981
 7330SOL    HW122118   7.430   1.953   1.041
 7330SOL    HW222119   7.308   1.986   0.956
 7331SOL     OW22120   4.378   6.257   2.819
 7331SOL    HW122121   4.462   6.211   2.809
 7331SOL    HW222122   4.323   6.196   2.868
 7332SOL     OW22123   3.353   2.180   4.252
 7332SOL    HW122124   3.322   2.241   4.318
 7332SOL    HW222125   3.289   2.109   4.254
 7333SOL     OW22126   3.375   3.824   1.752
 7333SOL    HW122127   3.413   3.851   1.668
 7333SOL    HW222128   3.345   3.905   1.793
 7334SOL     OW22129   7.007   2.567   0.068
 7334SOL    HW122130   6.949   2.536   0.137
 7334SOL    HW222131   6.960   2.641   0.029
 7335SOL     OW22132  10.091   6.004   4.201
 7335SOL    HW122133  10.144   5.924   4.197
 7335SOL    HW222134  10.047   5.998   4.286
 7336SOL     OW22135   6.983   2.939   1.886
 7336SOL    HW122136   7.015   2.871   1.946
 7336SOL    HW222137   6.914   2.984   1.935
 7337SOL     OW22138   7.459   1.361   4.222
 7337SOL    HW122139   7.459   1.442   4.274
 7337SOL    HW222140   7.368   1.333   4.223
 7338SOL     OW22141   8.267   5.940   5.153
 7338SOL    HW122142   8.267   6.005   5.082
 7338SOL    HW222143   8.349   5.891   5.140
 7339SOL     OW22144   9.614   6.366   3.623
 7339SOL    HW122145   9.520   6.357   3.637
 7339SOL    HW222146   9.653   6.347   3.708
 7340SOL     OW22147   6.338   3.249   1.531
 7340SOL    HW122148   6.277   3.219   1.600
 7340SOL    HW222149   6.281   3.274   1.458
 7341SOL     OW22150   7.537   4.055   4.003
 7341SOL    HW122151   7.611   4.111   4.026
 7341SOL    HW222152   7.488   4.045   4.084
 7342SOL     OW22153   2.054   5.060   1.471
 7342SOL    HW122154   2.126   5.051   1.408
 7342SOL    HW222155   2.062   5.149   1.504
 7343SOL     OW22156   8.640   2.547   3.790
 7343SOL    HW122157   8.566   2.607   3.776
 7343SOL    HW222158   8.685   2.544   3.706
 7344SOL     OW22159   3.028   6.137   1.924
 7344SOL    HW122160   3.105   6.081   1.934
 7344SOL    HW222161   2.967   6.086   1.872
 7345SOL     OW22162   7.826   5.830   3.233
 7345SOL    HW122163   7.823   5.806   3.325
 7345SOL    HW222164   7.822   5.747   3.186
 7346SOL     OW22165   1.086   5.226   0.580
 7346SOL    HW122166   1.104   5.132   0.591
 7346SOL    HW222167   1.166   5.262   0.542
 7347SOL     OW22168   9.698   7.049   3.479
 7347SOL    HW122169   9.637   7.070   3.549
 7347SOL    HW222170   9.658   7.085   3.400
 7348SOL     OW22171   4.540   4.914   3.456
 7348SOL    HW122172   4.508   4.978   3.393
 7348SOL    HW222173   4.540   4.961   3.540
 7349SOL     OW22174   3.466   4.046   1.364
 7349SOL    HW122175   3.389   4.072   1.315
 7349SOL    HW222176   3.538   4.049   1.301
 7350SOL     OW22177   6.600   0.915   3.757
 7350SOL    HW122178   6.551   0.911   3.674
 7350SOL    HW222179   6.687   0.882   3.735
 7351SOL     OW22180   5.027   1.717   4.952
 7351SOL    HW122181   4.949   1.703   4.897
 7351SOL    HW222182   5.023   1.649   5.018
 7352SOL     OW22183   4.432   6.544   3.453
 7352SOL    HW122184   4.422   6.612   3.519
 7352SOL    HW222185   4.439   6.463   3.503
 7353SOL     OW22186   6.250   5.436   1.123
 7353SOL    HW122187   6.289   5.462   1.207
 7353SOL    HW222188   6.200   5.357   1.143
 7354SOL     OW22189   2.630   4.482   0.052
 7354SOL    HW122190   2.554   4.529   0.088
 7354SOL    HW222191   2.704   4.539   0.073
 7355SOL     OW22192   3.787   4.354   0.898
 7355SOL    HW122193   3.842   4.362   0.821
 7355SOL    HW222194   3.843   4.380   0.971
 7356SOL     OW22195   5.067   2.240   4.671
 7356SOL    HW122196   5.134   2.277   4.729
 7356SOL    HW222197   4.985   2.279   4.701
 7357SOL     OW22198   6.215   6.162   2.733
 7357SOL    HW122199   6.304   6.144   2.762
 7357SOL    HW222200   6.160   6.107   2.790
 7358SOL     OW22201   5.783   6.757   3.067
 7358SOL    HW122202   5.707   6.791   3.019
 7358SOL    HW222203   5.770   6.788   3.157
 7359SOL     OW22204   5.815   2.509   4.464
 7359SOL    HW122205   5.853   2.430   4.425
 7359SOL    HW222206   5.862   2.581   4.423
 7360SOL     OW22207   8.568   6.087   3.699
 7360SOL    HW122208   8.569   6.175   3.737
 7360SOL    HW222209   8.621   6.035   3.760
 7361SOL     OW22210   5.480   6.007   3.495
 7361SOL    HW122211   5.545   6.018   3.565
 7361SOL    HW222212   5.529   5.966   3.423
 7362SOL     OW22213   1.155   0.420   1.384
 7362SOL    HW122214   1.206   0.406   1.464
 7362SOL    HW222215   1.211   0.475   1.330
 7363SOL     OW22216   3.430   0.035   4.055
 7363SOL    HW122217   3.378   0.044   4.135
 7363SOL    HW222218   3.387   0.092   3.992
 7364SOL     OW22219   6.232   4.454   1.050
 7364SOL    HW122220   6.264   4.403   1.125
 7364SOL    HW222221   6.304   4.450   0.987
 7365SOL     OW22222   4.494   2.950   4.655
 7365SOL    HW122223   4.521   2.977   4.567
 7365SOL    HW222224   4.561   2.988   4.713
 7366SOL     OW22225   6.814   0.952   5.158
 7366SOL    HW122226   6.786   0.861   5.148
 7366SOL    HW222227   6.740   0.996   5.200
 7367SOL     OW22228   8.764   6.409   3.320
 7367SOL    HW122229   8.723   6.390   3.236
 7367SOL    HW222230   8.748   6.330   3.372
 7368SOL     OW22231   7.006   6.009   5.027
 7368SOL    HW122232   6.948   5.955   5.080
 7368SOL    HW222233   7.030   6.082   5.084
 7369SOL     OW22234   8.715   0.276   2.372
 7369SOL    HW122235   8.759   0.287   2.288
 7369SOL    HW222236   8.675   0.361   2.390
 7370SOL     OW22237   4.711   1.545   2.597
 7370SOL    HW122238   4.721   1.512   2.508
 7370SOL    HW222239   4.616   1.542   2.613
 7371SOL     OW22240   5.555   0.534   1.215
 7371SOL    HW122241   5.580   0.531   1.308
 7371SOL    HW222242   5.524   0.446   1.196
 7372SOL     OW22243   7.265   5.887   4.632
 7372SOL    HW122244   7.277   5.829   4.557
 7372SOL    HW222245   7.212   5.835   4.694
 7373SOL     OW22246   6.204   4.969   3.664
 7373SOL    HW122247   6.171   4.933   3.581
 7373SOL    HW222248   6.283   5.017   3.639
 7374SOL     OW22249   7.244   3.804   2.697
 7374SOL    HW122250   7.227   3.898   2.688
 7374SOL    HW222251   7.199   3.779   2.777
 7375SOL     OW22252   1.284   7.283   0.127
 7375SOL    HW122253   1.238   7.213   0.174
 7375SOL    HW222254   1.264   7.266   0.035
 7376SOL     OW22255   1.268   2.186   1.024
 7376SOL    HW122256   1.275   2.280   1.038
 7376SOL    HW222257   1.191   2.159   1.074
 7377SOL     OW22258   7.555   0.025   5.230
 7377SOL    HW122259   7.639   0.060   5.202
 7377SOL    HW222260   7.545   0.054   5.321
 7378SOL     OW22261   6.317   5.464   5.078
 7378SOL    HW122262   6.289   5.382   5.118
 7378SOL    HW222263   6.356   5.437   4.994
 7379SOL     OW22264   9.832   5.142   3.817
 7379SOL    HW122265   9.885   5.133   3.897
 7379SOL    HW222266   9.829   5.237   3.801
 7380SOL     OW22267   8.156   6.988   3.140
 7380SOL    HW122268   8.196   7.028   3.063
 7380SOL    HW222269   8.217   6.919   3.166
 7381SOL     OW22270   4.200   2.852   4.564
 7381SOL    HW122271   4.275   2.901   4.598
 7381SOL    HW222272   4.239   2.782   4.511
 7382SOL     OW22273   4.204   5.751   3.938
 7382SOL    HW122274   4.157   5.670   3.960
 7382SOL    HW222275   4.219   5.744   3.844
 7383SOL     OW22276   7.313   7.091   2.393
 7383SOL    HW122277   7.269   7.050   2.467
 7383SOL    HW222278   7.380   7.028   2.366
 7384SOL     OW22279   2.997   2.767   2.080
 7384SOL    HW122280   2.928   2.753   2.145
 7384SOL    HW222281   3.016   2.860   2.085
 7385SOL     OW22282   7.886   6.536   5.137
 7385SOL    HW122283   7.890   6.579   5.223
 7385SOL    HW222284   7.798   6.498   5.134
 7386SOL     OW22285   4.488   4.733   3.156
 7386SOL    HW122286   4.548   4.806   3.140
 7386SOL    HW222287   4.409   4.757   3.108
 7387SOL     OW22288   8.355   3.634   3.793
 7387SOL    HW122289   8.375   3.549   3.833
 7387SOL    HW222290   8.268   3.657   3.827
 7388SOL     OW22291   5.735   0.181   1.179
 7388SOL    HW122292   5.782   0.202   1.099
 7388SOL    HW222293   5.655   0.138   1.149
 7389SOL     OW22294   6.599   2.050   1.873
 7389SOL    HW122295   6.638   2.114   1.813
 7389SOL    HW222296   6.530   2.099   1.919
 7390SOL     OW22297   4.413   6.356   0.360
 7390SOL    HW122298   4.496   6.404   0.359
 7390SOL    HW222299   4.380   6.366   0.449
 7391SOL     OW22300   4.557   5.808   3.585
 7391SOL    HW122301   4.588   5.735   3.531
 7391SOL    HW222302   4.591   5.886   3.542
 7392SOL     OW22303   7.246   5.369   0.821
 7392SOL    HW122304   7.215   5.319   0.746
 7392SOL    HW222305   7.328   5.326   0.846
 7393SOL     OW22306   2.824   7.262   2.985
 7393SOL    HW122307   2.736   7.295   3.003
 7393SOL    HW222308   2.841   7.201   3.056
 7394SOL     OW22309   0.226   2.806   0.093
 7394SOL    HW122310   0.219   2.710   0.095
 7394SOL    HW222311   0.171   2.835   0.166
 7395SOL     OW22312   3.196   5.435   4.274
 7395SOL    HW122313   3.207   5.361   4.215
 7395SOL    HW222314   3.104   5.431   4.301
 7396SOL     OW22315   6.810   5.131   3.841
 7396SOL    HW122316   6.790   5.037   3.844
 7396SOL    HW222317   6.823   5.155   3.933
 7397SOL     OW22318   9.284   4.895   3.317
 7397SOL    HW122319   9.207   4.842   3.300
 7397SOL    HW222320   9.351   4.833   3.344
 7398SOL     OW22321   6.500   2.366   1.477
 7398SOL    HW122322   6.553   2.445   1.464
 7398SOL    HW222323   6.481   2.366   1.571
 7399SOL     OW22324   5.086   6.354   1.189
 7399SOL    HW122325   5.118   6.294   1.122
 7399SOL    HW222326   5.125   6.321   1.271
 7400SOL     OW22327   9.590   3.749   3.357
 7400SOL    HW122328   9.585   3.746   3.262
 7400SOL    HW222329   9.684   3.761   3.376
 7401SOL     OW22330   2.806   6.531   3.030
 7401SOL    HW122331   2.875   6.576   3.079
 7401SOL    HW222332   2.751   6.602   2.996
 7402SOL     OW22333   6.251   1.626   3.228
 7402SOL    HW122334   6.312   1.673   3.285
 7402SOL    HW222335   6.168   1.627   3.275
 7403SOL     OW22336   9.170   3.723   5.215
 7403SOL    HW122337   9.184   3.730   5.121
 7403SOL    HW222338   9.252   3.688   5.249
 7404SOL     OW22339   2.220   5.077   2.447
 7404SOL    HW122340   2.146   5.076   2.386
 7404SOL    HW222341   2.245   5.169   2.454
 7405SOL     OW22342   4.576   7.199   2.746
 7405SOL    HW122343   4.565   7.104   2.752
 7405SOL    HW222344   4.612   7.225   2.830
 7406SOL     OW22345   6.221   1.894   5.082
 7406SOL    HW122346   6.248   1.983   5.105
 7406SOL    HW222347   6.182   1.903   4.995
 7407SOL     OW22348   0.983   5.373   0.321
 7407SOL    HW122349   1.061   5.320   0.334
 7407SOL    HW222350   0.932   5.362   0.401
 7408SOL     OW22351   8.765   0.970   5.029
 7408SOL    HW122352   8.781   1.008   5.115
 7408SOL    HW222353   8.803   0.882   5.034
 7409SOL     OW22354   3.558   0.851   0.600
 7409SOL    HW122355   3.520   0.783   0.545
 7409SOL    HW222356   3.559   0.813   0.688
 7410SOL     OW22357   3.320   0.092   4.372
 7410SOL    HW122358   3.247   0.070   4.430
 7410SOL    HW222359   3.393   0.038   4.404
 7411SOL     OW22360   7.071   6.625   3.263
 7411SOL    HW122361   7.089   6.553   3.323
 7411SOL    HW222362   7.047   6.583   3.181
 7412SOL     OW22363   8.920   6.680   2.853
 7412SOL    HW122364   8.979   6.650   2.922
 7412SOL    HW222365   8.972   6.742   2.802
 7413SOL     OW22366   7.840   4.550   4.636
 7413SOL    HW122367   7.865   4.643   4.639
 7413SOL    HW222368   7.756   4.550   4.590
 7414SOL     OW22369   4.852   6.178   1.180
 7414SOL    HW122370   4.914   6.125   1.229
 7414SOL    HW222371   4.775   6.184   1.236
 7415SOL     OW22372   6.041   6.617   3.106
 7415SOL    HW122373   6.071   6.601   3.016
 7415SOL    HW222374   5.963   6.672   3.096
 7416SOL     OW22375   6.086   3.685   3.836
 7416SOL    HW122376   6.049   3.749   3.897
 7416SOL    HW222377   6.009   3.649   3.790
 7417SOL     OW22378   3.392   4.526   3.685
 7417SOL    HW122379   3.453   4.533   3.758
 7417SOL    HW222380   3.379   4.615   3.654
 7418SOL     OW22381   6.799   3.324   1.660
 7418SOL    HW122382   6.708   3.352   1.661
 7418SOL    HW222383   6.830   3.341   1.749
 7419SOL     OW22384   7.037   2.655   1.221
 7419SOL    HW122385   6.947   2.662   1.255
 7419SOL    HW222386   7.026   2.636   1.128
 7420SOL     OW22387   5.182   4.536   1.184
 7420SOL    HW122388   5.274   4.512   1.173
 7420SOL    HW222389   5.161   4.511   1.274
 7421SOL     OW22390   1.945   3.762   0.763
 7421SOL    HW122391   1.942   3.832   0.828
 7421SOL    HW222392   1.855   3.731   0.755
 7422SOL     OW22393   3.773   6.765   5.135
 7422SOL    HW122394   3.849   6.736   5.186
 7422SOL    HW222395   3.707   6.697   5.150
 7423SOL     OW22396   4.042   4.279   3.280
 7423SOL    HW122397   3.985   4.204   3.268
 7423SOL    HW222398   4.116   4.263   3.222
 7424SOL     OW22399   7.308   2.348   0.412
 7424SOL    HW122400   7.249   2.423   0.424
 7424SOL    HW222401   7.316   2.310   0.499
 7425SOL     OW22402   4.470   4.612   0.655
 7425SOL    HW122403   4.560   4.641   0.639
 7425SOL    HW222404   4.440   4.580   0.569
 7426SOL     OW22405   6.502   1.449   0.840
 7426SOL    HW122406   6.441   1.521   0.859
 7426SOL    HW222407   6.550   1.436   0.921
 7427SOL     OW22408   9.045   1.005   2.333
 7427SOL    HW122409   8.974   1.002   2.269
 7427SOL    HW222410   9.088   0.919   2.326
 7428SOL     OW22411   8.084   2.731   1.787
 7428SOL    HW122412   8.077   2.643   1.823
 7428SOL    HW222413   8.152   2.773   1.840
 7429SOL     OW22414   7.094   0.607   0.885
 7429SOL    HW122415   7.139   0.525   0.904
 7429SOL    HW222416   7.130   0.669   0.948
 7430SOL     OW22417   8.684   7.360   2.018
 7430SOL    HW122418   8.628   7.366   1.940
 7430SOL    HW222419   8.712   7.450   2.034
 7431SOL     OW22420   5.059   6.348   4.911
 7431SOL    HW122421   5.140   6.351   4.859
 7431SOL    HW222422   5.005   6.419   4.876
 7432SOL     OW22423   8.677   3.809   3.356
 7432SOL    HW122424   8.686   3.904   3.345
 7432SOL    HW222425   8.592   3.789   3.317
 7433SOL     OW22426   7.999   5.946   5.248
 7433SOL    HW122427   8.011   5.961   5.342
 7433SOL    HW222428   8.088   5.932   5.214
 7434SOL     OW22429   6.951   1.660   3.691
 7434SOL    HW122430   7.044   1.661   3.714
 7434SOL    HW222431   6.906   1.643   3.774
 7435SOL     OW22432   1.940   6.117   1.475
 7435SOL    HW122433   1.887   6.155   1.405
 7435SOL    HW222434   2.030   6.144   1.455
 7436SOL     OW22435   8.825   3.425   2.385
 7436SOL    HW122436   8.839   3.336   2.351
 7436SOL    HW222437   8.912   3.457   2.407
 7437SOL     OW22438   8.052   6.507   3.568
 7437SOL    HW122439   8.010   6.490   3.484
 7437SOL    HW222440   7.988   6.560   3.616
 7438SOL     OW22441   8.861   6.563   4.954
 7438SOL    HW122442   8.768   6.549   4.971
 7438SOL    HW222443   8.905   6.527   5.030
 7439SOL     OW22444   8.929   5.444   3.235
 7439SOL    HW122445   8.900   5.363   3.277
 7439SOL    HW222446   8.849   5.495   3.224
 7440SOL     OW22447   5.632   0.461   3.850
 7440SOL    HW122448   5.693   0.388   3.846
 7440SOL    HW222449   5.682   0.536   3.819
 7441SOL     OW22450   1.633   5.981   1.685
 7441SOL    HW122451   1.689   5.935   1.748
 7441SOL    HW222452   1.654   5.940   1.601
 7442SOL     OW22453   9.205   2.408   3.574
 7442SOL    HW122454   9.132   2.452   3.531
 7442SOL    HW222455   9.163   2.346   3.634
 7443SOL     OW22456   9.199   2.788   4.033
 7443SOL    HW122457   9.280   2.746   4.006
 7443SOL    HW222458   9.225   2.847   4.105
 7444SOL     OW22459   3.454   2.591   0.561
 7444SOL    HW122460   3.541   2.552   0.549
 7444SOL    HW222461   3.445   2.598   0.656
 7445SOL     OW22462   7.981   0.607   4.250
 7445SOL    HW122463   7.982   0.547   4.176
 7445SOL    HW222464   7.937   0.559   4.320
 7446SOL     OW22465   1.909   6.421   0.052
 7446SOL    HW122466   1.985   6.435   0.108
 7446SOL    HW222467   1.877   6.334   0.076
 7447SOL     OW22468   9.923   2.234   5.256
 7447SOL    HW122469   9.841   2.201   5.293
 7447SOL    HW222470   9.923   2.203   5.165
 7448SOL     OW22471   4.749   3.426   4.927
 7448SOL    HW122472   4.819   3.381   4.879
 7448SOL    HW222473   4.697   3.470   4.859
 7449SOL     OW22474   2.625   2.541   1.667
 7449SOL    HW122475   2.687   2.486   1.715
 7449SOL    HW222476   2.567   2.479   1.622
 7450SOL     OW22477   6.912   1.669   3.976
 7450SOL    HW122478   6.950   1.586   4.003
 7450SOL    HW222479   6.820   1.663   4.004
 7451SOL     OW22480   2.223   3.424   2.709
 7451SOL    HW122481   2.246   3.337   2.678
 7451SOL    HW222482   2.307   3.469   2.721
 7452SOL     OW22483   1.653   4.646   0.744
 7452SOL    HW122484   1.748   4.661   0.742
 7452SOL    HW222485   1.617   4.714   0.687
 7453SOL     OW22486   6.821   6.008   0.941
 7453SOL    HW122487   6.820   6.090   0.990
 7453SOL    HW222488   6.732   5.974   0.949
 7454SOL     OW22489   4.124   6.746   4.953
 7454SOL    HW122490   4.153   6.734   5.044
 7454SOL    HW222491   4.099   6.838   4.948
 7455SOL     OW22492   0.677   5.968   0.445
 7455SOL    HW122493   0.648   5.956   0.535
 7455SOL    HW222494   0.698   6.061   0.438
 7456SOL     OW22495   5.908   6.323   4.279
 7456SOL    HW122496   5.873   6.405   4.315
 7456SOL    HW222497   5.917   6.266   4.355
 7457SOL     OW22498   4.883   6.664   5.213
 7457SOL    HW122499   4.877   6.760   5.207
 7457SOL    HW222500   4.927   6.648   5.296
 7458SOL     OW22501   2.136   0.077   1.712
 7458SOL    HW122502   2.138   0.156   1.659
 7458SOL    HW222503   2.119   0.108   1.801
 7459SOL     OW22504   4.768   2.857   0.784
 7459SOL    HW122505   4.814   2.940   0.783
 7459SOL    HW222506   4.832   2.794   0.751
 7460SOL     OW22507   4.267   2.591   1.373
 7460SOL    HW122508   4.314   2.603   1.290
 7460SOL    HW222509   4.240   2.679   1.398
 7461SOL     OW22510   2.231   5.286   3.119
 7461SOL    HW122511   2.321   5.259   3.106
 7461SOL    HW222512   2.192   5.287   3.032
 7462SOL     OW22513   6.598   3.022   2.364
 7462SOL    HW122514   6.610   2.958   2.435
 7462SOL    HW222515   6.660   3.091   2.383
 7463SOL     OW22516   5.330   6.032   1.599
 7463SOL    HW122517   5.415   5.996   1.577
 7463SOL    HW222518   5.341   6.066   1.688
 7464SOL     OW22519   4.426   3.228   4.755
 7464SOL    HW122520   4.384   3.188   4.831
 7464SOL    HW222521   4.418   3.161   4.686
 7465SOL     OW22522   5.880   3.677   4.637
 7465SOL    HW122523   5.955   3.639   4.683
 7465SOL    HW222524   5.901   3.667   4.544
 7466SOL     OW22525   7.039   7.462   1.807
 7466SOL    HW122526   7.126   7.444   1.773
 7466SOL    HW222527   7.015   7.382   1.854
 7467SOL     OW22528   8.043   6.279   5.146
 7467SOL    HW122529   8.018   6.369   5.126
 7467SOL    HW222530   8.066   6.241   5.061
 7468SOL     OW22531   7.939   1.082   1.995
 7468SOL    HW122532   7.913   1.171   1.969
 7468SOL    HW222533   7.958   1.090   2.089
 7469SOL     OW22534   5.235   3.640   5.157
 7469SOL    HW122535   5.205   3.659   5.246
 7469SOL    HW222536   5.330   3.627   5.165
 7470SOL     OW22537   8.385   0.166   1.493
 7470SOL    HW122538   8.320   0.161   1.563
 7470SOL    HW222539   8.451   0.101   1.517
 7471SOL     OW22540   4.076   1.832   1.112
 7471SOL    HW122541   4.009   1.803   1.050
 7471SOL    HW222542   4.152   1.854   1.058
 7472SOL     OW22543   6.735   6.784   2.893
 7472SOL    HW122544   6.791   6.860   2.887
 7472SOL    HW222545   6.786   6.713   2.854
 7473SOL     OW22546   7.142   1.363   0.041
 7473SOL    HW122547   7.107   1.281   0.005
 7473SOL    HW222548   7.065   1.419   0.050
 7474SOL     OW22549   5.754   3.453   2.372
 7474SOL    HW122550   5.777   3.544   2.387
 7474SOL    HW222551   5.835   3.405   2.390
 7475SOL     OW22552   5.482   1.235   5.251
 7475SOL    HW122553   5.545   1.291   5.205
 7475SOL    HW222554   5.428   1.197   5.182
 7476SOL     OW22555   6.790   2.653   3.452
 7476SOL    HW122556   6.870   2.645   3.400
 7476SOL    HW222557   6.791   2.576   3.509
 7477SOL     OW22558   9.589   5.482   3.308
 7477SOL    HW122559   9.678   5.517   3.304
 7477SOL    HW222560   9.590   5.408   3.246
 7478SOL     OW22561   3.718   6.762   0.847
 7478SOL    HW122562   3.712   6.800   0.935
 7478SOL    HW222563   3.666   6.682   0.852
 7479SOL     OW22564   3.941   2.962   2.050
 7479SOL    HW122565   3.907   3.051   2.059
 7479SOL    HW222566   4.007   2.969   1.980
 7480SOL     OW22567   8.411   5.317   2.868
 7480SOL    HW122568   8.492   5.332   2.821
 7480SOL    HW222569   8.429   5.343   2.958
 7481SOL     OW22570   2.973   2.514   1.973
 7481SOL    HW122571   3.006   2.530   1.884
 7481SOL    HW222572   2.982   2.598   2.017
 7482SOL     OW22573   5.272   0.166   3.248
 7482SOL    HW122574   5.267   0.253   3.209
 7482SOL    HW222575   5.365   0.151   3.260
 7483SOL     OW22576   3.463   6.525   0.546
 7483SOL    HW122577   3.497   6.520   0.457
 7483SOL    HW222578   3.397   6.457   0.551
 7484SOL     OW22579   1.773   5.470   0.398
 7484SOL    HW122580   1.762   5.375   0.404
 7484SOL    HW222581   1.818   5.494   0.479
 7485SOL     OW22582   9.488   4.738   3.421
 7485SOL    HW122583   9.527   4.816   3.462
 7485SOL    HW222584   9.562   4.679   3.407
 7486SOL     OW22585   7.148   3.405   4.186
 7486SOL    HW122586   7.070   3.353   4.204
 7486SOL    HW222587   7.214   3.373   4.248
 7487SOL     OW22588   5.105   3.755   1.175
 7487SOL    HW122589   5.148   3.769   1.259
 7487SOL    HW222590   5.163   3.695   1.128
 7488SOL     OW22591   6.233   7.128   1.021
 7488SOL    HW122592   6.259   7.038   1.003
 7488SOL    HW222593   6.141   7.122   1.045
 7489SOL     OW22594   7.842   4.536   0.687
 7489SOL    HW122595   7.830   4.501   0.599
 7489SOL    HW222596   7.826   4.462   0.745
 7490SOL     OW22597   3.249   0.426   2.376
 7490SOL    HW122598   3.267   0.494   2.311
 7490SOL    HW222599   3.270   0.468   2.460
 7491SOL     OW22600   4.073   3.120   1.511
 7491SOL    HW122601   4.157   3.133   1.555
 7491SOL    HW222602   4.013   3.180   1.555
 7492SOL     OW22603   9.393   6.914   3.882
 7492SOL    HW122604   9.318   6.854   3.885
 7492SOL    HW222605   9.443   6.894   3.961
 7493SOL     OW22606   1.478   6.260   0.234
 7493SOL    HW122607   1.553   6.253   0.175
 7493SOL    HW222608   1.405   6.284   0.178
 7494SOL     OW22609   5.259   3.860   3.405
 7494SOL    HW122610   5.201   3.936   3.411
 7494SOL    HW222611   5.340   3.895   3.369
 7495SOL     OW22612   2.403   5.522   0.945
 7495SOL    HW122613   2.330   5.460   0.956
 7495SOL    HW222614   2.386   5.590   1.011
 7496SOL     OW22615   4.186   3.491   0.280
 7496SOL    HW122616   4.209   3.499   0.373
 7496SOL    HW222617   4.154   3.578   0.256
 7497SOL     OW22618   9.310   1.557   2.611
 7497SOL    HW122619   9.306   1.465   2.634
 7497SOL    HW222620   9.270   1.562   2.524
 7498SOL     OW22621   3.737   3.684   1.969
 7498SOL    HW122622   3.706   3.607   1.921
 7498SOL    HW222623   3.832   3.672   1.973
 7499SOL     OW22624   5.392   2.900   3.262
 7499SOL    HW122625   5.326   2.849   3.215
 7499SOL    HW222626   5.398   2.982   3.214
 7500SOL     OW22627   4.582   6.835   2.004
 7500SOL    HW122628   4.670   6.806   1.979
 7500SOL    HW222629   4.597   6.913   2.057
 7501SOL     OW22630   4.394   2.388   0.321
 7501SOL    HW122631   4.377   2.299   0.289
 7501SOL    HW222632   4.343   2.395   0.401
 7502SOL     OW22633   7.248   1.657   0.078
 7502SOL    HW122634   7.174   1.607   0.046
 7502SOL    HW222635   7.209   1.731   0.126
 7503SOL     OW22636   5.496   4.470   2.460
 7503SOL    HW122637   5.473   4.516   2.541
 7503SOL    HW222638   5.583   4.502   2.439
 7504SOL     OW22639   7.099   1.888   2.328
 7504SOL    HW122640   7.024   1.835   2.298
 7504SOL    HW222641   7.173   1.827   2.327
 7505SOL     OW22642   3.607   1.517   4.974
 7505SOL    HW122643   3.602   1.509   4.879
 7505SOL    HW222644   3.545   1.452   5.007
 7506SOL     OW22645   6.750   5.693   3.368
 7506SOL    HW122646   6.799   5.773   3.389
 7506SOL    HW222647   6.784   5.628   3.429
 7507SOL     OW22648   6.411   1.799   1.791
 7507SOL    HW122649   6.396   1.735   1.860
 7507SOL    HW222650   6.501   1.828   1.803
 7508SOL     OW22651   4.495   0.087   3.651
 7508SOL    HW122652   4.541   0.135   3.721
 7508SOL    HW222653   4.535   0.000   3.652
 7509SOL     OW22654   6.578   1.893   3.303
 7509SOL    HW122655   6.630   1.886   3.223
 7509SOL    HW222656   6.640   1.873   3.373
 7510SOL     OW22657   0.814   4.645   0.325
 7510SOL    HW122658   0.809   4.552   0.302
 7510SOL    HW222659   0.797   4.648   0.419
 7511SOL     OW22660   4.983   0.313   0.831
 7511SOL    HW122661   5.050   0.381   0.837
 7511SOL    HW222662   5.023   0.237   0.874
 7512SOL     OW22663   9.641   4.777   4.450
 7512SOL    HW122664   9.637   4.705   4.386
 7512SOL    HW222665   9.621   4.735   4.534
 7513SOL     OW22666   6.815   1.989   4.157
 7513SOL    HW122667   6.734   1.997   4.206
 7513SOL    HW222668   6.827   2.075   4.116
 7514SOL     OW22669   1.776   1.238   2.053
 7514SOL    HW122670   1.793   1.328   2.080
 7514SOL    HW222671   1.681   1.229   2.057
 7515SOL     OW22672   8.261   1.323   4.399
 7515SOL    HW122673   8.345   1.365   4.377
 7515SOL    HW222674   8.195   1.384   4.367
 7516SOL     OW22675   2.512   4.770   1.752
 7516SOL    HW122676   2.603   4.797   1.738
 7516SOL    HW222677   2.512   4.675   1.739
 7517SOL     OW22678   7.101   4.314   0.101
 7517SOL    HW122679   7.068   4.246   0.159
 7517SOL    HW222680   7.147   4.267   0.031
 7518SOL     OW22681   8.707   5.896   2.243
 7518SOL    HW122682   8.802   5.885   2.244
 7518SOL    HW222683   8.687   5.927   2.155
 7519SOL     OW22684   7.074   1.177   4.533
 7519SOL    HW122685   6.987   1.187   4.495
 7519SOL    HW222686   7.058   1.165   4.627
 7520SOL     OW22687   7.025   5.171   1.795
 7520SOL    HW122688   7.072   5.214   1.724
 7520SOL    HW222689   6.937   5.155   1.760
 7521SOL     OW22690   3.274   4.830   4.066
 7521SOL    HW122691   3.286   4.908   4.120
 7521SOL    HW222692   3.209   4.855   4.001
 7522SOL     OW22693   7.258   5.843   2.481
 7522SOL    HW122694   7.208   5.763   2.460
 7522SOL    HW222695   7.332   5.841   2.421
 7523SOL     OW22696   2.977   0.358   0.387
 7523SOL    HW122697   2.892   0.314   0.389
 7523SOL    HW222698   3.029   0.306   0.326
 7524SOL     OW22699   4.473   4.028   0.308
 7524SOL    HW122700   4.470   4.077   0.226
 7524SOL    HW222701   4.516   3.946   0.286
 7525SOL     OW22702   3.258   0.121   0.839
 7525SOL    HW122703   3.243   0.187   0.772
 7525SOL    HW222704   3.171   0.101   0.874
 7526SOL     OW22705   5.433   1.859   3.553
 7526SOL    HW122706   5.383   1.822   3.626
 7526SOL    HW222707   5.507   1.903   3.595
 7527SOL     OW22708   3.097   3.042   3.804
 7527SOL    HW122709   3.119   2.951   3.827
 7527SOL    HW222710   3.181   3.085   3.791
 7528SOL     OW22711   6.240   3.208   1.966
 7528SOL    HW122712   6.316   3.213   2.024
 7528SOL    HW222713   6.177   3.270   2.003
 7529SOL     OW22714   2.404   6.920   0.600
 7529SOL    HW122715   2.418   7.008   0.565
 7529SOL    HW222716   2.430   6.926   0.692
 7530SOL     OW22717   5.907   0.604   0.635
 7530SOL    HW122718   5.930   0.512   0.622
 7530SOL    HW222719   5.985   0.652   0.609
 7531SOL     OW22720   7.740   3.416   2.622
 7531SOL    HW122721   7.725   3.351   2.690
 7531SOL    HW222722   7.668   3.403   2.560
 7532SOL     OW22723   5.477   1.475   2.866
 7532SOL    HW122724   5.389   1.499   2.894
 7532SOL    HW222725   5.468   1.451   2.774
 7533SOL     OW22726   5.567   7.433   3.313
 7533SOL    HW122727   5.572   7.374   3.237
 7533SOL    HW222728   5.565   7.374   3.389
 7534SOL     OW22729   9.449   1.490   4.499
 7534SOL    HW122730   9.486   1.460   4.416
 7534SOL    HW222731   9.372   1.541   4.474
 7535SOL     OW22732   2.309   0.340   2.317
 7535SOL    HW122733   2.235   0.382   2.360
 7535SOL    HW222734   2.298   0.361   2.224
 7536SOL     OW22735   4.712   5.500   1.891
 7536SOL    HW122736   4.776   5.570   1.894
 7536SOL    HW222737   4.686   5.495   1.799
 7537SOL     OW22738   5.587   7.341   0.144
 7537SOL    HW122739   5.570   7.247   0.154
 7537SOL    HW222740   5.682   7.347   0.132
 7538SOL     OW22741   6.146   4.417   3.374
 7538SOL    HW122742   6.120   4.439   3.285
 7538SOL    HW222743   6.116   4.490   3.427
 7539SOL     OW22744   6.820   4.618   1.751
 7539SOL    HW122745   6.763   4.613   1.674
 7539SOL    HW222746   6.844   4.528   1.770
 7540SOL     OW22747   4.436   7.046   4.384
 7540SOL    HW122748   4.402   7.108   4.320
 7540SOL    HW222749   4.530   7.043   4.367
 7541SOL     OW22750   8.993   0.738   4.669
 7541SOL    HW122751   8.933   0.796   4.623
 7541SOL    HW222752   9.080   0.775   4.651
 7542SOL     OW22753   6.003   6.519   1.819
 7542SOL    HW122754   5.979   6.610   1.838
 7542SOL    HW222755   5.978   6.506   1.728
 7543SOL     OW22756   6.866   3.238   3.573
 7543SOL    HW122757   6.800   3.189   3.524
 7543SOL    HW222758   6.949   3.212   3.534
 7544SOL     OW22759   2.726   5.793   2.585
 7544SOL    HW122760   2.683   5.877   2.597
 7544SOL    HW222761   2.698   5.763   2.499
 7545SOL     OW22762   3.014   0.538   1.403
 7545SOL    HW122763   3.049   0.602   1.341
 7545SOL    HW222764   3.074   0.542   1.478
 7546SOL     OW22765   7.813   5.823   3.503
 7546SOL    HW122766   7.849   5.753   3.557
 7546SOL    HW222767   7.848   5.903   3.541
 7547SOL     OW22768   2.537   5.759   2.350
 7547SOL    HW122769   2.448   5.792   2.360
 7547SOL    HW222770   2.527   5.680   2.296
 7548SOL     OW22771   2.551   0.606   1.295
 7548SOL    HW122772   2.544   0.701   1.295
 7548SOL    HW222773   2.553   0.582   1.388
 7549SOL     OW22774   4.515   6.358   1.826
 7549SOL    HW122775   4.495   6.265   1.836
 7549SOL    HW222776   4.507   6.374   1.732
 7550SOL     OW22777   3.736   3.439   4.423
 7550SOL    HW122778   3.723   3.346   4.440
 7550SOL    HW222779   3.781   3.442   4.339
 7551SOL     OW22780   8.369   3.076   4.939
 7551SOL    HW122781   8.433   3.081   4.868
 7551SOL    HW222782   8.312   3.002   4.914
 7552SOL     OW22783   5.300   5.260   3.557
 7552SOL    HW122784   5.353   5.187   3.589
 7552SOL    HW222785   5.282   5.313   3.635
 7553SOL     OW22786   5.607   3.675   3.387
 7553SOL    HW122787   5.619   3.724   3.305
 7553SOL    HW222788   5.512   3.665   3.395
 7554SOL     OW22789  10.537   0.524   4.469
 7554SOL    HW122790  10.606   0.539   4.535
 7554SOL    HW222791  10.559   0.440   4.430
 7555SOL     OW22792   4.222   7.253   1.698
 7555SOL    HW122793   4.156   7.322   1.702
 7555SOL    HW222794   4.198   7.193   1.769
 7556SOL     OW22795   3.837   0.950   3.120
 7556SOL    HW122796   3.790   0.882   3.169
 7556SOL    HW222797   3.805   0.941   3.030
 7557SOL     OW22798   8.637   6.579   3.854
 7557SOL    HW122799   8.561   6.632   3.831
 7557SOL    HW222800   8.603   6.512   3.913
 7558SOL     OW22801   9.424   3.598   5.036
 7558SOL    HW122802   9.445   3.667   4.973
 7558SOL    HW222803   9.465   3.519   5.000
 7559SOL     OW22804   3.657  -0.024   3.253
 7559SOL    HW122805   3.635   0.066   3.229
 7559SOL    HW222806   3.751  -0.030   3.236
 7560SOL     OW22807   3.846   3.175   1.761
 7560SOL    HW122808   3.784   3.146   1.694
 7560SOL    HW222809   3.888   3.253   1.723
 7561SOL     OW22810   6.472   4.233   2.288
 7561SOL    HW122811   6.448   4.271   2.203
 7561SOL    HW222812   6.388   4.206   2.326
 7562SOL     OW22813   1.003   1.313   0.297
 7562SOL    HW122814   0.985   1.381   0.231
 7562SOL    HW222815   0.934   1.248   0.284
 7563SOL     OW22816   3.847   1.943   1.652
 7563SOL    HW122817   3.790   2.007   1.694
 7563SOL    HW222818   3.908   1.996   1.599
 7564SOL     OW22819   4.656   2.630   2.796
 7564SOL    HW122820   4.636   2.561   2.732
 7564SOL    HW222821   4.648   2.586   2.881
 7565SOL     OW22822   5.452   5.098   1.909
 7565SOL    HW122823   5.521   5.156   1.940
 7565SOL    HW222824   5.461   5.099   1.814
 7566SOL     OW22825  11.204   0.686   5.312
 7566SOL    HW122826  11.266   0.628   5.267
 7566SOL    HW222827  11.132   0.696   5.250
 7567SOL     OW22828   2.735   0.461   2.383
 7567SOL    HW122829   2.679   0.395   2.341
 7567SOL    HW222830   2.708   0.544   2.345
 7568SOL     OW22831   0.847   2.179   0.088
 7568SOL    HW122832   0.772   2.236   0.103
 7568SOL    HW222833   0.859   2.180  -0.007
 7569SOL     OW22834   9.604   0.608   3.390
 7569SOL    HW122835   9.626   0.545   3.459
 7569SOL    HW222836   9.518   0.579   3.358
 7570SOL     OW22837   7.990   0.535   0.929
 7570SOL    HW122838   7.947   0.584   1.000
 7570SOL    HW222839   7.999   0.447   0.964
 7571SOL     OW22840   3.809   2.114   1.192
 7571SOL    HW122841   3.728   2.132   1.146
 7571SOL    HW222842   3.811   2.018   1.202
 7572SOL     OW22843   4.565   6.689   3.003
 7572SOL    HW122844   4.538   6.621   3.066
 7572SOL    HW222845   4.484   6.735   2.982
 7573SOL     OW22846   7.838   4.632   1.747
 7573SOL    HW122847   7.832   4.657   1.839
 7573SOL    HW222848   7.920   4.670   1.717
 7574SOL     OW22849   3.068   5.438   3.138
 7574SOL    HW122850   3.021   5.438   3.222
 7574SOL    HW222851   3.074   5.531   3.114
 7575SOL     OW22852   7.939   6.023   1.299
 7575SOL    HW122853   8.024   6.051   1.333
 7575SOL    HW222854   7.930   5.932   1.327
 7576SOL     OW22855   4.429   5.514   1.179
 7576SOL    HW122856   4.369   5.575   1.223
 7576SOL    HW222857   4.505   5.567   1.157
 7577SOL     OW22858   8.051   6.472   3.883
 7577SOL    HW122859   8.102   6.463   3.803
 7577SOL    HW222860   7.960   6.460   3.856
 7578SOL     OW22861   3.415   0.029   1.092
 7578SOL    HW122862   3.384   0.078   1.015
 7578SOL    HW222863   3.335   0.003   1.138
 7579SOL     OW22864  10.049   3.984   4.716
 7579SOL    HW122865  10.107   3.977   4.640
 7579SOL    HW222866  10.106   3.971   4.791
 7580SOL     OW22867   6.735   6.566   4.595
 7580SOL    HW122868   6.766   6.606   4.514
 7580SOL    HW222869   6.640   6.583   4.595
 7581SOL     OW22870   4.601   3.781   0.259
 7581SOL    HW122871   4.625   3.763   0.168
 7581SOL    HW222872   4.634   3.706   0.308
 7582SOL     OW22873   5.298   3.006   3.036
 7582SOL    HW122874   5.210   3.041   3.050
 7582SOL    HW222875   5.286   2.933   2.976
 7583SOL     OW22876   1.529   2.622   1.150
 7583SOL    HW122877   1.538   2.717   1.144
 7583SOL    HW222878   1.600   2.587   1.097
 7584SOL     OW22879   7.465   5.435   4.178
 7584SOL    HW122880   7.499   5.359   4.131
 7584SOL    HW222881   7.401   5.399   4.240
 7585SOL     OW22882   4.744   6.260   2.744
 7585SOL    HW122883   4.680   6.308   2.691
 7585SOL    HW222884   4.694   6.190   2.785
 7586SOL     OW22885   0.526   5.759   0.052
 7586SOL    HW122886   0.554   5.849   0.068
 7586SOL    HW222887   0.491   5.729   0.136
 7587SOL     OW22888   5.250   2.324   2.370
 7587SOL    HW122889   5.223   2.416   2.363
 7587SOL    HW222890   5.197   2.279   2.305
 7588SOL     OW22891   4.363   0.672   2.024
 7588SOL    HW122892   4.414   0.605   2.070
 7588SOL    HW222893   4.366   0.748   2.081
 7589SOL     OW22894   7.461   2.309   3.027
 7589SOL    HW122895   7.443   2.241   2.962
 7589SOL    HW222896   7.522   2.268   3.088
 7590SOL     OW22897   9.469   4.458   5.101
 7590SOL    HW122898   9.499   4.492   5.185
 7590SOL    HW222899   9.544   4.467   5.043
 7591SOL     OW22900   5.200   3.250   0.767
 7591SOL    HW122901   5.259   3.256   0.842
 7591SOL    HW222902   5.161   3.162   0.774
 7592SOL     OW22903   1.534   4.101   1.873
 7592SOL    HW122904   1.563   4.013   1.846
 7592SOL    HW222905   1.449   4.086   1.914
 7593SOL     OW22906   2.890   7.132   3.715
 7593SOL    HW122907   2.928   7.212   3.677
 7593SOL    HW222908   2.816   7.164   3.767
 7594SOL     OW22909   5.048   5.540   0.425
 7594SOL    HW122910   5.096   5.555   0.505
 7594SOL    HW222911   4.982   5.474   0.449
 7595SOL     OW22912   3.478   4.998   1.805
 7595SOL    HW122913   3.569   4.990   1.834
 7595SOL    HW222914   3.427   4.951   1.871
 7596SOL     OW22915   3.648   1.523   1.335
 7596SOL    HW122916   3.707   1.483   1.399
 7596SOL    HW222917   3.604   1.592   1.384
 7597SOL     OW22918   6.415   3.527   5.048
 7597SOL    HW122919   6.379   3.463   4.987
 7597SOL    HW222920   6.460   3.474   5.114
 7598SOL     OW22921   3.969   7.368   4.604
 7598SOL    HW122922   3.984   7.277   4.630
 7598SOL    HW222923   3.930   7.410   4.681
 7599SOL     OW22924   8.141   6.031   3.626
 7599SOL    HW122925   8.155   5.984   3.543
 7599SOL    HW222926   8.049   6.014   3.647
 7600SOL     OW22927   4.831   6.378   0.515
 7600SOL    HW122928   4.925   6.397   0.514
 7600SOL    HW222929   4.801   6.401   0.427
 7601SOL     OW22930   1.878   1.423   0.530
 7601SOL    HW122931   1.937   1.385   0.465
 7601SOL    HW222932   1.866   1.513   0.503
 7602SOL     OW22933   1.428   6.965   0.721
 7602SOL    HW122934   1.355   6.957   0.659
 7602SOL    HW222935   1.506   6.943   0.670
 7603SOL     OW22936   5.885   5.651   2.744
 7603SOL    HW122937   5.957   5.669   2.804
 7603SOL    HW222938   5.913   5.689   2.661
 7604SOL     OW22939   6.428   3.830   1.237
 7604SOL    HW122940   6.477   3.910   1.222
 7604SOL    HW222941   6.483   3.778   1.296
 7605SOL     OW22942   2.340   2.846   1.435
 7605SOL    HW122943   2.315   2.938   1.427
 7605SOL    HW222944   2.435   2.845   1.420
 7606SOL     OW22945   4.552   3.280   1.402
 7606SOL    HW122946   4.551   3.211   1.336
 7606SOL    HW222947   4.464   3.280   1.439
 7607SOL     OW22948   7.185   7.106   3.151
 7607SOL    HW122949   7.153   7.159   3.078
 7607SOL    HW222950   7.277   7.089   3.130
 7608SOL     OW22951   7.571   2.853   2.054
 7608SOL    HW122952   7.652   2.897   2.077
 7608SOL    HW222953   7.564   2.864   1.959
 7609SOL     OW22954   5.998   1.900   1.691
 7609SOL    HW122955   5.911   1.890   1.731
 7609SOL    HW222956   6.024   1.810   1.670
 7610SOL     OW22957   5.054   2.286   4.333
 7610SOL    HW122958   5.052   2.309   4.425
 7610SOL    HW222959   5.147   2.273   4.313
 7611SOL     OW22960   5.397   3.444   3.081
 7611SOL    HW122961   5.476   3.498   3.074
 7611SOL    HW222962   5.374   3.423   2.990
 7612SOL     OW22963   7.794   3.201   1.876
 7612SOL    HW122964   7.846   3.163   1.805
 7612SOL    HW222965   7.837   3.171   1.956
 7613SOL     OW22966   3.049   1.262   2.217
 7613SOL    HW122967   3.091   1.204   2.280
 7613SOL    HW222968   2.982   1.208   2.175
 7614SOL     OW22969   0.959   2.612   0.371
 7614SOL    HW122970   0.996   2.697   0.392
 7614SOL    HW222971   0.896   2.629   0.301
 7615SOL     OW22972   2.095   4.696   0.110
 7615SOL    HW122973   2.092   4.710   0.016
 7615SOL    HW222974   2.099   4.601   0.121
 7616SOL     OW22975   6.159   3.405   4.559
 7616SOL    HW122976   6.202   3.389   4.476
 7616SOL    HW222977   6.163   3.321   4.605
 7617SOL     OW22978   6.526   5.340   0.668
 7617SOL    HW122979   6.448   5.300   0.631
 7617SOL    HW222980   6.513   5.337   0.763
 7618SOL     OW22981   7.318   6.282   1.787
 7618SOL    HW122982   7.410   6.261   1.799
 7618SOL    HW222983   7.281   6.206   1.743
 7619SOL     OW22984   0.920   3.000   0.580
 7619SOL    HW122985   0.880   3.015   0.495
 7619SOL    HW222986   0.856   2.946   0.627
 7620SOL     OW22987   4.817   5.868   3.174
 7620SOL    HW122988   4.798   5.912   3.256
 7620SOL    HW222989   4.911   5.883   3.159
 7621SOL     OW22990   3.815   1.756   0.111
 7621SOL    HW122991   3.798   1.674   0.064
 7621SOL    HW222992   3.733   1.776   0.155
 7622SOL     OW22993   8.805   2.993   3.660
 7622SOL    HW122994   8.804   2.901   3.688
 7622SOL    HW222995   8.869   3.035   3.718
 7623SOL     OW22996   3.417   3.927   2.292
 7623SOL    HW122997   3.428   3.855   2.229
 7623SOL    HW222998   3.422   3.884   2.378
 7624SOL     OW22999   5.320   6.219   0.591
 7624SOL    HW123000   5.292   6.296   0.641
 7624SOL    HW223001   5.289   6.145   0.644
 7625SOL     OW23002   8.322   0.038   3.784
 7625SOL    HW123003   8.330   0.077   3.697
 7625SOL    HW223004   8.350  -0.053   3.771
 7626SOL     OW23005   4.009   4.053   1.921
 7626SOL    HW123006   3.989   4.123   1.859
 7626SOL    HW223007   3.924   4.013   1.941
 7627SOL     OW23008   8.319   0.027   3.138
 7627SOL    HW123009   8.409   0.057   3.149
 7627SOL    HW223010   8.269   0.107   3.121
 7628SOL     OW23011   7.448   5.186   0.579
 7628SOL    HW123012   7.366   5.154   0.615
 7628SOL    HW223013   7.424   5.264   0.529
 7629SOL     OW23014   1.322   0.138   1.395
 7629SOL    HW123015   1.282   0.155   1.309
 7629SOL    HW223016   1.278   0.059   1.427
 7630SOL     OW23017   6.328   1.967   4.079
 7630SOL    HW123018   6.273   2.045   4.066
 7630SOL    HW223019   6.285   1.899   4.027
 7631SOL     OW23020   0.455   7.278   0.576
 7631SOL    HW123021   0.395   7.207   0.596
 7631SOL    HW223022   0.405   7.358   0.592
 7632SOL     OW23023   7.671   5.013   1.465
 7632SOL    HW123024   7.754   4.965   1.475
 7632SOL    HW223025   7.674   5.078   1.535
 7633SOL     OW23026   5.632   7.129   4.572
 7633SOL    HW123027   5.628   7.048   4.522
 7633SOL    HW223028   5.549   7.133   4.619
 7634SOL     OW23029   9.605   4.235   4.011
 7634SOL    HW123030   9.699   4.229   3.994
 7634SOL    HW223031   9.594   4.321   4.052
 7635SOL     OW23032   8.287   2.423   1.981
 7635SOL    HW123033   8.380   2.404   1.995
 7635SOL    HW223034   8.269   2.496   2.041
 7636SOL     OW23035   5.125   6.588   0.510
 7636SOL    HW123036   5.218   6.606   0.520
 7636SOL    HW223037   5.101   6.626   0.426
 7637SOL     OW23038   2.393   7.213   2.347
 7637SOL    HW123039   2.422   7.222   2.256
 7637SOL    HW223040   2.435   7.285   2.393
 7638SOL     OW23041   1.524   2.262   0.550
 7638SOL    HW123042   1.433   2.271   0.580
 7638SOL    HW223043   1.517   2.216   0.466
 7639SOL     OW23044   9.000   0.159   5.099
 7639SOL    HW123045   9.042   0.182   5.016
 7639SOL    HW223046   8.990   0.064   5.096
 7640SOL     OW23047   4.388   5.170   4.326
 7640SOL    HW123048   4.437   5.246   4.294
 7640SOL    HW223049   4.411   5.099   4.266
 7641SOL     OW23050   6.674   0.730   5.174
 7641SOL    HW123051   6.596   0.769   5.213
 7641SOL    HW223052   6.694   0.655   5.229
 7642SOL     OW23053   3.014   2.208   2.503
 7642SOL    HW123054   3.020   2.112   2.505
 7642SOL    HW223055   3.082   2.235   2.441
 7643SOL     OW23056   6.714   5.369   4.984
 7643SOL    HW123057   6.778   5.421   5.032
 7643SOL    HW223058   6.720   5.400   4.894
 7644SOL     OW23059   3.423   5.150   3.258
 7644SOL    HW123060   3.485   5.077   3.263
 7644SOL    HW223061   3.405   5.161   3.165
 7645SOL     OW23062   4.013   3.428   0.544
 7645SOL    HW123063   4.093   3.462   0.505
 7645SOL    HW223064   3.978   3.501   0.596
 7646SOL     OW23065   3.431   2.577   2.380
 7646SOL    HW123066   3.442   2.518   2.455
 7646SOL    HW223067   3.463   2.661   2.412
 7647SOL     OW23068   3.718   3.291   5.041
 7647SOL    HW123069   3.758   3.224   4.985
 7647SOL    HW223070   3.793   3.336   5.081
 7648SOL     OW23071   9.429   5.085   3.731
 7648SOL    HW123072   9.428   5.151   3.661
 7648SOL    HW223073   9.504   5.108   3.784
 7649SOL     OW23074   3.103   5.153   3.959
 7649SOL    HW123075   3.063   5.222   3.905
 7649SOL    HW223076   3.063   5.072   3.928
 7650SOL     OW23077   5.706   6.464   1.197
 7650SOL    HW123078   5.633   6.443   1.140
 7650SOL    HW223079   5.682   6.426   1.282
 7651SOL     OW23080   7.960   2.693   5.008
 7651SOL    HW123081   8.031   2.702   4.945
 7651SOL    HW223082   7.913   2.614   4.981
 7652SOL     OW23083   1.989   1.035   0.069
 7652SOL    HW123084   2.042   1.087   0.008
 7652SOL    HW223085   2.050   1.006   0.136
 7653SOL     OW23086   8.885   0.806   3.082
 7653SOL    HW123087   8.937   0.766   3.013
 7653SOL    HW223088   8.879   0.898   3.059
 7654SOL     OW23089   6.818   6.018   4.587
 7654SOL    HW123090   6.804   6.019   4.492
 7654SOL    HW223091   6.760   5.949   4.619
 7655SOL     OW23092   1.454   1.825   1.249
 7655SOL    HW123093   1.463   1.822   1.154
 7655SOL    HW223094   1.538   1.795   1.283
 7656SOL     OW23095   2.969   2.789   1.638
 7656SOL    HW123096   3.043   2.836   1.676
 7656SOL    HW223097   3.002   2.758   1.553
 7657SOL     OW23098   7.574   1.654   5.116
 7657SOL    HW123099   7.542   1.586   5.174
 7657SOL    HW223100   7.668   1.659   5.133
 7658SOL     OW23101   6.126   0.732   5.067
 7658SOL    HW123102   6.108   0.780   5.148
 7658SOL    HW223103   6.218   0.750   5.048
 7659SOL     OW23104  10.285   0.903   4.094
 7659SOL    HW123105  10.251   0.992   4.108
 7659SOL    HW223106  10.362   0.916   4.039
 7660SOL     OW23107   4.053   0.833   1.132
 7660SOL    HW123108   4.124   0.821   1.194
 7660SOL    HW223109   3.976   0.796   1.176
 7661SOL     OW23110   3.642   6.463   4.033
 7661SOL    HW123111   3.571   6.428   3.980
 7661SOL    HW223112   3.614   6.450   4.124
 7662SOL     OW23113   3.632   4.301   4.514
 7662SOL    HW123114   3.715   4.277   4.474
 7662SOL    HW223115   3.656   4.358   4.587
 7663SOL     OW23116   2.766   5.748   1.986
 7663SOL    HW123117   2.797   5.783   2.070
 7663SOL    HW223118   2.702   5.681   2.011
 7664SOL     OW23119   1.593   3.240   1.084
 7664SOL    HW123120   1.613   3.189   1.006
 7664SOL    HW223121   1.497   3.245   1.085
 7665SOL     OW23122   9.852   0.437   3.474
 7665SOL    HW123123   9.942   0.469   3.475
 7665SOL    HW223124   9.839   0.400   3.562
 7666SOL     OW23125   3.365   3.473   2.685
 7666SOL    HW123126   3.342   3.395   2.736
 7666SOL    HW223127   3.460   3.476   2.687
 7667SOL     OW23128   4.846   1.107   2.923
 7667SOL    HW123129   4.881   1.034   2.975
 7667SOL    HW223130   4.764   1.074   2.887
 7668SOL     OW23131   4.867   2.933   4.175
 7668SOL    HW123132   4.789   2.877   4.173
 7668SOL    HW223133   4.843   3.006   4.232
 7669SOL     OW23134   5.725   7.272   4.234
 7669SOL    HW123135   5.694   7.333   4.167
 7669SOL    HW223136   5.680   7.298   4.314
 7670SOL     OW23137   3.948   4.521   4.203
 7670SOL    HW123138   3.967   4.516   4.296
 7670SOL    HW223139   4.034   4.524   4.161
 7671SOL     OW23140   5.288   2.154   3.746
 7671SOL    HW123141   5.326   2.183   3.663
 7671SOL    HW223142   5.271   2.061   3.733
 7672SOL     OW23143   7.589   5.138   4.797
 7672SOL    HW123144   7.531   5.214   4.789
 7672SOL    HW223145   7.543   5.079   4.856
 7673SOL     OW23146   3.196   6.825   0.260
 7673SOL    HW123147   3.287   6.854   0.261
 7673SOL    HW223148   3.151   6.889   0.205
 7674SOL     OW23149   5.435   4.877   5.140
 7674SOL    HW123150   5.358   4.923   5.107
 7674SOL    HW223151   5.485   4.854   5.062
 7675SOL     OW23152   2.629   6.025   2.031
 7675SOL    HW123153   2.684   5.956   1.995
 7675SOL    HW223154   2.634   6.096   1.967
 7676SOL     OW23155  10.212   3.329   4.768
 7676SOL    HW123156  10.286   3.366   4.816
 7676SOL    HW223157  10.217   3.369   4.681
 7677SOL     OW23158   6.765   1.344   1.026
 7677SOL    HW123159   6.783   1.423   0.975
 7677SOL    HW223160   6.850   1.301   1.034
 7678SOL     OW23161   3.344   0.173   3.400
 7678SOL    HW123162   3.271   0.180   3.462
 7678SOL    HW223163   3.419   0.147   3.454
 7679SOL     OW23164   2.135   6.324   1.834
 7679SOL    HW123165   2.163   6.410   1.864
 7679SOL    HW223166   2.153   6.265   1.908
 7680SOL     OW23167   6.989   0.354   3.397
 7680SOL    HW123168   6.916   0.414   3.413
 7680SOL    HW223169   7.015   0.372   3.307
 7681SOL     OW23170   7.296   5.168   1.177
 7681SOL    HW123171   7.350   5.203   1.248
 7681SOL    HW223172   7.269   5.082   1.207
 7682SOL     OW23173   4.406   3.990   0.762
 7682SOL    HW123174   4.418   3.903   0.725
 7682SOL    HW223175   4.311   4.005   0.759
 7683SOL     OW23176   3.494   2.364   3.455
 7683SOL    HW123177   3.512   2.307   3.529
 7683SOL    HW223178   3.486   2.305   3.380
 7684SOL     OW23179   7.324   3.696   1.698
 7684SOL    HW123180   7.357   3.785   1.689
 7684SOL    HW223181   7.233   3.706   1.725
 7685SOL     OW23182   4.470   2.439   4.915
 7685SOL    HW123183   4.416   2.509   4.879
 7685SOL    HW223184   4.415   2.397   4.981
 7686SOL     OW23185   5.187   5.949   5.212
 7686SOL    HW123186   5.240   5.970   5.289
 7686SOL    HW223187   5.119   6.017   5.210
 7687SOL     OW23188   3.087   3.120   1.617
 7687SOL    HW123189   3.078   3.034   1.576
 7687SOL    HW223190   3.167   3.156   1.580
 7688SOL     OW23191   5.492   7.095   2.833
 7688SOL    HW123192   5.413   7.078   2.783
 7688SOL    HW223193   5.463   7.149   2.907
 7689SOL     OW23194   7.439   0.632   0.729
 7689SOL    HW123195   7.365   0.618   0.670
 7689SOL    HW223196   7.407   0.605   0.815
 7690SOL     OW23197   3.671   4.592   3.827
 7690SOL    HW123198   3.622   4.654   3.880
 7690SOL    HW223199   3.714   4.646   3.760
 7691SOL     OW23200   5.386   1.438   4.797
 7691SOL    HW123201   5.468   1.421   4.750
 7691SOL    HW223202   5.318   1.418   4.733
 7692SOL     OW23203   5.424   3.115   1.638
 7692SOL    HW123204   5.489   3.076   1.580
 7692SOL    HW223205   5.420   3.056   1.713
 7693SOL     OW23206   8.042   0.606   4.545
 7693SOL    HW123207   7.997   0.529   4.579
 7693SOL    HW223208   7.990   0.634   4.470
 7694SOL     OW23209   8.103   7.430   4.723
 7694SOL    HW123210   8.044   7.493   4.683
 7694SOL    HW223211   8.143   7.477   4.796
 7695SOL     OW23212   3.446   2.759   1.532
 7695SOL    HW123213   3.357   2.780   1.505
 7695SOL    HW223214   3.446   2.768   1.627
 7696SOL     OW23215   4.204   5.955   3.563
 7696SOL    HW123216   4.114   5.931   3.584
 7696SOL    HW223217   4.204   6.051   3.563
 7697SOL     OW23218   4.799   4.701   2.753
 7697SOL    HW123219   4.775   4.633   2.690
 7697SOL    HW223220   4.892   4.716   2.736
 7698SOL     OW23221   3.756   2.832   3.060
 7698SOL    HW123222   3.751   2.751   3.111
 7698SOL    HW223223   3.721   2.808   2.974
 7699SOL     OW23224   4.142   4.666   2.546
 7699SOL    HW123225   4.092   4.636   2.623
 7699SOL    HW223226   4.158   4.586   2.495
 7700SOL     OW23227   6.517   3.202   1.911
 7700SOL    HW123228   6.468   3.167   1.837
 7700SOL    HW223229   6.586   3.138   1.926
 7701SOL     OW23230   7.095   4.006   0.526
 7701SOL    HW123231   7.020   4.042   0.479
 7701SOL    HW223232   7.090   3.912   0.511
 7702SOL     OW23233   5.350   4.914   4.388
 7702SOL    HW123234   5.437   4.913   4.427
 7702SOL    HW223235   5.290   4.903   4.462
 7703SOL     OW23236   0.193   3.961   0.198
 7703SOL    HW123237   0.153   4.032   0.249
 7703SOL    HW223238   0.138   3.954   0.120
 7704SOL     OW23239   2.729   3.026   2.056
 7704SOL    HW123240   2.792   2.981   2.000
 7704SOL    HW223241   2.778   3.098   2.094
 7705SOL     OW23242   4.786   1.432   3.266
 7705SOL    HW123243   4.767   1.462   3.178
 7705SOL    HW223244   4.868   1.475   3.290
 7706SOL     OW23245   3.470   5.807   2.173
 7706SOL    HW123246   3.532   5.813   2.246
 7706SOL    HW223247   3.404   5.745   2.202
 7707SOL     OW23248   6.687   6.065   3.878
 7707SOL    HW123249   6.687   6.002   3.950
 7707SOL    HW223250   6.595   6.086   3.865
 7708SOL     OW23251   5.169   2.454   3.502
 7708SOL    HW123252   5.161   2.547   3.478
 7708SOL    HW223253   5.194   2.455   3.594
 7709SOL     OW23254   2.030   6.423   2.133
 7709SOL    HW123255   1.937   6.435   2.119
 7709SOL    HW223256   2.040   6.330   2.154
 7710SOL     OW23257   3.828   5.226   3.819
 7710SOL    HW123258   3.842   5.217   3.914
 7710SOL    HW223259   3.907   5.190   3.780
 7711SOL     OW23260   3.555   2.197   4.517
 7711SOL    HW123261   3.463   2.180   4.536
 7711SOL    HW223262   3.581   2.263   4.582
 7712SOL     OW23263   5.000   5.518   2.492
 7712SOL    HW123264   4.931   5.562   2.442
 7712SOL    HW223265   5.044   5.588   2.539
 7713SOL     OW23266   7.068   1.492   0.697
 7713SOL    HW123267   7.161   1.503   0.718
 7713SOL    HW223268   7.065   1.495   0.602
 7714SOL     OW23269   8.256   4.542   1.173
 7714SOL    HW123270   8.251   4.502   1.260
 7714SOL    HW223271   8.311   4.482   1.123
 7715SOL     OW23272   2.033   1.871   1.286
 7715SOL    HW123273   1.952   1.834   1.320
 7715SOL    HW223274   2.005   1.936   1.222
 7716SOL     OW23275   4.012   6.067   0.321
 7716SOL    HW123276   3.987   5.981   0.355
 7716SOL    HW223277   3.966   6.075   0.238
 7717SOL     OW23278   7.370   3.887   5.075
 7717SOL    HW123279   7.341   3.958   5.018
 7717SOL    HW223280   7.390   3.930   5.159
 7718SOL     OW23281   6.193   2.065   4.345
 7718SOL    HW123282   6.276   2.020   4.358
 7718SOL    HW223283   6.208   2.154   4.378
 7719SOL     OW23284   2.012   1.547   0.277
 7719SOL    HW123285   1.937   1.588   0.322
 7719SOL    HW223286   1.976   1.468   0.237
 7720SOL     OW23287   7.691   6.155   3.118
 7720SOL    HW123288   7.674   6.106   3.037
 7720SOL    HW223289   7.637   6.233   3.111
 7721SOL     OW23290   3.488   5.816   0.100
 7721SOL    HW123291   3.425   5.873   0.144
 7721SOL    HW223292   3.435   5.749   0.057
 7722SOL     OW23293   6.750   5.447   2.615
 7722SOL    HW123294   6.757   5.383   2.544
 7722SOL    HW223295   6.839   5.453   2.651
 7723SOL     OW23296   2.954   0.576   3.759
 7723SOL    HW123297   2.894   0.504   3.779
 7723SOL    HW223298   3.040   0.543   3.788
 7724SOL     OW23299   6.271   4.039   0.171
 7724SOL    HW123300   6.241   4.093   0.098
 7724SOL    HW223301   6.311   3.962   0.130
 7725SOL     OW23302   4.585   4.855   2.656
 7725SOL    HW123303   4.648   4.847   2.728
 7725SOL    HW223304   4.505   4.815   2.689
 7726SOL     OW23305   8.698   1.381   3.787
 7726SOL    HW123306   8.669   1.290   3.782
 7726SOL    HW223307   8.704   1.409   3.696
 7727SOL     OW23308   6.453   7.063   1.455
 7727SOL    HW123309   6.546   7.086   1.455
 7727SOL    HW223310   6.437   7.024   1.370
 7728SOL     OW23311   5.823   5.691   5.126
 7728SOL    HW123312   5.789   5.672   5.214
 7728SOL    HW223313   5.746   5.684   5.069
 7729SOL     OW23314   6.681   2.341   4.896
 7729SOL    HW123315   6.773   2.319   4.885
 7729SOL    HW223316   6.673   2.370   4.987
 7730SOL     OW23317   2.670   1.988   1.645
 7730SOL    HW123318   2.656   1.964   1.737
 7730SOL    HW223319   2.764   2.007   1.639
 7731SOL     OW23320   5.918   4.165   2.535
 7731SOL    HW123321   5.832   4.122   2.540
 7731SOL    HW223322   5.970   4.121   2.602
 7732SOL     OW23323   8.945   5.767   4.600
 7732SOL    HW123324   9.016   5.708   4.576
 7732SOL    HW223325   8.869   5.709   4.612
 7733SOL     OW23326   9.035   6.457   3.316
 7733SOL    HW123327   9.027   6.534   3.373
 7733SOL    HW223328   8.945   6.424   3.309
 7734SOL     OW23329   7.380   4.331   0.846
 7734SOL    HW123330   7.415   4.415   0.816
 7734SOL    HW223331   7.439   4.304   0.916
 7735SOL     OW23332   7.213   1.682   3.761
 7735SOL    HW123333   7.263   1.607   3.730
 7735SOL    HW223334   7.269   1.758   3.743
 7736SOL     OW23335   9.394   5.267   4.045
 7736SOL    HW123336   9.345   5.222   3.976
 7736SOL    HW223337   9.372   5.359   4.034
 7737SOL     OW23338   6.464   3.701   3.911
 7737SOL    HW123339   6.533   3.699   3.978
 7737SOL    HW223340   6.437   3.793   3.909
 7738SOL     OW23341   2.523   3.707   2.950
 7738SOL    HW123342   2.521   3.765   3.026
 7738SOL    HW223343   2.524   3.765   2.875
 7739SOL     OW23344   5.015   1.903   1.121
 7739SOL    HW123345   4.986   1.815   1.096
 7739SOL    HW223346   5.070   1.889   1.198
 7740SOL     OW23347   5.940   4.991   1.436
 7740SOL    HW123348   5.991   4.954   1.509
 7740SOL    HW223349   6.003   5.001   1.365
 7741SOL     OW23350   0.706   1.624   0.416
 7741SOL    HW123351   0.621   1.613   0.458
 7741SOL    HW223352   0.687   1.621   0.323
 7742SOL     OW23353   4.704   1.844   3.712
 7742SOL    HW123354   4.721   1.788   3.637
 7742SOL    HW223355   4.642   1.795   3.766
 7743SOL     OW23356   4.158   2.523   3.320
 7743SOL    HW123357   4.237   2.566   3.353
 7743SOL    HW223358   4.103   2.595   3.290
 7744SOL     OW23359   1.038   6.428   0.089
 7744SOL    HW123360   1.063   6.475   0.169
 7744SOL    HW223361   1.013   6.498   0.028
 7745SOL     OW23362   7.380   1.510   3.612
 7745SOL    HW123363   7.364   1.436   3.554
 7745SOL    HW223364   7.423   1.575   3.558
 7746SOL     OW23365   5.281   4.359   2.630
 7746SOL    HW123366   5.335   4.359   2.551
 7746SOL    HW223367   5.197   4.397   2.603
 7747SOL     OW23368   7.963   7.137   3.465
 7747SOL    HW123369   8.055   7.116   3.454
 7747SOL    HW223370   7.932   7.080   3.535
 7748SOL     OW23371   1.445   4.589   1.115
 7748SOL    HW123372   1.412   4.528   1.181
 7748SOL    HW223373   1.540   4.576   1.116
 7749SOL     OW23374   5.253   4.075   0.026
 7749SOL    HW123375   5.251   4.035  -0.061
 7749SOL    HW223376   5.160   4.082   0.051
 7750SOL     OW23377  10.151   1.514   4.319
 7750SOL    HW123378  10.192   1.528   4.404
 7750SOL    HW223379  10.218   1.470   4.266
 7751SOL     OW23380   6.752   4.296   4.198
 7751SOL    HW123381   6.847   4.306   4.189
 7751SOL    HW223382   6.736   4.308   4.292
 7752SOL     OW23383   6.749   2.739   0.077
 7752SOL    HW123384   6.771   2.672   0.013
 7752SOL    HW223385   6.706   2.692   0.148
 7753SOL     OW23386   7.605   5.462   0.842
 7753SOL    HW123387   7.577   5.371   0.831
 7753SOL    HW223388   7.670   5.475   0.773
 7754SOL     OW23389   3.455   2.206   0.638
 7754SOL    HW123390   3.538   2.243   0.607
 7754SOL    HW223391   3.436   2.255   0.718
 7755SOL     OW23392   1.985   1.017   2.184
 7755SOL    HW123393   1.989   1.112   2.191
 7755SOL    HW223394   1.891   0.996   2.185
 7756SOL     OW23395   4.359   4.039   3.312
 7756SOL    HW123396   4.305   3.983   3.369
 7756SOL    HW223397   4.411   4.091   3.373
 7757SOL     OW23398   6.429   6.566   2.875
 7757SOL    HW123399   6.403   6.561   2.967
 7757SOL    HW223400   6.455   6.476   2.852
 7758SOL     OW23401   7.625   6.656   2.433
 7758SOL    HW123402   7.711   6.616   2.441
 7758SOL    HW223403   7.577   6.625   2.510
 7759SOL     OW23404   7.244   1.138   2.521
 7759SOL    HW123405   7.235   1.179   2.435
 7759SOL    HW223406   7.332   1.159   2.549
 7760SOL     OW23407   9.525   3.813   2.923
 7760SOL    HW123408   9.535   3.882   2.989
 7760SOL    HW223409   9.530   3.859   2.839
 7761SOL     OW23410   4.696   2.066   4.421
 7761SOL    HW123411   4.753   2.051   4.346
 7761SOL    HW223412   4.755   2.068   4.497
 7762SOL     OW23413  10.270   4.460   4.447
 7762SOL    HW123414  10.175   4.474   4.440
 7762SOL    HW223415  10.306   4.549   4.453
 7763SOL     OW23416   7.645   4.624   4.116
 7763SOL    HW123417   7.670   4.592   4.029
 7763SOL    HW223418   7.621   4.715   4.101
 7764SOL     OW23419   5.676   2.351   4.693
 7764SOL    HW123420   5.697   2.399   4.773
 7764SOL    HW223421   5.699   2.412   4.622
 7765SOL     OW23422   7.167   6.740   1.960
 7765SOL    HW123423   7.073   6.730   1.952
 7765SOL    HW223424   7.179   6.815   2.018
 7766SOL     OW23425   6.283   0.391   4.177
 7766SOL    HW123426   6.192   0.419   4.174
 7766SOL    HW223427   6.332   0.459   4.131
 7767SOL     OW23428   7.923   0.862   3.336
 7767SOL    HW123429   7.957   0.901   3.416
 7767SOL    HW223430   7.831   0.841   3.356
 7768SOL     OW23431   3.509   2.271   0.166
 7768SOL    HW123432   3.473   2.183   0.154
 7768SOL    HW223433   3.604   2.260   0.157
 7769SOL     OW23434   7.951   0.518   1.220
 7769SOL    HW123435   7.910   0.601   1.194
 7769SOL    HW223436   7.995   0.538   1.303
 7770SOL     OW23437   9.177   3.620   2.643
 7770SOL    HW123438   9.087   3.640   2.668
 7770SOL    HW223439   9.204   3.553   2.706
 7771SOL     OW23440   2.977   5.564   0.169
 7771SOL    HW123441   2.976   5.578   0.264
 7771SOL    HW223442   2.975   5.652   0.132
 7772SOL     OW23443   0.936   1.079   0.105
 7772SOL    HW123444   1.023   1.079   0.144
 7772SOL    HW223445   0.938   1.008   0.042
 7773SOL     OW23446   8.488   1.923   2.053
 7773SOL    HW123447   8.437   1.992   2.095
 7773SOL    HW223448   8.573   1.963   2.036
 7774SOL     OW23449   6.804   2.639   3.883
 7774SOL    HW123450   6.860   2.658   3.808
 7774SOL    HW223451   6.715   2.654   3.851
 7775SOL     OW23452   4.261   3.898   1.097
 7775SOL    HW123453   4.325   3.885   1.027
 7775SOL    HW223454   4.287   3.835   1.165
 7776SOL     OW23455   8.887   4.681   2.853
 7776SOL    HW123456   8.853   4.653   2.768
 7776SOL    HW223457   8.826   4.749   2.882
 7777SOL     OW23458   7.948   4.371   4.026
 7777SOL    HW123459   7.887   4.414   3.966
 7777SOL    HW223460   8.023   4.347   3.971
 7778SOL     OW23461   5.537   7.097   0.128
 7778SOL    HW123462   5.540   7.001   0.129
 7778SOL    HW223463   5.446   7.118   0.105
 7779SOL     OW23464   1.679   3.568   1.098
 7779SOL    HW123465   1.660   3.481   1.133
 7779SOL    HW223466   1.768   3.586   1.127
 7780SOL     OW23467   4.525   1.057   3.499
 7780SOL    HW123468   4.589   0.985   3.495
 7780SOL    HW223469   4.441   1.015   3.479
 7781SOL     OW23470   1.007   3.865   0.361
 7781SOL    HW123471   0.977   3.869   0.270
 7781SOL    HW223472   0.969   3.784   0.395
 7782SOL     OW23473   2.930   2.368   3.639
 7782SOL    HW123474   3.011   2.346   3.592
 7782SOL    HW223475   2.873   2.292   3.628
 7783SOL     OW23476   0.308   1.298   0.109
 7783SOL    HW123477   0.365   1.235   0.152
 7783SOL    HW223478   0.356   1.381   0.113
 7784SOL     OW23479   9.922   4.092   3.715
 7784SOL    HW123480   9.934   4.043   3.634
 7784SOL    HW223481   9.995   4.154   3.717
 7785SOL     OW23482   8.409   2.741   2.440
 7785SOL    HW123483   8.422   2.728   2.346
 7785SOL    HW223484   8.497   2.746   2.476
 7786SOL     OW23485   7.351   2.526   4.153
 7786SOL    HW123486   7.366   2.590   4.223
 7786SOL    HW223487   7.438   2.506   4.119
 7787SOL     OW23488   5.776   2.014   4.824
 7787SOL    HW123489   5.834   1.938   4.819
 7787SOL    HW223490   5.807   2.063   4.900
 7788SOL     OW23491   4.993   3.546   3.541
 7788SOL    HW123492   5.074   3.497   3.559
 7788SOL    HW223493   4.985   3.605   3.616
 7789SOL     OW23494   7.842   5.703   3.957
 7789SOL    HW123495   7.917   5.760   3.973
 7789SOL    HW223496   7.767   5.762   3.955
 7790SOL     OW23497   8.164   5.532   2.738
 7790SOL    HW123498   8.217   5.611   2.744
 7790SOL    HW223499   8.109   5.546   2.661
 7791SOL     OW23500   0.828   2.668   0.891
 7791SOL    HW123501   0.766   2.672   0.818
 7791SOL    HW223502   0.880   2.590   0.873
 7792SOL     OW23503   6.993   6.000   2.452
 7792SOL    HW123504   6.901   5.977   2.466
 7792SOL    HW223505   7.042   5.937   2.505
 7793SOL     OW23506   9.832   6.009   4.655
 7793SOL    HW123507   9.882   6.056   4.722
 7793SOL    HW223508   9.744   6.001   4.692
 7794SOL     OW23509   6.128   2.134   4.088
 7794SOL    HW123510   6.151   2.147   4.180
 7794SOL    HW223511   6.033   2.134   4.087
 7795SOL     OW23512   8.357   2.142   4.517
 7795SOL    HW123513   8.323   2.230   4.530
 7795SOL    HW223514   8.289   2.097   4.466
 7796SOL     OW23515   0.730   7.298   0.623
 7796SOL    HW123516   0.644   7.321   0.589
 7796SOL    HW223517   0.778   7.381   0.623
 7797SOL     OW23518   9.491   3.182   4.105
 7797SOL    HW123519   9.537   3.255   4.064
 7797SOL    HW223520   9.544   3.161   4.182
 7798SOL     OW23521   5.791   0.693   4.651
 7798SOL    HW123522   5.804   0.724   4.561
 7798SOL    HW223523   5.875   0.709   4.694
 7799SOL     OW23524   5.992   2.034   3.173
 7799SOL    HW123525   5.916   1.988   3.137
 7799SOL    HW223526   6.003   1.996   3.260
 7800SOL     OW23527   1.544   5.330   0.762
 7800SOL    HW123528   1.616   5.338   0.825
 7800SOL    HW223529   1.465   5.342   0.814
 7801SOL     OW23530   4.430   0.281   0.688
 7801SOL    HW123531   4.360   0.238   0.639
 7801SOL    HW223532   4.498   0.214   0.696
 7802SOL     OW23533   6.846   4.333   1.144
 7802SOL    HW123534   6.908   4.404   1.129
 7802SOL    HW223535   6.839   4.289   1.059
 7803SOL     OW23536   4.569   1.480   4.849
 7803SOL    HW123537   4.581   1.571   4.876
 7803SOL    HW223538   4.477   1.473   4.824
 7804SOL     OW23539   2.859   3.763   1.062
 7804SOL    HW123540   2.823   3.834   1.009
 7804SOL    HW223541   2.809   3.765   1.143
 7805SOL     OW23542   8.034   3.390   0.988
 7805SOL    HW123543   7.962   3.341   0.947
 7805SOL    HW223544   8.103   3.326   0.999
 7806SOL     OW23545   6.655   1.017   3.323
 7806SOL    HW123546   6.616   0.942   3.369
 7806SOL    HW223547   6.684   1.075   3.393
 7807SOL     OW23548   6.465   6.863   3.919
 7807SOL    HW123549   6.407   6.823   3.854
 7807SOL    HW223550   6.469   6.799   3.990
 7808SOL     OW23551   6.369   1.436   3.446
 7808SOL    HW123552   6.377   1.458   3.353
 7808SOL    HW223553   6.401   1.346   3.452
 7809SOL     OW23554   7.817   0.223   5.282
 7809SOL    HW123555   7.751   0.228   5.213
 7809SOL    HW223556   7.859   0.309   5.282
 7810SOL     OW23557   5.645   3.975   3.917
 7810SOL    HW123558   5.582   4.044   3.895
 7810SOL    HW223559   5.607   3.932   3.994
 7811SOL     OW23560   5.534   7.136   1.533
 7811SOL    HW123561   5.443   7.157   1.552
 7811SOL    HW223562   5.570   7.106   1.616
 7812SOL     OW23563   5.146   3.155   4.799
 7812SOL    HW123564   5.152   3.151   4.704
 7812SOL    HW223565   5.165   3.246   4.821
 7813SOL     OW23566   4.535   0.641   1.804
 7813SOL    HW123567   4.567   0.551   1.806
 7813SOL    HW223568   4.452   0.637   1.853
 7814SOL     OW23569   6.977   6.435   4.524
 7814SOL    HW123570   7.002   6.494   4.453
 7814SOL    HW223571   6.923   6.489   4.582
 7815SOL     OW23572   3.099   2.071   2.274
 7815SOL    HW123573   3.055   2.011   2.214
 7815SOL    HW223574   3.193   2.058   2.256
 7816SOL     OW23575   9.890   3.691   4.658
 7816SOL    HW123576   9.836   3.617   4.687
 7816SOL    HW223577   9.876   3.694   4.563
 7817SOL     OW23578   5.979   6.192   4.495
 7817SOL    HW123579   5.966   6.103   4.525
 7817SOL    HW223580   5.983   6.245   4.575
 7818SOL     OW23581   3.000   2.901   0.950
 7818SOL    HW123582   3.070   2.836   0.957
 7818SOL    HW223583   3.045   2.982   0.929
 7819SOL     OW23584   5.030   7.320   1.710
 7819SOL    HW123585   5.030   7.393   1.772
 7819SOL    HW223586   5.120   7.288   1.711
 7820SOL     OW23587   1.617   3.313   1.828
 7820SOL    HW123588   1.531   3.273   1.835
 7820SOL    HW223589   1.671   3.246   1.786
 7821SOL     OW23590   8.586   4.848   4.914
 7821SOL    HW123591   8.615   4.762   4.944
 7821SOL    HW223592   8.550   4.831   4.827
 7822SOL     OW23593   3.674   3.728   1.078
 7822SOL    HW123594   3.629   3.810   1.062
 7822SOL    HW223595   3.766   3.748   1.063
 7823SOL     OW23596   4.138   3.617   3.025
 7823SOL    HW123597   4.115   3.559   3.097
 7823SOL    HW223598   4.128   3.705   3.061
 7824SOL     OW23599   8.435   2.490   5.250
 7824SOL    HW123600   8.352   2.531   5.225
 7824SOL    HW223601   8.467   2.450   5.169
 7825SOL     OW23602   8.962   2.289   4.372
 7825SOL    HW123603   8.922   2.211   4.411
 7825SOL    HW223604   8.895   2.324   4.313
 7826SOL     OW23605   8.434   1.875   1.572
 7826SOL    HW123606   8.470   1.792   1.604
 7826SOL    HW223607   8.441   1.934   1.647
 7827SOL     OW23608   6.995   7.038   3.384
 7827SOL    HW123609   6.909   7.042   3.343
 7827SOL    HW223610   7.049   7.099   3.333
 7828SOL     OW23611   2.283   5.650   1.785
 7828SOL    HW123612   2.290   5.562   1.748
 7828SOL    HW223613   2.346   5.702   1.735
 7829SOL     OW23614   5.439   0.142   5.190
 7829SOL    HW123615   5.512   0.107   5.138
 7829SOL    HW223616   5.434   0.084   5.266
 7830SOL     OW23617   6.147   7.278   4.900
 7830SOL    HW123618   6.081   7.345   4.921
 7830SOL    HW223619   6.159   7.286   4.805
 7831SOL     OW23620   4.621   4.243   5.025
 7831SOL    HW123621   4.618   4.179   5.095
 7831SOL    HW223622   4.702   4.223   4.978
 7832SOL     OW23623   5.296   3.805   3.780
 7832SOL    HW123624   5.321   3.758   3.860
 7832SOL    HW223625   5.319   3.746   3.709
 7833SOL     OW23626   7.333   0.145   2.779
 7833SOL    HW123627   7.304   0.235   2.766
 7833SOL    HW223628   7.425   0.152   2.804
 7834SOL     OW23629   3.680   0.882   1.903
 7834SOL    HW123630   3.668   0.787   1.906
 7834SOL    HW223631   3.774   0.894   1.912
 7835SOL     OW23632   6.290   4.733   1.069
 7835SOL    HW123633   6.203   4.773   1.078
 7835SOL    HW223634   6.276   4.640   1.085
 7836SOL     OW23635   3.222   0.637   4.089
 7836SOL    HW123636   3.248   0.609   4.176
 7836SOL    HW223637   3.271   0.580   4.030
 7837SOL     OW23638   3.215   3.819   3.159
 7837SOL    HW123639   3.258   3.880   3.099
 7837SOL    HW223640   3.286   3.779   3.208
 7838SOL     OW23641   6.790   5.083   5.040
 7838SOL    HW123642   6.826   5.170   5.025
 7838SOL    HW223643   6.699   5.089   5.011
 7839SOL     OW23644   6.986   6.371   2.241
 7839SOL    HW123645   6.973   6.318   2.162
 7839SOL    HW223646   6.947   6.456   2.218
 7840SOL     OW23647   6.771   6.235   1.991
 7840SOL    HW123648   6.864   6.257   1.991
 7840SOL    HW223649   6.732   6.293   1.926
 7841SOL     OW23650   6.568   4.067   2.540
 7841SOL    HW123651   6.485   4.024   2.564
 7841SOL    HW223652   6.546   4.119   2.463
 7842SOL     OW23653   3.382   0.867   1.289
 7842SOL    HW123654   3.325   0.938   1.261
 7842SOL    HW223655   3.456   0.870   1.228
 7843SOL     OW23656   5.006   0.625   4.621
 7843SOL    HW123657   4.982   0.568   4.694
 7843SOL    HW223658   5.102   0.627   4.623
 7844SOL     OW23659   7.649   2.491   1.402
 7844SOL    HW123660   7.706   2.568   1.402
 7844SOL    HW223661   7.610   2.490   1.314
 7845SOL     OW23662   6.566   4.778   5.001
 7845SOL    HW123663   6.611   4.830   4.934
 7845SOL    HW223664   6.605   4.807   5.083
 7846SOL     OW23665   1.749   5.179   1.712
 7846SOL    HW123666   1.830   5.229   1.711
 7846SOL    HW223667   1.744   5.139   1.624
 7847SOL     OW23668   0.208   5.468   0.279
 7847SOL    HW123669   0.250   5.383   0.291
 7847SOL    HW223670   0.215   5.485   0.185
 7848SOL     OW23671   3.286   7.233   2.943
 7848SOL    HW123672   3.238   7.276   2.872
 7848SOL    HW223673   3.221   7.221   3.012
 7849SOL     OW23674   6.834   2.264   0.453
 7849SOL    HW123675   6.768   2.283   0.520
 7849SOL    HW223676   6.900   2.212   0.499
 7850SOL     OW23677   3.886   0.106   3.092
 7850SOL    HW123678   3.838   0.046   3.034
 7850SOL    HW223679   3.974   0.109   3.056
 7851SOL     OW23680   6.771   4.560   2.596
 7851SOL    HW123681   6.744   4.650   2.618
 7851SOL    HW223682   6.690   4.510   2.599
 7852SOL     OW23683   8.447   0.858   1.624
 7852SOL    HW123684   8.475   0.898   1.542
 7852SOL    HW223685   8.436   0.765   1.604
 7853SOL     OW23686   4.344   4.443   4.634
 7853SOL    HW123687   4.394   4.442   4.552
 7853SOL    HW223688   4.410   4.455   4.702
 7854SOL     OW23689   4.081   5.086   0.055
 7854SOL    HW123690   4.162   5.072   0.007
 7854SOL    HW223691   4.102   5.155   0.118
 7855SOL     OW23692   5.455   5.010   3.731
 7855SOL    HW123693   5.468   5.014   3.826
 7855SOL    HW223694   5.541   4.989   3.696
 7856SOL     OW23695   6.341   7.305   0.751
 7856SOL    HW123696   6.335   7.392   0.710
 7856SOL    HW223697   6.338   7.323   0.845
 7857SOL     OW23698   4.845   2.358   3.455
 7857SOL    HW123699   4.927   2.329   3.416
 7857SOL    HW223700   4.838   2.309   3.537
 7858SOL     OW23701   9.254   7.378   4.258
 7858SOL    HW123702   9.181   7.346   4.310
 7858SOL    HW223703   9.329   7.327   4.288
 7859SOL     OW23704   3.295   5.165   1.121
 7859SOL    HW123705   3.224   5.172   1.185
 7859SOL    HW223706   3.261   5.209   1.043
 7860SOL     OW23707   2.648   4.181   2.709
 7860SOL    HW123708   2.573   4.130   2.680
 7860SOL    HW223709   2.679   4.135   2.788
 7861SOL     OW23710   5.935   0.896   3.229
 7861SOL    HW123711   5.856   0.928   3.273
 7861SOL    HW223712   5.910   0.892   3.137
 7862SOL     OW23713   3.582   0.845   3.426
 7862SOL    HW123714   3.555   0.839   3.334
 7862SOL    HW223715   3.652   0.910   3.426
 7863SOL     OW23716   1.919   2.360   2.216
 7863SOL    HW123717   1.882   2.273   2.230
 7863SOL    HW223718   1.898   2.408   2.296
 7864SOL     OW23719   6.635   5.348   3.764
 7864SOL    HW123720   6.692   5.277   3.794
 7864SOL    HW223721   6.649   5.353   3.670
 7865SOL     OW23722   2.597   6.739   3.524
 7865SOL    HW123723   2.670   6.800   3.522
 7865SOL    HW223724   2.523   6.789   3.489
 7866SOL     OW23725   3.927   1.099   4.014
 7866SOL    HW123726   3.886   1.031   3.960
 7866SOL    HW223727   3.964   1.160   3.952
 7867SOL     OW23728   3.164   0.994   2.815
 7867SOL    HW123729   3.137   0.986   2.723
 7867SOL    HW223730   3.081   1.000   2.863
 7868SOL     OW23731   7.725   2.902   3.315
 7868SOL    HW123732   7.651   2.863   3.361
 7868SOL    HW223733   7.705   2.995   3.311
 7869SOL     OW23734   3.384   2.078   0.397
 7869SOL    HW123735   3.473   2.042   0.396
 7869SOL    HW223736   3.390   2.155   0.453
 7870SOL     OW23737   6.287   7.340   1.875
 7870SOL    HW123738   6.300   7.307   1.786
 7870SOL    HW223739   6.349   7.290   1.928
 7871SOL     OW23740   2.953   1.318   4.201
 7871SOL    HW123741   3.010   1.365   4.140
 7871SOL    HW223742   2.987   1.340   4.288
 7872SOL     OW23743   2.374   6.648   1.620
 7872SOL    HW123744   2.285   6.617   1.606
 7872SOL    HW223745   2.364   6.738   1.650
 7873SOL     OW23746   5.827   6.474   2.077
 7873SOL    HW123747   5.752   6.523   2.042
 7873SOL    HW223748   5.895   6.485   2.011
 7874SOL     OW23749   6.695   3.958   0.624
 7874SOL    HW123750   6.603   3.961   0.599
 7874SOL    HW223751   6.727   3.876   0.587
 7875SOL     OW23752   4.965   1.021   1.943
 7875SOL    HW123753   4.884   0.971   1.935
 7875SOL    HW223754   4.954   1.095   1.883
 7876SOL     OW23755   3.800   5.866   4.856
 7876SOL    HW123756   3.831   5.928   4.790
 7876SOL    HW223757   3.716   5.901   4.885
 7877SOL     OW23758   4.481   4.730   4.706
 7877SOL    HW123759   4.511   4.663   4.768
 7877SOL    HW223760   4.462   4.682   4.625
 7878SOL     OW23761   3.012   1.569   1.777
 7878SOL    HW123762   3.018   1.511   1.701
 7878SOL    HW223763   3.033   1.656   1.742
 7879SOL     OW23764   2.174   1.140   1.463
 7879SOL    HW123765   2.196   1.056   1.423
 7879SOL    HW223766   2.221   1.205   1.410
 7880SOL     OW23767   7.745   2.348   4.107
 7880SOL    HW123768   7.839   2.344   4.088
 7880SOL    HW223769   7.741   2.363   4.201
 7881SOL     OW23770   6.745   4.482   1.472
 7881SOL    HW123771   6.686   4.558   1.483
 7881SOL    HW223772   6.686   4.407   1.469
 7882SOL     OW23773   5.016   1.056   0.350
 7882SOL    HW123774   5.064   1.121   0.401
 7882SOL    HW223775   4.977   1.107   0.278
 7883SOL     OW23776   3.987   6.835   0.811
 7883SOL    HW123777   4.008   6.836   0.717
 7883SOL    HW223778   3.896   6.805   0.815
 7884SOL     OW23779   8.737   4.331   2.591
 7884SOL    HW123780   8.651   4.336   2.549
 7884SOL    HW223781   8.789   4.274   2.534
 7885SOL     OW23782   5.810   1.995   2.789
 7885SOL    HW123783   5.732   2.035   2.826
 7885SOL    HW223784   5.778   1.918   2.742
 7886SOL     OW23785   4.962   6.839   1.938
 7886SOL    HW123786   4.918   6.773   1.884
 7886SOL    HW223787   5.010   6.893   1.875
 7887SOL     OW23788   6.188   3.184   0.580
 7887SOL    HW123789   6.092   3.187   0.587
 7887SOL    HW223790   6.211   3.095   0.605
 7888SOL     OW23791   2.671   0.413   1.979
 7888SOL    HW123792   2.671   0.492   2.033
 7888SOL    HW223793   2.623   0.438   1.900
 7889SOL     OW23794   0.428   4.652   0.398
 7889SOL    HW123795   0.400   4.703   0.321
 7889SOL    HW223796   0.468   4.574   0.361
 7890SOL     OW23797   8.443   5.271   3.350
 7890SOL    HW123798   8.426   5.327   3.425
 7890SOL    HW223799   8.408   5.319   3.275
 7891SOL     OW23800   7.611   1.517   3.739
 7891SOL    HW123801   7.617   1.507   3.834
 7891SOL    HW223802   7.522   1.489   3.717
 7892SOL     OW23803   2.690   5.205   2.096
 7892SOL    HW123804   2.608   5.161   2.122
 7892SOL    HW223805   2.668   5.249   2.014
 7893SOL     OW23806   9.504   0.507   3.662
 7893SOL    HW123807   9.485   0.435   3.722
 7893SOL    HW223808   9.440   0.496   3.591
 7894SOL     OW23809   2.201   3.553   0.496
 7894SOL    HW123810   2.168   3.543   0.407
 7894SOL    HW223811   2.144   3.497   0.549
 7895SOL     OW23812   2.548   5.776   3.460
 7895SOL    HW123813   2.630   5.826   3.454
 7895SOL    HW223814   2.572   5.693   3.500
 7896SOL     OW23815   4.453   4.517   5.222
 7896SOL    HW123816   4.371   4.536   5.177
 7896SOL    HW223817   4.485   4.436   5.181
 7897SOL     OW23818   3.282   3.190   3.529
 7897SOL    HW123819   3.263   3.118   3.469
 7897SOL    HW223820   3.335   3.251   3.477
 7898SOL     OW23821   3.803   1.258   1.951
 7898SOL    HW123822   3.885   1.210   1.967
 7898SOL    HW223823   3.740   1.216   2.009
 7899SOL     OW23824   4.958   3.381   4.097
 7899SOL    HW123825   4.993   3.326   4.027
 7899SOL    HW223826   4.975   3.331   4.177
 7900SOL     OW23827   3.688   1.949   3.120
 7900SOL    HW123828   3.708   1.972   3.030
 7900SOL    HW223829   3.722   2.022   3.172
 7901SOL     OW23830   8.648   4.588   4.993
 7901SOL    HW123831   8.607   4.507   5.023
 7901SOL    HW223832   8.731   4.560   4.956
 7902SOL     OW23833   7.820   4.943   1.167
 7902SOL    HW123834   7.741   4.896   1.141
 7902SOL    HW223835   7.790   5.032   1.185
 7903SOL     OW23836   6.462   6.081   4.717
 7903SOL    HW123837   6.540   6.069   4.770
 7903SOL    HW223838   6.485   6.148   4.654
 7904SOL     OW23839  10.203   1.543   5.180
 7904SOL    HW123840  10.219   1.574   5.091
 7904SOL    HW223841  10.281   1.493   5.204
 7905SOL     OW23842   4.886   0.053   3.785
 7905SOL    HW123843   4.862   0.131   3.736
 7905SOL    HW223844   4.970   0.026   3.748
 7906SOL     OW23845   3.248   1.076   1.223
 7906SOL    HW123846   3.242   1.078   1.319
 7906SOL    HW223847   3.204   1.156   1.195
 7907SOL     OW23848   6.828   4.356   3.685
 7907SOL    HW123849   6.922   4.346   3.666
 7907SOL    HW223850   6.797   4.266   3.694
 7908SOL     OW23851   4.119   1.309   1.884
 7908SOL    HW123852   4.047   1.371   1.873
 7908SOL    HW223853   4.146   1.288   1.794
 7909SOL     OW23854   4.248   1.187   4.906
 7909SOL    HW123855   4.277   1.127   4.975
 7909SOL    HW223856   4.171   1.145   4.868
 7910SOL     OW23857   7.313   0.290   1.738
 7910SOL    HW123858   7.305   0.282   1.833
 7910SOL    HW223859   7.381   0.356   1.725
 7911SOL     OW23860   5.160   4.769   4.908
 7911SOL    HW123861   5.114   4.809   4.833
 7911SOL    HW223862   5.236   4.726   4.869
 7912SOL     OW23863   7.674   3.341   1.180
 7912SOL    HW123864   7.615   3.294   1.239
 7912SOL    HW223865   7.658   3.302   1.094
 7913SOL     OW23866   1.308   4.036   1.220
 7913SOL    HW123867   1.401   4.016   1.230
 7913SOL    HW223868   1.303   4.096   1.146
 7914SOL     OW23869   2.080   2.988   0.723
 7914SOL    HW123870   2.022   3.063   0.708
 7914SOL    HW223871   2.043   2.945   0.800
 7915SOL     OW23872   2.905   5.998   3.728
 7915SOL    HW123873   2.875   6.088   3.716
 7915SOL    HW223874   2.994   5.997   3.692
 7916SOL     OW23875   5.816   0.184   3.394
 7916SOL    HW123876   5.866   0.114   3.352
 7916SOL    HW223877   5.862   0.200   3.477
 7917SOL     OW23878   3.093   1.811   0.110
 7917SOL    HW123879   3.014   1.757   0.103
 7917SOL    HW223880   3.086   1.854   0.196
 7918SOL     OW23881   8.051   2.072   4.007
 7918SOL    HW123882   8.110   2.125   4.062
 7918SOL    HW223883   8.011   2.135   3.947
 7919SOL     OW23884   0.774   5.966   0.170
 7919SOL    HW123885   0.805   6.054   0.150
 7919SOL    HW223886   0.752   5.968   0.263
 7920SOL     OW23887   8.055   2.235   4.485
 7920SOL    HW123888   7.979   2.219   4.428
 7920SOL    HW223889   8.039   2.180   4.562
 7921SOL     OW23890   7.067   0.135   3.156
 7921SOL    HW123891   7.144   0.192   3.165
 7921SOL    HW223892   7.076   0.072   3.227
 7922SOL     OW23893   6.826   4.044   4.467
 7922SOL    HW123894   6.842   4.130   4.507
 7922SOL    HW223895   6.806   3.987   4.541
 7923SOL     OW23896   3.991   0.206   4.136
 7923SOL    HW123897   4.004   0.190   4.229
 7923SOL    HW223898   3.909   0.162   4.115
 7924SOL     OW23899   4.682   3.699   0.666
 7924SOL    HW123900   4.760   3.731   0.620
 7924SOL    HW223901   4.651   3.626   0.611
 7925SOL     OW23902   6.243   6.065   4.940
 7925SOL    HW123903   6.223   6.007   5.013
 7925SOL    HW223904   6.326   6.032   4.905
 7926SOL     OW23905   4.872   6.770   4.893
 7926SOL    HW123906   4.831   6.793   4.976
 7926SOL    HW223907   4.826   6.691   4.864
 7927SOL     OW23908   7.568   6.397   4.321
 7927SOL    HW123909   7.522   6.457   4.379
 7927SOL    HW223910   7.647   6.372   4.370
 7928SOL     OW23911   2.390   6.918   1.685
 7928SOL    HW123912   2.416   6.950   1.772
 7928SOL    HW223913   2.354   6.995   1.641
 7929SOL     OW23914   7.768   4.219   3.809
 7929SOL    HW123915   7.813   4.137   3.788
 7929SOL    HW223916   7.721   4.241   3.729
 7930SOL     OW23917   3.755   3.981   0.423
 7930SOL    HW123918   3.812   4.042   0.377
 7930SOL    HW223919   3.797   3.896   0.411
 7931SOL     OW23920   9.215   0.477   2.901
 7931SOL    HW123921   9.219   0.401   2.960
 7931SOL    HW223922   9.306   0.492   2.876
 7932SOL     OW23923   5.645   4.440   3.407
 7932SOL    HW123924   5.721   4.403   3.451
 7932SOL    HW223925   5.588   4.471   3.478
 7933SOL     OW23926   3.468   4.252   2.778
 7933SOL    HW123927   3.512   4.248   2.693
 7933SOL    HW223928   3.482   4.166   2.817
 7934SOL     OW23929   8.616   2.543   3.193
 7934SOL    HW123930   8.668   2.536   3.113
 7934SOL    HW223931   8.531   2.574   3.164
 7935SOL     OW23932   8.223   2.840   4.637
 7935SOL    HW123933   8.268   2.759   4.613
 7935SOL    HW223934   8.267   2.908   4.586
 7936SOL     OW23935   5.358   3.218   0.535
 7936SOL    HW123936   5.296   3.258   0.597
 7936SOL    HW223937   5.343   3.266   0.453
 7937SOL     OW23938   4.721   1.128   5.285
 7937SOL    HW123939   4.636   1.149   5.246
 7937SOL    HW223940   4.765   1.213   5.292
 7938SOL     OW23941   3.903   1.640   2.854
 7938SOL    HW123942   3.852   1.608   2.779
 7938SOL    HW223943   3.860   1.722   2.879
 7939SOL     OW23944   4.530   1.721   3.875
 7939SOL    HW123945   4.450   1.681   3.840
 7939SOL    HW223946   4.568   1.653   3.930
 7940SOL     OW23947   4.260   2.874   4.908
 7940SOL    HW123948   4.275   2.964   4.936
 7940SOL    HW223949   4.174   2.851   4.944
 7941SOL     OW23950   5.118   5.156   3.364
 7941SOL    HW123951   5.197   5.167   3.417
 7941SOL    HW223952   5.063   5.098   3.416
 7942SOL     OW23953   2.835   1.795   3.750
 7942SOL    HW123954   2.750   1.839   3.754
 7942SOL    HW223955   2.865   1.794   3.841
 7943SOL     OW23956   3.793   2.730   0.144
 7943SOL    HW123957   3.716   2.780   0.117
 7943SOL    HW223958   3.851   2.796   0.183
 7944SOL     OW23959   4.182   1.076   4.490
 7944SOL    HW123960   4.200   0.994   4.444
 7944SOL    HW223961   4.152   1.048   4.577
 7945SOL     OW23962   2.333   1.828   1.856
 7945SOL    HW123963   2.291   1.767   1.795
 7945SOL    HW223964   2.266   1.894   1.874
 7946SOL     OW23965   7.358   2.268  -0.006
 7946SOL    HW123966   7.264   2.264   0.011
 7946SOL    HW223967   7.386   2.351   0.031
 7947SOL     OW23968   4.073   5.754   1.788
 7947SOL    HW123969   4.066   5.666   1.825
 7947SOL    HW223970   3.983   5.782   1.776
 7948SOL     OW23971   6.471   2.217   3.286
 7948SOL    HW123972   6.518   2.299   3.305
 7948SOL    HW223973   6.434   2.190   3.370
 7949SOL     OW23974   6.974   2.789   1.521
 7949SOL    HW123975   6.916   2.731   1.473
 7949SOL    HW223976   6.994   2.742   1.602
 7950SOL     OW23977   2.925   6.298   0.074
 7950SOL    HW123978   2.997   6.283   0.135
 7950SOL    HW223979   2.846   6.280   0.125
 7951SOL     OW23980   9.495   2.567   5.139
 7951SOL    HW123981   9.477   2.611   5.056
 7951SOL    HW223982   9.438   2.610   5.202
 7952SOL     OW23983   4.329   3.170   4.476
 7952SOL    HW123984   4.307   3.104   4.410
 7952SOL    HW223985   4.284   3.249   4.446
 7953SOL     OW23986   3.809   3.464   1.170
 7953SOL    HW123987   3.766   3.432   1.091
 7953SOL    HW223988   3.746   3.526   1.208
 7954SOL     OW23989   1.411   6.809   0.354
 7954SOL    HW123990   1.432   6.791   0.262
 7954SOL    HW223991   1.404   6.722   0.393
 7955SOL     OW23992   6.136   1.727   2.760
 7955SOL    HW123993   6.121   1.816   2.791
 7955SOL    HW223994   6.223   1.705   2.795
 7956SOL     OW23995   8.150   3.937   4.138
 7956SOL    HW123996   8.083   3.969   4.078
 7956SOL    HW223997   8.226   3.993   4.121
 7957SOL     OW23998   4.477   0.681   2.506
 7957SOL    HW123999   4.450   0.757   2.454
 7957SOL    HW224000   4.552   0.645   2.459
 7958SOL     OW24001   9.143   0.332   3.898
 7958SOL    HW124002   9.205   0.403   3.915
 7958SOL    HW224003   9.163   0.267   3.965
 7959SOL     OW24004   7.353   5.495   1.702
 7959SOL    HW124005   7.309   5.515   1.784
 7959SOL    HW224006   7.440   5.534   1.711
 7960SOL     OW24007   5.060   7.127   4.991
 7960SOL    HW124008   5.080   7.082   5.074
 7960SOL    HW224009   5.125   7.198   4.986
 7961SOL     OW24010   7.442   3.966   1.115
 7961SOL    HW124011   7.474   3.957   1.025
 7961SOL    HW224012   7.466   3.883   1.157
 7962SOL     OW24013   2.979   0.455   2.237
 7962SOL    HW124014   3.065   0.457   2.278
 7962SOL    HW224015   2.919   0.430   2.307
 7963SOL     OW24016   1.577   2.988   0.308
 7963SOL    HW124017   1.571   2.893   0.297
 7963SOL    HW224018   1.671   3.006   0.312
 7964SOL     OW24019   7.150   5.309   1.599
 7964SOL    HW124020   7.108   5.327   1.516
 7964SOL    HW224021   7.208   5.384   1.614
 7965SOL     OW24022   6.022   6.830   2.500
 7965SOL    HW124023   6.108   6.866   2.480
 7965SOL    HW224024   6.026   6.812   2.594
 7966SOL     OW24025   3.487   5.830   3.189
 7966SOL    HW124026   3.435   5.907   3.170
 7966SOL    HW224027   3.436   5.782   3.255
 7967SOL     OW24028   3.560   2.712   3.452
 7967SOL    HW124029   3.468   2.724   3.428
 7967SOL    HW224030   3.558   2.666   3.535
 7968SOL     OW24031   7.106   7.491   0.015
 7968SOL    HW124032   7.171   7.479   0.085
 7968SOL    HW224033   7.035   7.431   0.039
 7969SOL     OW24034   6.395   0.225   2.811
 7969SOL    HW124035   6.387   0.272   2.728
 7969SOL    HW224036   6.449   0.149   2.790
 7970SOL     OW24037   3.799   2.398   2.851
 7970SOL    HW124038   3.873   2.451   2.879
 7970SOL    HW224039   3.826   2.308   2.869
 7971SOL     OW24040   2.097   7.043   0.733
 7971SOL    HW124041   2.034   6.979   0.701
 7971SOL    HW224042   2.060   7.128   0.710
 7972SOL     OW24043   3.330   0.282   1.753
 7972SOL    HW124044   3.356   0.263   1.843
 7972SOL    HW224045   3.339   0.377   1.745
 7973SOL     OW24046   5.498   6.598   3.538
 7973SOL    HW124047   5.448   6.535   3.485
 7973SOL    HW224048   5.501   6.559   3.625
 7974SOL     OW24049   5.054   1.506   3.278
 7974SOL    HW124050   5.071   1.414   3.297
 7974SOL    HW224051   5.029   1.507   3.186
 7975SOL     OW24052   2.758   1.357   0.176
 7975SOL    HW124053   2.681   1.300   0.170
 7975SOL    HW224054   2.792   1.343   0.264
 7976SOL     OW24055   0.629   2.588   0.712
 7976SOL    HW124056   0.682   2.510   0.729
 7976SOL    HW224057   0.544   2.554   0.684
 7977SOL     OW24058   3.525   0.738   0.881
 7977SOL    HW124059   3.612   0.728   0.920
 7977SOL    HW224060   3.481   0.654   0.899
 7978SOL     OW24061   6.886   1.944   4.585
 7978SOL    HW124062   6.964   1.893   4.563
 7978SOL    HW224063   6.868   1.922   4.677
 7979SOL     OW24064   5.351   3.420   3.481
 7979SOL    HW124065   5.417   3.391   3.418
 7979SOL    HW224066   5.295   3.480   3.431
 7980SOL     OW24067   2.565   0.827   0.907
 7980SOL    HW124068   2.577   0.858   0.817
 7980SOL    HW224069   2.512   0.748   0.899
 7981SOL     OW24070   4.506   4.608   0.991
 7981SOL    HW124071   4.554   4.576   1.068
 7981SOL    HW224072   4.543   4.560   0.918
 7982SOL     OW24073   3.839   1.428   0.462
 7982SOL    HW124074   3.919   1.379   0.441
 7982SOL    HW224075   3.774   1.360   0.482
 7983SOL     OW24076   3.321   3.275   1.786
 7983SOL    HW124077   3.321   3.205   1.851
 7983SOL    HW224078   3.261   3.341   1.822
 7984SOL     OW24079   8.525   0.451   4.871
 7984SOL    HW124080   8.569   0.440   4.787
 7984SOL    HW224081   8.497   0.543   4.871
 7985SOL     OW24082   6.478   1.114   2.189
 7985SOL    HW124083   6.424   1.177   2.237
 7985SOL    HW224084   6.424   1.089   2.114
 7986SOL     OW24085   1.578   4.554   2.184
 7986SOL    HW124086   1.672   4.561   2.167
 7986SOL    HW224087   1.543   4.504   2.111
 7987SOL     OW24088   5.767   7.246   0.390
 7987SOL    HW124089   5.794   7.171   0.336
 7987SOL    HW224090   5.699   7.211   0.448
 7988SOL     OW24091   4.112   0.981   1.534
 7988SOL    HW124092   4.189   0.927   1.516
 7988SOL    HW224093   4.047   0.952   1.470
 7989SOL     OW24094   2.585   4.405   0.812
 7989SOL    HW124095   2.543   4.407   0.726
 7989SOL    HW224096   2.607   4.496   0.831
 7990SOL     OW24097   7.835   1.981   3.407
 7990SOL    HW124098   7.791   1.905   3.367
 7990SOL    HW224099   7.927   1.970   3.383
 7991SOL     OW24100   6.668   6.815   2.107
 7991SOL    HW124101   6.642   6.898   2.147
 7991SOL    HW224102   6.647   6.749   2.173
 7992SOL     OW24103   8.494   3.360   3.194
 7992SOL    HW124104   8.570   3.389   3.245
 7992SOL    HW224105   8.448   3.300   3.253
 7993SOL     OW24106   4.394   2.546   0.716
 7993SOL    HW124107   4.331   2.614   0.741
 7993SOL    HW224108   4.340   2.472   0.689
 7994SOL     OW24109   4.454   6.906   1.352
 7994SOL    HW124110   4.433   6.820   1.317
 7994SOL    HW224111   4.378   6.960   1.331
 7995SOL     OW24112   5.544   1.729   4.428
 7995SOL    HW124113   5.559   1.823   4.433
 7995SOL    HW224114   5.627   1.694   4.394
 7996SOL     OW24115   1.253   0.549   0.036
 7996SOL    HW124116   1.179   0.490   0.048
 7996SOL    HW224117   1.242   0.585  -0.052
 7997SOL     OW24118   3.632   0.556   1.353
 7997SOL    HW124119   3.594   0.486   1.300
 7997SOL    HW224120   3.610   0.637   1.306
 7998SOL     OW24121   8.187   1.352   1.895
 7998SOL    HW124122   8.196   1.446   1.884
 7998SOL    HW224123   8.105   1.330   1.850
 7999SOL     OW24124   9.655   5.669   5.060
 7999SOL    HW124125   9.618   5.632   5.140
 7999SOL    HW224126   9.625   5.760   5.059
 8000SOL     OW24127   6.831   6.243   1.091
 8000SOL    HW124128   6.814   6.318   1.034
 8000SOL    HW224129   6.832   6.279   1.179
 8001SOL     OW24130   9.176   4.601   4.072
 8001SOL    HW124131   9.249   4.632   4.019
 8001SOL    HW224132   9.213   4.592   4.160
 8002SOL     OW24133   1.662   1.330   1.321
 8002SOL    HW124134   1.612   1.304   1.243
 8002SOL    HW224135   1.723   1.397   1.288
 8003SOL     OW24136   4.643   5.691   4.789
 8003SOL    HW124137   4.558   5.652   4.814
 8003SOL    HW224138   4.690   5.700   4.872
 8004SOL     OW24139   9.074   1.503   3.673
 8004SOL    HW124140   9.107   1.432   3.730
 8004SOL    HW224141   9.042   1.457   3.595
 8005SOL     OW24142   5.992   1.665   2.142
 8005SOL    HW124143   5.984   1.595   2.078
 8005SOL    HW224144   6.048   1.730   2.099
 8006SOL     OW24145   0.962   1.308   0.856
 8006SOL    HW124146   0.936   1.323   0.765
 8006SOL    HW224147   1.051   1.342   0.861
 8007SOL     OW24148  10.400   2.861   4.667
 8007SOL    HW124149  10.367   2.884   4.754
 8007SOL    HW224150  10.490   2.895   4.667
 8008SOL     OW24151   8.656   1.258   4.410
 8008SOL    HW124152   8.609   1.341   4.407
 8008SOL    HW224153   8.725   1.271   4.474
 8009SOL     OW24154   6.132   4.710   0.373
 8009SOL    HW124155   6.180   4.791   0.389
 8009SOL    HW224156   6.143   4.660   0.454
 8010SOL     OW24157   1.625   1.301   1.036
 8010SOL    HW124158   1.679   1.380   1.042
 8010SOL    HW224159   1.614   1.288   0.942
 8011SOL     OW24160   8.027   3.758   1.858
 8011SOL    HW124161   8.091   3.763   1.928
 8011SOL    HW224162   7.943   3.751   1.903
 8012SOL     OW24163   8.850   3.406   4.541
 8012SOL    HW124164   8.805   3.475   4.491
 8012SOL    HW224165   8.917   3.452   4.591
 8013SOL     OW24166   5.047   6.678   4.174
 8013SOL    HW124167   5.011   6.704   4.259
 8013SOL    HW224168   5.116   6.615   4.195
 8014SOL     OW24169   4.639   4.719   2.401
 8014SOL    HW124170   4.587   4.777   2.458
 8014SOL    HW224171   4.575   4.664   2.357
 8015SOL     OW24172   4.390   2.158   3.323
 8015SOL    HW124173   4.332   2.228   3.292
 8015SOL    HW224174   4.332   2.085   3.343
 8016SOL     OW24175   5.347   4.858   1.516
 8016SOL    HW124176   5.410   4.904   1.572
 8016SOL    HW224177   5.393   4.778   1.490
 8017SOL     OW24178   6.014   0.392   2.911
 8017SOL    HW124179   6.051   0.471   2.872
 8017SOL    HW224180   5.920   0.399   2.895
 8018SOL     OW24181   5.635   3.735   0.739
 8018SOL    HW124182   5.667   3.781   0.817
 8018SOL    HW224183   5.705   3.674   0.716
 8019SOL     OW24184   1.269   1.979   1.727
 8019SOL    HW124185   1.305   2.031   1.655
 8019SOL    HW224186   1.249   2.043   1.795
 8020SOL     OW24187   5.769   1.531   3.224
 8020SOL    HW124188   5.773   1.545   3.319
 8020SOL    HW224189   5.763   1.619   3.187
 8021SOL     OW24190   7.895   5.981   0.633
 8021SOL    HW124191   7.836   5.960   0.705
 8021SOL    HW224192   7.939   5.899   0.613
 8022SOL     OW24193   5.239   6.453   0.843
 8022SOL    HW124194   5.193   6.507   0.779
 8022SOL    HW224195   5.170   6.405   0.890
 8023SOL     OW24196   7.229   5.001   5.270
 8023SOL    HW124197   7.292   4.955   5.326
 8023SOL    HW224198   7.282   5.041   5.201
 8024SOL     OW24199   2.296   0.924   0.252
 8024SOL    HW124200   2.251   0.993   0.301
 8024SOL    HW224201   2.369   0.898   0.309
 8025SOL     OW24202   3.196   6.660   0.624
 8025SOL    HW124203   3.193   6.756   0.628
 8025SOL    HW224204   3.155   6.632   0.706
 8026SOL     OW24205   2.262   6.644   1.357
 8026SOL    HW124206   2.330   6.620   1.419
 8026SOL    HW224207   2.210   6.564   1.347
 8027SOL     OW24208   9.928   2.181   4.989
 8027SOL    HW124209   9.943   2.259   4.936
 8027SOL    HW224210   9.946   2.108   4.929
 8028SOL     OW24211   5.194   0.479   2.875
 8028SOL    HW124212   5.237   0.449   2.795
 8028SOL    HW224213   5.138   0.406   2.901
 8029SOL     OW24214   4.999   3.102   0.483
 8029SOL    HW124215   4.944   3.026   0.463
 8029SOL    HW224216   4.995   3.156   0.405
 8030SOL     OW24217   4.755   2.262   0.070
 8030SOL    HW124218   4.665   2.229   0.078
 8030SOL    HW224219   4.791   2.216  -0.006
 8031SOL     OW24220   8.676   3.566   2.228
 8031SOL    HW124221   8.691   3.537   2.138
 8031SOL    HW224222   8.722   3.502   2.282
 8032SOL     OW24223   1.959   4.141   0.134
 8032SOL    HW124224   1.967   4.159   0.041
 8032SOL    HW224225   1.867   4.157   0.154
 8033SOL     OW24226   7.383   3.946   0.495
 8033SOL    HW124227   7.294   3.913   0.484
 8033SOL    HW224228   7.411   3.970   0.406
 8034SOL     OW24229   8.800   4.067   2.511
 8034SOL    HW124230   8.784   4.052   2.417
 8034SOL    HW224231   8.730   4.019   2.555
 8035SOL     OW24232   4.543   2.641   1.158
 8035SOL    HW124233   4.537   2.680   1.071
 8035SOL    HW224234   4.585   2.556   1.144
 8036SOL     OW24235   3.778   6.718   4.341
 8036SOL    HW124236   3.812   6.800   4.305
 8036SOL    HW224237   3.805   6.651   4.277
 8037SOL     OW24238  10.144   5.286   4.705
 8037SOL    HW124239  10.161   5.361   4.649
 8037SOL    HW224240  10.049   5.289   4.721
 8038SOL     OW24241   4.912   6.555   0.705
 8038SOL    HW124242   4.975   6.568   0.634
 8038SOL    HW224243   4.835   6.606   0.678
 8039SOL     OW24244   8.471   4.444   4.146
 8039SOL    HW124245   8.532   4.497   4.093
 8039SOL    HW224246   8.528   4.393   4.204
 8040SOL     OW24247   7.993   4.566   3.429
 8040SOL    HW124248   7.984   4.476   3.459
 8040SOL    HW224249   8.005   4.617   3.509
 8041SOL     OW24250   4.382   2.275   2.062
 8041SOL    HW124251   4.398   2.181   2.051
 8041SOL    HW224252   4.398   2.312   1.975
 8042SOL     OW24253   4.942   6.259   0.206
 8042SOL    HW124254   4.874   6.191   0.197
 8042SOL    HW224255   5.007   6.220   0.264
 8043SOL     OW24256   6.360   5.578   3.834
 8043SOL    HW124257   6.445   5.548   3.802
 8043SOL    HW224258   6.296   5.518   3.796
 8044SOL     OW24259   8.129   2.084   1.604
 8044SOL    HW124260   8.039   2.079   1.637
 8044SOL    HW224261   8.174   2.012   1.647
 8045SOL     OW24262   5.320   3.072   0.194
 8045SOL    HW124263   5.379   3.040   0.125
 8045SOL    HW224264   5.297   2.993   0.244
 8046SOL     OW24265   9.989   4.957   4.721
 8046SOL    HW124266  10.045   4.996   4.655
 8046SOL    HW224267   9.909   4.933   4.675
 8047SOL     OW24268   5.486   6.869   2.510
 8047SOL    HW124269   5.519   6.836   2.594
 8047SOL    HW224270   5.398   6.900   2.530
 8048SOL     OW24271   8.685   3.264   2.636
 8048SOL    HW124272   8.702   3.334   2.572
 8048SOL    HW224273   8.685   3.184   2.584
 8049SOL     OW24274   8.300   6.208   5.238
 8049SOL    HW124275   8.242   6.145   5.193
 8049SOL    HW224276   8.250   6.290   5.238
 8050SOL     OW24277   7.916   6.142   4.698
 8050SOL    HW124278   7.847   6.133   4.764
 8050SOL    HW224279   7.962   6.222   4.722
 8051SOL     OW24280   5.245   6.885   5.087
 8051SOL    HW124281   5.310   6.822   5.056
 8051SOL    HW224282   5.208   6.923   5.008
 8052SOL     OW24283   5.984   5.321   5.063
 8052SOL    HW124284   6.013   5.249   5.120
 8052SOL    HW224285   6.030   5.306   4.981
 8053SOL     OW24286   2.044   1.700   0.594
 8053SOL    HW124287   2.031   1.751   0.515
 8053SOL    HW224288   2.129   1.657   0.582
 8054SOL     OW24289   4.416   4.284   0.859
 8054SOL    HW124290   4.465   4.221   0.806
 8054SOL    HW224291   4.362   4.332   0.796
 8055SOL     OW24292   5.901   3.196   3.327
 8055SOL    HW124293   5.873   3.285   3.345
 8055SOL    HW224294   5.929   3.162   3.412
 8056SOL     OW24295   8.910   6.559   4.643
 8056SOL    HW124296   8.925   6.598   4.729
 8056SOL    HW224297   8.994   6.521   4.618
 8057SOL     OW24298   2.459   6.631   0.333
 8057SOL    HW124299   2.449   6.695   0.403
 8057SOL    HW224300   2.430   6.549   0.371
 8058SOL     OW24301   1.803   1.667   1.012
 8058SOL    HW124302   1.899   1.664   1.015
 8058SOL    HW224303   1.778   1.691   1.102
 8059SOL     OW24304   6.600   5.913   0.636
 8059SOL    HW124305   6.653   5.954   0.567
 8059SOL    HW224306   6.597   5.820   0.612
 8060SOL     OW24307  10.607   1.036   4.670
 8060SOL    HW124308  10.692   1.031   4.625
 8060SOL    HW224309  10.551   0.975   4.621
 8061SOL     OW24310   8.637   3.913   5.235
 8061SOL    HW124311   8.733   3.916   5.229
 8061SOL    HW224312   8.611   4.005   5.231
 8062SOL     OW24313   4.633   0.813   3.059
 8062SOL    HW124314   4.544   0.829   3.026
 8062SOL    HW224315   4.658   0.895   3.101
 8063SOL     OW24316   9.630   4.297   3.708
 8063SOL    HW124317   9.569   4.351   3.659
 8063SOL    HW224318   9.591   4.288   3.795
 8064SOL     OW24319   6.148   1.017   0.616
 8064SOL    HW124320   6.120   1.028   0.525
 8064SOL    HW224321   6.243   1.012   0.612
 8065SOL     OW24322   3.188   2.591   0.489
 8065SOL    HW124323   3.221   2.606   0.401
 8065SOL    HW224324   3.264   2.558   0.538
 8066SOL     OW24325   1.541   2.340   2.192
 8066SOL    HW124326   1.496   2.266   2.153
 8066SOL    HW224327   1.633   2.328   2.169
 8067SOL     OW24328   6.641   2.381   2.991
 8067SOL    HW124329   6.650   2.290   3.021
 8067SOL    HW224330   6.573   2.378   2.924
 8068SOL     OW24331   2.510   3.527   3.369
 8068SOL    HW124332   2.442   3.464   3.347
 8068SOL    HW224333   2.592   3.484   3.346
 8069SOL     OW24334   8.872   6.302   2.104
 8069SOL    HW124335   8.903   6.227   2.156
 8069SOL    HW224336   8.935   6.309   2.032
 8070SOL     OW24337   5.996   1.444   3.057
 8070SOL    HW124338   6.058   1.488   3.116
 8070SOL    HW224339   5.917   1.434   3.110
 8071SOL     OW24340   5.182   5.175   1.898
 8071SOL    HW124341   5.261   5.130   1.929
 8071SOL    HW224342   5.152   5.123   1.824
 8072SOL     OW24343   7.628   5.532   1.627
 8072SOL    HW124344   7.626   5.449   1.581
 8072SOL    HW224345   7.711   5.531   1.675
 8073SOL     OW24346   5.040   1.289   4.855
 8073SOL    HW124347   4.953   1.311   4.824
 8073SOL    HW224348   5.095   1.293   4.777
 8074SOL     OW24349   3.655   5.869   0.724
 8074SOL    HW124350   3.660   5.776   0.745
 8074SOL    HW224351   3.588   5.874   0.655
 8075SOL     OW24352   5.520   0.079   0.586
 8075SOL    HW124353   5.500   0.082   0.493
 8075SOL    HW224354   5.615   0.068   0.590
 8076SOL     OW24355   9.231   3.708   4.355
 8076SOL    HW124356   9.180   3.787   4.342
 8076SOL    HW224357   9.321   3.739   4.367
 8077SOL     OW24358  10.197   0.149   5.281
 8077SOL    HW124359  10.119   0.114   5.238
 8077SOL    HW224360  10.255   0.074   5.290
 8078SOL     OW24361   7.950   0.254   4.179
 8078SOL    HW124362   7.908   0.171   4.159
 8078SOL    HW224363   8.009   0.234   4.252
 8079SOL     OW24364   5.557   4.172   1.621
 8079SOL    HW124365   5.480   4.142   1.572
 8079SOL    HW224366   5.629   4.161   1.560
 8080SOL     OW24367   7.110   2.287   0.060
 8080SOL    HW124368   7.057   2.231   0.117
 8080SOL    HW224369   7.055   2.364   0.046
 8081SOL     OW24370   2.799   4.621   1.947
 8081SOL    HW124371   2.870   4.666   1.901
 8081SOL    HW224372   2.776   4.679   2.019
 8082SOL     OW24373   9.145   1.237   4.732
 8082SOL    HW124374   9.149   1.307   4.667
 8082SOL    HW224375   9.197   1.269   4.805
 8083SOL     OW24376   5.066   5.135   2.222
 8083SOL    HW124377   5.130   5.079   2.179
 8083SOL    HW224378   5.027   5.186   2.151
 8084SOL     OW24379   7.240   2.275   2.165
 8084SOL    HW124380   7.324   2.276   2.119
 8084SOL    HW224381   7.202   2.190   2.144
 8085SOL     OW24382   3.946   0.950   1.789
 8085SOL    HW124383   4.010   0.904   1.844
 8085SOL    HW224384   3.944   0.900   1.708
 8086SOL     OW24385   7.970   1.112   1.534
 8086SOL    HW124386   8.024   1.034   1.543
 8086SOL    HW224387   7.981   1.159   1.617
 8087SOL     OW24388   3.558   6.173   1.497
 8087SOL    HW124389   3.494   6.171   1.425
 8087SOL    HW224390   3.593   6.262   1.496
 8088SOL     OW24391   2.790   1.853   2.252
 8088SOL    HW124392   2.789   1.932   2.306
 8088SOL    HW224393   2.704   1.851   2.210
 8089SOL     OW24394   7.950   0.136   4.587
 8089SOL    HW124395   7.967   0.230   4.573
 8089SOL    HW224396   7.855   0.128   4.583
 8090SOL     OW24397   3.451   5.522   4.395
 8090SOL    HW124398   3.369   5.509   4.348
 8090SOL    HW224399   3.448   5.612   4.427
 8091SOL     OW24400   6.197   6.768   4.005
 8091SOL    HW124401   6.269   6.734   3.952
 8091SOL    HW224402   6.133   6.697   4.005
 8092SOL     OW24403   4.629   5.286   1.630
 8092SOL    HW124404   4.557   5.350   1.627
 8092SOL    HW224405   4.673   5.295   1.545
 8093SOL     OW24406   4.697   7.194   0.583
 8093SOL    HW124407   4.673   7.165   0.672
 8093SOL    HW224408   4.780   7.240   0.595
 8094SOL     OW24409   4.846   4.252   4.866
 8094SOL    HW124410   4.879   4.236   4.777
 8094SOL    HW224411   4.836   4.347   4.871
 8095SOL     OW24412   2.530   7.258   2.114
 8095SOL    HW124413   2.523   7.225   2.024
 8095SOL    HW224414   2.611   7.309   2.115
 8096SOL     OW24415   6.284   5.691   1.292
 8096SOL    HW124416   6.310   5.632   1.222
 8096SOL    HW224417   6.264   5.634   1.366
 8097SOL     OW24418   6.777   1.003   4.515
 8097SOL    HW124419   6.813   1.087   4.486
 8097SOL    HW224420   6.685   1.006   4.490
 8098SOL     OW24421   4.321   1.212   3.625
 8098SOL    HW124422   4.295   1.163   3.547
 8098SOL    HW224423   4.397   1.165   3.658
 8099SOL     OW24424   1.508   2.273   1.555
 8099SOL    HW124425   1.440   2.303   1.615
 8099SOL    HW224426   1.509   2.338   1.485
 8100SOL     OW24427   9.056   7.326   5.142
 8100SOL    HW124428   9.021   7.290   5.223
 8100SOL    HW224429   9.143   7.357   5.166
 8101SOL     OW24430   8.783   0.343   4.111
 8101SOL    HW124431   8.862   0.317   4.158
 8101SOL    HW224432   8.751   0.419   4.160
 8102SOL     OW24433   5.257   6.018   1.884
 8102SOL    HW124434   5.202   5.939   1.880
 8102SOL    HW224435   5.200   6.088   1.852
 8103SOL     OW24436   3.658   5.461   3.015
 8103SOL    HW124437   3.696   5.514   2.944
 8103SOL    HW224438   3.589   5.516   3.051
 8104SOL     OW24439   7.698   2.799   3.662
 8104SOL    HW124440   7.786   2.778   3.631
 8104SOL    HW224441   7.649   2.823   3.583
 8105SOL     OW24442   6.860   5.639   3.049
 8105SOL    HW124443   6.927   5.687   3.099
 8105SOL    HW224444   6.815   5.706   2.998
 8106SOL     OW24445   3.522   5.408   3.318
 8106SOL    HW124446   3.507   5.423   3.224
 8106SOL    HW224447   3.496   5.317   3.332
 8107SOL     OW24448   7.025   1.405   4.040
 8107SOL    HW124449   7.116   1.402   4.009
 8107SOL    HW224450   6.993   1.316   4.029
 8108SOL     OW24451   4.173   6.819   4.255
 8108SOL    HW124452   4.178   6.843   4.163
 8108SOL    HW224453   4.183   6.901   4.303
 8109SOL     OW24454   4.187   7.321   3.832
 8109SOL    HW124455   4.104   7.350   3.870
 8109SOL    HW224456   4.214   7.392   3.773
 8110SOL     OW24457   1.958   2.170   0.216
 8110SOL    HW124458   2.043   2.132   0.238
 8110SOL    HW224459   1.903   2.095   0.194
 8111SOL     OW24460   5.844   0.233   0.676
 8111SOL    HW124461   5.926   0.254   0.721
 8111SOL    HW224462   5.869   0.164   0.614
 8112SOL     OW24463   8.415   6.954   3.891
 8112SOL    HW124464   8.488   6.929   3.833
 8112SOL    HW224465   8.450   7.026   3.943
 8113SOL     OW24466   5.254   6.919   2.573
 8113SOL    HW124467   5.179   6.860   2.584
 8113SOL    HW224468   5.215   7.006   2.562
 8114SOL     OW24469   3.782   4.406   1.408
 8114SOL    HW124470   3.813   4.497   1.415
 8114SOL    HW224471   3.734   4.404   1.325
 8115SOL     OW24472   9.825   1.539   4.065
 8115SOL    HW124473   9.787   1.523   4.152
 8115SOL    HW224474   9.848   1.451   4.033
 8116SOL     OW24475   6.729   6.085   3.571
 8116SOL    HW124476   6.734   5.990   3.566
 8116SOL    HW224477   6.708   6.103   3.663
 8117SOL     OW24478   5.620   2.335   5.013
 8117SOL    HW124479   5.612   2.240   5.019
 8117SOL    HW224480   5.568   2.368   5.086
 8118SOL     OW24481   5.254   2.765   4.692
 8118SOL    HW124482   5.247   2.812   4.609
 8118SOL    HW224483   5.331   2.802   4.734
 8119SOL     OW24484   3.555   5.203   3.025
 8119SOL    HW124485   3.635   5.168   3.065
 8119SOL    HW224486   3.582   5.284   2.984
 8120SOL     OW24487   8.565   3.799   2.531
 8120SOL    HW124488   8.485   3.764   2.493
 8120SOL    HW224489   8.634   3.738   2.504
 8121SOL     OW24490   4.873   4.276   3.406
 8121SOL    HW124491   4.960   4.282   3.444
 8121SOL    HW224492   4.814   4.268   3.482
 8122SOL     OW24493   9.003   0.992   2.636
 8122SOL    HW124494   9.045   1.053   2.575
 8122SOL    HW224495   8.986   0.914   2.583
 8123SOL     OW24496   6.582   6.729   0.732
 8123SOL    HW124497   6.619   6.740   0.645
 8123SOL    HW224498   6.543   6.641   0.730
 8124SOL     OW24499   5.756   5.963   2.545
 8124SOL    HW124500   5.724   6.052   2.537
 8124SOL    HW224501   5.713   5.915   2.474
 8125SOL     OW24502   2.472   2.393   0.159
 8125SOL    HW124503   2.560   2.429   0.165
 8125SOL    HW224504   2.433   2.410   0.245
 8126SOL     OW24505   9.289   4.874   4.229
 8126SOL    HW124506   9.292   4.822   4.149
 8126SOL    HW224507   9.354   4.943   4.215
 8127SOL     OW24508   5.318   2.253   0.228
 8127SOL    HW124509   5.331   2.345   0.252
 8127SOL    HW224510   5.241   2.254   0.171
 8128SOL     OW24511   9.738   1.616   3.227
 8128SOL    HW124512   9.648   1.610   3.259
 8128SOL    HW224513   9.768   1.701   3.260
 8129SOL     OW24514   5.321   3.880   0.584
 8129SOL    HW124515   5.298   3.962   0.628
 8129SOL    HW224516   5.303   3.897   0.491
 8130SOL     OW24517   7.625   7.452   0.848
 8130SOL    HW124518   7.630   7.517   0.918
 8130SOL    HW224519   7.595   7.372   0.891
 8131SOL     OW24520   7.472   6.720   4.553
 8131SOL    HW124521   7.383   6.740   4.582
 8131SOL    HW224522   7.479   6.762   4.467
 8132SOL     OW24523   5.658   7.399   2.003
 8132SOL    HW124524   5.706   7.318   1.985
 8132SOL    HW224525   5.570   7.369   2.026
 8133SOL     OW24526   6.677   4.123   3.338
 8133SOL    HW124527   6.709   4.133   3.249
 8133SOL    HW224528   6.589   4.162   3.336
 8134SOL     OW24529   7.668   6.916   3.148
 8134SOL    HW124530   7.754   6.946   3.178
 8134SOL    HW224531   7.623   6.997   3.122
 8135SOL     OW24532   7.761   7.342   2.569
 8135SOL    HW124533   7.746   7.430   2.534
 8135SOL    HW224534   7.795   7.292   2.495
 8136SOL     OW24535   5.469   2.133   0.487
 8136SOL    HW124536   5.415   2.057   0.466
 8136SOL    HW224537   5.551   2.096   0.519
 8137SOL     OW24538   6.044   0.526   4.209
 8137SOL    HW124539   5.957   0.566   4.201
 8137SOL    HW224540   6.105   0.600   4.203
 8138SOL     OW24541   7.739   2.553   0.740
 8138SOL    HW124542   7.753   2.468   0.698
 8138SOL    HW224543   7.740   2.616   0.668
 8139SOL     OW24544   7.963   3.543   3.507
 8139SOL    HW124545   7.929   3.621   3.550
 8139SOL    HW224546   8.055   3.563   3.490
 8140SOL     OW24547   2.808   2.876   3.147
 8140SOL    HW124548   2.763   2.792   3.155
 8140SOL    HW224549   2.750   2.939   3.190
 8141SOL     OW24550   0.984   5.633   1.315
 8141SOL    HW124551   1.054   5.571   1.336
 8141SOL    HW224552   1.026   5.719   1.316
 8142SOL     OW24553   6.748   6.871   1.653
 8142SOL    HW124554   6.782   6.873   1.564
 8142SOL    HW224555   6.698   6.789   1.658
 8143SOL     OW24556   4.544   3.852   3.712
 8143SOL    HW124557   4.639   3.857   3.727
 8143SOL    HW224558   4.505   3.889   3.791
 8144SOL     OW24559   3.425   1.009   4.806
 8144SOL    HW124560   3.438   0.930   4.753
 8144SOL    HW224561   3.335   1.001   4.838
 8145SOL     OW24562   4.329   4.300   4.189
 8145SOL    HW124563   4.280   4.218   4.176
 8145SOL    HW224564   4.266   4.369   4.169
 8146SOL     OW24565   5.252   2.642   4.957
 8146SOL    HW124566   5.212   2.556   4.964
 8146SOL    HW224567   5.221   2.676   4.873
 8147SOL     OW24568   3.130   6.148   1.042
 8147SOL    HW124569   3.203   6.094   1.073
 8147SOL    HW224570   3.071   6.086   1.000
 8148SOL     OW24571   9.140   7.203   4.645
 8148SOL    HW124572   9.214   7.144   4.633
 8148SOL    HW224573   9.074   7.150   4.690
 8149SOL     OW24574   3.284   1.524   0.555
 8149SOL    HW124575   3.371   1.558   0.532
 8149SOL    HW224576   3.230   1.542   0.479
 8150SOL     OW24577   3.583   2.024   4.850
 8150SOL    HW124578   3.595   2.098   4.910
 8150SOL    HW224579   3.502   1.983   4.879
 8151SOL     OW24580   3.946   1.573   3.495
 8151SOL    HW124581   3.993   1.647   3.458
 8151SOL    HW224582   3.866   1.610   3.531
 8152SOL     OW24583   9.893   3.160   3.814
 8152SOL    HW124584   9.819   3.101   3.824
 8152SOL    HW224585   9.960   3.126   3.874
 8153SOL     OW24586   3.393   0.992   0.186
 8153SOL    HW124587   3.483   1.026   0.188
 8153SOL    HW224588   3.399   0.911   0.136
 8154SOL     OW24589   5.480   2.620   4.597
 8154SOL    HW124590   5.412   2.613   4.664
 8154SOL    HW224591   5.546   2.678   4.635
 8155SOL     OW24592   8.589   0.730   2.151
 8155SOL    HW124593   8.598   0.689   2.064
 8155SOL    HW224594   8.502   0.703   2.181
 8156SOL     OW24595   6.375   6.336   4.995
 8156SOL    HW124596   6.339   6.306   5.079
 8156SOL    HW224597   6.459   6.291   4.988
 8157SOL     OW24598   7.212   6.886   3.469
 8157SOL    HW124599   7.180   6.798   3.488
 8157SOL    HW224600   7.134   6.936   3.446
 8158SOL     OW24601   7.190   3.446   2.062
 8158SOL    HW124602   7.257   3.440   2.129
 8158SOL    HW224603   7.225   3.396   1.988
 8159SOL     OW24604   5.248   4.282   4.543
 8159SOL    HW124605   5.212   4.368   4.565
 8159SOL    HW224606   5.329   4.276   4.594
 8160SOL     OW24607   6.923   0.013   2.963
 8160SOL    HW124608   6.976   0.063   2.900
 8160SOL    HW224609   6.930   0.063   3.044
 8161SOL     OW24610   5.526   2.990   2.260
 8161SOL    HW124611   5.451   2.931   2.252
 8161SOL    HW224612   5.557   2.978   2.350
 8162SOL     OW24613   5.594   6.530   2.538
 8162SOL    HW124614   5.642   6.451   2.562
 8162SOL    HW224615   5.549   6.507   2.457
 8163SOL     OW24616   9.715   0.682   3.740
 8163SOL    HW124617   9.716   0.743   3.666
 8163SOL    HW224618   9.642   0.623   3.722
 8164SOL     OW24619   4.916   5.033   3.533
 8164SOL    HW124620   4.830   5.046   3.573
 8164SOL    HW224621   4.978   5.054   3.602
 8165SOL     OW24622  10.467   3.107   4.471
 8165SOL    HW124623  10.508   3.049   4.535
 8165SOL    HW224624  10.406   3.050   4.423
 8166SOL     OW24625  10.980   0.652   5.120
 8166SOL    HW124626  10.974   0.557   5.117
 8166SOL    HW224627  10.889   0.682   5.117
 8167SOL     OW24628   9.392   3.137   4.416
 8167SOL    HW124629   9.408   3.224   4.452
 8167SOL    HW224630   9.297   3.129   4.415
 8168SOL     OW24631   2.350   7.139   1.545
 8168SOL    HW124632   2.395   7.217   1.579
 8168SOL    HW224633   2.257   7.160   1.553
 8169SOL     OW24634   7.837   5.991   3.998
 8169SOL    HW124635   7.789   5.949   4.069
 8169SOL    HW224636   7.776   6.056   3.963
 8170SOL     OW24637   4.372   3.077   0.535
 8170SOL    HW124638   4.404   3.158   0.575
 8170SOL    HW224639   4.316   3.038   0.601
 8171SOL     OW24640   7.971   1.362   1.708
 8171SOL    HW124641   7.911   1.404   1.646
 8171SOL    HW224642   7.913   1.323   1.773
 8172SOL     OW24643   0.725   1.438   0.867
 8172SOL    HW124644   0.644   1.396   0.896
 8172SOL    HW224645   0.722   1.525   0.907
 8173SOL     OW24646   5.375   4.150   4.075
 8173SOL    HW124647   5.454   4.193   4.043
 8173SOL    HW224648   5.402   4.061   4.097
 8174SOL     OW24649   2.913   3.896   3.777
 8174SOL    HW124650   2.983   3.886   3.841
 8174SOL    HW224651   2.880   3.808   3.763
 8175SOL     OW24652   1.593   2.601   1.410
 8175SOL    HW124653   1.665   2.541   1.424
 8175SOL    HW224654   1.599   2.624   1.317
 8176SOL     OW24655   4.512   5.518   2.084
 8176SOL    HW124656   4.576   5.519   2.013
 8176SOL    HW224657   4.469   5.433   2.077
 8177SOL     OW24658   3.342   3.718   1.353
 8177SOL    HW124659   3.303   3.702   1.439
 8177SOL    HW224660   3.278   3.772   1.307
 8178SOL     OW24661   6.877   3.748   0.499
 8178SOL    HW124662   6.963   3.707   0.489
 8178SOL    HW224663   6.815   3.681   0.469
 8179SOL     OW24664   6.242   2.437   5.266
 8179SOL    HW124665   6.183   2.437   5.340
 8179SOL    HW224666   6.219   2.515   5.216
 8180SOL     OW24667   1.269   7.022   0.963
 8180SOL    HW124668   1.301   7.100   1.008
 8180SOL    HW224669   1.330   7.008   0.891
 8181SOL     OW24670   8.578   4.075   4.561
 8181SOL    HW124671   8.581   4.073   4.657
 8181SOL    HW224672   8.618   3.992   4.534
 8182SOL     OW24673   8.255   4.784   2.039
 8182SOL    HW124674   8.296   4.710   1.995
 8182SOL    HW224675   8.315   4.857   2.025
 8183SOL     OW24676   3.690   0.690   3.218
 8183SOL    HW124677   3.718   0.633   3.289
 8183SOL    HW224678   3.741   0.662   3.142
 8184SOL     OW24679   4.785   1.354   4.736
 8184SOL    HW124680   4.713   1.381   4.793
 8184SOL    HW224681   4.752   1.369   4.647
 8185SOL     OW24682  10.193   7.199   4.300
 8185SOL    HW124683  10.186   7.275   4.359
 8185SOL    HW224684  10.234   7.131   4.353
 8186SOL     OW24685   8.826   1.171   2.164
 8186SOL    HW124686   8.769   1.109   2.118
 8186SOL    HW224687   8.840   1.131   2.250
 8187SOL     OW24688   2.358   3.442   3.014
 8187SOL    HW124689   2.326   3.507   3.077
 8187SOL    HW224690   2.407   3.492   2.950
 8188SOL     OW24691   4.125   3.266   2.725
 8188SOL    HW124692   4.108   3.282   2.632
 8188SOL    HW224693   4.060   3.320   2.770
 8189SOL     OW24694   3.787   4.446   4.670
 8189SOL    HW124695   3.789   4.510   4.741
 8189SOL    HW224696   3.877   4.414   4.664
 8190SOL     OW24697   3.583   1.914   1.524
 8190SOL    HW124698   3.590   1.974   1.450
 8190SOL    HW224699   3.673   1.900   1.552
 8191SOL     OW24700   0.837   1.879   0.107
 8191SOL    HW124701   0.912   1.898   0.051
 8191SOL    HW224702   0.836   1.950   0.171
 8192SOL     OW24703   3.666   6.090   0.903
 8192SOL    HW124704   3.750   6.133   0.891
 8192SOL    HW224705   3.677   6.004   0.860
 8193SOL     OW24706   8.250   1.639   5.075
 8193SOL    HW124707   8.342   1.656   5.094
 8193SOL    HW224708   8.215   1.605   5.157
 8194SOL     OW24709   9.966   3.161   5.114
 8194SOL    HW124710   9.934   3.219   5.184
 8194SOL    HW224711  10.040   3.208   5.076
 8195SOL     OW24712   9.697   5.013   4.570
 8195SOL    HW124713   9.628   5.049   4.625
 8195SOL    HW224714   9.660   4.933   4.534
 8196SOL     OW24715   6.724   1.886   1.002
 8196SOL    HW124716   6.743   1.795   1.028
 8196SOL    HW224717   6.794   1.937   1.043
 8197SOL     OW24718   8.994   4.083   3.376
 8197SOL    HW124719   8.910   4.038   3.379
 8197SOL    HW224720   9.010   4.102   3.284
 8198SOL     OW24721   1.103   0.400   1.079
 8198SOL    HW124722   1.023   0.364   1.117
 8198SOL    HW224723   1.162   0.325   1.073
 8199SOL     OW24724   5.543   4.044   0.491
 8199SOL    HW124725   5.538   4.139   0.505
 8199SOL    HW224726   5.492   4.007   0.562
 8200SOL     OW24727   5.134   7.342   0.811
 8200SOL    HW124728   5.172   7.258   0.837
 8200SOL    HW224729   5.070   7.320   0.743
 8201SOL     OW24730   4.218   3.723   3.368
 8201SOL    HW124731   4.204   3.629   3.360
 8201SOL    HW224732   4.139   3.754   3.412
 8202SOL     OW24733   1.752   6.264   0.714
 8202SOL    HW124734   1.841   6.249   0.747
 8202SOL    HW224735   1.708   6.179   0.726
 8203SOL     OW24736   7.462   6.023   2.718
 8203SOL    HW124737   7.453   6.106   2.670
 8203SOL    HW224738   7.374   5.984   2.715
 8204SOL     OW24739   3.910   1.000   3.411
 8204SOL    HW124740   3.951   1.081   3.440
 8204SOL    HW224741   3.920   1.002   3.315
 8205SOL     OW24742   9.903   5.660   4.270
 8205SOL    HW124743   9.900   5.727   4.338
 8205SOL    HW224744   9.956   5.590   4.308
 8206SOL     OW24745   4.732   7.319   4.529
 8206SOL    HW124746   4.714   7.277   4.613
 8206SOL    HW224747   4.817   7.284   4.502
 8207SOL     OW24748   9.659   1.333   3.190
 8207SOL    HW124749   9.624   1.395   3.254
 8207SOL    HW224750   9.752   1.327   3.211
 8208SOL     OW24751   5.301   0.865   3.028
 8208SOL    HW124752   5.297   0.875   2.933
 8208SOL    HW224753   5.394   0.867   3.049
 8209SOL     OW24754   5.018   1.699   0.962
 8209SOL    HW124755   4.985   1.610   0.976
 8209SOL    HW224756   5.047   1.700   0.871
 8210SOL     OW24757   8.647   7.242   4.824
 8210SOL    HW124758   8.678   7.159   4.858
 8210SOL    HW224759   8.704   7.260   4.748
 8211SOL     OW24760   9.496   5.674   3.112
 8211SOL    HW124761   9.421   5.642   3.062
 8211SOL    HW224762   9.547   5.595   3.132
 8212SOL     OW24763   3.275   0.135   3.788
 8212SOL    HW124764   3.347   0.192   3.760
 8212SOL    HW224765   3.220   0.192   3.842
 8213SOL     OW24766   6.506   3.319   0.811
 8213SOL    HW124767   6.557   3.352   0.737
 8213SOL    HW224768   6.530   3.375   0.884
 8214SOL     OW24769   4.898   0.595   3.319
 8214SOL    HW124770   4.960   0.603   3.391
 8214SOL    HW224771   4.826   0.543   3.356
 8215SOL     OW24772   2.901   1.089   3.755
 8215SOL    HW124773   2.915   1.015   3.814
 8215SOL    HW224774   2.824   1.065   3.704
 8216SOL     OW24775  10.356   2.043   4.606
 8216SOL    HW124776  10.386   1.967   4.655
 8216SOL    HW224777  10.367   2.018   4.514
 8217SOL     OW24778   8.095   6.090   3.246
 8217SOL    HW124779   8.019   6.122   3.294
 8217SOL    HW224780   8.058   6.049   3.167
 8218SOL     OW24781   3.184   4.812   3.713
 8218SOL    HW124782   3.243   4.882   3.741
 8218SOL    HW224783   3.111   4.816   3.776
 8219SOL     OW24784   7.543   6.939   0.316
 8219SOL    HW124785   7.506   6.853   0.297
 8219SOL    HW224786   7.469   6.990   0.350
 8220SOL     OW24787   8.303   4.736   3.374
 8220SOL    HW124788   8.294   4.811   3.316
 8220SOL    HW224789   8.227   4.682   3.355
 8221SOL     OW24790   2.412   0.464   0.884
 8221SOL    HW124791   2.503   0.489   0.874
 8221SOL    HW224792   2.364   0.547   0.889
 8222SOL     OW24793   9.030   3.417   5.076
 8222SOL    HW124794   8.995   3.386   5.159
 8222SOL    HW224795   9.121   3.386   5.076
 8223SOL     OW24796   3.905   2.787   4.038
 8223SOL    HW124797   3.857   2.850   4.093
 8223SOL    HW224798   3.984   2.834   4.012
 8224SOL     OW24799   7.561   6.926   3.531
 8224SOL    HW124800   7.644   6.924   3.578
 8224SOL    HW224801   7.566   6.853   3.469
 8225SOL     OW24802   8.798   3.826   2.301
 8225SOL    HW124803   8.819   3.751   2.245
 8225SOL    HW224804   8.704   3.817   2.318
 8226SOL     OW24805   7.188   5.015   0.948
 8226SOL    HW124806   7.237   4.943   0.988
 8226SOL    HW224807   7.175   5.078   1.020
 8227SOL     OW24808   7.113   4.105   2.731
 8227SOL    HW124809   7.055   4.138   2.662
 8227SOL    HW224810   7.093   4.159   2.807
 8228SOL     OW24811   4.091   3.604   3.942
 8228SOL    HW124812   4.053   3.650   4.016
 8228SOL    HW224813   4.185   3.607   3.956
 8229SOL     OW24814   5.932   3.896   1.510
 8229SOL    HW124815   5.860   3.869   1.453
 8229SOL    HW224816   5.972   3.971   1.464
 8230SOL     OW24817   4.063   2.794   1.152
 8230SOL    HW124818   4.039   2.701   1.148
 8230SOL    HW224819   4.079   2.818   1.061
 8231SOL     OW24820   2.716   7.370   1.778
 8231SOL    HW124821   2.795   7.337   1.820
 8231SOL    HW224822   2.711   7.462   1.806
 8232SOL     OW24823   2.465   5.297   2.613
 8232SOL    HW124824   2.484   5.350   2.535
 8232SOL    HW224825   2.474   5.359   2.686
 8233SOL     OW24826   5.947   2.961   1.695
 8233SOL    HW124827   5.867   2.910   1.687
 8233SOL    HW224828   5.972   2.984   1.606
 8234SOL     OW24829   8.412   2.970   3.552
 8234SOL    HW124830   8.473   2.910   3.595
 8234SOL    HW224831   8.339   2.978   3.613
 8235SOL     OW24832   5.366   5.007   4.891
 8235SOL    HW124833   5.334   5.095   4.871
 8235SOL    HW224834   5.311   4.949   4.839
 8236SOL     OW24835   3.599   1.914   0.814
 8236SOL    HW124836   3.513   1.877   0.793
 8236SOL    HW224837   3.652   1.839   0.841
 8237SOL     OW24838   2.241   2.687   1.668
 8237SOL    HW124839   2.300   2.623   1.706
 8237SOL    HW224840   2.298   2.754   1.631
 8238SOL     OW24841   1.224   6.950   0.036
 8238SOL    HW124842   1.202   6.860   0.059
 8238SOL    HW224843   1.311   6.964   0.073
 8239SOL     OW24844   2.838   4.271   0.838
 8239SOL    HW124845   2.770   4.335   0.853
 8239SOL    HW224846   2.913   4.322   0.807
 8240SOL     OW24847   9.033   2.298   2.739
 8240SOL    HW124848   9.005   2.320   2.650
 8240SOL    HW224849   9.128   2.311   2.738
 8241SOL     OW24850   8.405   1.495   3.460
 8241SOL    HW124851   8.346   1.544   3.403
 8241SOL    HW224852   8.420   1.554   3.534
 8242SOL     OW24853   5.530   2.025   5.091
 8242SOL    HW124854   5.515   1.943   5.136
 8242SOL    HW224855   5.494   2.012   5.003
 8243SOL     OW24856   4.111   2.729   1.653
 8243SOL    HW124857   4.073   2.784   1.585
 8243SOL    HW224858   4.090   2.639   1.626
 8244SOL     OW24859   8.870   4.835   3.282
 8244SOL    HW124860   8.824   4.877   3.209
 8244SOL    HW224861   8.804   4.828   3.351
 8245SOL     OW24862   3.614   3.147   4.222
 8245SOL    HW124863   3.559   3.224   4.205
 8245SOL    HW224864   3.553   3.073   4.214
 8246SOL     OW24865   6.859   3.384   1.371
 8246SOL    HW124866   6.767   3.363   1.388
 8246SOL    HW224867   6.859   3.424   1.284
 8247SOL     OW24868   4.754   4.548   3.559
 8247SOL    HW124869   4.736   4.492   3.635
 8247SOL    HW224870   4.849   4.557   3.558
 8248SOL     OW24871   3.226   3.087   3.283
 8248SOL    HW124872   3.187   3.066   3.198
 8248SOL    HW224873   3.307   3.036   3.286
 8249SOL     OW24874   9.947   1.972   4.836
 8249SOL    HW124875  10.008   1.900   4.851
 8249SOL    HW224876   9.935   1.975   4.741
 8250SOL     OW24877   3.102   1.468   1.530
 8250SOL    HW124878   3.196   1.452   1.531
 8250SOL    HW224879   3.085   1.510   1.446
 8251SOL     OW24880   4.890   3.103   2.374
 8251SOL    HW124881   4.921   3.162   2.442
 8251SOL    HW224882   4.873   3.159   2.299
 8252SOL     OW24883   6.360   1.671   0.904
 8252SOL    HW124884   6.274   1.674   0.861
 8252SOL    HW224885   6.400   1.755   0.882
 8253SOL     OW24886   7.040   7.038   0.623
 8253SOL    HW124887   6.962   7.070   0.669
 8253SOL    HW224888   7.063   6.957   0.668
 8254SOL     OW24889   5.061   1.288   0.779
 8254SOL    HW124890   5.107   1.209   0.809
 8254SOL    HW224891   4.985   1.294   0.836
 8255SOL     OW24892   2.526   6.128   3.541
 8255SOL    HW124893   2.542   6.057   3.603
 8255SOL    HW224894   2.520   6.084   3.456
 8256SOL     OW24895   9.293   0.476   3.507
 8256SOL    HW124896   9.296   0.454   3.414
 8256SOL    HW224897   9.252   0.399   3.548
 8257SOL     OW24898   3.303   4.677   1.128
 8257SOL    HW124899   3.353   4.733   1.188
 8257SOL    HW224900   3.252   4.738   1.075
 8258SOL     OW24901   3.092   2.358   1.379
 8258SOL    HW124902   3.028   2.317   1.437
 8258SOL    HW224903   3.040   2.413   1.321
 8259SOL     OW24904   6.171   3.215   3.773
 8259SOL    HW124905   6.235   3.281   3.799
 8259SOL    HW224906   6.140   3.177   3.855
 8260SOL     OW24907   4.299   4.256   1.709
 8260SOL    HW124908   4.301   4.304   1.626
 8260SOL    HW224909   4.222   4.291   1.754
 8261SOL     OW24910   7.162   5.899   0.397
 8261SOL    HW124911   7.132   5.990   0.391
 8261SOL    HW224912   7.226   5.899   0.468
 8262SOL     OW24913   2.720   4.883   1.449
 8262SOL    HW124914   2.768   4.953   1.493
 8262SOL    HW224915   2.765   4.803   1.474
 8263SOL     OW24916   5.645   5.494   0.355
 8263SOL    HW124917   5.652   5.569   0.297
 8263SOL    HW224918   5.727   5.446   0.341
 8264SOL     OW24919   9.264   4.058   2.910
 8264SOL    HW124920   9.274   4.133   2.851
 8264SOL    HW224921   9.332   4.072   2.977
 8265SOL     OW24922   3.770   1.814   4.559
 8265SOL    HW124923   3.846   1.823   4.501
 8265SOL    HW224924   3.729   1.732   4.533
 8266SOL     OW24925   5.767   4.817   4.032
 8266SOL    HW124926   5.773   4.908   4.004
 8266SOL    HW224927   5.677   4.791   4.009
 8267SOL     OW24928   3.803   4.245   0.241
 8267SOL    HW124929   3.887   4.202   0.259
 8267SOL    HW224930   3.762   4.191   0.174
 8268SOL     OW24931   6.167   6.008   4.089
 8268SOL    HW124932   6.236   5.956   4.132
 8268SOL    HW224933   6.153   5.964   4.006
 8269SOL     OW24934   5.100   6.310   1.594
 8269SOL    HW124935   5.089   6.345   1.682
 8269SOL    HW224936   5.161   6.370   1.552
 8270SOL     OW24937   7.710   7.433   4.262
 8270SOL    HW124938   7.785   7.391   4.304
 8270SOL    HW224939   7.743   7.462   4.177
 8271SOL     OW24940   2.671   6.777   1.193
 8271SOL    HW124941   2.613   6.854   1.194
 8271SOL    HW224942   2.672   6.749   1.102
 8272SOL     OW24943   8.295   1.204   1.369
 8272SOL    HW124944   8.305   1.178   1.278
 8272SOL    HW224945   8.222   1.266   1.369
 8273SOL     OW24946   9.706   4.365   4.929
 8273SOL    HW124947   9.654   4.285   4.934
 8273SOL    HW224948   9.691   4.398   4.840
 8274SOL     OW24949   5.158   3.725   4.923
 8274SOL    HW124950   5.169   3.817   4.947
 8274SOL    HW224951   5.183   3.677   5.002
 8275SOL     OW24952   7.362   5.313   4.846
 8275SOL    HW124953   7.270   5.333   4.832
 8275SOL    HW224954   7.396   5.388   4.895
 8276SOL     OW24955   3.856   3.884   4.410
 8276SOL    HW124956   3.915   3.875   4.485
 8276SOL    HW224957   3.857   3.978   4.391
 8277SOL     OW24958   8.037   2.382   2.714
 8277SOL    HW124959   8.028   2.475   2.696
 8277SOL    HW224960   8.074   2.377   2.801
 8278SOL     OW24961   4.901   5.301   3.177
 8278SOL    HW124962   4.950   5.269   3.253
 8278SOL    HW224963   4.849   5.373   3.212
 8279SOL     OW24964   3.162   2.431   2.327
 8279SOL    HW124965   3.247   2.474   2.325
 8279SOL    HW224966   3.140   2.418   2.234
 8280SOL     OW24967   1.175   4.828   0.729
 8280SOL    HW124968   1.247   4.789   0.779
 8280SOL    HW224969   1.148   4.759   0.669
 8281SOL     OW24970   5.581   3.204   1.191
 8281SOL    HW124971   5.540   3.285   1.220
 8281SOL    HW224972   5.575   3.206   1.095
 8282SOL     OW24973   4.515   0.831   4.613
 8282SOL    HW124974   4.439   0.841   4.671
 8282SOL    HW224975   4.548   0.743   4.632
 8283SOL     OW24976   3.429   0.123   2.002
 8283SOL    HW124977   3.426   0.120   2.098
 8283SOL    HW224978   3.337   0.122   1.976
 8284SOL     OW24979   4.429   2.101   1.616
 8284SOL    HW124980   4.345   2.123   1.657
 8284SOL    HW224981   4.461   2.025   1.665
 8285SOL     OW24982   3.658   2.267   0.459
 8285SOL    HW124983   3.590   2.238   0.399
 8285SOL    HW224984   3.657   2.363   0.453
 8286SOL     OW24985   7.827   1.663   3.572
 8286SOL    HW124986   7.843   1.595   3.637
 8286SOL    HW224987   7.759   1.717   3.610
 8287SOL     OW24988   8.991   0.477   2.484
 8287SOL    HW124989   8.943   0.481   2.402
 8287SOL    HW224990   8.957   0.400   2.528
 8288SOL     OW24991   4.185   7.399   2.382
 8288SOL    HW124992   4.275   7.390   2.353
 8288SOL    HW224993   4.190   7.444   2.466
 8289SOL     OW24994   9.856   5.696   4.011
 8289SOL    HW124995   9.948   5.701   3.986
 8289SOL    HW224996   9.856   5.697   4.107
 8290SOL     OW24997   7.727   2.649   0.322
 8290SOL    HW124998   7.641   2.615   0.296
 8290SOL    HW224999   7.709   2.707   0.396
 8291SOL     OW25000   7.950   0.403   4.737
 8291SOL    HW125001   8.000   0.366   4.811
 8291SOL    HW225002   7.882   0.456   4.779
 8292SOL     OW25003   7.737   4.970   4.085
 8292SOL    HW125004   7.756   4.882   4.117
 8292SOL    HW225005   7.820   5.017   4.096
 8293SOL     OW25006   1.128   6.671   0.209
 8293SOL    HW125007   1.047   6.625   0.189
 8293SOL    HW225008   1.117   6.701   0.299
 8294SOL     OW25009   8.985   5.280   3.979
 8294SOL    HW125010   8.980   5.297   3.885
 8294SOL    HW225011   9.060   5.220   3.989
 8295SOL     OW25012   6.836   0.618   0.452
 8295SOL    HW125013   6.774   0.638   0.522
 8295SOL    HW225014   6.908   0.573   0.497
 8296SOL     OW25015   6.673   3.654   1.332
 8296SOL    HW125016   6.757   3.632   1.372
 8296SOL    HW225017   6.691   3.659   1.238
 8297SOL     OW25018   7.862   6.686   3.660
 8297SOL    HW125019   7.820   6.639   3.732
 8297SOL    HW225020   7.790   6.725   3.611
 8298SOL     OW25021   6.497   3.608   0.623
 8298SOL    HW125022   6.456   3.534   0.579
 8298SOL    HW225023   6.426   3.650   0.672
 8299SOL     OW25024   8.169   3.979   2.976
 8299SOL    HW125025   8.111   4.049   2.945
 8299SOL    HW225026   8.256   4.018   2.977
 8300SOL     OW25027   2.259   3.869   0.462
 8300SOL    HW125028   2.164   3.875   0.472
 8300SOL    HW225029   2.278   3.776   0.465
 8301SOL     OW25030   9.679   4.071   3.523
 8301SOL    HW125031   9.742   4.134   3.557
 8301SOL    HW225032   9.602   4.124   3.501
 8302SOL     OW25033   6.937   2.914   1.033
 8302SOL    HW125034   6.862   2.919   1.093
 8302SOL    HW225035   7.013   2.929   1.089
 8303SOL     OW25036   4.556   2.780   5.056
 8303SOL    HW125037   4.615   2.836   5.106
 8303SOL    HW225038   4.470   2.797   5.093
 8304SOL     OW25039   6.935   2.600   0.969
 8304SOL    HW125040   6.851   2.578   0.929
 8304SOL    HW225041   6.956   2.687   0.935
 8305SOL     OW25042   4.297   1.523   3.908
 8305SOL    HW125043   4.331   1.527   3.819
 8305SOL    HW225044   4.343   1.449   3.948
 8306SOL     OW25045   6.628   0.441   3.571
 8306SOL    HW125046   6.635   0.397   3.486
 8306SOL    HW225047   6.589   0.526   3.552
 8307SOL     OW25048   7.294   3.840   0.852
 8307SOL    HW125049   7.304   3.929   0.819
 8307SOL    HW225050   7.199   3.823   0.847
 8308SOL     OW25051   1.594   7.024   2.114
 8308SOL    HW125052   1.528   7.058   2.053
 8308SOL    HW225053   1.554   7.034   2.200
 8309SOL     OW25054   7.452   2.571   0.562
 8309SOL    HW125055   7.400   2.558   0.641
 8309SOL    HW225056   7.475   2.482   0.533
 8310SOL     OW25057   3.465   2.706   0.298
 8310SOL    HW125058   3.466   2.627   0.351
 8310SOL    HW225059   3.372   2.726   0.285
 8311SOL     OW25060   7.208   6.886   0.052
 8311SOL    HW125061   7.126   6.874   0.005
 8311SOL    HW225062   7.233   6.976   0.034
 8312SOL     OW25063   3.486   7.448   2.814
 8312SOL    HW125064   3.419   7.505   2.776
 8312SOL    HW225065   3.502   7.381   2.747
 8313SOL     OW25066   5.343   3.510   4.183
 8313SOL    HW125067   5.368   3.418   4.195
 8313SOL    HW225068   5.307   3.515   4.095
 8314SOL     OW25069   4.697   6.660   3.569
 8314SOL    HW125070   4.738   6.574   3.575
 8314SOL    HW225071   4.671   6.681   3.659
 8315SOL     OW25072  10.092   5.975   3.743
 8315SOL    HW125073  10.185   5.979   3.766
 8315SOL    HW225074  10.052   5.928   3.816
 8316SOL     OW25075   6.904   4.799   1.089
 8316SOL    HW125076   6.915   4.893   1.101
 8316SOL    HW225077   6.886   4.765   1.176
 8317SOL     OW25078   5.426   5.368   0.260
 8317SOL    HW125079   5.482   5.420   0.317
 8317SOL    HW225080   5.458   5.387   0.171
 8318SOL     OW25081   3.929   2.076   4.611
 8318SOL    HW125082   3.938   2.133   4.688
 8318SOL    HW225083   3.838   2.046   4.616
 8319SOL     OW25084  10.957   6.252   5.119
 8319SOL    HW125085  10.897   6.255   5.194
 8319SOL    HW225086  10.922   6.182   5.064
 8320SOL     OW25087   3.202   5.466   2.828
 8320SOL    HW125088   3.162   5.506   2.751
 8320SOL    HW225089   3.190   5.372   2.815
 8321SOL     OW25090   4.265   6.665   0.906
 8321SOL    HW125091   4.179   6.702   0.886
 8321SOL    HW225092   4.246   6.584   0.954
 8322SOL     OW25093   8.188   0.258   3.109
 8322SOL    HW125094   8.175   0.241   3.202
 8322SOL    HW225095   8.196   0.354   3.103
 8323SOL     OW25096   7.917   5.318   1.027
 8323SOL    HW125097   7.990   5.339   0.968
 8323SOL    HW225098   7.959   5.276   1.102
 8324SOL     OW25099  10.125   2.534   4.245
 8324SOL    HW125100  10.210   2.578   4.246
 8324SOL    HW225101  10.138   2.459   4.187
 8325SOL     OW25102   4.013   3.187   3.191
 8325SOL    HW125103   4.043   3.120   3.130
 8325SOL    HW225104   3.962   3.247   3.137
 8326SOL     OW25105   7.879   1.583   0.957
 8326SOL    HW125106   7.909   1.532   1.032
 8326SOL    HW225107   7.794   1.546   0.935
 8327SOL     OW25108   4.999   4.248   0.834
 8327SOL    HW125109   4.958   4.317   0.782
 8327SOL    HW225110   4.934   4.227   0.901
 8328SOL     OW25111   3.546   7.235   3.081
 8328SOL    HW125112   3.578   7.309   3.131
 8328SOL    HW225113   3.478   7.272   3.024
 8329SOL     OW25114   8.423   7.393   5.015
 8329SOL    HW125115   8.467   7.309   5.000
 8329SOL    HW225116   8.352   7.394   4.951
 8330SOL     OW25117   9.141   2.088   4.628
 8330SOL    HW125118   9.100   2.054   4.548
 8330SOL    HW225119   9.118   2.025   4.696
 8331SOL     OW25120   7.741   6.310   1.517
 8331SOL    HW125121   7.705   6.234   1.472
 8331SOL    HW225122   7.797   6.273   1.586
 8332SOL     OW25123   5.850   3.712   0.999
 8332SOL    HW125124   5.776   3.751   0.953
 8332SOL    HW225125   5.816   3.691   1.086
 8333SOL     OW25126  10.108   5.791   4.845
 8333SOL    HW125127  10.055   5.731   4.898
 8333SOL    HW225128  10.197   5.757   4.852
 8334SOL     OW25129   7.399   6.143   4.544
 8334SOL    HW125130   7.337   6.198   4.496
 8334SOL    HW225131   7.354   6.058   4.552
 8335SOL     OW25132   8.653   5.087   2.882
 8335SOL    HW125133   8.734   5.131   2.857
 8335SOL    HW225134   8.611   5.064   2.799
 8336SOL     OW25135   8.938   1.037   4.744
 8336SOL    HW125136   8.895   1.048   4.829
 8336SOL    HW225137   8.988   1.117   4.731
 8337SOL     OW25138   2.971   7.411   2.307
 8337SOL    HW125139   3.048   7.380   2.355
 8337SOL    HW225140   2.951   7.496   2.346
 8338SOL     OW25141   4.480   0.379   4.886
 8338SOL    HW125142   4.403   0.417   4.845
 8338SOL    HW225143   4.497   0.299   4.836
 8339SOL     OW25144   5.326   4.446   3.660
 8339SOL    HW125145   5.235   4.421   3.645
 8339SOL    HW225146   5.374   4.363   3.657
 8340SOL     OW25147   7.064   5.278   5.155
 8340SOL    HW125148   7.079   5.275   5.061
 8340SOL    HW225149   7.148   5.253   5.194
 8341SOL     OW25150   2.609   3.131   0.909
 8341SOL    HW125151   2.569   3.160   0.827
 8341SOL    HW225152   2.548   3.160   0.977
 8342SOL     OW25153   4.594   4.862   0.661
 8342SOL    HW125154   4.606   4.956   0.678
 8342SOL    HW225155   4.515   4.839   0.710
 8343SOL     OW25156   6.820   2.492   2.504
 8343SOL    HW125157   6.736   2.522   2.471
 8343SOL    HW225158   6.822   2.521   2.595
 8344SOL     OW25159   1.284   6.256   1.631
 8344SOL    HW125160   1.355   6.256   1.695
 8344SOL    HW225161   1.326   6.228   1.549
 8345SOL     OW25162   8.719   4.975   3.119
 8345SOL    HW125163   8.731   5.034   3.045
 8345SOL    HW225164   8.628   4.946   3.111
 8346SOL     OW25165   7.920   0.458   3.990
 8346SOL    HW125166   7.924   0.376   4.040
 8346SOL    HW225167   8.008   0.467   3.952
 8347SOL     OW25168   7.645   1.933   4.862
 8347SOL    HW125169   7.723   1.969   4.905
 8347SOL    HW225170   7.676   1.907   4.775
 8348SOL     OW25171   5.001   6.203   2.838
 8348SOL    HW125172   5.041   6.287   2.819
 8348SOL    HW225173   4.907   6.221   2.841
 8349SOL     OW25174   4.620   5.338   1.344
 8349SOL    HW125175   4.712   5.327   1.320
 8349SOL    HW225176   4.587   5.405   1.284
 8350SOL     OW25177   1.277   1.918   0.205
 8350SOL    HW125178   1.318   1.926   0.291
 8350SOL    HW225179   1.183   1.925   0.221
 8351SOL     OW25180   3.983   6.878   1.097
 8351SOL    HW125181   3.975   6.849   1.006
 8351SOL    HW225182   3.901   6.925   1.115
 8352SOL     OW25183   6.254   0.002   2.502
 8352SOL    HW125184   6.349   0.012   2.507
 8352SOL    HW225185   6.225   0.001   2.593
 8353SOL     OW25186   6.047   1.261   5.197
 8353SOL    HW125187   6.084   1.349   5.195
 8353SOL    HW225188   6.112   1.207   5.152
 8354SOL     OW25189   3.321   3.784   2.745
 8354SOL    HW125190   3.374   3.719   2.793
 8354SOL    HW225191   3.257   3.814   2.809
 8355SOL     OW25192   8.121   1.558   3.489
 8355SOL    HW125193   8.128   1.535   3.582
 8355SOL    HW225194   8.038   1.606   3.482
 8356SOL     OW25195   4.846   3.212   4.693
 8356SOL    HW125196   4.914   3.271   4.660
 8356SOL    HW225197   4.776   3.219   4.628
 8357SOL     OW25198   5.605   4.909   1.189
 8357SOL    HW125199   5.516   4.918   1.157
 8357SOL    HW225200   5.648   4.991   1.164
 8358SOL     OW25201   8.967   4.604   3.104
 8358SOL    HW125202   8.969   4.692   3.142
 8358SOL    HW225203   8.949   4.618   3.011
 8359SOL     OW25204   3.115   3.428   1.100
 8359SOL    HW125205   3.078   3.407   1.186
 8359SOL    HW225206   3.088   3.519   1.085
 8360SOL     OW25207   7.275   1.803   2.847
 8360SOL    HW125208   7.306   1.828   2.934
 8360SOL    HW225209   7.341   1.838   2.787
 8361SOL     OW25210   4.698   0.858   2.329
 8361SOL    HW125211   4.641   0.920   2.375
 8361SOL    HW225212   4.731   0.801   2.398
 8362SOL     OW25213   8.157   0.435   3.707
 8362SOL    HW125214   8.180   0.450   3.799
 8362SOL    HW225215   8.186   0.346   3.689
 8363SOL     OW25216   8.518   2.155   4.257
 8363SOL    HW125217   8.551   2.082   4.205
 8363SOL    HW225218   8.472   2.114   4.330
 8364SOL     OW25219   9.348   6.291   3.178
 8364SOL    HW125220   9.386   6.211   3.214
 8364SOL    HW225221   9.388   6.299   3.091
 8365SOL     OW25222   8.050   0.952   4.273
 8365SOL    HW125223   8.088   0.954   4.361
 8365SOL    HW225224   8.121   0.976   4.215
 8366SOL     OW25225   4.778   5.190   4.434
 8366SOL    HW125226   4.749   5.126   4.500
 8366SOL    HW225227   4.732   5.270   4.458
 8367SOL     OW25228   4.880   2.767   2.865
 8367SOL    HW125229   4.869   2.762   2.960
 8367SOL    HW225230   4.791   2.760   2.830
 8368SOL     OW25231   5.353   0.499   2.146
 8368SOL    HW125232   5.348   0.595   2.147
 8368SOL    HW225233   5.267   0.471   2.112
 8369SOL     OW25234   8.058   4.365   4.731
 8369SOL    HW125235   7.999   4.433   4.763
 8369SOL    HW225236   8.040   4.359   4.637
 8370SOL     OW25237   4.805   0.098   2.522
 8370SOL    HW125238   4.722   0.061   2.550
 8370SOL    HW225239   4.871   0.035   2.551
 8371SOL     OW25240   7.397   0.270   4.616
 8371SOL    HW125241   7.363   0.349   4.657
 8371SOL    HW225242   7.335   0.201   4.643
 8372SOL     OW25243   4.049   3.999   1.256
 8372SOL    HW125244   4.070   3.934   1.323
 8372SOL    HW225245   4.130   4.008   1.206
 8373SOL     OW25246   7.718   0.989   1.378
 8373SOL    HW125247   7.786   1.046   1.413
 8373SOL    HW225248   7.694   0.932   1.451
 8374SOL     OW25249   7.206   4.075   0.749
 8374SOL    HW125250   7.227   4.026   0.669
 8374SOL    HW225251   7.195   4.166   0.720
 8375SOL     OW25252   5.308   2.943   0.884
 8375SOL    HW125253   5.334   2.964   0.974
 8375SOL    HW225254   5.387   2.958   0.832
 8376SOL     OW25255   4.187   5.755   5.095
 8376SOL    HW125256   4.207   5.807   5.173
 8376SOL    HW225257   4.209   5.665   5.119
 8377SOL     OW25258   4.755   1.684   3.532
 8377SOL    HW125259   4.754   1.732   3.450
 8377SOL    HW225260   4.760   1.592   3.506
 8378SOL     OW25261   4.414   0.949   4.375
 8378SOL    HW125262   4.414   1.043   4.394
 8378SOL    HW225263   4.465   0.910   4.446
 8379SOL     OW25264   6.302   0.156   4.559
 8379SOL    HW125265   6.333   0.241   4.529
 8379SOL    HW225266   6.381   0.107   4.580
 8380SOL     OW25267   8.945   7.222   3.607
 8380SOL    HW125268   8.904   7.269   3.534
 8380SOL    HW225269   8.882   7.154   3.631
 8381SOL     OW25270   6.289   4.490   3.674
 8381SOL    HW125271   6.286   4.577   3.635
 8381SOL    HW225272   6.287   4.505   3.768
 8382SOL     OW25273   7.693   7.246   3.524
 8382SOL    HW125274   7.630   7.175   3.535
 8382SOL    HW225275   7.763   7.227   3.587
 8383SOL     OW25276   9.991   2.508   3.891
 8383SOL    HW125277   9.913   2.563   3.880
 8383SOL    HW225278  10.056   2.566   3.931
 8384SOL     OW25279   3.030   0.559   1.014
 8384SOL    HW125280   2.960   0.493   1.012
 8384SOL    HW225281   2.988   0.638   0.980
 8385SOL     OW25282   5.788   3.253   5.209
 8385SOL    HW125283   5.797   3.322   5.275
 8385SOL    HW225284   5.871   3.206   5.212
 8386SOL     OW25285   3.737   0.810   1.201
 8386SOL    HW125286   3.670   0.871   1.169
 8386SOL    HW225287   3.749   0.748   1.130
 8387SOL     OW25288   3.890   0.812   2.598
 8387SOL    HW125289   3.935   0.732   2.624
 8387SOL    HW225290   3.813   0.816   2.655
 8388SOL     OW25291   4.334   4.349   0.206
 8388SOL    HW125292   4.312   4.302   0.286
 8388SOL    HW225293   4.427   4.371   0.216
 8389SOL     OW25294   7.840   4.419   4.283
 8389SOL    HW125295   7.858   4.423   4.189
 8389SOL    HW225296   7.922   4.387   4.322
 8390SOL     OW25297   7.665   2.705   0.962
 8390SOL    HW125298   7.715   2.649   0.904
 8390SOL    HW225299   7.673   2.664   1.048
 8391SOL     OW25300   6.382   5.256   0.291
 8391SOL    HW125301   6.346   5.175   0.255
 8391SOL    HW225302   6.476   5.247   0.282
 8392SOL     OW25303   5.293   0.473   0.800
 8392SOL    HW125304   5.268   0.423   0.722
 8392SOL    HW225305   5.380   0.441   0.822
 8393SOL     OW25306   4.557   3.425   2.619
 8393SOL    HW125307   4.508   3.351   2.583
 8393SOL    HW225308   4.511   3.502   2.588
 8394SOL     OW25309   5.936   0.853   3.562
 8394SOL    HW125310   5.937   0.833   3.655
 8394SOL    HW225311   5.913   0.770   3.520
 8395SOL     OW25312   5.298   5.894   1.313
 8395SOL    HW125313   5.392   5.896   1.295
 8395SOL    HW225314   5.292   5.861   1.403
 8396SOL     OW25315   4.027   7.220   0.595
 8396SOL    HW125316   4.049   7.186   0.507
 8396SOL    HW225317   3.967   7.292   0.578
 8397SOL     OW25318   3.884   6.696   3.659
 8397SOL    HW125319   3.891   6.764   3.592
 8397SOL    HW225320   3.974   6.676   3.682
 8398SOL     OW25321   5.846   5.267   4.407
 8398SOL    HW125322   5.930   5.309   4.389
 8398SOL    HW225323   5.834   5.205   4.335
 8399SOL     OW25324   8.221   7.340   3.394
 8399SOL    HW125325   8.236   7.418   3.341
 8399SOL    HW225326   8.204   7.374   3.482
 8400SOL     OW25327   6.767   7.247   4.634
 8400SOL    HW125328   6.778   7.342   4.634
 8400SOL    HW225329   6.833   7.215   4.572
 8401SOL     OW25330   7.192   5.345   0.537
 8401SOL    HW125331   7.198   5.438   0.516
 8401SOL    HW225332   7.182   5.301   0.453
 8402SOL     OW25333   6.247   7.305   5.173
 8402SOL    HW125334   6.198   7.258   5.106
 8402SOL    HW225335   6.182   7.359   5.217
 8403SOL     OW25336   4.763   1.845   3.262
 8403SOL    HW125337   4.668   1.835   3.255
 8403SOL    HW225338   4.776   1.939   3.275
 8404SOL     OW25339   4.971   4.235   4.612
 8404SOL    HW125340   5.012   4.194   4.536
 8404SOL    HW225341   5.040   4.239   4.678
 8405SOL     OW25342   4.266   3.385   3.684
 8405SOL    HW125343   4.234   3.452   3.744
 8405SOL    HW225344   4.295   3.434   3.607
 8406SOL     OW25345   7.477   3.061   4.263
 8406SOL    HW125346   7.566   3.081   4.237
 8406SOL    HW225347   7.486   2.989   4.326
 8407SOL     OW25348   9.188   1.219   3.713
 8407SOL    HW125349   9.206   1.147   3.652
 8407SOL    HW225350   9.261   1.279   3.702
 8408SOL     OW25351   5.862   5.523   1.020
 8408SOL    HW125352   5.814   5.536   0.938
 8408SOL    HW225353   5.858   5.607   1.064
 8409SOL     OW25354   4.247   6.992   1.240
 8409SOL    HW125355   4.261   7.075   1.194
 8409SOL    HW225356   4.169   6.955   1.198
 8410SOL     OW25357   5.580   1.759   1.154
 8410SOL    HW125358   5.496   1.805   1.162
 8410SOL    HW225359   5.645   1.822   1.187
 8411SOL     OW25360   7.023   1.654   3.137
 8411SOL    HW125361   7.064   1.606   3.208
 8411SOL    HW225362   7.052   1.610   3.057
 8412SOL     OW25363   9.347   4.830   3.699
 8412SOL    HW125364   9.355   4.921   3.728
 8412SOL    HW225365   9.273   4.831   3.638
 8413SOL     OW25366   8.195   4.499   4.450
 8413SOL    HW125367   8.285   4.478   4.473
 8413SOL    HW225368   8.155   4.414   4.429
 8414SOL     OW25369   4.149   4.344   1.969
 8414SOL    HW125370   4.192   4.306   2.046
 8414SOL    HW225371   4.067   4.381   2.003
 8415SOL     OW25372  10.765   0.155   5.266
 8415SOL    HW125373  10.677   0.166   5.229
 8415SOL    HW225374  10.751   0.100   5.343
 8416SOL     OW25375   8.703   4.081   3.383
 8416SOL    HW125376   8.741   4.168   3.383
 8416SOL    HW225377   8.608   4.096   3.379
 8417SOL     OW25378   3.079   3.573   3.036
 8417SOL    HW125379   2.994   3.610   3.015
 8417SOL    HW225380   3.142   3.638   3.004
 8418SOL     OW25381   3.147   4.203   4.169
 8418SOL    HW125382   3.226   4.182   4.120
 8418SOL    HW225383   3.165   4.170   4.257
 8419SOL     OW25384   5.976   4.345   1.022
 8419SOL    HW125385   6.039   4.393   1.076
 8419SOL    HW225386   6.031   4.288   0.967
 8420SOL     OW25387   8.335   6.530   3.809
 8420SOL    HW125388   8.388   6.452   3.795
 8420SOL    HW225389   8.304   6.553   3.721
 8421SOL     OW25390   6.158   4.081   4.850
 8421SOL    HW125391   6.104   4.158   4.864
 8421SOL    HW225392   6.247   4.110   4.867
 8422SOL     OW25393   3.152   2.367   1.743
 8422SOL    HW125394   3.214   2.337   1.808
 8422SOL    HW225395   3.185   2.452   1.714
 8423SOL     OW25396   6.001   3.439   0.183
 8423SOL    HW125397   5.968   3.517   0.229
 8423SOL    HW225398   6.006   3.372   0.250
 8424SOL     OW25399   4.715   1.676   1.038
 8424SOL    HW125400   4.746   1.758   0.999
 8424SOL    HW225401   4.782   1.654   1.103
 8425SOL     OW25402   3.597   6.688   3.490
 8425SOL    HW125403   3.675   6.740   3.511
 8425SOL    HW225404   3.530   6.718   3.552
 8426SOL     OW25405   9.391   4.340   2.880
 8426SOL    HW125406   9.456   4.394   2.926
 8426SOL    HW225407   9.329   4.402   2.843
 8427SOL     OW25408   9.753   5.276   3.415
 8427SOL    HW125409   9.766   5.325   3.334
 8427SOL    HW225410   9.659   5.261   3.420
 8428SOL     OW25411   1.253   4.238   1.022
 8428SOL    HW125412   1.260   4.269   0.932
 8428SOL    HW225413   1.302   4.302   1.074
 8429SOL     OW25414   4.827   6.651   3.254
 8429SOL    HW125415   4.899   6.593   3.280
 8429SOL    HW225416   4.753   6.593   3.239
 8430SOL     OW25417   4.530   7.147   0.877
 8430SOL    HW125418   4.460   7.082   0.881
 8430SOL    HW225419   4.489   7.224   0.838
 8431SOL     OW25420  10.512   3.657   4.760
 8431SOL    HW125421  10.513   3.753   4.762
 8431SOL    HW225422  10.515   3.632   4.852
 8432SOL     OW25423   3.679   2.424   2.405
 8432SOL    HW125424   3.628   2.474   2.342
 8432SOL    HW225425   3.693   2.339   2.362
 8433SOL     OW25426   6.248   5.874   3.540
 8433SOL    HW125427   6.173   5.815   3.542
 8433SOL    HW225428   6.226   5.941   3.476
 8434SOL     OW25429   6.519   1.501   3.180
 8434SOL    HW125430   6.485   1.582   3.143
 8434SOL    HW225431   6.600   1.528   3.225
 8435SOL     OW25432   8.670   7.334   3.594
 8435SOL    HW125433   8.679   7.425   3.563
 8435SOL    HW225434   8.620   7.290   3.524
 8436SOL     OW25435   8.283   0.316   2.581
 8436SOL    HW125436   8.313   0.229   2.557
 8436SOL    HW225437   8.246   0.352   2.500
 8437SOL     OW25438   7.102   3.172   3.470
 8437SOL    HW125439   7.184   3.123   3.463
 8437SOL    HW225440   7.043   3.129   3.408
 8438SOL     OW25441   5.087   2.914   2.784
 8438SOL    HW125442   5.018   2.852   2.805
 8438SOL    HW225443   5.081   2.925   2.689
 8439SOL     OW25444   5.463   5.134   4.577
 8439SOL    HW125445   5.498   5.189   4.647
 8439SOL    HW225446   5.368   5.134   4.591
 8440SOL     OW25447   2.349   1.152   2.471
 8440SOL    HW125448   2.285   1.094   2.511
 8440SOL    HW225449   2.297   1.223   2.434
 8441SOL     OW25450   6.930   1.231   4.928
 8441SOL    HW125451   6.851   1.183   4.904
 8441SOL    HW225452   6.949   1.202   5.017
 8442SOL     OW25453   7.860   3.248   0.833
 8442SOL    HW125454   7.786   3.211   0.882
 8442SOL    HW225455   7.856   3.204   0.748
 8443SOL     OW25456   9.996   6.843   4.502
 8443SOL    HW125457   9.920   6.788   4.483
 8443SOL    HW225458   9.980   6.877   4.590
 8444SOL     OW25459   9.259   7.026   4.118
 8444SOL    HW125460   9.244   6.932   4.116
 8444SOL    HW225461   9.176   7.064   4.147
 8445SOL     OW25462   5.320   0.702   3.336
 8445SOL    HW125463   5.288   0.668   3.419
 8445SOL    HW225464   5.414   0.684   3.337
 8446SOL     OW25465   2.946   6.841   1.533
 8446SOL    HW125466   2.963   6.811   1.622
 8446SOL    HW225467   2.880   6.910   1.544
 8447SOL     OW25468   7.600   3.828   2.362
 8447SOL    HW125469   7.606   3.744   2.408
 8447SOL    HW225470   7.511   3.859   2.380
 8448SOL     OW25471   6.785   2.578   2.749
 8448SOL    HW125472   6.746   2.594   2.835
 8448SOL    HW225473   6.860   2.521   2.767
 8449SOL     OW25474   8.582   3.114   3.049
 8449SOL    HW125475   8.533   3.171   3.108
 8449SOL    HW225476   8.673   3.134   3.066
 8450SOL     OW25477   1.940   2.644   1.244
 8450SOL    HW125478   1.932   2.629   1.338
 8450SOL    HW225479   2.024   2.688   1.233
 8451SOL     OW25480   8.109   0.283   1.012
 8451SOL    HW125481   8.172   0.224   0.971
 8451SOL    HW225482   8.148   0.304   1.097
 8452SOL     OW25483   4.003   6.257   2.717
 8452SOL    HW125484   4.042   6.323   2.774
 8452SOL    HW225485   3.992   6.301   2.633
 8453SOL     OW25486   6.385   5.188   4.567
 8453SOL    HW125487   6.379   5.179   4.472
 8453SOL    HW225488   6.302   5.152   4.600
 8454SOL     OW25489   5.906   1.505   0.253
 8454SOL    HW125490   6.000   1.519   0.262
 8454SOL    HW225491   5.893   1.413   0.275
 8455SOL     OW25492   8.793   2.869   2.229
 8455SOL    HW125493   8.796   2.814   2.151
 8455SOL    HW225494   8.815   2.957   2.198
 8456SOL     OW25495   7.263   0.888   0.049
 8456SOL    HW125496   7.216   0.807   0.030
 8456SOL    HW225497   7.343   0.882  -0.004
 8457SOL     OW25498   8.174   2.013   3.434
 8457SOL    HW125499   8.170   1.987   3.342
 8457SOL    HW225500   8.186   2.108   3.431
 8458SOL     OW25501   8.264   2.325   1.550
 8458SOL    HW125502   8.324   2.315   1.476
 8458SOL    HW225503   8.275   2.245   1.601
 8459SOL     OW25504   4.527   4.829   3.852
 8459SOL    HW125505   4.505   4.807   3.762
 8459SOL    HW225506   4.458   4.888   3.880
 8460SOL     OW25507   5.388   6.410   3.959
 8460SOL    HW125508   5.352   6.484   3.910
 8460SOL    HW225509   5.463   6.382   3.908
 8461SOL     OW25510   7.218   5.613   0.488
 8461SOL    HW125511   7.175   5.688   0.446
 8461SOL    HW225512   7.186   5.614   0.578
 8462SOL     OW25513   3.651   6.955   1.664
 8462SOL    HW125514   3.577   7.005   1.698
 8462SOL    HW225515   3.711   6.948   1.737
 8463SOL     OW25516   2.328   4.623   2.664
 8463SOL    HW125517   2.238   4.626   2.696
 8463SOL    HW225518   2.337   4.699   2.607
 8464SOL     OW25519   8.221   1.749   1.390
 8464SOL    HW125520   8.304   1.774   1.432
 8464SOL    HW225521   8.213   1.655   1.407
 8465SOL     OW25522   4.813   1.567   3.905
 8465SOL    HW125523   4.815   1.561   3.809
 8465SOL    HW225524   4.877   1.635   3.926
 8466SOL     OW25525   5.555   5.813   4.760
 8466SOL    HW125526   5.460   5.811   4.771
 8466SOL    HW225527   5.584   5.723   4.777
 8467SOL     OW25528   8.424   2.551   1.670
 8467SOL    HW125529   8.386   2.529   1.585
 8467SOL    HW225530   8.446   2.467   1.709
 8468SOL     OW25531   4.577   4.450   1.544
 8468SOL    HW125532   4.576   4.524   1.603
 8468SOL    HW225533   4.488   4.446   1.509
 8469SOL     OW25534   5.618   3.823   2.590
 8469SOL    HW125535   5.571   3.821   2.673
 8469SOL    HW225536   5.680   3.750   2.595
 8470SOL     OW25537   4.806   3.864   2.387
 8470SOL    HW125538   4.779   3.956   2.380
 8470SOL    HW225539   4.841   3.842   2.301
 8471SOL     OW25540  10.315   6.052   4.037
 8471SOL    HW125541  10.327   6.119   3.969
 8471SOL    HW225542  10.222   6.057   4.058
 8472SOL     OW25543   7.681   5.756   2.795
 8472SOL    HW125544   7.720   5.832   2.754
 8472SOL    HW225545   7.755   5.706   2.829
 8473SOL     OW25546   5.328   3.974   0.276
 8473SOL    HW125547   5.323   4.004   0.185
 8473SOL    HW225548   5.238   3.978   0.308
 8474SOL     OW25549   9.369   0.783   5.234
 8474SOL    HW125550   9.390   0.767   5.326
 8474SOL    HW225551   9.277   0.756   5.225
 8475SOL     OW25552   4.241   1.593   4.250
 8475SOL    HW125553   4.264   1.557   4.335
 8475SOL    HW225554   4.296   1.545   4.188
 8476SOL     OW25555   3.955   2.302   1.047
 8476SOL    HW125556   3.920   2.240   1.111
 8476SOL    HW225557   3.925   2.267   0.962
 8477SOL     OW25558   1.344   0.079   0.593
 8477SOL    HW125559   1.357   0.027   0.672
 8477SOL    HW225560   1.353   0.016   0.521
 8478SOL     OW25561   5.112   3.341   2.928
 8478SOL    HW125562   5.122   3.435   2.940
 8478SOL    HW225563   5.019   3.329   2.906
 8479SOL     OW25564   4.412   6.209   4.112
 8479SOL    HW125565   4.398   6.146   4.182
 8479SOL    HW225566   4.383   6.292   4.148
 8480SOL     OW25567   4.464   3.840   4.425
 8480SOL    HW125568   4.461   3.826   4.331
 8480SOL    HW225569   4.506   3.925   4.435
 8481SOL     OW25570   7.464   7.261   1.574
 8481SOL    HW125571   7.412   7.289   1.650
 8481SOL    HW225572   7.514   7.339   1.550
 8482SOL     OW25573   8.307   5.777   4.820
 8482SOL    HW125574   8.324   5.859   4.865
 8482SOL    HW225575   8.288   5.801   4.730
 8483SOL     OW25576   5.165   7.036   1.796
 8483SOL    HW125577   5.187   7.110   1.852
 8483SOL    HW225578   5.184   7.066   1.708
 8484SOL     OW25579   3.246   5.157   4.189
 8484SOL    HW125580   3.319   5.208   4.154
 8484SOL    HW225581   3.192   5.135   4.113
 8485SOL     OW25582   2.528   1.645   0.993
 8485SOL    HW125583   2.524   1.552   1.013
 8485SOL    HW225584   2.499   1.651   0.902
 8486SOL     OW25585   6.071   4.532   4.485
 8486SOL    HW125586   6.071   4.443   4.520
 8486SOL    HW225587   5.997   4.533   4.423
 8487SOL     OW25588   3.463   4.302   4.260
 8487SOL    HW125589   3.433   4.263   4.343
 8487SOL    HW225590   3.482   4.393   4.282
 8488SOL     OW25591   5.844   1.878   0.049
 8488SOL    HW125592   5.869   1.795   0.007
 8488SOL    HW225593   5.772   1.855   0.107
 8489SOL     OW25594   0.210   4.407   0.338
 8489SOL    HW125595   0.260   4.420   0.258
 8489SOL    HW225596   0.273   4.374   0.402
 8490SOL     OW25597   2.039   5.509   2.282
 8490SOL    HW125598   1.953   5.474   2.258
 8490SOL    HW225599   2.023   5.602   2.299
 8491SOL     OW25600   5.041   1.871   1.513
 8491SOL    HW125601   5.095   1.942   1.480
 8491SOL    HW225602   5.096   1.827   1.578
 8492SOL     OW25603   8.361   5.241   1.751
 8492SOL    HW125604   8.320   5.229   1.837
 8492SOL    HW225605   8.444   5.193   1.758
 8493SOL     OW25606   8.622   3.744   2.989
 8493SOL    HW125607   8.676   3.729   3.067
 8493SOL    HW225608   8.679   3.790   2.928
 8494SOL     OW25609   4.379   0.169   0.117
 8494SOL    HW125610   4.426   0.238   0.164
 8494SOL    HW225611   4.391   0.091   0.171
 8495SOL     OW25612   4.228   7.100   3.980
 8495SOL    HW125613   4.255   7.170   3.921
 8495SOL    HW225614   4.297   7.034   3.971
 8496SOL     OW25615   6.008   3.510   2.969
 8496SOL    HW125616   6.074   3.578   2.984
 8496SOL    HW225617   5.976   3.527   2.880
 8497SOL     OW25618   3.982   4.120   2.678
 8497SOL    HW125619   3.962   4.077   2.595
 8497SOL    HW225620   4.075   4.142   2.673
 8498SOL     OW25621   2.427   2.226   3.104
 8498SOL    HW125622   2.336   2.250   3.123
 8498SOL    HW225623   2.420   2.168   3.028
 8499SOL     OW25624   8.807   4.358   3.106
 8499SOL    HW125625   8.810   4.453   3.116
 8499SOL    HW225626   8.792   4.325   3.195
 8500SOL     OW25627   7.328   3.393   3.100
 8500SOL    HW125628   7.369   3.333   3.162
 8500SOL    HW225629   7.239   3.406   3.133
 8501SOL     OW25630   8.572   6.808   4.284
 8501SOL    HW125631   8.514   6.747   4.238
 8501SOL    HW225632   8.656   6.763   4.288
 8502SOL     OW25633   2.897   1.230   0.895
 8502SOL    HW125634   2.874   1.323   0.900
 8502SOL    HW225635   2.926   1.207   0.983
 8503SOL     OW25636   5.420   2.153   4.490
 8503SOL    HW125637   5.338   2.119   4.455
 8503SOL    HW225638   5.394   2.234   4.535
 8504SOL     OW25639   8.188   0.732   3.915
 8504SOL    HW125640   8.223   0.820   3.923
 8504SOL    HW225641   8.264   0.677   3.899
 8505SOL     OW25642   3.152   7.089   3.193
 8505SOL    HW125643   3.061   7.116   3.184
 8505SOL    HW225644   3.191   7.153   3.253
 8506SOL     OW25645   3.487   2.446   3.049
 8506SOL    HW125646   3.425   2.414   2.984
 8506SOL    HW225647   3.570   2.452   3.002
 8507SOL     OW25648   8.076   3.807   3.139
 8507SOL    HW125649   8.107   3.841   3.056
 8507SOL    HW225650   8.148   3.821   3.200
 8508SOL     OW25651   6.448   5.129   4.294
 8508SOL    HW125652   6.542   5.140   4.281
 8508SOL    HW225653   6.425   5.050   4.244
 8509SOL     OW25654   6.442   2.956   2.629
 8509SOL    HW125655   6.376   2.912   2.683
 8509SOL    HW225656   6.413   3.047   2.626
 8510SOL     OW25657   3.672   1.120   1.730
 8510SOL    HW125658   3.755   1.164   1.748
 8510SOL    HW225659   3.683   1.032   1.764
 8511SOL     OW25660   2.580   0.489   0.581
 8511SOL    HW125661   2.565   0.489   0.676
 8511SOL    HW225662   2.593   0.396   0.560
 8512SOL     OW25663   8.912   4.503   4.102
 8512SOL    HW125664   8.992   4.550   4.081
 8512SOL    HW225665   8.931   4.458   4.184
 8513SOL     OW25666   6.234   4.671   2.713
 8513SOL    HW125667   6.295   4.705   2.647
 8513SOL    HW225668   6.154   4.651   2.664
 8514SOL     OW25669   6.651   5.858   2.913
 8514SOL    HW125670   6.654   5.941   2.961
 8514SOL    HW225671   6.560   5.852   2.883
 8515SOL     OW25672   4.835   5.787   4.594
 8515SOL    HW125673   4.805   5.867   4.550
 8515SOL    HW225674   4.766   5.769   4.659
 8516SOL     OW25675   6.073   6.629   0.913
 8516SOL    HW125676   6.145   6.663   0.966
 8516SOL    HW225677   6.028   6.706   0.879
 8517SOL     OW25678   6.902   6.057   0.679
 8517SOL    HW125679   6.884   6.051   0.773
 8517SOL    HW225680   6.821   6.092   0.642
 8518SOL     OW25681   3.470   3.028   3.347
 8518SOL    HW125682   3.537   2.999   3.286
 8518SOL    HW225683   3.509   3.101   3.394
 8519SOL     OW25684   4.694   3.686   5.199
 8519SOL    HW125685   4.605   3.708   5.226
 8519SOL    HW225686   4.724   3.621   5.262
 8520SOL     OW25687   6.162   7.139   2.684
 8520SOL    HW125688   6.232   7.092   2.639
 8520SOL    HW225689   6.205   7.179   2.760
 8521SOL     OW25690   5.449   0.683   0.528
 8521SOL    HW125691   5.417   0.773   0.541
 8521SOL    HW225692   5.376   0.627   0.554
 8522SOL     OW25693   3.074   5.531   3.545
 8522SOL    HW125694   3.163   5.521   3.511
 8522SOL    HW225695   3.035   5.600   3.490
 8523SOL     OW25696   3.467   1.304   1.810
 8523SOL    HW125697   3.426   1.308   1.896
 8523SOL    HW225698   3.523   1.226   1.815
 8524SOL     OW25699   6.195   5.018   0.278
 8524SOL    HW125700   6.140   4.989   0.205
 8524SOL    HW225701   6.169   4.961   0.351
 8525SOL     OW25702   4.250   6.721   4.534
 8525SOL    HW125703   4.273   6.750   4.446
 8525SOL    HW225704   4.155   6.711   4.531
 8526SOL     OW25705   5.521   0.582   4.055
 8526SOL    HW125706   5.554   0.547   3.972
 8526SOL    HW225707   5.441   0.629   4.031
 8527SOL     OW25708   7.064   3.042   4.837
 8527SOL    HW125709   7.032   2.952   4.827
 8527SOL    HW225710   7.012   3.076   4.910
 8528SOL     OW25711   6.220   2.142   3.724
 8528SOL    HW125712   6.144   2.197   3.705
 8528SOL    HW225713   6.242   2.162   3.815
 8529SOL     OW25714   2.874   5.085   0.739
 8529SOL    HW125715   2.793   5.035   0.736
 8529SOL    HW225716   2.869   5.135   0.821
 8530SOL     OW25717   5.946   3.771   4.115
 8530SOL    HW125718   6.028   3.758   4.163
 8530SOL    HW225719   5.920   3.861   4.137
 8531SOL     OW25720   4.700   0.477   3.873
 8531SOL    HW125721   4.742   0.449   3.954
 8531SOL    HW225722   4.734   0.565   3.857
 8532SOL     OW25723   8.555   1.262   4.999
 8532SOL    HW125724   8.607   1.183   4.985
 8532SOL    HW225725   8.514   1.248   5.084
 8533SOL     OW25726   2.646   1.312   2.227
 8533SOL    HW125727   2.694   1.243   2.182
 8533SOL    HW225728   2.687   1.394   2.198
 8534SOL     OW25729   3.895   6.578   0.143
 8534SOL    HW125730   3.976   6.529   0.132
 8534SOL    HW225731   3.865   6.595   0.054
 8535SOL     OW25732   5.198   0.893   0.673
 8535SOL    HW125733   5.242   0.865   0.753
 8535SOL    HW225734   5.120   0.938   0.703
 8536SOL     OW25735   6.387   3.810   0.379
 8536SOL    HW125736   6.439   3.767   0.447
 8536SOL    HW225737   6.370   3.741   0.315
 8537SOL     OW25738   3.649   6.056   2.046
 8537SOL    HW125739   3.676   5.964   2.046
 8537SOL    HW225740   3.558   6.055   2.075
 8538SOL     OW25741   3.964   1.244   1.128
 8538SOL    HW125742   3.912   1.234   1.208
 8538SOL    HW225743   3.934   1.327   1.090
 8539SOL     OW25744   6.658   3.674   5.241
 8539SOL    HW125745   6.652   3.588   5.200
 8539SOL    HW225746   6.606   3.731   5.184
 8540SOL     OW25747   3.480   4.631   0.830
 8540SOL    HW125748   3.415   4.569   0.797
 8540SOL    HW225749   3.491   4.608   0.922
 8541SOL     OW25750   7.758   4.224   1.682
 8541SOL    HW125751   7.779   4.242   1.590
 8541SOL    HW225752   7.736   4.131   1.683
 8542SOL     OW25753   0.652   4.602   0.624
 8542SOL    HW125754   0.569   4.572   0.661
 8542SOL    HW225755   0.671   4.539   0.554
 8543SOL     OW25756   5.189   6.733   1.079
 8543SOL    HW125757   5.125   6.662   1.076
 8543SOL    HW225758   5.190   6.767   0.990
 8544SOL     OW25759   2.084   5.838   2.149
 8544SOL    HW125760   2.021   5.903   2.119
 8544SOL    HW225761   2.040   5.791   2.220
 8545SOL     OW25762   3.202   0.667   3.063
 8545SOL    HW125763   3.141   0.741   3.059
 8545SOL    HW225764   3.147   0.591   3.076
 8546SOL     OW25765   9.886   2.696   4.965
 8546SOL    HW125766   9.850   2.625   5.018
 8546SOL    HW225767   9.855   2.776   5.008
 8547SOL     OW25768   9.013   4.061   4.117
 8547SOL    HW125769   9.002   4.076   4.023
 8547SOL    HW225770   9.080   4.123   4.144
 8548SOL     OW25771   7.314   0.120   3.960
 8548SOL    HW125772   7.252   0.166   3.902
 8548SOL    HW225773   7.356   0.191   4.009
 8549SOL     OW25774   4.678   1.395   2.949
 8549SOL    HW125775   4.765   1.420   2.981
 8549SOL    HW225776   4.695   1.331   2.881
 8550SOL     OW25777   2.382   1.844   3.070
 8550SOL    HW125778   2.364   1.750   3.062
 8550SOL    HW225779   2.354   1.880   2.986
 8551SOL     OW25780   7.875   7.167   0.873
 8551SOL    HW125781   7.897   7.147   0.782
 8551SOL    HW225782   7.794   7.218   0.867
 8552SOL     OW25783  10.623   2.993   4.691
 8552SOL    HW125784  10.702   3.011   4.640
 8552SOL    HW225785  10.646   3.020   4.780
 8553SOL     OW25786   5.734   1.765   1.953
 8553SOL    HW125787   5.788   1.752   2.031
 8553SOL    HW225788   5.653   1.717   1.971
 8554SOL     OW25789   5.100   4.335   5.019
 8554SOL    HW125790   5.120   4.274   4.947
 8554SOL    HW225791   5.176   4.328   5.077
 8555SOL     OW25792   9.238   5.516   4.945
 8555SOL    HW125793   9.284   5.505   5.029
 8555SOL    HW225794   9.296   5.477   4.880
 8556SOL     OW25795   9.678   6.236   4.509
 8556SOL    HW125796   9.748   6.178   4.540
 8556SOL    HW225797   9.618   6.178   4.463
 8557SOL     OW25798   4.004   1.822   1.833
 8557SOL    HW125799   4.074   1.785   1.780
 8557SOL    HW225800   3.949   1.868   1.770
 8558SOL     OW25801   7.232   1.656   0.851
 8558SOL    HW125802   7.284   1.703   0.785
 8558SOL    HW225803   7.296   1.605   0.900
 8559SOL     OW25804   3.005   4.721   3.476
 8559SOL    HW125805   3.041   4.635   3.457
 8559SOL    HW225806   3.057   4.754   3.549
 8560SOL     OW25807   5.477   4.662   0.663
 8560SOL    HW125808   5.445   4.694   0.579
 8560SOL    HW225809   5.524   4.736   0.701
 8561SOL     OW25810   2.604   5.534   0.719
 8561SOL    HW125811   2.656   5.558   0.796
 8561SOL    HW225812   2.528   5.488   0.754
 8562SOL     OW25813   8.611   5.460   2.749
 8562SOL    HW125814   8.653   5.505   2.822
 8562SOL    HW225815   8.548   5.523   2.715
 8563SOL     OW25816   1.321   0.075   0.164
 8563SOL    HW125817   1.329   0.105   0.073
 8563SOL    HW225818   1.318  -0.021   0.157
 8564SOL     OW25819   6.133   3.030   2.538
 8564SOL    HW125820   6.166   3.037   2.627
 8564SOL    HW225821   6.186   3.093   2.488
 8565SOL     OW25822   1.934   4.775   1.121
 8565SOL    HW125823   1.912   4.772   1.215
 8565SOL    HW225824   1.956   4.684   1.099
 8566SOL     OW25825   3.920   1.210   4.447
 8566SOL    HW125826   3.984   1.194   4.517
 8566SOL    HW225827   3.973   1.220   4.368
 8567SOL     OW25828   2.769   6.480   3.591
 8567SOL    HW125829   2.818   6.556   3.558
 8567SOL    HW225830   2.683   6.515   3.613
 8568SOL     OW25831   6.974   6.924   2.314
 8568SOL    HW125832   7.067   6.938   2.292
 8568SOL    HW225833   6.975   6.849   2.373
 8569SOL     OW25834   9.003   0.404   3.394
 8569SOL    HW125835   9.035   0.474   3.338
 8569SOL    HW225836   8.944   0.447   3.456
 8570SOL     OW25837   7.463   0.938   1.798
 8570SOL    HW125838   7.541   0.992   1.812
 8570SOL    HW225839   7.474   0.901   1.711
 8571SOL     OW25840   8.783   2.723   4.011
 8571SOL    HW125841   8.750   2.729   3.921
 8571SOL    HW225842   8.874   2.753   4.005
 8572SOL     OW25843   5.807   5.981   3.506
 8572SOL    HW125844   5.890   5.941   3.480
 8572SOL    HW225845   5.811   5.984   3.601
 8573SOL     OW25846   3.090   1.869   2.821
 8573SOL    HW125847   3.147   1.799   2.852
 8573SOL    HW225848   3.010   1.824   2.792
 8574SOL     OW25849   4.201   1.951   4.835
 8574SOL    HW125850   4.228   2.041   4.851
 8574SOL    HW225851   4.210   1.908   4.920
 8575SOL     OW25852   7.421   2.681   5.172
 8575SOL    HW125853   7.462   2.762   5.205
 8575SOL    HW225854   7.450   2.613   5.233
 8576SOL     OW25855   2.274   6.850   2.581
 8576SOL    HW125856   2.190   6.876   2.544
 8576SOL    HW225857   2.339   6.874   2.514
 8577SOL     OW25858   3.206   2.737   0.997
 8577SOL    HW125859   3.263   2.801   1.037
 8577SOL    HW225860   3.183   2.677   1.068
 8578SOL     OW25861   5.482   6.519   3.059
 8578SOL    HW125862   5.503   6.604   3.097
 8578SOL    HW225863   5.439   6.471   3.129
 8579SOL     OW25864   8.872   2.653   4.861
 8579SOL    HW125865   8.864   2.573   4.912
 8579SOL    HW225866   8.931   2.629   4.789
 8580SOL     OW25867   4.477   5.988   0.746
 8580SOL    HW125868   4.535   6.060   0.722
 8580SOL    HW225869   4.427   5.970   0.666
 8581SOL     OW25870   2.103   3.166   1.187
 8581SOL    HW125871   2.099   3.148   1.281
 8581SOL    HW225872   2.153   3.092   1.151
 8582SOL     OW25873   5.215   1.866   3.726
 8582SOL    HW125874   5.256   1.793   3.772
 8582SOL    HW225875   5.143   1.826   3.678
 8583SOL     OW25876   3.113   2.769   2.428
 8583SOL    HW125877   3.065   2.772   2.345
 8583SOL    HW225878   3.199   2.807   2.407
 8584SOL     OW25879   0.983   3.086   1.214
 8584SOL    HW125880   0.899   3.068   1.256
 8584SOL    HW225881   0.983   3.030   1.136
 8585SOL     OW25882   3.138   4.583   0.804
 8585SOL    HW125883   3.205   4.526   0.766
 8585SOL    HW225884   3.122   4.650   0.738
 8586SOL     OW25885   5.273   4.384   3.097
 8586SOL    HW125886   5.347   4.380   3.036
 8586SOL    HW225887   5.313   4.375   3.183
 8587SOL     OW25888   3.297   2.530   1.490
 8587SOL    HW125889   3.230   2.474   1.452
 8587SOL    HW225890   3.289   2.516   1.585
 8588SOL     OW25891   4.944   0.539   4.343
 8588SOL    HW125892   4.959   0.584   4.427
 8588SOL    HW225893   4.915   0.451   4.368
 8589SOL     OW25894   3.250   0.721   2.216
 8589SOL    HW125895   3.336   0.727   2.258
 8589SOL    HW225896   3.269   0.691   2.127
 8590SOL     OW25897   7.792   5.415   4.152
 8590SOL    HW125898   7.814   5.382   4.239
 8590SOL    HW225899   7.709   5.372   4.130
 8591SOL     OW25900   5.618   7.216   3.165
 8591SOL    HW125901   5.685   7.161   3.206
 8591SOL    HW225902   5.536   7.168   3.177
 8592SOL     OW25903   1.864   1.580   1.744
 8592SOL    HW125904   1.953   1.589   1.711
 8592SOL    HW225905   1.833   1.498   1.707
 8593SOL     OW25906   2.833   5.866   1.166
 8593SOL    HW125907   2.795   5.802   1.227
 8593SOL    HW225908   2.924   5.874   1.193
 8594SOL     OW25909   7.323   0.021   1.735
 8594SOL    HW125910   7.338   0.115   1.740
 8594SOL    HW225911   7.287   0.007   1.647
 8595SOL     OW25912  10.577   4.632   4.742
 8595SOL    HW125913  10.656   4.587   4.713
 8595SOL    HW225914  10.507   4.567   4.734
 8596SOL     OW25915   9.797   1.769   4.628
 8596SOL    HW125916   9.706   1.791   4.647
 8596SOL    HW225917   9.841   1.854   4.618
 8597SOL     OW25918   3.872   6.540   0.428
 8597SOL    HW125919   3.857   6.535   0.333
 8597SOL    HW225920   3.963   6.511   0.439
 8598SOL     OW25921   7.771   7.007   4.379
 8598SOL    HW125922   7.684   7.021   4.416
 8598SOL    HW225923   7.781   6.912   4.373
 8599SOL     OW25924   4.027   6.909   2.176
 8599SOL    HW125925   3.982   6.993   2.184
 8599SOL    HW225926   3.972   6.847   2.223
 8600SOL     OW25927   3.566   6.494   0.314
 8600SOL    HW125928   3.633   6.535   0.259
 8600SOL    HW225929   3.530   6.424   0.259
 8601SOL     OW25930   6.761   2.235   2.616
 8601SOL    HW125931   6.771   2.159   2.559
 8601SOL    HW225932   6.699   2.292   2.569
 8602SOL     OW25933   3.562   2.532   4.230
 8602SOL    HW125934   3.620   2.467   4.269
 8602SOL    HW225935   3.485   2.533   4.288
 8603SOL     OW25936   8.017   2.516   1.035
 8603SOL    HW125937   7.988   2.554   0.952
 8603SOL    HW225938   8.101   2.475   1.016
 8604SOL     OW25939   5.872   3.683   3.220
 8604SOL    HW125940   5.956   3.680   3.266
 8604SOL    HW225941   5.826   3.605   3.250
 8605SOL     OW25942   8.150   4.268   3.848
 8605SOL    HW125943   8.096   4.199   3.809
 8605SOL    HW225944   8.239   4.247   3.820
 8606SOL     OW25945   4.321   1.013   5.107
 8606SOL    HW125946   4.285   1.063   5.180
 8606SOL    HW225947   4.415   1.010   5.125
 8607SOL     OW25948   8.684   2.676   4.636
 8607SOL    HW125949   8.689   2.707   4.727
 8607SOL    HW225950   8.762   2.621   4.626
 8608SOL     OW25951   5.282   5.403   4.710
 8608SOL    HW125952   5.330   5.370   4.786
 8608SOL    HW225953   5.214   5.337   4.694
 8609SOL     OW25954   3.925   5.970   1.778
 8609SOL    HW125955   3.901   6.004   1.691
 8609SOL    HW225956   3.870   6.019   1.839
 8610SOL     OW25957   7.315   1.676   4.546
 8610SOL    HW125958   7.337   1.697   4.455
 8610SOL    HW225959   7.261   1.597   4.540
 8611SOL     OW25960   5.903   6.342   2.770
 8611SOL    HW125961   5.839   6.400   2.811
 8611SOL    HW225962   5.979   6.397   2.755
 8612SOL     OW25963   9.449   1.956   4.175
 8612SOL    HW125964   9.406   2.041   4.169
 8612SOL    HW225965   9.423   1.921   4.260
 8613SOL     OW25966   0.967   3.383   0.854
 8613SOL    HW125967   1.059   3.405   0.867
 8613SOL    HW225968   0.920   3.461   0.883
 8614SOL     OW25969   7.274   4.503   0.259
 8614SOL    HW125970   7.251   4.432   0.199
 8614SOL    HW225971   7.362   4.530   0.233
 8615SOL     OW25972   3.955   1.860   2.333
 8615SOL    HW125973   3.936   1.853   2.240
 8615SOL    HW225974   4.001   1.779   2.354
 8616SOL     OW25975   6.441   2.196   4.893
 8616SOL    HW125976   6.489   2.260   4.842
 8616SOL    HW225977   6.508   2.138   4.930
 8617SOL     OW25978   2.201   4.755   1.422
 8617SOL    HW125979   2.117   4.791   1.393
 8617SOL    HW225980   2.249   4.738   1.341
 8618SOL     OW25981   3.181   2.864   1.423
 8618SOL    HW125982   3.197   2.798   1.356
 8618SOL    HW225983   3.090   2.891   1.408
 8619SOL     OW25984   6.981   0.755   3.282
 8619SOL    HW125985   7.005   0.721   3.196
 8619SOL    HW225986   7.047   0.720   3.342
 8620SOL     OW25987   2.846   7.215   2.625
 8620SOL    HW125988   2.759   7.187   2.597
 8620SOL    HW225989   2.859   7.173   2.710
 8621SOL     OW25990   3.567   1.614   4.151
 8621SOL    HW125991   3.651   1.653   4.128
 8621SOL    HW225992   3.574   1.522   4.125
 8622SOL     OW25993   7.092   1.368   1.393
 8622SOL    HW125994   7.037   1.326   1.459
 8622SOL    HW225995   7.174   1.389   1.438
 8623SOL     OW25996   6.659   2.141   3.106
 8623SOL    HW125997   6.583   2.165   3.159
 8623SOL    HW225998   6.665   2.046   3.113
 8624SOL     OW25999   8.796   4.004   3.043
 8624SOL    HW126000   8.765   4.059   2.972
 8624SOL    HW226001   8.776   4.055   3.122
 8625SOL     OW26002   2.617   4.083   2.428
 8625SOL    HW126003   2.646   4.043   2.346
 8625SOL    HW226004   2.552   4.148   2.400
 8626SOL     OW26005   6.949   3.881   2.328
 8626SOL    HW126006   6.934   3.798   2.373
 8626SOL    HW226007   6.872   3.894   2.273
 8627SOL     OW26008   2.554   6.530   1.375
 8627SOL    HW126009   2.649   6.535   1.381
 8627SOL    HW226010   2.525   6.521   1.466
 8628SOL     OW26011   3.194   1.298   2.701
 8628SOL    HW126012   3.230   1.294   2.613
 8628SOL    HW226013   3.146   1.216   2.711
 8629SOL     OW26014   1.139   5.343   1.331
 8629SOL    HW126015   1.163   5.250   1.331
 8629SOL    HW226016   1.073   5.350   1.399
 8630SOL     OW26017   4.253   3.295   0.066
 8630SOL    HW126018   4.258   3.205   0.101
 8630SOL    HW226019   4.226   3.348   0.140
 8631SOL     OW26020   4.255   1.094   1.730
 8631SOL    HW126021   4.184   1.051   1.682
 8631SOL    HW226022   4.335   1.069   1.683
 8632SOL     OW26023   5.093   1.022   3.086
 8632SOL    HW126024   5.168   0.967   3.066
 8632SOL    HW226025   5.025   0.961   3.115
 8633SOL     OW26026   9.959   1.954   4.296
 8633SOL    HW126027   9.991   1.870   4.329
 8633SOL    HW226028   9.871   1.936   4.264
 8634SOL     OW26029   3.586   2.893   0.066
 8634SOL    HW126030   3.512   2.873   0.124
 8634SOL    HW226031   3.550   2.885  -0.022
 8635SOL     OW26032   4.117   0.515   2.898
 8635SOL    HW126033   4.144   0.605   2.916
 8635SOL    HW226034   4.197   0.463   2.909
 8636SOL     OW26035   7.554   2.719   4.241
 8636SOL    HW126036   7.646   2.724   4.218
 8636SOL    HW226037   7.551   2.736   4.335
 8637SOL     OW26038   1.103   1.997   0.567
 8637SOL    HW126039   1.123   1.903   0.557
 8637SOL    HW226040   1.161   2.026   0.638
 8638SOL     OW26041   4.938   4.042   3.987
 8638SOL    HW126042   4.982   4.042   4.072
 8638SOL    HW226043   4.977   4.115   3.939
 8639SOL     OW26044   9.495   2.741   3.084
 8639SOL    HW126045   9.415   2.768   3.129
 8639SOL    HW226046   9.544   2.822   3.072
 8640SOL     OW26047   3.079   3.893   1.386
 8640SOL    HW126048   3.117   3.805   1.379
 8640SOL    HW226049   3.001   3.891   1.331
 8641SOL     OW26050   7.557   4.601   2.352
 8641SOL    HW126051   7.478   4.654   2.363
 8641SOL    HW226052   7.527   4.523   2.303
 8642SOL     OW26053   1.308   5.578   1.233
 8642SOL    HW126054   1.256   5.618   1.164
 8642SOL    HW226055   1.266   5.494   1.250
 8643SOL     OW26056   8.540   1.252   1.987
 8643SOL    HW126057   8.594   1.176   1.965
 8643SOL    HW226058   8.451   1.217   1.995
 8644SOL     OW26059   5.306   2.230   2.000
 8644SOL    HW126060   5.320   2.239   1.906
 8644SOL    HW226061   5.370   2.289   2.040
 8645SOL     OW26062   6.342   6.584   3.378
 8645SOL    HW126063   6.343   6.678   3.363
 8645SOL    HW226064   6.432   6.562   3.403
 8646SOL     OW26065   2.157   2.024   2.827
 8646SOL    HW126066   2.233   1.977   2.791
 8646SOL    HW226067   2.090   1.957   2.837
 8647SOL     OW26068   3.178   1.654   3.009
 8647SOL    HW126069   3.133   1.592   3.067
 8647SOL    HW226070   3.226   1.711   3.069
 8648SOL     OW26071   5.320   1.971   4.287
 8648SOL    HW126072   5.257   1.906   4.317
 8648SOL    HW226073   5.290   1.995   4.199
 8649SOL     OW26074   3.389   4.023   1.995
 8649SOL    HW126075   3.309   3.971   2.002
 8649SOL    HW226076   3.393   4.072   2.078
 8650SOL     OW26077   8.017   6.604   2.883
 8650SOL    HW126078   8.022   6.700   2.891
 8650SOL    HW226079   8.071   6.572   2.956
 8651SOL     OW26080   3.540   1.666   3.861
 8651SOL    HW126081   3.581   1.671   3.948
 8651SOL    HW226082   3.446   1.668   3.879
 8652SOL     OW26083   4.252   1.211   4.187
 8652SOL    HW126084   4.278   1.227   4.278
 8652SOL    HW226085   4.312   1.264   4.135
 8653SOL     OW26086   3.429   4.183   0.604
 8653SOL    HW126087   3.412   4.214   0.516
 8653SOL    HW226088   3.512   4.223   0.628
 8654SOL     OW26089   6.003   7.229   4.261
 8654SOL    HW126090   5.913   7.259   4.256
 8654SOL    HW226091   6.055   7.309   4.271
 8655SOL     OW26092   6.190   5.535   3.359
 8655SOL    HW126093   6.135   5.583   3.297
 8655SOL    HW226094   6.279   5.566   3.340
 8656SOL     OW26095   9.001   5.162   4.761
 8656SOL    HW126096   8.981   5.214   4.838
 8656SOL    HW226097   9.093   5.138   4.771
 8657SOL     OW26098   1.839   2.161   0.959
 8657SOL    HW126099   1.839   2.201   0.873
 8657SOL    HW226100   1.746   2.146   0.978
 8658SOL     OW26101   1.015   3.971   0.098
 8658SOL    HW126102   0.972   3.939   0.019
 8658SOL    HW226103   1.059   3.894   0.133
 8659SOL     OW26104   4.066   4.624   1.216
 8659SOL    HW126105   4.084   4.718   1.208
 8659SOL    HW226106   4.145   4.587   1.255
 8660SOL     OW26107   6.408   2.966   1.060
 8660SOL    HW126108   6.454   2.977   1.144
 8660SOL    HW226109   6.408   3.054   1.022
 8661SOL     OW26110   3.794   6.988   4.843
 8661SOL    HW126111   3.723   6.987   4.780
 8661SOL    HW226112   3.874   6.977   4.791
 8662SOL     OW26113   6.314   2.448   4.950
 8662SOL    HW126114   6.393   2.393   4.950
 8662SOL    HW226115   6.311   2.486   4.862
 8663SOL     OW26116   9.998   4.508   4.405
 8663SOL    HW126117   9.954   4.430   4.371
 8663SOL    HW226118   9.961   4.580   4.355
 8664SOL     OW26119   4.882   4.448   0.671
 8664SOL    HW126120   4.869   4.517   0.606
 8664SOL    HW226121   4.800   4.398   0.669
 8665SOL     OW26122   3.564   0.193   2.600
 8665SOL    HW126123   3.478   0.197   2.559
 8665SOL    HW226124   3.555   0.130   2.671
 8666SOL     OW26125   9.403   5.831   4.604
 8666SOL    HW126126   9.357   5.788   4.532
 8666SOL    HW226127   9.358   5.801   4.683
 8667SOL     OW26128   8.282   4.745   2.943
 8667SOL    HW126129   8.348   4.744   2.874
 8667SOL    HW226130   8.282   4.655   2.977
 8668SOL     OW26131   9.042   6.745   3.130
 8668SOL    HW126132   8.993   6.794   3.195
 8668SOL    HW226133   9.092   6.811   3.082
 8669SOL     OW26134   2.854   4.099   2.551
 8669SOL    HW126135   2.764   4.130   2.536
 8669SOL    HW226136   2.861   4.092   2.646
 8670SOL     OW26137   6.541   6.646   2.287
 8670SOL    HW126138   6.546   6.691   2.371
 8670SOL    HW226139   6.451   6.613   2.282
 8671SOL     OW26140   7.706   1.303   0.663
 8671SOL    HW126141   7.658   1.283   0.743
 8671SOL    HW226142   7.796   1.316   0.691
 8672SOL     OW26143   6.480   2.425   2.245
 8672SOL    HW126144   6.480   2.341   2.199
 8672SOL    HW226145   6.531   2.409   2.324
 8673SOL     OW26146   6.805   4.282   2.951
 8673SOL    HW126147   6.897   4.291   2.925
 8673SOL    HW226148   6.756   4.294   2.870
 8674SOL     OW26149   3.142   6.410   3.618
 8674SOL    HW126150   3.209   6.434   3.553
 8674SOL    HW226151   3.062   6.452   3.587
 8675SOL     OW26152   3.118   0.693   1.890
 8675SOL    HW126153   3.032   0.653   1.897
 8675SOL    HW226154   3.166   0.635   1.831
 8676SOL     OW26155   6.184   1.033   4.176
 8676SOL    HW126156   6.177   1.055   4.269
 8676SOL    HW226157   6.274   1.055   4.153
 8677SOL     OW26158   7.850   2.915   1.202
 8677SOL    HW126159   7.804   2.842   1.242
 8677SOL    HW226160   7.864   2.888   1.111
 8678SOL     OW26161   2.359   4.628   0.005
 8678SOL    HW126162   2.392   4.717   0.005
 8678SOL    HW226163   2.326   4.614   0.093
 8679SOL     OW26164   8.074   4.403   2.224
 8679SOL    HW126165   8.102   4.394   2.315
 8679SOL    HW226166   8.087   4.315   2.186
 8680SOL     OW26167   8.769   4.454   4.485
 8680SOL    HW126168   8.792   4.538   4.446
 8680SOL    HW226169   8.852   4.417   4.515
 8681SOL     OW26170   1.248   3.447   0.793
 8681SOL    HW126171   1.289   3.374   0.746
 8681SOL    HW226172   1.320   3.487   0.841
 8682SOL     OW26173   5.189   0.066   0.049
 8682SOL    HW126174   5.194   0.131   0.119
 8682SOL    HW226175   5.278   0.033   0.039
 8683SOL     OW26176   4.719   0.112   4.018
 8683SOL    HW126177   4.754   0.116   3.929
 8683SOL    HW226178   4.648   0.176   4.019
 8684SOL     OW26179   6.348   4.730   1.448
 8684SOL    HW126180   6.418   4.759   1.390
 8684SOL    HW226181   6.285   4.802   1.448
 8685SOL     OW26182   4.761   7.144   3.657
 8685SOL    HW126183   4.736   7.193   3.736
 8685SOL    HW226184   4.853   7.167   3.643
 8686SOL     OW26185   6.323   0.713   3.733
 8686SOL    HW126186   6.265   0.775   3.688
 8686SOL    HW226187   6.405   0.761   3.745
 8687SOL     OW26188   4.173   5.724   3.426
 8687SOL    HW126189   4.213   5.784   3.488
 8687SOL    HW226190   4.177   5.639   3.469
 8688SOL     OW26191   9.403   6.235   4.645
 8688SOL    HW126192   9.492   6.262   4.623
 8688SOL    HW226193   9.413   6.171   4.715
 8689SOL     OW26194   7.967   5.079   4.723
 8689SOL    HW126195   7.978   5.144   4.654
 8689SOL    HW226196   7.891   5.109   4.773
 8690SOL     OW26197   0.578   3.306   0.539
 8690SOL    HW126198   0.516   3.263   0.598
 8690SOL    HW226199   0.561   3.266   0.453
 8691SOL     OW26200   6.667   1.120   4.892
 8691SOL    HW126201   6.600   1.139   4.825
 8691SOL    HW226202   6.624   1.140   4.975
 8692SOL     OW26203   3.982   3.776   1.056
 8692SOL    HW126204   4.044   3.837   1.097
 8692SOL    HW226205   3.999   3.692   1.100
 8693SOL     OW26206   6.009   2.722   0.330
 8693SOL    HW126207   6.042   2.777   0.260
 8693SOL    HW226208   5.987   2.639   0.288
 8694SOL     OW26209   8.596   3.840   4.284
 8694SOL    HW126210   8.655   3.834   4.209
 8694SOL    HW226211   8.654   3.860   4.358
 8695SOL     OW26212   2.684   6.894   1.461
 8695SOL    HW126213   2.688   6.852   1.375
 8695SOL    HW226214   2.692   6.821   1.523
 8696SOL     OW26215   7.819   6.289   4.371
 8696SOL    HW126216   7.749   6.224   4.365
 8696SOL    HW226217   7.899   6.239   4.359
 8697SOL     OW26218   9.181   4.664   3.444
 8697SOL    HW126219   9.261   4.666   3.497
 8697SOL    HW226220   9.178   4.575   3.409
 8698SOL     OW26221   5.652   0.972   3.697
 8698SOL    HW126222   5.686   1.060   3.710
 8698SOL    HW226223   5.569   0.985   3.651
 8699SOL     OW26224   8.445   5.858   3.551
 8699SOL    HW126225   8.480   5.937   3.594
 8699SOL    HW226226   8.398   5.892   3.475
 8700SOL     OW26227   5.242   5.471   0.888
 8700SOL    HW126228   5.207   5.558   0.910
 8700SOL    HW226229   5.314   5.458   0.950
 8701SOL     OW26230   5.492   2.270   3.592
 8701SOL    HW126231   5.531   2.221   3.520
 8701SOL    HW226232   5.469   2.355   3.554
 8702SOL     OW26233   1.609   5.262   1.170
 8702SOL    HW126234   1.607   5.353   1.140
 8702SOL    HW226235   1.694   5.229   1.142
 8703SOL     OW26236   4.118   2.024   4.268
 8703SOL    HW126237   4.074   1.965   4.329
 8703SOL    HW226238   4.168   1.966   4.210
 8704SOL     OW26239   1.923   3.167   2.276
 8704SOL    HW126240   1.854   3.231   2.260
 8704SOL    HW226241   1.993   3.217   2.317
 8705SOL     OW26242   5.181   3.533   0.732
 8705SOL    HW126243   5.090   3.543   0.760
 8705SOL    HW226244   5.202   3.441   0.750
 8706SOL     OW26245   2.950   0.879   3.416
 8706SOL    HW126246   2.955   0.902   3.509
 8706SOL    HW226247   2.940   0.783   3.416
 8707SOL     OW26248   6.966   6.151   3.789
 8707SOL    HW126249   6.973   6.056   3.782
 8707SOL    HW226250   6.874   6.170   3.772
 8708SOL     OW26251   6.575   2.758   2.853
 8708SOL    HW126252   6.634   2.715   2.915
 8708SOL    HW226253   6.526   2.685   2.815
 8709SOL     OW26254   6.068   2.539   3.694
 8709SOL    HW126255   5.978   2.564   3.717
 8709SOL    HW226256   6.093   2.476   3.762
 8710SOL     OW26257   5.095   7.137   3.870
 8710SOL    HW126258   5.011   7.116   3.830
 8710SOL    HW226259   5.078   7.212   3.926
 8711SOL     OW26260   6.245   5.870   3.822
 8711SOL    HW126261   6.290   5.787   3.840
 8711SOL    HW226262   6.256   5.883   3.728
 8712SOL     OW26263   8.767   1.275   3.096
 8712SOL    HW126264   8.844   1.320   3.132
 8712SOL    HW226265   8.801   1.226   3.021
 8713SOL     OW26266  10.043   3.146   4.657
 8713SOL    HW126267  10.082   3.060   4.651
 8713SOL    HW226268  10.106   3.199   4.705
 8714SOL     OW26269   5.406   4.706   3.609
 8714SOL    HW126270   5.475   4.728   3.671
 8714SOL    HW226271   5.379   4.618   3.633
 8715SOL     OW26272   4.987   4.535   1.506
 8715SOL    HW126273   4.899   4.523   1.471
 8715SOL    HW226274   4.986   4.490   1.590
 8716SOL     OW26275   3.845   4.550   0.678
 8716SOL    HW126276   3.812   4.593   0.599
 8716SOL    HW226277   3.768   4.542   0.734
 8717SOL     OW26278   7.691   6.692   4.311
 8717SOL    HW126279   7.778   6.709   4.275
 8717SOL    HW226280   7.634   6.685   4.235
 8718SOL     OW26281   6.816   2.820   4.301
 8718SOL    HW126282   6.743   2.820   4.362
 8718SOL    HW226283   6.779   2.789   4.218
 8719SOL     OW26284   4.259   4.244   2.192
 8719SOL    HW126285   4.228   4.169   2.243
 8719SOL    HW226286   4.348   4.259   2.224
 8720SOL     OW26287  10.097   1.095   4.207
 8720SOL    HW126288  10.083   1.177   4.254
 8720SOL    HW226289  10.149   1.120   4.130
 8721SOL     OW26290   3.577   3.342   2.863
 8721SOL    HW126291   3.497   3.291   2.877
 8721SOL    HW226292   3.642   3.276   2.838
 8722SOL     OW26293   7.944   0.225   2.496
 8722SOL    HW126294   7.953   0.318   2.474
 8722SOL    HW226295   7.928   0.224   2.590
 8723SOL     OW26296   4.596   3.099   5.144
 8723SOL    HW126297   4.535   3.096   5.218
 8723SOL    HW226298   4.541   3.122   5.069
 8724SOL     OW26299   3.746   4.859   1.741
 8724SOL    HW126300   3.734   4.898   1.828
 8724SOL    HW226301   3.782   4.930   1.688
 8725SOL     OW26302   2.545   2.294   1.300
 8725SOL    HW126303   2.495   2.372   1.276
 8725SOL    HW226304   2.480   2.224   1.301
 8726SOL     OW26305   3.790   5.281   1.943
 8726SOL    HW126306   3.717   5.277   2.004
 8726SOL    HW226307   3.770   5.216   1.876
 8727SOL     OW26308   2.746   6.809   0.606
 8727SOL    HW126309   2.827   6.824   0.653
 8727SOL    HW226310   2.677   6.829   0.669
 8728SOL     OW26311   5.093   4.355   0.405
 8728SOL    HW126312   5.134   4.273   0.430
 8728SOL    HW226313   5.007   4.353   0.447
 8729SOL     OW26314   7.505   1.838   3.023
 8729SOL    HW126315   7.498   1.743   3.015
 8729SOL    HW226316   7.491   1.855   3.116
 8730SOL     OW26317   3.414   4.439   2.960
 8730SOL    HW126318   3.439   4.530   2.944
 8730SOL    HW226319   3.429   4.395   2.876
 8731SOL     OW26320   4.662   6.453   3.314
 8731SOL    HW126321   4.586   6.397   3.328
 8731SOL    HW226322   4.650   6.525   3.376
 8732SOL     OW26323   1.907   3.519   0.649
 8732SOL    HW126324   1.817   3.551   0.644
 8732SOL    HW226325   1.943   3.559   0.728
 8733SOL     OW26326   2.455   1.545   0.700
 8733SOL    HW126327   2.414   1.627   0.727
 8733SOL    HW226328   2.390   1.478   0.722
 8734SOL     OW26329   2.963   1.532   3.722
 8734SOL    HW126330   2.884   1.584   3.703
 8734SOL    HW226331   3.035   1.587   3.692
 8735SOL     OW26332   8.647   7.304   5.279
 8735SOL    HW126333   8.618   7.246   5.209
 8735SOL    HW226334   8.588   7.379   5.274
 8736SOL     OW26335   4.308   6.853   1.742
 8736SOL    HW126336   4.219   6.833   1.770
 8736SOL    HW226337   4.359   6.776   1.768
 8737SOL     OW26338   3.567   3.856   5.040
 8737SOL    HW126339   3.591   3.820   4.954
 8737SOL    HW226340   3.605   3.795   5.103
 8738SOL     OW26341   7.904   6.528   1.606
 8738SOL    HW126342   7.815   6.494   1.592
 8738SOL    HW226343   7.916   6.593   1.536
 8739SOL     OW26344   6.095   3.590   1.081
 8739SOL    HW126345   6.074   3.599   0.988
 8739SOL    HW226346   6.029   3.530   1.116
 8740SOL     OW26347   8.197   2.880   2.525
 8740SOL    HW126348   8.277   2.837   2.494
 8740SOL    HW226349   8.188   2.854   2.616
 8741SOL     OW26350   9.238   0.178   4.519
 8741SOL    HW126351   9.333   0.191   4.526
 8741SOL    HW226352   9.205   0.199   4.606
 8742SOL     OW26353   3.856   2.595   4.334
 8742SOL    HW126354   3.865   2.598   4.429
 8742SOL    HW226355   3.767   2.626   4.318
 8743SOL     OW26356   7.520   2.856   0.809
 8743SOL    HW126357   7.443   2.877   0.862
 8743SOL    HW226358   7.582   2.817   0.872
 8744SOL     OW26359   3.527   7.382   1.862
 8744SOL    HW126360   3.525   7.419   1.774
 8744SOL    HW226361   3.514   7.456   1.920
 8745SOL     OW26362   5.556   4.776   2.463
 8745SOL    HW126363   5.623   4.770   2.394
 8745SOL    HW226364   5.550   4.870   2.481
 8746SOL     OW26365   5.521   5.366   2.582
 8746SOL    HW126366   5.573   5.286   2.574
 8746SOL    HW226367   5.437   5.343   2.542
 8747SOL     OW26368   1.692   1.559   2.058
 8747SOL    HW126369   1.606   1.552   2.100
 8747SOL    HW226370   1.694   1.647   2.021
 8748SOL     OW26371   9.707   6.521   3.330
 8748SOL    HW126372   9.743   6.548   3.245
 8748SOL    HW226373   9.773   6.461   3.365
 8749SOL     OW26374   4.568   3.549   0.456
 8749SOL    HW126375   4.534   3.553   0.367
 8749SOL    HW226376   4.619   3.468   0.459
 8750SOL     OW26377   3.537   5.480   0.068
 8750SOL    HW126378   3.539   5.478   0.164
 8750SOL    HW226379   3.611   5.536   0.043
 8751SOL     OW26380   5.064   7.170   1.145
 8751SOL    HW126381   5.030   7.212   1.223
 8751SOL    HW226382   5.140   7.223   1.120
 8752SOL     OW26383   3.544   1.834   0.165
 8752SOL    HW126384   3.586   1.895   0.104
 8752SOL    HW226385   3.452   1.858   0.163
 8753SOL     OW26386  10.661   3.506   4.987
 8753SOL    HW126387  10.734   3.445   5.003
 8753SOL    HW226388  10.601   3.490   5.060
 8754SOL     OW26389  10.655   6.951   4.944
 8754SOL    HW126390  10.738   6.969   4.899
 8754SOL    HW226391  10.632   6.862   4.917
 8755SOL     OW26392   6.035   1.256   3.512
 8755SOL    HW126393   6.068   1.189   3.573
 8755SOL    HW226394   6.057   1.222   3.425
 8756SOL     OW26395   7.800   1.102   2.628
 8756SOL    HW126396   7.789   1.195   2.607
 8756SOL    HW226397   7.771   1.094   2.719
 8757SOL     OW26398   4.518   6.908   0.101
 8757SOL    HW126399   4.523   6.994   0.059
 8757SOL    HW226400   4.577   6.914   0.176
 8758SOL     OW26401   7.981   0.836   2.830
 8758SOL    HW126402   7.976   0.924   2.867
 8758SOL    HW226403   8.005   0.780   2.904
 8759SOL     OW26404   3.951   4.567   4.867
 8759SOL    HW126405   3.999   4.632   4.818
 8759SOL    HW226406   3.993   4.484   4.845
 8760SOL     OW26407   6.738   0.532   1.898
 8760SOL    HW126408   6.743   0.440   1.871
 8760SOL    HW226409   6.800   0.577   1.841
 8761SOL     OW26410   7.000   3.814   4.177
 8761SOL    HW126411   6.927   3.853   4.225
 8761SOL    HW226412   7.002   3.863   4.094
 8762SOL     OW26413   3.721   4.763   4.559
 8762SOL    HW126414   3.679   4.677   4.557
 8762SOL    HW226415   3.762   4.768   4.645
 8763SOL     OW26416   6.425   6.538   0.235
 8763SOL    HW126417   6.513   6.521   0.201
 8763SOL    HW226418   6.436   6.537   0.330
 8764SOL     OW26419  10.381   2.674   4.476
 8764SOL    HW126420  10.421   2.749   4.521
 8764SOL    HW226421  10.405   2.686   4.384
 8765SOL     OW26422   6.295   6.268   0.419
 8765SOL    HW126423   6.357   6.321   0.468
 8765SOL    HW226424   6.349   6.216   0.360
 8766SOL     OW26425   8.448   5.888   1.921
 8766SOL    HW126426   8.389   5.832   1.872
 8766SOL    HW226427   8.422   5.877   2.013
 8767SOL     OW26428   9.493   7.105   3.644
 8767SOL    HW126429   9.512   7.102   3.737
 8767SOL    HW226430   9.414   7.158   3.637
 8768SOL     OW26431   5.312   6.181   1.271
 8768SOL    HW126432   5.315   6.091   1.240
 8768SOL    HW226433   5.366   6.181   1.350
 8769SOL     OW26434   1.531   0.109   1.579
 8769SOL    HW126435   1.545   0.015   1.591
 8769SOL    HW226436   1.494   0.118   1.491
 8770SOL     OW26437   9.828   1.717   3.640
 8770SOL    HW126438   9.894   1.651   3.660
 8770SOL    HW226439   9.863   1.798   3.676
 8771SOL     OW26440   1.667   0.715   2.231
 8771SOL    HW126441   1.728   0.731   2.159
 8771SOL    HW226442   1.717   0.664   2.295
 8772SOL     OW26443   8.052   6.801   2.414
 8772SOL    HW126444   8.064   6.795   2.319
 8772SOL    HW226445   7.963   6.834   2.425
 8773SOL     OW26446   0.627   4.919   0.365
 8773SOL    HW126447   0.590   4.998   0.327
 8773SOL    HW226448   0.675   4.877   0.293
 8774SOL     OW26449   7.010   0.798   1.848
 8774SOL    HW126450   6.989   0.880   1.892
 8774SOL    HW226451   6.949   0.794   1.774
 8775SOL     OW26452   5.539   1.962   3.916
 8775SOL    HW126453   5.444   1.961   3.927
 8775SOL    HW226454   5.561   2.055   3.910
 8776SOL     OW26455   4.299   2.047   1.396
 8776SOL    HW126456   4.371   2.049   1.458
 8776SOL    HW226457   4.341   2.049   1.310
 8777SOL     OW26458   3.000   1.353   3.070
 8777SOL    HW126459   2.935   1.339   3.001
 8777SOL    HW226460   2.953   1.402   3.138
 8778SOL     OW26461   8.929   4.018   5.125
 8778SOL    HW126462   8.997   4.084   5.132
 8778SOL    HW226463   8.846   4.066   5.136
 8779SOL     OW26464   6.201   3.732   5.110
 8779SOL    HW126465   6.279   3.784   5.129
 8779SOL    HW226466   6.230   3.642   5.120
 8780SOL     OW26467   5.538   3.645   5.210
 8780SOL    HW126468   5.562   3.628   5.301
 8780SOL    HW226469   5.583   3.576   5.160
 8781SOL     OW26470   5.555   1.107   0.197
 8781SOL    HW126471   5.533   1.019   0.228
 8781SOL    HW226472   5.477   1.137   0.151
 8782SOL     OW26473   3.063   1.852   2.044
 8782SOL    HW126474   3.007   1.818   1.974
 8782SOL    HW226475   3.038   1.801   2.122
 8783SOL     OW26476   3.352   1.076   0.465
 8783SOL    HW126477   3.371   0.985   0.490
 8783SOL    HW226478   3.330   1.071   0.372
 8784SOL     OW26479   5.047   7.046   0.332
 8784SOL    HW126480   4.975   7.019   0.275
 8784SOL    HW226481   5.038   6.991   0.409
 8785SOL     OW26482  10.034   6.489   4.336
 8785SOL    HW126483  10.061   6.573   4.298
 8785SOL    HW226484   9.940   6.486   4.324
 8786SOL     OW26485   6.269   0.373   3.141
 8786SOL    HW126486   6.180   0.354   3.111
 8786SOL    HW226487   6.260   0.453   3.193
 8787SOL     OW26488   2.510   2.952   1.677
 8787SOL    HW126489   2.447   2.941   1.747
 8787SOL    HW226490   2.584   2.996   1.718
 8788SOL     OW26491   0.639   4.400   0.399
 8788SOL    HW126492   0.656   4.338   0.470
 8788SOL    HW226493   0.554   4.373   0.363
 8789SOL     OW26494   4.650   2.807   4.316
 8789SOL    HW126495   4.600   2.889   4.317
 8789SOL    HW226496   4.706   2.813   4.393
 8790SOL     OW26497   6.629   0.121   3.028
 8790SOL    HW126498   6.683   0.050   2.995
 8790SOL    HW226499   6.690   0.176   3.079
 8791SOL     OW26500   8.325   3.764   2.469
 8791SOL    HW126501   8.240   3.784   2.428
 8791SOL    HW226502   8.321   3.670   2.486
 8792SOL     OW26503   9.231   3.079   4.158
 8792SOL    HW126504   9.246   3.170   4.133
 8792SOL    HW226505   9.319   3.042   4.169
 8793SOL     OW26506   6.756   2.277   3.502
 8793SOL    HW126507   6.799   2.263   3.586
 8793SOL    HW226508   6.821   2.323   3.448
 8794SOL     OW26509   4.125   4.952   0.354
 8794SOL    HW126510   4.194   4.917   0.411
 8794SOL    HW226511   4.171   5.014   0.296
 8795SOL     OW26512   9.986   7.214   3.542
 8795SOL    HW126513   9.897   7.245   3.524
 8795SOL    HW226514   9.975   7.143   3.605
 8796SOL     OW26515   9.214   0.870   3.961
 8796SOL    HW126516   9.208   0.812   4.037
 8796SOL    HW226517   9.300   0.851   3.923
 8797SOL     OW26518  10.299   2.992   5.270
 8797SOL    HW126519  10.259   3.059   5.325
 8797SOL    HW226520  10.233   2.971   5.204
 8798SOL     OW26521   2.831   2.311   2.752
 8798SOL    HW126522   2.915   2.289   2.792
 8798SOL    HW226523   2.854   2.343   2.665
 8799SOL     OW26524   9.573   1.666   3.660
 8799SOL    HW126525   9.651   1.630   3.703
 8799SOL    HW226526   9.600   1.752   3.630
 8800SOL     OW26527   7.191   6.521   1.200
 8800SOL    HW126528   7.101   6.487   1.201
 8800SOL    HW226529   7.208   6.543   1.292
 8801SOL     OW26530   2.753   4.560   3.253
 8801SOL    HW126531   2.759   4.499   3.179
 8801SOL    HW226532   2.813   4.523   3.318
 8802SOL     OW26533   4.676   5.482   3.103
 8802SOL    HW126534   4.746   5.493   3.039
 8802SOL    HW226535   4.669   5.388   3.116
 8803SOL     OW26536   3.885   0.914   5.260
 8803SOL    HW126537   3.918   0.901   5.171
 8803SOL    HW226538   3.831   0.838   5.277
 8804SOL     OW26539   2.480   2.818   0.948
 8804SOL    HW126540   2.567   2.792   0.919
 8804SOL    HW226541   2.451   2.747   1.005
 8805SOL     OW26542   2.892   7.148   3.257
 8805SOL    HW126543   2.869   7.069   3.306
 8805SOL    HW226544   2.843   7.218   3.299
 8806SOL     OW26545   6.341   5.606   0.561
 8806SOL    HW126546   6.379   5.641   0.641
 8806SOL    HW226547   6.374   5.663   0.491
 8807SOL     OW26548   8.136   3.383   4.271
 8807SOL    HW126549   8.157   3.301   4.315
 8807SOL    HW226550   8.168   3.451   4.329
 8808SOL     OW26551   4.093   0.660   0.313
 8808SOL    HW126552   4.164   0.653   0.377
 8808SOL    HW226553   4.068   0.570   0.295
 8809SOL     OW26554   9.396   6.936   4.341
 8809SOL    HW126555   9.491   6.938   4.344
 8809SOL    HW226556   9.373   7.004   4.277
 8810SOL     OW26557   8.234   1.118   2.055
 8810SOL    HW126558   8.221   1.193   1.997
 8810SOL    HW226559   8.184   1.140   2.134
 8811SOL     OW26560   7.612   1.242   1.695
 8811SOL    HW126561   7.597   1.269   1.605
 8811SOL    HW226562   7.526   1.243   1.736
 8812SOL     OW26563   7.335   2.601   2.177
 8812SOL    HW126564   7.336   2.672   2.241
 8812SOL    HW226565   7.423   2.601   2.139
 8813SOL     OW26566   5.618   1.405   5.106
 8813SOL    HW126567   5.617   1.468   5.179
 8813SOL    HW226568   5.667   1.449   5.037
 8814SOL     OW26569   2.141   5.164   2.171
 8814SOL    HW126570   2.071   5.114   2.128
 8814SOL    HW226571   2.135   5.251   2.133
 8815SOL     OW26572   2.470   5.224   0.608
 8815SOL    HW126573   2.512   5.141   0.632
 8815SOL    HW226574   2.519   5.254   0.531
 8816SOL     OW26575   7.938   0.956   1.764
 8816SOL    HW126576   8.023   0.942   1.721
 8816SOL    HW226577   7.959   1.006   1.843
 8817SOL     OW26578   6.653   3.981   3.798
 8817SOL    HW126579   6.563   4.012   3.794
 8817SOL    HW226580   6.649   3.891   3.765
 8818SOL     OW26581   4.162   0.914   3.626
 8818SOL    HW126582   4.079   0.940   3.666
 8818SOL    HW226583   4.148   0.823   3.599
 8819SOL     OW26584   3.498   4.480   1.504
 8819SOL    HW126585   3.560   4.553   1.504
 8819SOL    HW226586   3.490   4.455   1.412
 8820SOL     OW26587   6.244   5.019   2.630
 8820SOL    HW126588   6.313   4.990   2.689
 8820SOL    HW226589   6.186   5.072   2.685
 8821SOL     OW26590   3.839   1.820   4.824
 8821SOL    HW126591   3.786   1.837   4.746
 8821SOL    HW226592   3.906   1.888   4.823
 8822SOL     OW26593   6.547   2.621   1.424
 8822SOL    HW126594   6.537   2.698   1.479
 8822SOL    HW226595   6.482   2.632   1.355
 8823SOL     OW26596   2.637   5.915   0.108
 8823SOL    HW126597   2.612   5.981   0.043
 8823SOL    HW226598   2.555   5.867   0.127
 8824SOL     OW26599   0.490   1.339   0.723
 8824SOL    HW126600   0.556   1.272   0.707
 8824SOL    HW226601   0.511   1.409   0.662
 8825SOL     OW26602   1.899   4.749   1.893
 8825SOL    HW126603   1.842   4.825   1.886
 8825SOL    HW226604   1.845   4.682   1.936
 8826SOL     OW26605   7.745   5.886   4.234
 8826SOL    HW126606   7.771   5.865   4.323
 8826SOL    HW226607   7.649   5.881   4.235
 8827SOL     OW26608   7.465   4.890   4.034
 8827SOL    HW126609   7.558   4.908   4.021
 8827SOL    HW226610   7.436   4.853   3.951
 8828SOL     OW26611   5.136   1.682   2.292
 8828SOL    HW126612   5.075   1.610   2.307
 8828SOL    HW226613   5.084   1.748   2.245
 8829SOL     OW26614   4.406   4.255   3.917
 8829SOL    HW126615   4.496   4.279   3.894
 8829SOL    HW226616   4.394   4.288   4.006
 8830SOL     OW26617   3.424   6.380   3.893
 8830SOL    HW126618   3.371   6.322   3.948
 8830SOL    HW226619   3.375   6.462   3.889
 8831SOL     OW26620   4.339   4.617   0.371
 8831SOL    HW126621   4.410   4.557   0.348
 8831SOL    HW226622   4.271   4.561   0.406
 8832SOL     OW26623   5.414   2.444   1.304
 8832SOL    HW126624   5.324   2.474   1.317
 8832SOL    HW226625   5.420   2.423   1.211
 8833SOL     OW26626   4.012   1.410   0.087
 8833SOL    HW126627   4.048   1.326   0.057
 8833SOL    HW226628   4.072   1.475   0.052
 8834SOL     OW26629   7.114   5.620   0.757
 8834SOL    HW126630   7.048   5.652   0.818
 8834SOL    HW226631   7.143   5.536   0.793
 8835SOL     OW26632   5.057  -0.017   4.682
 8835SOL    HW126633   4.983   0.011   4.736
 8835SOL    HW226634   5.134   0.016   4.727
 8836SOL     OW26635   8.334   5.535   4.548
 8836SOL    HW126636   8.322   5.441   4.536
 8836SOL    HW226637   8.392   5.542   4.623
 8837SOL     OW26638   7.686   4.965   5.053
 8837SOL    HW126639   7.756   4.942   4.991
 8837SOL    HW226640   7.611   4.913   5.026
 8838SOL     OW26641   5.522   2.893   3.529
 8838SOL    HW126642   5.511   2.816   3.585
 8838SOL    HW226643   5.471   2.873   3.451
 8839SOL     OW26644   3.593   4.920   3.317
 8839SOL    HW126645   3.555   4.840   3.279
 8839SOL    HW226646   3.583   4.908   3.412
 8840SOL     OW26647   9.220   4.751   4.525
 8840SOL    HW126648   9.264   4.673   4.492
 8840SOL    HW226649   9.210   4.807   4.448
 8841SOL     OW26650   4.131   4.488   5.100
 8841SOL    HW126651   4.081   4.439   5.035
 8841SOL    HW226652   4.217   4.445   5.102
 8842SOL     OW26653   6.941   0.912   1.002
 8842SOL    HW126654   6.953   0.842   0.938
 8842SOL    HW226655   6.850   0.939   0.992
 8843SOL     OW26656   8.964   3.050   4.863
 8843SOL    HW126657   8.934   3.014   4.947
 8843SOL    HW226658   9.032   2.989   4.834
 8844SOL     OW26659   5.867   7.088   2.512
 8844SOL    HW126660   5.803   7.075   2.442
 8844SOL    HW226661   5.924   7.157   2.480
 8845SOL     OW26662   1.530   5.963   1.417
 8845SOL    HW126663   1.559   5.976   1.327
 8845SOL    HW226664   1.534   6.050   1.457
 8846SOL     OW26665   4.643   4.913   0.231
 8846SOL    HW126666   4.548   4.917   0.229
 8846SOL    HW226667   4.667   4.941   0.320
 8847SOL     OW26668   6.416   3.901   0.646
 8847SOL    HW126669   6.358   3.905   0.570
 8847SOL    HW226670   6.379   3.963   0.708
 8848SOL     OW26671   2.974   3.992   0.868
 8848SOL    HW126672   3.064   4.023   0.854
 8848SOL    HW226673   2.921   4.071   0.862
 8849SOL     OW26674   4.074   3.594   2.465
 8849SOL    HW126675   4.039   3.653   2.532
 8849SOL    HW226676   4.109   3.520   2.513
 8850SOL     OW26677   4.839   1.267   4.106
 8850SOL    HW126678   4.746   1.276   4.129
 8850SOL    HW226679   4.859   1.175   4.125
 8851SOL     OW26680   4.453   3.542   0.222
 8851SOL    HW126681   4.432   3.614   0.163
 8851SOL    HW226682   4.478   3.470   0.164
 8852SOL     OW26683   3.854   1.714   1.413
 8852SOL    HW126684   3.933   1.717   1.358
 8852SOL    HW226685   3.876   1.766   1.490
 8853SOL     OW26686   8.642   0.234   5.145
 8853SOL    HW126687   8.710   0.166   5.151
 8853SOL    HW226688   8.675   0.295   5.078
 8854SOL     OW26689   7.379   1.111   4.037
 8854SOL    HW126690   7.331   1.028   4.045
 8854SOL    HW226691   7.430   1.116   4.118
 8855SOL     OW26692   8.274   2.043   2.904
 8855SOL    HW126693   8.182   2.042   2.877
 8855SOL    HW226694   8.312   2.116   2.856
 8856SOL     OW26695   6.593   3.314   0.044
 8856SOL    HW126696   6.510   3.266   0.049
 8856SOL    HW226697   6.608   3.345   0.134
 8857SOL     OW26698   6.832   4.705   3.687
 8857SOL    HW126699   6.873   4.747   3.763
 8857SOL    HW226700   6.877   4.621   3.678
 8858SOL     OW26701   3.809   4.861   4.198
 8858SOL    HW126702   3.748   4.804   4.151
 8858SOL    HW226703   3.766   4.875   4.283
 8859SOL     OW26704   4.102   2.015   2.470
 8859SOL    HW126705   4.088   2.100   2.428
 8859SOL    HW226706   4.036   1.958   2.432
 8860SOL     OW26707   9.653   2.387   3.157
 8860SOL    HW126708   9.619   2.393   3.246
 8860SOL    HW226709   9.590   2.435   3.104
 8861SOL     OW26710   6.251   7.029   3.903
 8861SOL    HW126711   6.172   6.977   3.918
 8861SOL    HW226712   6.307   6.972   3.851
 8862SOL     OW26713   3.700   4.614   1.204
 8862SOL    HW126714   3.763   4.649   1.140
 8862SOL    HW226715   3.740   4.633   1.289
 8863SOL     OW26716   7.980   2.690   4.641
 8863SOL    HW126717   8.040   2.763   4.654
 8863SOL    HW226718   8.034   2.612   4.652
 8864SOL     OW26719   8.691   0.272   3.258
 8864SOL    HW126720   8.765   0.211   3.266
 8864SOL    HW226721   8.653   0.275   3.346
 8865SOL     OW26722   8.219   6.213   3.812
 8865SOL    HW126723   8.188   6.159   3.739
 8865SOL    HW226724   8.156   6.198   3.882
 8866SOL     OW26725   6.016   4.899   0.061
 8866SOL    HW126726   6.083   4.866   0.001
 8866SOL    HW226727   5.951   4.940   0.003
 8867SOL     OW26728   1.884   6.543   1.001
 8867SOL    HW126729   1.808   6.495   1.033
 8867SOL    HW226730   1.918   6.587   1.079
 8868SOL     OW26731   2.760   5.712   0.367
 8868SOL    HW126732   2.671   5.731   0.396
 8868SOL    HW226733   2.755   5.624   0.331
 8869SOL     OW26734   8.811   4.579   2.595
 8869SOL    HW126735   8.774   4.490   2.592
 8869SOL    HW226736   8.904   4.566   2.577
 8870SOL     OW26737   5.201   7.225   5.211
 8870SOL    HW126738   5.119   7.240   5.258
 8870SOL    HW226739   5.246   7.158   5.263
 8871SOL     OW26740   6.939   5.731   0.943
 8871SOL    HW126741   6.900   5.714   1.029
 8871SOL    HW226742   6.869   5.774   0.893
 8872SOL     OW26743  10.267   4.327   4.919
 8872SOL    HW126744  10.313   4.408   4.941
 8872SOL    HW226745  10.176   4.354   4.903
 8873SOL     OW26746   4.301   5.335   2.644
 8873SOL    HW126747   4.368   5.271   2.670
 8873SOL    HW226748   4.241   5.338   2.719
 8874SOL     OW26749   5.675   7.193   0.703
 8874SOL    HW126750   5.705   7.272   0.748
 8874SOL    HW226751   5.614   7.152   0.765
 8875SOL     OW26752   3.300   0.765   0.451
 8875SOL    HW126753   3.313   0.672   0.433
 8875SOL    HW226754   3.355   0.810   0.386
 8876SOL     OW26755   5.103   2.400   5.036
 8876SOL    HW126756   5.109   2.305   5.025
 8876SOL    HW226757   5.033   2.413   5.100
 8877SOL     OW26758   5.228   2.346   0.915
 8877SOL    HW126759   5.322   2.353   0.900
 8877SOL    HW226760   5.220   2.297   0.997
 8878SOL     OW26761   7.285   5.790   2.198
 8878SOL    HW126762   7.206   5.819   2.152
 8878SOL    HW226763   7.322   5.722   2.141
 8879SOL     OW26764   7.500   2.484   1.170
 8879SOL    HW126765   7.493   2.561   1.113
 8879SOL    HW226766   7.412   2.447   1.171
 8880SOL     OW26767   9.104   4.502   4.595
 8880SOL    HW126768   9.096   4.590   4.558
 8880SOL    HW226769   9.176   4.461   4.546
 8881SOL     OW26770   2.263   1.092   2.899
 8881SOL    HW126771   2.173   1.124   2.898
 8881SOL    HW226772   2.308   1.148   2.963
 8882SOL     OW26773  10.467   4.934   5.187
 8882SOL    HW126774  10.557   4.959   5.208
 8882SOL    HW226775  10.414   5.008   5.215
 8883SOL     OW26776   4.114   1.852   1.387
 8883SOL    HW126777   4.183   1.918   1.391
 8883SOL    HW226778   4.083   1.856   1.296
 8884SOL     OW26779   8.676   1.000   1.964
 8884SOL    HW126780   8.587   0.967   1.969
 8884SOL    HW226781   8.731   0.925   1.990
 8885SOL     OW26782   8.097   7.292   1.497
 8885SOL    HW126783   8.016   7.327   1.459
 8885SOL    HW226784   8.149   7.265   1.422
 8886SOL     OW26785   4.681   2.523   0.652
 8886SOL    HW126786   4.590   2.515   0.681
 8886SOL    HW226787   4.675   2.528   0.556
 8887SOL     OW26788   1.473   4.578   1.582
 8887SOL    HW126789   1.562   4.553   1.606
 8887SOL    HW226790   1.448   4.514   1.515
 8888SOL     OW26791   0.761   5.233   0.996
 8888SOL    HW126792   0.756   5.314   0.944
 8888SOL    HW226793   0.695   5.176   0.957
 8889SOL     OW26794   6.007   0.721   3.810
 8889SOL    HW126795   6.051   0.637   3.800
 8889SOL    HW226796   6.035   0.753   3.896
 8890SOL     OW26797   6.145   2.998   1.482
 8890SOL    HW126798   6.139   3.051   1.402
 8890SOL    HW226799   6.165   3.061   1.551
 8891SOL     OW26800   4.471   5.329   2.904
 8891SOL    HW126801   4.477   5.251   2.960
 8891SOL    HW226802   4.544   5.320   2.843
 8892SOL     OW26803   4.277   5.998   0.249
 8892SOL    HW126804   4.187   6.022   0.226
 8892SOL    HW226805   4.325   6.081   0.250
 8893SOL     OW26806   6.115   3.892   0.356
 8893SOL    HW126807   6.195   3.840   0.348
 8893SOL    HW226808   6.106   3.936   0.271
 8894SOL     OW26809   4.628   3.944   1.383
 8894SOL    HW126810   4.639   3.894   1.301
 8894SOL    HW226811   4.551   3.998   1.368
 8895SOL     OW26812   3.833   0.552   2.327
 8895SOL    HW126813   3.857   0.464   2.298
 8895SOL    HW226814   3.912   0.585   2.370
 8896SOL     OW26815   7.626   4.074   5.146
 8896SOL    HW126816   7.590   4.035   5.067
 8896SOL    HW226817   7.660   4.159   5.118
 8897SOL     OW26818   8.615   6.077   4.101
 8897SOL    HW126819   8.644   6.167   4.084
 8897SOL    HW226820   8.696   6.025   4.099
 8898SOL     OW26821   7.710   5.164   0.548
 8898SOL    HW126822   7.616   5.177   0.549
 8898SOL    HW226823   7.742   5.229   0.485
 8899SOL     OW26824   3.875   4.892   0.533
 8899SOL    HW126825   3.827   4.963   0.492
 8899SOL    HW226826   3.809   4.825   0.550
 8900SOL     OW26827   9.605   5.142   4.199
 8900SOL    HW126828   9.515   5.156   4.169
 8900SOL    HW226829   9.641   5.230   4.209
 8901SOL     OW26830   2.592   0.433   1.572
 8901SOL    HW126831   2.534   0.357   1.563
 8901SOL    HW226832   2.669   0.399   1.616
 8902SOL     OW26833  10.487   3.062   4.908
 8902SOL    HW126834  10.415   3.000   4.922
 8902SOL    HW226835  10.443   3.146   4.892
 8903SOL     OW26836   5.958   7.314   2.935
 8903SOL    HW126837   5.877   7.357   2.963
 8903SOL    HW226838   5.938   7.221   2.938
 8904SOL     OW26839   4.632   5.755   1.421
 8904SOL    HW126840   4.597   5.776   1.508
 8904SOL    HW226841   4.588   5.673   1.398
 8905SOL     OW26842   5.696   4.585   0.218
 8905SOL    HW126843   5.677   4.494   0.242
 8905SOL    HW226844   5.728   4.625   0.299
 8906SOL     OW26845   4.183   4.130   4.879
 8906SOL    HW126846   4.133   4.092   4.951
 8906SOL    HW226847   4.266   4.083   4.880
 8907SOL     OW26848   5.066   3.564   0.452
 8907SOL    HW126849   5.082   3.494   0.389
 8907SOL    HW226850   5.107   3.533   0.533
 8908SOL     OW26851   4.531   5.599   2.346
 8908SOL    HW126852   4.453   5.547   2.366
 8908SOL    HW226853   4.551   5.578   2.255
 8909SOL     OW26854   4.078   3.524   1.071
 8909SOL    HW126855   3.984   3.512   1.057
 8909SOL    HW226856   4.106   3.445   1.116
 8910SOL     OW26857   2.618   3.469   0.852
 8910SOL    HW126858   2.659   3.435   0.772
 8910SOL    HW226859   2.540   3.516   0.821
 8911SOL     OW26860   9.384   3.904   3.735
 8911SOL    HW126861   9.460   3.878   3.683
 8911SOL    HW226862   9.382   3.841   3.807
 8912SOL     OW26863   7.105   4.944   1.231
 8912SOL    HW126864   7.072   5.033   1.245
 8912SOL    HW226865   7.091   4.900   1.315
 8913SOL     OW26866   3.111   7.253   4.073
 8913SOL    HW126867   3.176   7.323   4.064
 8913SOL    HW226868   3.060   7.256   3.992
 8914SOL     OW26869   1.758   1.649   0.340
 8914SOL    HW126870   1.753   1.743   0.325
 8914SOL    HW226871   1.735   1.610   0.255
 8915SOL     OW26872   4.561   4.576   4.939
 8915SOL    HW126873   4.496   4.508   4.958
 8915SOL    HW226874   4.624   4.570   5.011
 8916SOL     OW26875   4.671   2.321   4.157
 8916SOL    HW126876   4.737   2.296   4.092
 8916SOL    HW226877   4.627   2.239   4.178
 8917SOL     OW26878   7.950   5.177   4.037
 8917SOL    HW126879   7.967   5.215   3.951
 8917SOL    HW226880   8.035   5.147   4.068
 8918SOL     OW26881   2.914   4.427   3.083
 8918SOL    HW126882   2.976   4.386   3.143
 8918SOL    HW226883   2.900   4.361   3.015
 8919SOL     OW26884   3.471   6.697   2.877
 8919SOL    HW126885   3.488   6.743   2.795
 8919SOL    HW226886   3.548   6.642   2.890
 8920SOL     OW26887   7.189   2.164   3.222
 8920SOL    HW126888   7.215   2.146   3.132
 8920SOL    HW226889   7.097   2.139   3.226
 8921SOL     OW26890   3.494   6.680   1.272
 8921SOL    HW126891   3.501   6.612   1.338
 8921SOL    HW226892   3.407   6.719   1.287
 8922SOL     OW26893   4.085   2.252   3.178
 8922SOL    HW126894   4.038   2.333   3.201
 8922SOL    HW226895   4.116   2.267   3.089
 8923SOL     OW26896  10.780   7.200   5.153
 8923SOL    HW126897  10.688   7.205   5.182
 8923SOL    HW226898  10.797   7.107   5.143
 8924SOL     OW26899   3.531   5.400   2.018
 8924SOL    HW126900   3.565   5.425   2.104
 8924SOL    HW226901   3.471   5.470   1.993
 8925SOL     OW26902   1.179   1.645   1.274
 8925SOL    HW126903   1.124   1.611   1.204
 8925SOL    HW226904   1.222   1.722   1.236
 8926SOL     OW26905   4.289   3.005   2.364
 8926SOL    HW126906   4.329   3.040   2.284
 8926SOL    HW226907   4.195   3.012   2.349
 8927SOL     OW26908   7.231   3.159   0.433
 8927SOL    HW126909   7.181   3.145   0.353
 8927SOL    HW226910   7.276   3.242   0.418
 8928SOL     OW26911   4.148   6.466   2.561
 8928SOL    HW126912   4.207   6.535   2.591
 8928SOL    HW226913   4.076   6.513   2.519
 8929SOL     OW26914  10.831   4.231   4.811
 8929SOL    HW126915  10.759   4.247   4.872
 8929SOL    HW226916  10.860   4.141   4.830
 8930SOL     OW26917   3.710   4.991   1.994
 8930SOL    HW126918   3.788   5.032   2.033
 8930SOL    HW226919   3.643   4.996   2.062
 8931SOL     OW26920   5.008   2.876   4.795
 8931SOL    HW126921   5.095   2.850   4.765
 8931SOL    HW226922   5.022   2.959   4.840
 8932SOL     OW26923   6.109   6.501   3.866
 8932SOL    HW126924   6.177   6.495   3.799
 8932SOL    HW226925   6.078   6.411   3.876
 8933SOL     OW26926   4.973   0.061   2.147
 8933SOL    HW126927   4.982   0.003   2.222
 8933SOL    HW226928   4.908   0.018   2.091
 8934SOL     OW26929   8.898   3.657   5.098
 8934SOL    HW126930   8.879   3.695   5.184
 8934SOL    HW226931   8.962   3.588   5.115
 8935SOL     OW26932   3.802   1.709   4.117
 8935SOL    HW126933   3.830   1.622   4.091
 8935SOL    HW226934   3.840   1.767   4.052
 8936SOL     OW26935   3.424   1.323   1.327
 8936SOL    HW126936   3.465   1.409   1.326
 8936SOL    HW226937   3.413   1.303   1.420
 8937SOL     OW26938   8.276   5.841   4.535
 8937SOL    HW126939   8.187   5.857   4.502
 8937SOL    HW226940   8.299   5.754   4.501
 8938SOL     OW26941   4.446   6.621   1.850
 8938SOL    HW126942   4.491   6.544   1.884
 8938SOL    HW226943   4.465   6.691   1.913
 8939SOL     OW26944   7.212   0.227   3.651
 8939SOL    HW126945   7.260   0.238   3.568
 8939SOL    HW226946   7.161   0.147   3.639
 8940SOL     OW26947  10.524   4.900   4.877
 8940SOL    HW126948  10.473   4.888   4.958
 8940SOL    HW226949  10.544   4.811   4.848
 8941SOL     OW26950   7.756   3.209   3.326
 8941SOL    HW126951   7.806   3.238   3.402
 8941SOL    HW226952   7.820   3.208   3.255
 8942SOL     OW26953   4.132   5.088   1.388
 8942SOL    HW126954   4.107   5.151   1.457
 8942SOL    HW226955   4.227   5.099   1.380
 8943SOL     OW26956   4.551   6.062   2.947
 8943SOL    HW126957   4.589   6.010   3.017
 8943SOL    HW226958   4.485   6.004   2.907
 8944SOL     OW26959   2.954   6.508   0.569
 8944SOL    HW126960   2.910   6.508   0.654
 8944SOL    HW226961   2.980   6.599   0.556
 8945SOL     OW26962   6.619   1.846   3.869
 8945SOL    HW126963   6.713   1.861   3.854
 8945SOL    HW226964   6.610   1.847   3.964
 8946SOL     OW26965   6.626   3.270   1.419
 8946SOL    HW126966   6.669   3.204   1.473
 8946SOL    HW226967   6.583   3.328   1.482
 8947SOL     OW26968   7.235   3.027   1.478
 8947SOL    HW126969   7.151   3.043   1.522
 8947SOL    HW226970   7.297   3.085   1.522
 8948SOL     OW26971   5.143   3.443   2.008
 8948SOL    HW126972   5.066   3.450   1.952
 8948SOL    HW226973   5.203   3.387   1.960
 8949SOL     OW26974   7.812   6.961   2.016
 8949SOL    HW126975   7.813   6.902   1.940
 8949SOL    HW226976   7.905   6.978   2.034
 8950SOL     OW26977   7.726   5.270   3.758
 8950SOL    HW126978   7.664   5.246   3.827
 8950SOL    HW226979   7.809   5.231   3.785
 8951SOL     OW26980   5.077   3.702   4.655
 8951SOL    HW126981   5.081   3.753   4.736
 8951SOL    HW226982   5.019   3.751   4.598
 8952SOL     OW26983   0.858   5.164   0.205
 8952SOL    HW126984   0.903   5.242   0.240
 8952SOL    HW226985   0.896   5.091   0.254
 8953SOL     OW26986   0.356   0.509   0.444
 8953SOL    HW126987   0.376   0.591   0.490
 8953SOL    HW226988   0.290   0.467   0.499
 8954SOL     OW26989   5.486   4.259   2.111
 8954SOL    HW126990   5.419   4.318   2.146
 8954SOL    HW226991   5.521   4.305   2.035
 8955SOL     OW26992  10.366   0.871   4.951
 8955SOL    HW126993  10.396   0.836   4.867
 8955SOL    HW226994  10.440   0.924   4.982
 8956SOL     OW26995   6.101   3.665   1.643
 8956SOL    HW126996   6.033   3.727   1.617
 8956SOL    HW226997   6.153   3.652   1.564
 8957SOL     OW26998   8.268   6.912   1.530
 8957SOL    HW126999   8.172   6.913   1.531
 8957SOL    HW227000   8.293   6.986   1.586
 8958SOL     OW27001   9.200   4.492   3.698
 8958SOL    HW127002   9.178   4.398   3.698
 8958SOL    HW227003   9.159   4.526   3.778
 8959SOL     OW27004   7.000   1.912   0.577
 8959SOL    HW127005   6.953   1.831   0.554
 8959SOL    HW227006   6.932   1.972   0.605
 8960SOL     OW27007   5.555   1.599   3.410
 8960SOL    HW127008   5.540   1.558   3.325
 8960SOL    HW227009   5.484   1.663   3.418
 8961SOL     OW27010   3.362   3.339   0.636
 8961SOL    HW127011   3.380   3.347   0.730
 8961SOL    HW227012   3.270   3.313   0.631
 8962SOL     OW27013   7.128   2.564   4.789
 8962SOL    HW127014   7.195   2.609   4.840
 8962SOL    HW227015   7.150   2.471   4.796
 8963SOL     OW27016   8.026   4.976   4.286
 8963SOL    HW127017   8.074   4.937   4.213
 8963SOL    HW227018   7.949   4.920   4.296
 8964SOL     OW27019   6.353   2.830   1.872
 8964SOL    HW127020   6.417   2.866   1.934
 8964SOL    HW227021   6.361   2.735   1.882
 8965SOL     OW27022   2.140   4.134   2.910
 8965SOL    HW127023   2.073   4.191   2.872
 8965SOL    HW227024   2.223   4.176   2.888
 8966SOL     OW27025   4.418   0.805   2.781
 8966SOL    HW127026   4.489   0.766   2.730
 8966SOL    HW227027   4.345   0.813   2.720
 8967SOL     OW27028   4.607   0.985   5.029
 8967SOL    HW127029   4.629   0.964   5.120
 8967SOL    HW227030   4.629   1.077   5.020
 8968SOL     OW27031   5.194   5.869   0.466
 8968SOL    HW127032   5.217   5.793   0.521
 8968SOL    HW227033   5.148   5.830   0.392
 8969SOL     OW27034   7.083   4.330   5.016
 8969SOL    HW127035   6.996   4.342   4.979
 8969SOL    HW227036   7.135   4.294   4.944
 8970SOL     OW27037   6.171   0.402   2.289
 8970SOL    HW127038   6.160   0.437   2.201
 8970SOL    HW227039   6.172   0.480   2.346
 8971SOL     OW27040   9.079   2.274   4.063
 8971SOL    HW127041   9.009   2.291   4.000
 8971SOL    HW227042   9.119   2.359   4.079
 8972SOL     OW27043   7.159   0.206   1.979
 8972SOL    HW127044   7.106   0.139   1.936
 8972SOL    HW227045   7.195   0.163   2.056
 8973SOL     OW27046   9.138   6.056   4.821
 8973SOL    HW127047   9.162   5.964   4.806
 8973SOL    HW227048   9.052   6.065   4.782
 8974SOL     OW27049   5.581   6.521   0.711
 8974SOL    HW127050   5.518   6.525   0.639
 8974SOL    HW227051   5.665   6.541   0.669
 8975SOL     OW27052   3.352   2.091   0.935
 8975SOL    HW127053   3.297   2.168   0.921
 8975SOL    HW227054   3.339   2.038   0.857
 8976SOL     OW27055   4.180   6.234   3.568
 8976SOL    HW127056   4.139   6.312   3.604
 8976SOL    HW227057   4.245   6.209   3.633
 8977SOL     OW27058   3.795   2.724   1.664
 8977SOL    HW127059   3.782   2.635   1.696
 8977SOL    HW227060   3.770   2.720   1.571
 8978SOL     OW27061   6.221   3.994   4.608
 8978SOL    HW127062   6.204   3.997   4.702
 8978SOL    HW227063   6.247   3.904   4.591
 8979SOL     OW27064   3.128   3.069   3.037
 8979SOL    HW127065   3.109   2.985   2.994
 8979SOL    HW227066   3.082   3.134   2.984
 8980SOL     OW27067   8.019   2.421   1.298
 8980SOL    HW127068   8.042   2.407   1.206
 8980SOL    HW227069   8.042   2.513   1.314
 8981SOL     OW27070   8.504   0.358   2.056
 8981SOL    HW127071   8.448   0.347   1.979
 8981SOL    HW227072   8.445   0.349   2.131
 8982SOL     OW27073   3.369   1.442   1.592
 8982SOL    HW127074   3.412   1.392   1.661
 8982SOL    HW227075   3.398   1.532   1.605
 8983SOL     OW27076   9.206   7.427   3.364
 8983SOL    HW127077   9.278   7.456   3.419
 8983SOL    HW227078   9.241   7.352   3.316
 8984SOL     OW27079   3.845   4.677   1.971
 8984SOL    HW127080   3.763   4.699   1.928
 8984SOL    HW227081   3.892   4.623   1.908
 8985SOL     OW27082   4.795   4.002   4.957
 8985SOL    HW127083   4.856   4.075   4.952
 8985SOL    HW227084   4.778   3.979   4.865
 8986SOL     OW27085   4.005   4.447   0.448
 8986SOL    HW127086   3.984   4.460   0.541
 8986SOL    HW227087   4.094   4.411   0.449
 8987SOL     OW27088   6.471   6.440   1.623
 8987SOL    HW127089   6.561   6.434   1.654
 8987SOL    HW227090   6.417   6.426   1.700
 8988SOL     OW27091   7.441   7.413   3.801
 8988SOL    HW127092   7.366   7.447   3.849
 8988SOL    HW227093   7.515   7.466   3.830
 8989SOL     OW27094   2.406   2.450   2.168
 8989SOL    HW127095   2.398   2.446   2.263
 8989SOL    HW227096   2.368   2.367   2.137
 8990SOL     OW27097   6.317   0.077   3.386
 8990SOL    HW127098   6.271   0.082   3.470
 8990SOL    HW227099   6.249   0.058   3.322
 8991SOL     OW27100   2.280   5.088   0.892
 8991SOL    HW127101   2.254   5.170   0.851
 8991SOL    HW227102   2.202   5.033   0.887
 8992SOL     OW27103   9.746   6.357   3.878
 8992SOL    HW127104   9.826   6.399   3.907
 8992SOL    HW227105   9.693   6.349   3.957
 8993SOL     OW27106  10.395   1.250   4.644
 8993SOL    HW127107  10.454   1.175   4.638
 8993SOL    HW227108  10.365   1.249   4.735
 8994SOL     OW27109   2.169   4.837   2.855
 8994SOL    HW127110   2.203   4.795   2.934
 8994SOL    HW227111   2.247   4.862   2.805
 8995SOL     OW27112   6.975   1.405   1.671
 8995SOL    HW127113   6.939   1.316   1.672
 8995SOL    HW227114   7.056   1.398   1.721
 8996SOL     OW27115   7.547   2.932   5.137
 8996SOL    HW127116   7.556   2.881   5.056
 8996SOL    HW227117   7.483   3.000   5.115
 8997SOL     OW27118   6.511   1.675   1.463
 8997SOL    HW127119   6.506   1.721   1.547
 8997SOL    HW227120   6.421   1.653   1.442
 8998SOL     OW27121   5.182   4.006   5.069
 8998SOL    HW127122   5.207   4.069   5.137
 8998SOL    HW227123   5.110   3.956   5.108
 8999SOL     OW27124   1.342   2.804   0.806
 8999SOL    HW127125   1.370   2.882   0.854
 8999SOL    HW227126   1.422   2.770   0.766
 9000SOL     OW27127   6.275   3.713   4.513
 9000SOL    HW127128   6.194   3.676   4.547
 9000SOL    HW227129   6.344   3.658   4.550
 9001SOL     OW27130   8.156   1.781   2.907
 9001SOL    HW127131   8.175   1.875   2.915
 9001SOL    HW227132   8.194   1.743   2.986
 9002SOL     OW27133   7.303   4.178   3.802
 9002SOL    HW127134   7.284   4.087   3.778
 9002SOL    HW227135   7.335   4.173   3.892
 9003SOL     OW27136   8.755   6.841   3.982
 9003SOL    HW127137   8.709   6.786   3.918
 9003SOL    HW227138   8.778   6.782   4.053
 9004SOL     OW27139   3.814   4.299   2.974
 9004SOL    HW127140   3.771   4.335   2.896
 9004SOL    HW227141   3.815   4.204   2.959
 9005SOL     OW27142   1.421   4.836   0.301
 9005SOL    HW127143   1.483   4.765   0.322
 9005SOL    HW227144   1.416   4.836   0.206
 9006SOL     OW27145   7.624   7.140   2.078
 9006SOL    HW127146   7.684   7.071   2.049
 9006SOL    HW227147   7.575   7.164   1.999
 9007SOL     OW27148   0.697   1.623   0.129
 9007SOL    HW127149   0.720   1.590   0.042
 9007SOL    HW227150   0.725   1.715   0.127
 9008SOL     OW27151   0.726   6.412   0.610
 9008SOL    HW127152   0.702   6.504   0.608
 9008SOL    HW227153   0.681   6.377   0.688
 9009SOL     OW27154   2.511   3.193   3.469
 9009SOL    HW127155   2.447   3.137   3.515
 9009SOL    HW227156   2.502   3.279   3.510
 9010SOL     OW27157   4.357   0.987   0.308
 9010SOL    HW127158   4.384   0.895   0.311
 9010SOL    HW227159   4.277   0.986   0.256
 9011SOL     OW27160   8.312   4.669   1.540
 9011SOL    HW127161   8.245   4.720   1.586
 9011SOL    HW227162   8.267   4.589   1.513
 9012SOL     OW27163   2.300   3.618   0.868
 9012SOL    HW127164   2.306   3.684   0.798
 9012SOL    HW227165   2.274   3.668   0.946
 9013SOL     OW27166   6.197   2.419   1.669
 9013SOL    HW127167   6.114   2.432   1.623
 9013SOL    HW227168   6.185   2.338   1.719
 9014SOL     OW27169   8.953   1.862   2.210
 9014SOL    HW127170   8.988   1.914   2.283
 9014SOL    HW227171   8.878   1.912   2.179
 9015SOL     OW27172   5.275   6.510   4.203
 9015SOL    HW127173   5.298   6.490   4.112
 9015SOL    HW227174   5.257   6.425   4.243
 9016SOL     OW27175   6.663   5.108  -0.007
 9016SOL    HW127176   6.607   5.051   0.046
 9016SOL    HW227177   6.740   5.123   0.049
 9017SOL     OW27178   3.949   6.265   0.535
 9017SOL    HW127179   3.883   6.314   0.485
 9017SOL    HW227180   3.972   6.191   0.479
 9018SOL     OW27181   3.986   0.231   2.731
 9018SOL    HW127182   3.943   0.273   2.806
 9018SOL    HW227183   4.068   0.279   2.721
 9019SOL     OW27184   6.479   4.775   2.130
 9019SOL    HW127185   6.525   4.754   2.212
 9019SOL    HW227186   6.520   4.718   2.065
 9020SOL     OW27187   5.138   0.196   0.298
 9020SOL    HW127188   5.209   0.142   0.332
 9020SOL    HW227189   5.060   0.142   0.307
 9021SOL     OW27190   4.990   3.216   4.343
 9021SOL    HW127191   4.984   3.273   4.420
 9021SOL    HW227192   4.924   3.148   4.357
 9022SOL     OW27193   7.012   2.585   4.399
 9022SOL    HW127194   6.982   2.544   4.480
 9022SOL    HW227195   6.934   2.632   4.367
 9023SOL     OW27196   8.894   2.428   3.898
 9023SOL    HW127197   8.826   2.364   3.919
 9023SOL    HW227198   8.850   2.513   3.899
 9024SOL     OW27199   9.237   4.178   4.206
 9024SOL    HW127200   9.291   4.125   4.147
 9024SOL    HW227201   9.271   4.158   4.293
 9025SOL     OW27202   1.735   3.198   0.628
 9025SOL    HW127203   1.707   3.131   0.689
 9025SOL    HW227204   1.820   3.168   0.596
 9026SOL     OW27205  10.092   2.256   3.959
 9026SOL    HW127206  10.066   2.261   4.051
 9026SOL    HW227207  10.076   2.344   3.925
 9027SOL     OW27208   5.447   2.775   4.024
 9027SOL    HW127209   5.481   2.839   4.087
 9027SOL    HW227210   5.367   2.742   4.065
 9028SOL     OW27211   6.530   6.223   3.212
 9028SOL    HW127212   6.510   6.133   3.240
 9028SOL    HW227213   6.490   6.230   3.126
 9029SOL     OW27214   6.287   5.093   4.810
 9029SOL    HW127215   6.204   5.140   4.795
 9029SOL    HW227216   6.355   5.154   4.782
 9030SOL     OW27217   2.221   1.814   2.388
 9030SOL    HW127218   2.285   1.757   2.430
 9030SOL    HW227219   2.149   1.756   2.364
 9031SOL     OW27220   9.497   6.027   4.434
 9031SOL    HW127221   9.429   5.972   4.472
 9031SOL    HW227222   9.557   5.966   4.392
 9032SOL     OW27223   8.505   1.743   2.611
 9032SOL    HW127224   8.591   1.711   2.638
 9032SOL    HW227225   8.515   1.763   2.518
 9033SOL     OW27226   7.803   1.233   3.120
 9033SOL    HW127227   7.868   1.279   3.173
 9033SOL    HW227228   7.771   1.163   3.176
 9034SOL     OW27229   7.607   4.755   1.695
 9034SOL    HW127230   7.530   4.725   1.745
 9034SOL    HW227231   7.673   4.687   1.712
 9035SOL     OW27232  10.017   5.832   4.463
 9035SOL    HW127233   9.953   5.854   4.530
 9035SOL    HW227234  10.098   5.814   4.511
 9036SOL     OW27235   4.281   3.460   4.768
 9036SOL    HW127236   4.337   3.382   4.776
 9036SOL    HW227237   4.328   3.516   4.707
 9037SOL     OW27238   9.254   5.615   3.003
 9037SOL    HW127239   9.206   5.533   2.986
 9037SOL    HW227240   9.208   5.654   3.077
 9038SOL     OW27241   4.740   7.455   4.810
 9038SOL    HW127242   4.802   7.394   4.770
 9038SOL    HW227243   4.793   7.530   4.836
 9039SOL     OW27244   1.790   3.571   1.406
 9039SOL    HW127245   1.882   3.587   1.383
 9039SOL    HW227246   1.765   3.497   1.350
 9040SOL     OW27247   3.442   3.813   3.495
 9040SOL    HW127248   3.411   3.890   3.446
 9040SOL    HW227249   3.523   3.788   3.452
 9041SOL     OW27250   8.377   4.691   5.199
 9041SOL    HW127251   8.405   4.649   5.281
 9041SOL    HW227252   8.435   4.654   5.132
 9042SOL     OW27253   3.799   5.573   4.622
 9042SOL    HW127254   3.755   5.634   4.681
 9042SOL    HW227255   3.797   5.617   4.537
 9043SOL     OW27256   3.618   7.214   3.601
 9043SOL    HW127257   3.627   7.237   3.693
 9043SOL    HW227258   3.696   7.162   3.582
 9044SOL     OW27259   7.446   1.687   4.275
 9044SOL    HW127260   7.476   1.778   4.284
 9044SOL    HW227261   7.413   1.681   4.186
 9045SOL     OW27262   2.477   3.830   2.370
 9045SOL    HW127263   2.422   3.904   2.344
 9045SOL    HW227264   2.549   3.869   2.419
 9046SOL     OW27265   1.761   4.331   1.277
 9046SOL    HW127266   1.788   4.369   1.193
 9046SOL    HW227267   1.816   4.253   1.286
 9047SOL     OW27268   6.535   3.399   1.686
 9047SOL    HW127269   6.452   3.419   1.642
 9047SOL    HW227270   6.529   3.447   1.769
 9048SOL     OW27271   3.505   1.246   4.719
 9048SOL    HW127272   3.442   1.245   4.647
 9048SOL    HW227273   3.488   1.165   4.767
 9049SOL     OW27274   3.475   6.720   4.482
 9049SOL    HW127275   3.505   6.739   4.393
 9049SOL    HW227276   3.426   6.638   4.473
 9050SOL     OW27277   7.975   4.671   5.048
 9050SOL    HW127278   8.069   4.685   5.033
 9050SOL    HW227279   7.970   4.595   5.105
 9051SOL     OW27280   4.014   2.179   0.688
 9051SOL    HW127281   3.919   2.168   0.681
 9051SOL    HW227282   4.050   2.101   0.644
 9052SOL     OW27283   8.010   0.231   2.902
 9052SOL    HW127284   7.976   0.143   2.882
 9052SOL    HW227285   8.031   0.228   2.995
 9053SOL     OW27286   4.132   5.171   2.070
 9053SOL    HW127287   4.042   5.140   2.079
 9053SOL    HW227288   4.153   5.210   2.155
 9054SOL     OW27289   4.337   0.859   2.232
 9054SOL    HW127290   4.301   0.880   2.318
 9054SOL    HW227291   4.312   0.934   2.177
 9055SOL     OW27292   2.355   1.499   1.442
 9055SOL    HW127293   2.396   1.503   1.529
 9055SOL    HW227294   2.368   1.586   1.405
 9056SOL     OW27295   4.070   1.900   0.184
 9056SOL    HW127296   4.127   1.823   0.188
 9056SOL    HW227297   3.982   1.864   0.167
 9057SOL     OW27298   8.059   6.249   1.448
 9057SOL    HW127299   7.971   6.264   1.483
 9057SOL    HW227300   8.099   6.336   1.446
 9058SOL     OW27301   2.385   2.070   1.228
 9058SOL    HW127302   2.310   2.071   1.288
 9058SOL    HW227303   2.359   2.009   1.159
 9059SOL     OW27304   9.573   7.362   3.087
 9059SOL    HW127305   9.631   7.418   3.036
 9059SOL    HW227306   9.563   7.407   3.171
 9060SOL     OW27307   6.348   7.203   4.506
 9060SOL    HW127308   6.280   7.240   4.561
 9060SOL    HW227309   6.396   7.144   4.563
 9061SOL     OW27310   9.536   2.418   3.774
 9061SOL    HW127311   9.589   2.339   3.769
 9061SOL    HW227312   9.548   2.460   3.688
 9062SOL     OW27313   5.614   5.452   3.383
 9062SOL    HW127314   5.523   5.438   3.408
 9062SOL    HW227315   5.651   5.502   3.456
 9063SOL     OW27316   3.197   4.281   3.017
 9063SOL    HW127317   3.195   4.318   3.106
 9063SOL    HW227318   3.260   4.334   2.970
 9064SOL     OW27319   5.358   2.971   5.120
 9064SOL    HW127320   5.277   3.022   5.126
 9064SOL    HW227321   5.338   2.889   5.164
 9065SOL     OW27322   7.933   4.875   3.340
 9065SOL    HW127323   7.972   4.787   3.341
 9065SOL    HW227324   7.897   4.884   3.252
 9066SOL     OW27325   6.664   7.191   2.303
 9066SOL    HW127326   6.607   7.115   2.290
 9066SOL    HW227327   6.653   7.243   2.224
 9067SOL     OW27328   3.227   2.810   0.236
 9067SOL    HW127329   3.183   2.872   0.294
 9067SOL    HW227330   3.157   2.766   0.189
 9068SOL     OW27331   5.632   1.503   1.400
 9068SOL    HW127332   5.590   1.530   1.318
 9068SOL    HW227333   5.607   1.572   1.463
 9069SOL     OW27334   5.356   6.767   2.817
 9069SOL    HW127335   5.425   6.833   2.806
 9069SOL    HW227336   5.383   6.694   2.762
 9070SOL     OW27337   6.387   0.458   4.449
 9070SOL    HW127338   6.342   0.411   4.379
 9070SOL    HW227339   6.367   0.551   4.432
 9071SOL     OW27340   7.270   1.464   2.564
 9071SOL    HW127341   7.234   1.378   2.583
 9071SOL    HW227342   7.281   1.466   2.469
 9072SOL     OW27343   5.177   1.625   1.204
 9072SOL    HW127344   5.140   1.614   1.116
 9072SOL    HW227345   5.136   1.557   1.256
 9073SOL     OW27346   7.389   0.336   0.250
 9073SOL    HW127347   7.442   0.381   0.183
 9073SOL    HW227348   7.372   0.403   0.316
 9074SOL     OW27349   7.471   0.602   2.985
 9074SOL    HW127350   7.499   0.599   2.894
 9074SOL    HW227351   7.441   0.692   2.999
 9075SOL     OW27352   3.665   4.081   1.135
 9075SOL    HW127353   3.662   4.176   1.149
 9075SOL    HW227354   3.757   4.063   1.117
 9076SOL     OW27355   7.911   4.740   2.756
 9076SOL    HW127356   7.916   4.834   2.775
 9076SOL    HW227357   7.819   4.725   2.734
 9077SOL     OW27358   5.625   6.046   4.884
 9077SOL    HW127359   5.579   6.127   4.861
 9077SOL    HW227360   5.621   5.993   4.804
 9078SOL     OW27361   6.647   2.234   0.753
 9078SOL    HW127362   6.606   2.206   0.835
 9078SOL    HW227363   6.650   2.329   0.759
 9079SOL     OW27364   2.586   0.719   1.693
 9079SOL    HW127365   2.606   0.627   1.674
 9079SOL    HW227366   2.670   0.757   1.718
 9080SOL     OW27367   5.335   4.339   1.411
 9080SOL    HW127368   5.396   4.301   1.348
 9080SOL    HW227369   5.264   4.275   1.418
 9081SOL     OW27370  10.547   4.572   5.086
 9081SOL    HW127371  10.589   4.485   5.089
 9081SOL    HW227372  10.619   4.632   5.068
 9082SOL     OW27373   4.410   1.817   3.067
 9082SOL    HW127374   4.432   1.855   3.152
 9082SOL    HW227375   4.324   1.853   3.047
 9083SOL     OW27376   9.467   4.940   4.671
 9083SOL    HW127377   9.421   4.857   4.659
 9083SOL    HW227378   9.420   5.001   4.614
 9084SOL     OW27379   2.351   5.362   2.306
 9084SOL    HW127380   2.259   5.337   2.317
 9084SOL    HW227381   2.352   5.415   2.226
 9085SOL     OW27382   6.254   1.713   1.523
 9085SOL    HW127383   6.297   1.787   1.565
 9085SOL    HW227384   6.205   1.670   1.593
 9086SOL     OW27385   4.363   6.489   4.260
 9086SOL    HW127386   4.284   6.524   4.218
 9086SOL    HW227387   4.403   6.565   4.302
 9087SOL     OW27388   7.854   4.596   2.178
 9087SOL    HW127389   7.779   4.538   2.175
 9087SOL    HW227390   7.926   4.541   2.207
 9088SOL     OW27391   9.111   1.751   3.804
 9088SOL    HW127392   9.175   1.758   3.733
 9088SOL    HW227393   9.061   1.672   3.784
 9089SOL     OW27394   3.358   4.433   1.004
 9089SOL    HW127395   3.352   4.526   1.025
 9089SOL    HW227396   3.285   4.393   1.052
 9090SOL     OW27397   3.733   0.172   0.305
 9090SOL    HW127398   3.817   0.207   0.334
 9090SOL    HW227399   3.679   0.249   0.290
 9091SOL     OW27400   6.302   5.648   4.610
 9091SOL    HW127401   6.302   5.710   4.683
 9091SOL    HW227402   6.237   5.582   4.634
 9092SOL     OW27403   9.373   0.041   3.872
 9092SOL    HW127404   9.307  -0.025   3.852
 9092SOL    HW227405   9.455   0.004   3.839
 9093SOL     OW27406   4.533   2.724   1.586
 9093SOL    HW127407   4.535   2.673   1.505
 9093SOL    HW227408   4.595   2.680   1.644
 9094SOL     OW27409   1.869   0.663   2.443
 9094SOL    HW127410   1.800   0.668   2.510
 9094SOL    HW227411   1.950   0.672   2.492
 9095SOL     OW27412   4.932   2.479   1.533
 9095SOL    HW127413   4.888   2.459   1.450
 9095SOL    HW227414   4.901   2.412   1.593
 9096SOL     OW27415   5.645   4.581   4.746
 9096SOL    HW127416   5.634   4.575   4.841
 9096SOL    HW227417   5.686   4.498   4.721
 9097SOL     OW27418   5.145   4.847   1.883
 9097SOL    HW127419   5.180   4.770   1.838
 9097SOL    HW227420   5.220   4.883   1.931
 9098SOL     OW27421   2.515   6.560   2.684
 9098SOL    HW127422   2.545   6.648   2.662
 9098SOL    HW227423   2.519   6.556   2.779
 9099SOL     OW27424   2.629   5.322   1.844
 9099SOL    HW127425   2.535   5.317   1.859
 9099SOL    HW227426   2.638   5.376   1.766
 9100SOL     OW27427   7.428   2.447   4.524
 9100SOL    HW127428   7.391   2.399   4.450
 9100SOL    HW227429   7.399   2.538   4.511
 9101SOL     OW27430   4.898   5.382   2.920
 9101SOL    HW127431   4.933   5.373   3.009
 9101SOL    HW227432   4.968   5.348   2.864
 9102SOL     OW27433   8.217   3.194   2.779
 9102SOL    HW127434   8.310   3.174   2.786
 9102SOL    HW227435   8.211   3.288   2.797
 9103SOL     OW27436   2.246   1.332   1.646
 9103SOL    HW127437   2.194   1.263   1.604
 9103SOL    HW227438   2.300   1.367   1.575
 9104SOL     OW27439   8.853   5.228   2.807
 9104SOL    HW127440   8.866   5.320   2.830
 9104SOL    HW227441   8.837   5.228   2.713
 9105SOL     OW27442   7.265   2.398   1.115
 9105SOL    HW127443   7.215   2.404   1.034
 9105SOL    HW227444   7.200   2.378   1.182
 9106SOL     OW27445   3.027   0.720   2.405
 9106SOL    HW127446   3.078   0.721   2.324
 9106SOL    HW227447   3.060   0.644   2.453
 9107SOL     OW27448   4.695   2.538   5.047
 9107SOL    HW127449   4.623   2.493   5.003
 9107SOL    HW227450   4.678   2.631   5.033
 9108SOL     OW27451   2.211   1.512   0.061
 9108SOL    HW127452   2.166   1.569  -0.001
 9108SOL    HW227453   2.172   1.533   0.146
 9109SOL     OW27454   6.503   2.004   2.306
 9109SOL    HW127455   6.522   1.918   2.269
 9109SOL    HW227456   6.507   1.991   2.401
 9110SOL     OW27457   3.860   3.851   0.782
 9110SOL    HW127458   3.882   3.850   0.876
 9110SOL    HW227459   3.817   3.935   0.769
 9111SOL     OW27460   5.060   0.664   3.084
 9111SOL    HW127461   5.025   0.643   3.170
 9111SOL    HW227462   4.986   0.649   3.024
 9112SOL     OW27463   6.256   5.734   0.166
 9112SOL    HW127464   6.240   5.732   0.071
 9112SOL    HW227465   6.334   5.679   0.178
 9113SOL     OW27466   8.507   4.128   2.093
 9113SOL    HW127467   8.578   4.082   2.137
 9113SOL    HW227468   8.492   4.206   2.145
 9114SOL     OW27469   3.812   6.748   2.201
 9114SOL    HW127470   3.812   6.654   2.186
 9114SOL    HW227471   3.719   6.770   2.211
 9115SOL     OW27472   7.527   5.950   2.988
 9115SOL    HW127473   7.448   5.977   2.940
 9115SOL    HW227474   7.565   5.881   2.934
 9116SOL     OW27475   7.071   2.163   0.467
 9116SOL    HW127476   7.128   2.239   0.479
 9116SOL    HW227477   7.123   2.089   0.498
 9117SOL     OW27478   5.732   1.124   5.089
 9117SOL    HW127479   5.714   1.178   5.166
 9117SOL    HW227480   5.759   1.186   5.022
 9118SOL     OW27481   8.217   1.202   3.219
 9118SOL    HW127482   8.283   1.202   3.288
 9118SOL    HW227483   8.207   1.109   3.197
 9119SOL     OW27484   5.912   2.213   2.658
 9119SOL    HW127485   5.861   2.147   2.704
 9119SOL    HW227486   5.852   2.286   2.647
 9120SOL     OW27487   1.138   1.186   0.502
 9120SOL    HW127488   1.114   1.232   0.421
 9120SOL    HW227489   1.133   1.253   0.570
 9121SOL     OW27490   5.646   4.936   4.982
 9121SOL    HW127491   5.706   4.956   4.911
 9121SOL    HW227492   5.702   4.931   5.060
 9122SOL     OW27493   0.926   2.915   0.206
 9122SOL    HW127494   0.877   2.962   0.272
 9122SOL    HW227495   0.860   2.864   0.158
 9123SOL     OW27496   7.482   5.286   1.328
 9123SOL    HW127497   7.503   5.266   1.419
 9123SOL    HW227498   7.567   5.292   1.284
 9124SOL     OW27499   3.470   3.313   0.046
 9124SOL    HW127500   3.394   3.323  -0.011
 9124SOL    HW227501   3.438   3.259   0.118
 9125SOL     OW27502   5.073   5.914   3.805
 9125SOL    HW127503   5.054   6.002   3.836
 9125SOL    HW227504   5.120   5.927   3.723
 9126SOL     OW27505   5.655   6.195   0.989
 9126SOL    HW127506   5.570   6.238   0.985
 9126SOL    HW227507   5.707   6.236   0.920
 9127SOL     OW27508   3.391   2.521   1.062
 9127SOL    HW127509   3.445   2.588   1.104
 9127SOL    HW227510   3.375   2.457   1.132
 9128SOL     OW27511   4.016   1.830   3.360
 9128SOL    HW127512   3.930   1.813   3.323
 9128SOL    HW227513   4.078   1.799   3.294
 9129SOL     OW27514   5.031   0.734   3.525
 9129SOL    HW127515   4.982   0.799   3.575
 9129SOL    HW227516   5.098   0.785   3.479
 9130SOL     OW27517   5.552   3.651   0.046
 9130SOL    HW127518   5.603   3.730   0.029
 9130SOL    HW227519   5.487   3.678   0.111
 9131SOL     OW27520  10.272   1.727   4.119
 9131SOL    HW127521  10.203   1.782   4.082
 9131SOL    HW227522  10.258   1.641   4.080
 9132SOL     OW27523   5.896   7.412   2.673
 9132SOL    HW127524   5.924   7.338   2.728
 9132SOL    HW227525   5.957   7.482   2.694
 9133SOL     OW27526   1.137   4.517   0.367
 9133SOL    HW127527   1.086   4.570   0.306
 9133SOL    HW227528   1.113   4.427   0.346
 9134SOL     OW27529   6.973   7.028   5.190
 9134SOL    HW127530   6.919   6.997   5.117
 9134SOL    HW227531   6.925   7.000   5.269
 9135SOL     OW27532   2.191   6.462   2.799
 9135SOL    HW127533   2.274   6.422   2.824
 9135SOL    HW227534   2.153   6.401   2.735
 9136SOL     OW27535   5.286   1.943   0.376
 9136SOL    HW127536   5.193   1.966   0.375
 9136SOL    HW227537   5.295   1.873   0.312
 9137SOL     OW27538   9.280   0.844   4.614
 9137SOL    HW127539   9.204   0.892   4.583
 9137SOL    HW227540   9.351   0.909   4.617
 9138SOL     OW27541   1.127   3.313   1.260
 9138SOL    HW127542   1.080   3.232   1.245
 9138SOL    HW227543   1.065   3.382   1.238
 9139SOL     OW27544   3.678   7.158   4.579
 9139SOL    HW127545   3.681   7.147   4.674
 9139SOL    HW227546   3.755   7.112   4.547
 9140SOL     OW27547   8.189   6.420   4.210
 9140SOL    HW127548   8.226   6.341   4.171
 9140SOL    HW227549   8.144   6.390   4.289
 9141SOL     OW27550   3.990   3.460   1.993
 9141SOL    HW127551   4.044   3.521   2.044
 9141SOL    HW227552   4.013   3.478   1.902
 9142SOL     OW27553   5.303   2.165   1.736
 9142SOL    HW127554   5.302   2.251   1.694
 9142SOL    HW227555   5.211   2.147   1.757
 9143SOL     OW27556   4.097   3.932   3.924
 9143SOL    HW127557   4.044   3.910   4.000
 9143SOL    HW227558   4.089   4.027   3.915
 9144SOL     OW27559   6.990   7.034   4.023
 9144SOL    HW127560   7.046   7.068   4.093
 9144SOL    HW227561   7.049   6.978   3.971
 9145SOL     OW27562   5.384   6.466   1.396
 9145SOL    HW127563   5.341   6.389   1.359
 9145SOL    HW227564   5.396   6.525   1.322
 9146SOL     OW27565   4.875   2.197   3.105
 9146SOL    HW127566   4.815   2.174   3.176
 9146SOL    HW227567   4.818   2.208   3.029
 9147SOL     OW27568   4.961   2.205   0.844
 9147SOL    HW127569   5.039   2.251   0.812
 9147SOL    HW227570   4.915   2.178   0.764
 9148SOL     OW27571   4.765   3.840   3.909
 9148SOL    HW127572   4.808   3.918   3.943
 9148SOL    HW227573   4.759   3.781   3.984
 9149SOL     OW27574   1.612   5.698   1.520
 9149SOL    HW127575   1.579   5.750   1.446
 9149SOL    HW227576   1.536   5.685   1.576
 9150SOL     OW27577   4.374   1.625   3.363
 9150SOL    HW127578   4.351   1.551   3.419
 9150SOL    HW227579   4.423   1.586   3.291
 9151SOL     OW27580  11.026   5.917   5.014
 9151SOL    HW127581  11.044   5.957   5.099
 9151SOL    HW227582  10.943   5.954   4.986
 9152SOL     OW27583   8.954   3.180   3.134
 9152SOL    HW127584   8.884   3.171   3.069
 9152SOL    HW227585   8.977   3.273   3.131
 9153SOL     OW27586   4.303   0.635   3.279
 9153SOL    HW127587   4.344   0.677   3.354
 9153SOL    HW227588   4.374   0.622   3.217
 9154SOL     OW27589   3.664   0.784   4.664
 9154SOL    HW127590   3.715   0.858   4.632
 9154SOL    HW227591   3.668   0.792   4.759
 9155SOL     OW27592   9.994   1.232   3.704
 9155SOL    HW127593  10.017   1.176   3.778
 9155SOL    HW227594  10.047   1.199   3.632
 9156SOL     OW27595   4.304   0.329   0.427
 9156SOL    HW127596   4.356   0.323   0.347
 9156SOL    HW227597   4.269   0.241   0.440
 9157SOL     OW27598   4.005   2.833   0.536
 9157SOL    HW127599   4.020   2.821   0.630
 9157SOL    HW227600   3.930   2.777   0.516
 9158SOL     OW27601   7.182   6.751   4.559
 9158SOL    HW127602   7.123   6.810   4.512
 9158SOL    HW227603   7.196   6.792   4.644
 9159SOL     OW27604   3.298   5.408   2.477
 9159SOL    HW127605   3.214   5.362   2.481
 9159SOL    HW227606   3.359   5.350   2.523
 9160SOL     OW27607   4.743   6.106   0.597
 9160SOL    HW127608   4.737   6.192   0.556
 9160SOL    HW227609   4.792   6.122   0.678
 9161SOL     OW27610   4.835   2.186   0.345
 9161SOL    HW127611   4.745   2.206   0.367
 9161SOL    HW227612   4.838   2.189   0.249
 9162SOL     OW27613   7.767   4.878   0.536
 9162SOL    HW127614   7.738   4.969   0.536
 9162SOL    HW227615   7.688   4.827   0.518
 9163SOL     OW27616   5.318   6.210   3.071
 9163SOL    HW127617   5.229   6.244   3.061
 9163SOL    HW227618   5.311   6.118   3.045
 9164SOL     OW27619   9.516   1.270   4.040
 9164SOL    HW127620   9.583   1.257   3.973
 9164SOL    HW227621   9.461   1.192   4.034
 9165SOL     OW27622   6.037   0.337   4.964
 9165SOL    HW127623   6.102   0.407   4.954
 9165SOL    HW227624   5.953   0.380   4.951
 9166SOL     OW27625   8.166   1.770   2.285
 9166SOL    HW127626   8.191   1.678   2.298
 9166SOL    HW227627   8.215   1.818   2.352
 9167SOL     OW27628   9.071   5.588   3.538
 9167SOL    HW127629   9.090   5.608   3.629
 9167SOL    HW227630   9.154   5.601   3.493
 9168SOL     OW27631   7.605   6.661   0.568
 9168SOL    HW127632   7.589   6.745   0.612
 9168SOL    HW227633   7.697   6.642   0.585
 9169SOL     OW27634   8.421   3.436   1.547
 9169SOL    HW127635   8.326   3.445   1.549
 9169SOL    HW227636   8.446   3.463   1.458
 9170SOL     OW27637   8.920   1.534   2.531
 9170SOL    HW127638   8.931   1.587   2.610
 9170SOL    HW227639   8.961   1.586   2.462
 9171SOL     OW27640   2.346   1.553   2.185
 9171SOL    HW127641   2.341   1.514   2.098
 9171SOL    HW227642   2.332   1.480   2.245
 9172SOL     OW27643   0.947   5.743   0.012
 9172SOL    HW127644   0.904   5.803   0.072
 9172SOL    HW227645   0.935   5.783  -0.075
 9173SOL     OW27646   5.911   4.425   3.565
 9173SOL    HW127647   5.887   4.458   3.652
 9173SOL    HW227648   5.906   4.330   3.574
 9174SOL     OW27649   7.476   0.717   1.293
 9174SOL    HW127650   7.420   0.640   1.288
 9174SOL    HW227651   7.421   0.788   1.260
 9175SOL     OW27652   5.974   6.598   4.078
 9175SOL    HW127653   5.881   6.581   4.090
 9175SOL    HW227654   6.017   6.518   4.107
 9176SOL     OW27655   6.271   6.337   4.237
 9176SOL    HW127656   6.220   6.260   4.265
 9176SOL    HW227657   6.229   6.411   4.281
 9177SOL     OW27658   8.857   5.876   4.937
 9177SOL    HW127659   8.798   5.851   4.865
 9177SOL    HW227660   8.878   5.794   4.981
 9178SOL     OW27661   3.227   6.141   0.529
 9178SOL    HW127662   3.285   6.195   0.475
 9178SOL    HW227663   3.146   6.192   0.534
 9179SOL     OW27664   6.239   7.118   4.164
 9179SOL    HW127665   6.173   7.164   4.215
 9179SOL    HW227666   6.206   7.117   4.075
 9180SOL     OW27667   5.913   5.337   3.473
 9180SOL    HW127668   5.869   5.399   3.531
 9180SOL    HW227669   5.885   5.362   3.385
 9181SOL     OW27670   3.117   4.396   3.259
 9181SOL    HW127671   3.205   4.419   3.229
 9181SOL    HW227672   3.117   4.419   3.352
 9182SOL     OW27673   3.962   3.344   4.601
 9182SOL    HW127674   3.898   3.337   4.530
 9182SOL    HW227675   4.014   3.264   4.595
 9183SOL     OW27676   4.316   3.110   1.607
 9183SOL    HW127677   4.324   3.198   1.644
 9183SOL    HW227678   4.377   3.109   1.533
 9184SOL     OW27679   2.094   7.285   2.594
 9184SOL    HW127680   2.102   7.373   2.630
 9184SOL    HW227681   2.000   7.268   2.592
 9185SOL     OW27682   4.408   5.620   4.867
 9185SOL    HW127683   4.425   5.526   4.877
 9185SOL    HW227684   4.360   5.644   4.946
 9186SOL     OW27685   8.745   7.111   3.164
 9186SOL    HW127686   8.772   7.162   3.088
 9186SOL    HW227687   8.792   7.029   3.157
 9187SOL     OW27688   8.015   2.544   1.961
 9187SOL    HW127689   8.036   2.474   1.899
 9187SOL    HW227690   8.035   2.507   2.047
 9188SOL     OW27691  10.411   2.058   5.146
 9188SOL    HW127692  10.355   2.136   5.139
 9188SOL    HW227693  10.353   1.986   5.120
 9189SOL     OW27694   8.828   3.536   2.715
 9189SOL    HW127695   8.824   3.632   2.717
 9189SOL    HW227696   8.736   3.509   2.727
 9190SOL     OW27697   8.027   4.679   1.515
 9190SOL    HW127698   7.966   4.611   1.487
 9190SOL    HW227699   8.100   4.672   1.454
 9191SOL     OW27700   5.164   3.040   1.347
 9191SOL    HW127701   5.110   3.118   1.331
 9191SOL    HW227702   5.128   3.002   1.427
 9192SOL     OW27703   5.952   5.644   0.062
 9192SOL    HW127704   5.950   5.578  -0.007
 9192SOL    HW227705   6.030   5.623   0.113
 9193SOL     OW27706   5.164   1.397   5.123
 9193SOL    HW127707   5.228   1.338   5.085
 9193SOL    HW227708   5.118   1.435   5.048
 9194SOL     OW27709   8.560   0.473   3.962
 9194SOL    HW127710   8.620   0.432   3.900
 9194SOL    HW227711   8.509   0.401   3.998
 9195SOL     OW27712   4.994   5.745   2.905
 9195SOL    HW127713   4.898   5.744   2.900
 9195SOL    HW227714   5.015   5.675   2.968
 9196SOL     OW27715   7.098   4.432   3.205
 9196SOL    HW127716   7.029   4.499   3.198
 9196SOL    HW227717   7.050   4.350   3.214
 9197SOL     OW27718   2.233   5.893   0.495
 9197SOL    HW127719   2.180   5.835   0.440
 9197SOL    HW227720   2.307   5.917   0.440
 9198SOL     OW27721   9.067   1.713   3.115
 9198SOL    HW127722   9.021   1.797   3.114
 9198SOL    HW227723   9.094   1.700   3.024
 9199SOL     OW27724   5.104   4.610   5.244
 9199SOL    HW127725   5.133   4.690   5.287
 9199SOL    HW227726   5.156   4.605   5.164
 9200SOL     OW27727   5.740   4.169   2.865
 9200SOL    HW127728   5.830   4.148   2.842
 9200SOL    HW227729   5.689   4.144   2.788
 9201SOL     OW27730   4.049   2.022   5.160
 9201SOL    HW127731   4.101   1.978   5.093
 9201SOL    HW227732   4.112   2.048   5.227
 9202SOL     OW27733   5.032   6.165   4.664
 9202SOL    HW127734   5.085   6.245   4.670
 9202SOL    HW227735   4.997   6.154   4.752
 9203SOL     OW27736   7.703   2.109   3.958
 9203SOL    HW127737   7.713   2.199   3.990
 9203SOL    HW227738   7.784   2.065   3.984
 9204SOL     OW27739   9.855   4.172   4.669
 9204SOL    HW127740   9.916   4.104   4.696
 9204SOL    HW227741   9.906   4.229   4.611
 9205SOL     OW27742   6.360   5.405   4.744
 9205SOL    HW127743   6.360   5.497   4.720
 9205SOL    HW227744   6.371   5.359   4.661
 9206SOL     OW27745   1.475   0.268   1.824
 9206SOL    HW127746   1.380   0.264   1.836
 9206SOL    HW227747   1.491   0.221   1.743
 9207SOL     OW27748   1.867   0.941   0.922
 9207SOL    HW127749   1.828   1.027   0.938
 9207SOL    HW227750   1.792   0.881   0.916
 9208SOL     OW27751   9.073   5.219   3.359
 9208SOL    HW127752   9.009   5.284   3.389
 9208SOL    HW227753   9.072   5.151   3.427
 9209SOL     OW27754   3.271   4.905   4.585
 9209SOL    HW127755   3.236   4.843   4.521
 9209SOL    HW227756   3.338   4.856   4.632
 9210SOL     OW27757   5.257   4.535   2.853
 9210SOL    HW127758   5.222   4.465   2.798
 9210SOL    HW227759   5.265   4.611   2.795
 9211SOL     OW27760   7.530   0.780   3.241
 9211SOL    HW127761   7.557   0.706   3.294
 9211SOL    HW227762   7.566   0.762   3.154
 9212SOL     OW27763   2.076   0.662   1.574
 9212SOL    HW127764   2.002   0.723   1.575
 9212SOL    HW227765   2.066   0.613   1.493
 9213SOL     OW27766   8.481   6.928   4.739
 9213SOL    HW127767   8.463   6.962   4.827
 9213SOL    HW227768   8.553   6.866   4.752
 9214SOL     OW27769   6.589   0.681   0.157
 9214SOL    HW127770   6.568   0.621   0.086
 9214SOL    HW227771   6.646   0.747   0.118
 9215SOL     OW27772   3.270   6.823   2.132
 9215SOL    HW127773   3.299   6.894   2.189
 9215SOL    HW227774   3.340   6.814   2.067
 9216SOL     OW27775   5.092   5.912   4.206
 9216SOL    HW127776   5.096   5.974   4.133
 9216SOL    HW227777   5.120   5.962   4.282
 9217SOL     OW27778   1.204   0.920   0.174
 9217SOL    HW127779   1.236   0.848   0.121
 9217SOL    HW227780   1.282   0.950   0.222
 9218SOL     OW27781   7.281   2.968   0.964
 9218SOL    HW127782   7.268   3.062   0.957
 9218SOL    HW227783   7.334   2.956   1.043
 9219SOL     OW27784   4.083   3.050   4.061
 9219SOL    HW127785   4.061   3.142   4.078
 9219SOL    HW227786   4.058   3.037   3.970
 9220SOL     OW27787   5.811   6.774   1.154
 9220SOL    HW127788   5.773   6.687   1.166
 9220SOL    HW227789   5.840   6.800   1.241
 9221SOL     OW27790   8.461   5.733   3.150
 9221SOL    HW127791   8.458   5.786   3.230
 9221SOL    HW227792   8.392   5.770   3.095
 9222SOL     OW27793   1.561   2.059   0.957
 9222SOL    HW127794   1.555   2.107   1.040
 9222SOL    HW227795   1.552   2.127   0.890
 9223SOL     OW27796   6.517   1.504   0.302
 9223SOL    HW127797   6.443   1.465   0.254
 9223SOL    HW227798   6.592   1.450   0.278
 9224SOL     OW27799   3.247   5.975   1.958
 9224SOL    HW127800   3.320   5.962   1.897
 9224SOL    HW227801   3.228   5.888   1.992
 9225SOL     OW27802   1.576   1.147   0.535
 9225SOL    HW127803   1.596   1.211   0.466
 9225SOL    HW227804   1.510   1.190   0.589
 9226SOL     OW27805   5.600   4.334   4.423
 9226SOL    HW127806   5.667   4.396   4.392
 9226SOL    HW227807   5.628   4.249   4.389
 9227SOL     OW27808   3.995   7.208   2.295
 9227SOL    HW127809   4.047   7.287   2.299
 9227SOL    HW227810   4.038   7.147   2.354
 9228SOL     OW27811   6.230   0.700   3.046
 9228SOL    HW127812   6.172   0.666   2.977
 9228SOL    HW227813   6.316   0.705   3.004
 9229SOL     OW27814   5.166   6.729   0.268
 9229SOL    HW127815   5.137   6.786   0.197
 9229SOL    HW227816   5.258   6.753   0.282
 9230SOL     OW27817   4.815   0.759   0.017
 9230SOL    HW127818   4.903   0.762   0.054
 9230SOL    HW227819   4.762   0.809   0.080
 9231SOL     OW27820   3.860   5.132   4.087
 9231SOL    HW127821   3.801   5.058   4.098
 9231SOL    HW227822   3.857   5.178   4.171
 9232SOL     OW27823   8.323   4.787   3.655
 9232SOL    HW127824   8.320   4.697   3.688
 9232SOL    HW227825   8.322   4.777   3.560
 9233SOL     OW27826   3.392   6.223   3.314
 9233SOL    HW127827   3.402   6.142   3.362
 9233SOL    HW227828   3.481   6.244   3.284
 9234SOL     OW27829   2.920   5.406   0.563
 9234SOL    HW127830   2.962   5.492   0.562
 9234SOL    HW227831   2.843   5.417   0.619
 9235SOL     OW27832   9.686   6.740   4.588
 9235SOL    HW127833   9.734   6.801   4.643
 9235SOL    HW227834   9.690   6.778   4.500
 9236SOL     OW27835   5.915   1.450   1.457
 9236SOL    HW127836   5.948   1.396   1.385
 9236SOL    HW227837   5.828   1.477   1.429
 9237SOL     OW27838   9.250   4.482   4.293
 9237SOL    HW127839   9.323   4.426   4.318
 9237SOL    HW227840   9.192   4.425   4.242
 9238SOL     OW27841   7.612   6.962   2.639
 9238SOL    HW127842   7.679   6.903   2.673
 9238SOL    HW227843   7.601   7.028   2.707
 9239SOL     OW27844   4.622   5.585   0.508
 9239SOL    HW127845   4.657   5.658   0.559
 9239SOL    HW227846   4.529   5.581   0.533
 9240SOL     OW27847   4.665   3.299   4.523
 9240SOL    HW127848   4.611   3.320   4.598
 9240SOL    HW227849   4.613   3.328   4.447
 9241SOL     OW27850   6.962   5.978   1.293
 9241SOL    HW127851   7.018   5.904   1.318
 9241SOL    HW227852   6.900   5.986   1.366
 9242SOL     OW27853   6.794   3.738   0.142
 9242SOL    HW127854   6.833   3.651   0.152
 9242SOL    HW227855   6.761   3.740   0.053
 9243SOL     OW27856   8.214   5.524   4.796
 9243SOL    HW127857   8.250   5.612   4.805
 9243SOL    HW227858   8.289   5.466   4.813
 9244SOL     OW27859   7.617   2.203   0.233
 9244SOL    HW127860   7.632   2.108   0.231
 9244SOL    HW227861   7.640   2.229   0.322
 9245SOL     OW27862   6.899   6.553   5.037
 9245SOL    HW127863   6.948   6.585   4.961
 9245SOL    HW227864   6.915   6.618   5.105
 9246SOL     OW27865   8.364   5.015   3.335
 9246SOL    HW127866   8.349   5.004   3.241
 9246SOL    HW227867   8.411   5.098   3.343
 9247SOL     OW27868   4.077   2.829   0.876
 9247SOL    HW127869   4.132   2.907   0.873
 9247SOL    HW227870   4.128   2.762   0.832
 9248SOL     OW27871   1.611   0.081   0.986
 9248SOL    HW127872   1.678   0.108   1.048
 9248SOL    HW227873   1.610   0.150   0.919
 9249SOL     OW27874   8.041   1.409   2.925
 9249SOL    HW127875   8.001   1.351   2.990
 9249SOL    HW227876   8.135   1.393   2.934
 9250SOL     OW27877   3.296   3.370   3.287
 9250SOL    HW127878   3.241   3.430   3.337
 9250SOL    HW227879   3.243   3.291   3.276
 9251SOL     OW27880   7.762   2.247   5.022
 9251SOL    HW127881   7.801   2.162   4.999
 9251SOL    HW227882   7.777   2.256   5.116
 9252SOL     OW27883   4.742   6.186   3.631
 9252SOL    HW127884   4.801   6.224   3.696
 9252SOL    HW227885   4.734   6.253   3.563
 9253SOL     OW27886   4.828   5.843   1.207
 9253SOL    HW127887   4.781   5.830   1.124
 9253SOL    HW227888   4.780   5.914   1.250
 9254SOL     OW27889   7.211   1.306   4.265
 9254SOL    HW127890   7.137   1.247   4.277
 9254SOL    HW227891   7.194   1.378   4.326
 9255SOL     OW27892   8.220   3.294   2.406
 9255SOL    HW127893   8.131   3.327   2.396
 9255SOL    HW227894   8.212   3.218   2.463
 9256SOL     OW27895   7.166   4.902   2.130
 9256SOL    HW127896   7.149   4.813   2.098
 9256SOL    HW227897   7.221   4.942   2.062
 9257SOL     OW27898   6.357   1.977   0.495
 9257SOL    HW127899   6.296   1.976   0.569
 9257SOL    HW227900   6.354   1.888   0.461
 9258SOL     OW27901   4.933   0.173   4.825
 9258SOL    HW127902   4.929   0.265   4.800
 9258SOL    HW227903   4.931   0.173   4.920
 9259SOL     OW27904   4.767   6.135   3.310
 9259SOL    HW127905   4.805   6.175   3.231
 9259SOL    HW227906   4.672   6.147   3.300
 9260SOL     OW27907   9.107   3.103   3.357
 9260SOL    HW127908   9.188   3.123   3.310
 9260SOL    HW227909   9.044   3.168   3.326
 9261SOL     OW27910   3.619   5.238  -0.014
 9261SOL    HW127911   3.579   5.184   0.054
 9261SOL    HW227912   3.575   5.323  -0.007
 9262SOL     OW27913   4.180   0.019   2.634
 9262SOL    HW127914   4.237   0.095   2.647
 9262SOL    HW227915   4.094   0.057   2.617
 9263SOL     OW27916   2.205   2.388   1.131
 9263SOL    HW127917   2.276   2.381   1.196
 9263SOL    HW227918   2.125   2.370   1.181
 9264SOL     OW27919   1.834   5.612   1.383
 9264SOL    HW127920   1.762   5.638   1.441
 9264SOL    HW227921   1.871   5.694   1.351
 9265SOL     OW27922   4.237   2.078   1.835
 9265SOL    HW127923   4.240   1.985   1.812
 9265SOL    HW227924   4.152   2.108   1.802
 9266SOL     OW27925   7.709   2.192   2.234
 9266SOL    HW127926   7.684   2.243   2.311
 9266SOL    HW227927   7.643   2.215   2.169
 9267SOL     OW27928   4.575   2.414   2.591
 9267SOL    HW127929   4.558   2.471   2.517
 9267SOL    HW227930   4.620   2.338   2.553
 9268SOL     OW27931   3.104   4.056   0.388
 9268SOL    HW127932   3.157   4.110   0.447
 9268SOL    HW227933   3.151   3.973   0.383
 9269SOL     OW27934   2.645   0.292   2.658
 9269SOL    HW127935   2.565   0.272   2.707
 9269SOL    HW227936   2.701   0.337   2.721
 9270SOL     OW27937   9.137   1.258   3.179
 9270SOL    HW127938   9.060   1.294   3.134
 9270SOL    HW227939   9.210   1.313   3.148
 9271SOL     OW27940   8.617   1.388   2.245
 9271SOL    HW127941   8.631   1.297   2.272
 9271SOL    HW227942   8.616   1.385   2.149
 9272SOL     OW27943   2.361   1.852   0.025
 9272SOL    HW127944   2.425   1.912   0.063
 9272SOL    HW227945   2.364   1.871  -0.069
 9273SOL     OW27946   3.988   0.230   0.377
 9273SOL    HW127947   4.057   0.228   0.442
 9273SOL    HW227948   4.010   0.304   0.320
 9274SOL     OW27949   7.917   1.553   1.402
 9274SOL    HW127950   7.859   1.617   1.444
 9274SOL    HW227951   7.863   1.514   1.333
 9275SOL     OW27952   3.307   4.284   3.815
 9275SOL    HW127953   3.333   4.207   3.866
 9275SOL    HW227954   3.383   4.343   3.820
 9276SOL     OW27955   5.998   2.024   1.161
 9276SOL    HW127956   6.043   2.009   1.244
 9276SOL    HW227957   5.989   1.937   1.122
 9277SOL     OW27958   3.462   1.676   1.522
 9277SOL    HW127959   3.414   1.672   1.439
 9277SOL    HW227960   3.486   1.768   1.531
 9278SOL     OW27961   5.136   0.326   2.125
 9278SOL    HW127962   5.131   0.383   2.048
 9278SOL    HW227963   5.056   0.273   2.120
 9279SOL     OW27964   8.827   2.608   2.710
 9279SOL    HW127965   8.894   2.586   2.775
 9279SOL    HW227966   8.818   2.530   2.656
 9280SOL     OW27967   4.528   1.097   2.257
 9280SOL    HW127968   4.572   1.015   2.236
 9280SOL    HW227969   4.441   1.071   2.288
 9281SOL     OW27970   7.434   4.698   3.825
 9281SOL    HW127971   7.502   4.635   3.802
 9281SOL    HW227972   7.353   4.647   3.827
 9282SOL     OW27973   1.792   2.736   0.519
 9282SOL    HW127974   1.843   2.812   0.491
 9282SOL    HW227975   1.711   2.742   0.468
 9283SOL     OW27976   9.362   5.610   3.397
 9283SOL    HW127977   9.439   5.573   3.356
 9283SOL    HW227978   9.310   5.645   3.325
 9284SOL     OW27979   5.192   2.716   3.453
 9284SOL    HW127980   5.205   2.786   3.389
 9284SOL    HW227981   5.220   2.753   3.536
 9285SOL     OW27982   3.974   3.305   4.075
 9285SOL    HW127983   4.002   3.377   4.019
 9285SOL    HW227984   3.907   3.260   4.024
 9286SOL     OW27985   2.700   1.070   2.483
 9286SOL    HW127986   2.731   1.144   2.431
 9286SOL    HW227987   2.604   1.077   2.480
 9287SOL     OW27988   4.764   0.812   3.868
 9287SOL    HW127989   4.676   0.819   3.832
 9287SOL    HW227990   4.782   0.899   3.905
 9288SOL     OW27991   1.337   5.333   0.052
 9288SOL    HW127992   1.283   5.403   0.015
 9288SOL    HW227993   1.375   5.289  -0.024
 9289SOL     OW27994   0.916   4.435   0.541
 9289SOL    HW127995   0.924   4.348   0.500
 9289SOL    HW227996   0.994   4.482   0.514
 9290SOL     OW27997   8.243   5.258   4.110
 9290SOL    HW127998   8.245   5.333   4.051
 9290SOL    HW227999   8.257   5.182   4.054
 9291SOL     OW28000   9.577   3.197   5.225
 9291SOL    HW128001   9.619   3.131   5.280
 9291SOL    HW228002   9.646   3.263   5.211
 9292SOL     OW28003   5.262   5.785   4.794
 9292SOL    HW128004   5.194   5.832   4.842
 9292SOL    HW228005   5.284   5.711   4.851
 9293SOL     OW28006   0.902   0.997   0.749
 9293SOL    HW128007   0.905   1.092   0.756
 9293SOL    HW228008   0.994   0.970   0.749
 9294SOL     OW28009   6.679   4.750   0.552
 9294SOL    HW128010   6.610   4.711   0.607
 9294SOL    HW228011   6.746   4.777   0.614
 9295SOL     OW28012   4.127   7.112   1.921
 9295SOL    HW128013   4.063   7.180   1.942
 9295SOL    HW228014   4.077   7.031   1.924
 9296SOL     OW28015   5.042   6.495   2.986
 9296SOL    HW128016   4.968   6.435   2.980
 9296SOL    HW228017   5.005   6.580   2.963
 9297SOL     OW28018   7.081   4.212   4.249
 9297SOL    HW128019   7.174   4.232   4.234
 9297SOL    HW228020   7.060   4.260   4.329
 9298SOL     OW28021   6.280   3.580   2.109
 9298SOL    HW128022   6.233   3.594   2.191
 9298SOL    HW228023   6.251   3.652   2.052
 9299SOL     OW28024  10.180   0.128   4.642
 9299SOL    HW128025  10.237   0.071   4.693
 9299SOL    HW228026  10.158   0.200   4.701
 9300SOL     OW28027   6.211   5.390   2.912
 9300SOL    HW128028   6.262   5.376   2.832
 9300SOL    HW228029   6.248   5.329   2.975
 9301SOL     OW28030   8.360   7.405   2.830
 9301SOL    HW128031   8.356   7.500   2.842
 9301SOL    HW228032   8.424   7.393   2.760
 9302SOL     OW28033   5.753   7.185   5.140
 9302SOL    HW128034   5.758   7.250   5.070
 9302SOL    HW228035   5.750   7.236   5.221
 9303SOL     OW28036   5.348   1.067   4.685
 9303SOL    HW128037   5.292   1.040   4.757
 9303SOL    HW228038   5.328   1.160   4.673
 9304SOL     OW28039   9.418   1.517   4.099
 9304SOL    HW128040   9.456   1.430   4.114
 9304SOL    HW228041   9.494   1.575   4.088
 9305SOL     OW28042   5.337   0.419   4.625
 9305SOL    HW128043   5.258   0.466   4.652
 9305SOL    HW228044   5.404   0.487   4.617
 9306SOL     OW28045   6.615   4.908   0.340
 9306SOL    HW128046   6.640   4.821   0.371
 9306SOL    HW228047   6.591   4.956   0.419
 9307SOL     OW28048   6.725   0.055   1.338
 9307SOL    HW128049   6.767   0.137   1.310
 9307SOL    HW228050   6.786   0.019   1.403
 9308SOL     OW28051   7.988   3.536   2.170
 9308SOL    HW128052   8.001   3.624   2.133
 9308SOL    HW228053   7.904   3.508   2.134
 9309SOL     OW28054   6.205   2.611   0.499
 9309SOL    HW128055   6.250   2.672   0.558
 9309SOL    HW228056   6.160   2.668   0.436
 9310SOL     OW28057   6.470   1.686   2.632
 9310SOL    HW128058   6.425   1.771   2.631
 9310SOL    HW228059   6.419   1.632   2.692
 9311SOL     OW28060   5.105   1.277   2.548
 9311SOL    HW128061   5.109   1.332   2.626
 9311SOL    HW228062   5.168   1.316   2.487
 9312SOL     OW28063   1.860   6.549   0.636
 9312SOL    HW128064   1.822   6.552   0.548
 9312SOL    HW228065   1.794   6.502   0.689
 9313SOL     OW28066   0.873   0.247   0.274
 9313SOL    HW128067   0.822   0.315   0.318
 9313SOL    HW228068   0.813   0.212   0.208
 9314SOL     OW28069   7.773   5.065   0.819
 9314SOL    HW128070   7.747   5.103   0.736
 9314SOL    HW228071   7.703   5.002   0.841
 9315SOL     OW28072   9.198   5.063   3.953
 9315SOL    HW128073   9.215   4.976   3.988
 9315SOL    HW228074   9.155   5.048   3.869
 9316SOL     OW28075   6.020   5.728   2.419
 9316SOL    HW128076   6.085   5.796   2.433
 9316SOL    HW228077   6.069   5.655   2.382
 9317SOL     OW28078   7.161   1.407   5.037
 9317SOL    HW128079   7.226   1.440   5.099
 9317SOL    HW228080   7.186   1.316   5.021
 9318SOL     OW28081   3.877   7.187   1.362
 9318SOL    HW128082   3.943   7.140   1.413
 9318SOL    HW228083   3.870   7.272   1.404
 9319SOL     OW28084   3.493   0.291   3.687
 9319SOL    HW128085   3.541   0.235   3.627
 9319SOL    HW228086   3.520   0.380   3.664
 9320SOL     OW28087   8.041   0.526   1.498
 9320SOL    HW128088   8.046   0.620   1.511
 9320SOL    HW228089   8.132   0.497   1.497
 9321SOL     OW28090   3.333   6.224   4.101
 9321SOL    HW128091   3.286   6.182   4.174
 9321SOL    HW228092   3.379   6.152   4.058
 9322SOL     OW28093   1.698   2.853   1.572
 9322SOL    HW128094   1.640   2.789   1.531
 9322SOL    HW228095   1.647   2.888   1.645
 9323SOL     OW28096   6.666   4.732   2.323
 9323SOL    HW128097   6.651   4.751   2.415
 9323SOL    HW228098   6.675   4.637   2.319
 9324SOL     OW28099   7.064   4.591   2.567
 9324SOL    HW128100   6.976   4.561   2.590
 9324SOL    HW228101   7.054   4.635   2.483
 9325SOL     OW28102   6.246   6.939   2.881
 9325SOL    HW128103   6.156   6.938   2.849
 9325SOL    HW228104   6.266   6.848   2.901
 9326SOL     OW28105   5.454   3.034   4.572
 9326SOL    HW128106   5.505   3.009   4.649
 9326SOL    HW228107   5.378   3.079   4.608
 9327SOL     OW28108   4.525   0.253   3.888
 9327SOL    HW128109   4.438   0.284   3.912
 9327SOL    HW228110   4.583   0.328   3.904
 9328SOL     OW28111   5.549   6.338   4.218
 9328SOL    HW128112   5.511   6.355   4.304
 9328SOL    HW228113   5.479   6.357   4.156
 9329SOL     OW28114   4.108   1.966   0.507
 9329SOL    HW128115   4.201   1.940   0.508
 9329SOL    HW228116   4.078   1.942   0.419
 9330SOL     OW28117   8.341   5.522   3.398
 9330SOL    HW128118   8.384   5.607   3.404
 9330SOL    HW228119   8.257   5.534   3.443
 9331SOL     OW28120   3.621   1.543   3.007
 9331SOL    HW128121   3.684   1.585   3.065
 9331SOL    HW228122   3.574   1.481   3.062
 9332SOL     OW28123   2.079   1.603   2.275
 9332SOL    HW128124   2.055   1.524   2.226
 9332SOL    HW228125   2.169   1.620   2.250
 9333SOL     OW28126   3.439   7.198   2.700
 9333SOL    HW128127   3.423   7.178   2.792
 9333SOL    HW228128   3.531   7.176   2.687
 9334SOL     OW28129   4.465   3.387   4.312
 9334SOL    HW128130   4.394   3.325   4.299
 9334SOL    HW228131   4.533   3.359   4.251
 9335SOL     OW28132   6.685   2.505   0.884
 9335SOL    HW128133   6.593   2.526   0.867
 9335SOL    HW228134   6.684   2.413   0.910
 9336SOL     OW28135   2.090   2.655   2.400
 9336SOL    HW128136   2.100   2.741   2.359
 9336SOL    HW228137   2.110   2.593   2.331
 9337SOL     OW28138   8.271   1.125   4.971
 9337SOL    HW128139   8.307   1.210   4.945
 9337SOL    HW228140   8.300   1.065   4.902
 9338SOL     OW28141   3.368   7.088   4.501
 9338SOL    HW128142   3.436   7.054   4.443
 9338SOL    HW228143   3.315   7.012   4.524
 9339SOL     OW28144   5.332   4.436   1.682
 9339SOL    HW128145   5.382   4.373   1.629
 9339SOL    HW228146   5.270   4.476   1.620
 9340SOL     OW28147   1.990   5.302   0.703
 9340SOL    HW128148   1.908   5.275   0.662
 9340SOL    HW228149   1.982   5.274   0.794
 9341SOL     OW28150   4.260   6.154   4.860
 9341SOL    HW128151   4.211   6.072   4.862
 9341SOL    HW228152   4.327   6.141   4.793
 9342SOL     OW28153   2.254   2.271   1.483
 9342SOL    HW128154   2.165   2.239   1.495
 9342SOL    HW228155   2.248   2.366   1.498
 9343SOL     OW28156   6.823   6.725   3.236
 9343SOL    HW128157   6.916   6.703   3.243
 9343SOL    HW228158   6.813   6.757   3.146
 9344SOL     OW28159   5.258   5.640   1.758
 9344SOL    HW128160   5.203   5.573   1.717
 9344SOL    HW228161   5.265   5.614   1.849
 9345SOL     OW28162   6.107   0.823   4.025
 9345SOL    HW128163   6.071   0.820   4.114
 9345SOL    HW228164   6.170   0.895   4.028
 9346SOL     OW28165   0.808   0.917   1.100
 9346SOL    HW128166   0.808   1.011   1.113
 9346SOL    HW228167   0.716   0.895   1.083
 9347SOL     OW28168   7.240   5.504   1.051
 9347SOL    HW128169   7.314   5.564   1.050
 9347SOL    HW228170   7.259   5.440   0.983
 9348SOL     OW28171   5.911   4.960   0.300
 9348SOL    HW128172   5.949   4.915   0.224
 9348SOL    HW228173   5.842   5.015   0.264
 9349SOL     OW28174   3.108   1.400   4.400
 9349SOL    HW128175   3.085   1.460   4.471
 9349SOL    HW228176   3.187   1.437   4.362
 9350SOL     OW28177   1.120   6.751   1.116
 9350SOL    HW128178   1.120   6.656   1.106
 9350SOL    HW228179   1.063   6.766   1.192
 9351SOL     OW28180   7.625   3.925   3.775
 9351SOL    HW128181   7.585   3.953   3.858
 9351SOL    HW228182   7.715   3.900   3.799
 9352SOL     OW28183   5.869   4.441   4.291
 9352SOL    HW128184   5.887   4.350   4.271
 9352SOL    HW228185   5.839   4.479   4.208
 9353SOL     OW28186   6.996   2.569   2.098
 9353SOL    HW128187   6.946   2.573   2.016
 9353SOL    HW228188   7.006   2.661   2.124
 9354SOL     OW28189   6.630   6.619   4.066
 9354SOL    HW128190   6.692   6.546   4.067
 9354SOL    HW228191   6.544   6.577   4.058
 9355SOL     OW28192   3.774   6.999   0.312
 9355SOL    HW128193   3.752   6.912   0.345
 9355SOL    HW228194   3.785   6.986   0.217
 9356SOL     OW28195   6.508   7.279   3.507
 9356SOL    HW128196   6.531   7.371   3.519
 9356SOL    HW228197   6.501   7.268   3.412
 9357SOL     OW28198   6.296   3.686   0.807
 9357SOL    HW128199   6.317   3.740   0.884
 9357SOL    HW228200   6.223   3.731   0.766
 9358SOL     OW28201   8.153   2.634   4.263
 9358SOL    HW128202   8.152   2.708   4.203
 9358SOL    HW228203   8.236   2.590   4.246
 9359SOL     OW28204   8.423   4.748   2.676
 9359SOL    HW128205   8.332   4.726   2.653
 9359SOL    HW228206   8.475   4.704   2.609
 9360SOL     OW28207   2.420   1.278   0.505
 9360SOL    HW128208   2.343   1.330   0.480
 9360SOL    HW228209   2.494   1.337   0.490
 9361SOL     OW28210   3.763   2.704   2.236
 9361SOL    HW128211   3.796   2.624   2.278
 9361SOL    HW228212   3.842   2.751   2.210
 9362SOL     OW28213   5.338   7.306   1.814
 9362SOL    HW128214   5.348   7.346   1.900
 9362SOL    HW228215   5.360   7.214   1.829
 9363SOL     OW28216   4.663   4.334   3.903
 9363SOL    HW128217   4.644   4.420   3.867
 9363SOL    HW228218   4.683   4.350   3.995
 9364SOL     OW28219   7.597   6.871   3.793
 9364SOL    HW128220   7.546   6.875   3.712
 9364SOL    HW228221   7.534   6.890   3.862
 9365SOL     OW28222   0.258   6.646  -0.033
 9365SOL    HW128223   0.196   6.716  -0.018
 9365SOL    HW228224   0.297   6.630   0.053
 9366SOL     OW28225   4.891   4.738   0.718
 9366SOL    HW128226   4.924   4.775   0.635
 9366SOL    HW228227   4.921   4.800   0.784
 9367SOL     OW28228   3.565   0.656   0.389
 9367SOL    HW128229   3.645   0.674   0.338
 9367SOL    HW228230   3.496   0.648   0.323
 9368SOL     OW28231  10.741   2.218   4.636
 9368SOL    HW128232  10.757   2.292   4.577
 9368SOL    HW228233  10.669   2.246   4.692
 9369SOL     OW28234   6.866   5.500   2.296
 9369SOL    HW128235   6.800   5.433   2.310
 9369SOL    HW228236   6.949   5.460   2.324
 9370SOL     OW28237   4.570   7.248   1.675
 9370SOL    HW128238   4.504   7.179   1.673
 9370SOL    HW228239   4.652   7.202   1.693
 9371SOL     OW28240   9.319   6.841   3.324
 9371SOL    HW128241   9.322   6.745   3.323
 9371SOL    HW228242   9.400   6.867   3.278
 9372SOL     OW28243   7.316   3.428   2.322
 9372SOL    HW128244   7.353   3.493   2.382
 9372SOL    HW228245   7.392   3.380   2.289
 9373SOL     OW28246   3.796   4.746   3.197
 9373SOL    HW128247   3.751   4.763   3.280
 9373SOL    HW228248   3.865   4.683   3.220
 9374SOL     OW28249   5.385   4.188   1.182
 9374SOL    HW128250   5.315   4.129   1.153
 9374SOL    HW228251   5.462   4.132   1.190
 9375SOL     OW28252   4.539   3.999   1.997
 9375SOL    HW128253   4.515   3.951   2.077
 9375SOL    HW228254   4.462   3.991   1.941
 9376SOL     OW28255   8.675   2.928   4.472
 9376SOL    HW128256   8.726   2.879   4.407
 9376SOL    HW228257   8.594   2.878   4.482
 9377SOL     OW28258   4.527   4.566   3.989
 9377SOL    HW128259   4.585   4.534   4.057
 9377SOL    HW228260   4.540   4.660   3.987
 9378SOL     OW28261   3.086   0.906   3.113
 9378SOL    HW128262   3.052   0.965   3.180
 9378SOL    HW228263   3.078   0.956   3.031
 9379SOL     OW28264   1.542   5.027   0.612
 9379SOL    HW128265   1.523   5.066   0.527
 9379SOL    HW228266   1.499   5.085   0.675
 9380SOL     OW28267   5.655   5.250   2.285
 9380SOL    HW128268   5.736   5.291   2.316
 9380SOL    HW228269   5.651   5.271   2.192
 9381SOL     OW28270   6.872   7.167   4.373
 9381SOL    HW128271   6.822   7.199   4.298
 9381SOL    HW228272   6.838   7.079   4.389
 9382SOL     OW28273   0.528   2.585   0.238
 9382SOL    HW128274   0.449   2.629   0.269
 9382SOL    HW228275   0.528   2.599   0.143
 9383SOL     OW28276   0.437   4.422   0.128
 9383SOL    HW128277   0.509   4.456   0.075
 9383SOL    HW228278   0.466   4.335   0.154
 9384SOL     OW28279   3.975   1.410   4.690
 9384SOL    HW128280   3.879   1.405   4.688
 9384SOL    HW228281   3.994   1.489   4.741
 9385SOL     OW28282   4.757   4.507   2.536
 9385SOL    HW128283   4.714   4.582   2.495
 9385SOL    HW228284   4.751   4.438   2.471
 9386SOL     OW28285   3.536   4.245   2.346
 9386SOL    HW128286   3.468   4.179   2.357
 9386SOL    HW228287   3.502   4.323   2.391
 9387SOL     OW28288   2.921   1.024   2.896
 9387SOL    HW128289   2.874   1.073   2.964
 9387SOL    HW228290   2.866   0.948   2.879
 9388SOL     OW28291   1.819   2.600   1.843
 9388SOL    HW128292   1.893   2.659   1.828
 9388SOL    HW228293   1.855   2.512   1.830
 9389SOL     OW28294   2.012   0.356   2.818
 9389SOL    HW128295   2.088   0.378   2.764
 9389SOL    HW228296   1.976   0.277   2.777
 9390SOL     OW28297   4.544   3.892   5.083
 9390SOL    HW128298   4.571   3.973   5.039
 9390SOL    HW228299   4.626   3.847   5.102
 9391SOL     OW28300   9.011   6.635   3.539
 9391SOL    HW128301   8.988   6.607   3.628
 9391SOL    HW228302   9.072   6.708   3.551
 9392SOL     OW28303   8.246   4.684   2.304
 9392SOL    HW128304   8.196   4.604   2.319
 9392SOL    HW228305   8.236   4.701   2.210
 9393SOL     OW28306   2.233   5.309   0.779
 9393SOL    HW128307   2.300   5.320   0.711
 9393SOL    HW228308   2.150   5.311   0.732
 9394SOL     OW28309   2.896   3.211   0.046
 9394SOL    HW128310   2.855   3.172  -0.032
 9394SOL    HW228311   2.890   3.305   0.032
 9395SOL     OW28312   5.095   3.595   2.818
 9395SOL    HW128313   5.121   3.537   2.746
 9395SOL    HW228314   5.176   3.637   2.845
 9396SOL     OW28315   7.241   2.846   3.813
 9396SOL    HW128316   7.224   2.775   3.875
 9396SOL    HW228317   7.230   2.925   3.865
 9397SOL     OW28318   7.934   1.231   4.567
 9397SOL    HW128319   7.924   1.139   4.543
 9397SOL    HW228320   7.847   1.269   4.554
 9398SOL     OW28321   7.880   2.111   4.212
 9398SOL    HW128322   7.924   2.052   4.150
 9398SOL    HW228323   7.845   2.053   4.279
 9399SOL     OW28324   7.212   4.722   1.419
 9399SOL    HW128325   7.228   4.642   1.469
 9399SOL    HW228326   7.281   4.782   1.446
 9400SOL     OW28327   1.153   5.713   1.026
 9400SOL    HW128328   1.080   5.680   0.974
 9400SOL    HW228329   1.112   5.765   1.096
 9401SOL     OW28330   5.051   4.128   2.490
 9401SOL    HW128331   5.133   4.139   2.539
 9401SOL    HW228332   4.984   4.165   2.546
 9402SOL     OW28333   4.041   4.834   3.822
 9402SOL    HW128334   4.071   4.924   3.831
 9402SOL    HW228335   4.090   4.785   3.888
 9403SOL     OW28336   7.612   7.419   0.440
 9403SOL    HW128337   7.677   7.367   0.393
 9403SOL    HW228338   7.601   7.498   0.387
 9404SOL     OW28339   7.447   0.959   3.739
 9404SOL    HW128340   7.501   0.929   3.813
 9404SOL    HW228341   7.453   1.054   3.744
 9405SOL     OW28342   8.345   7.464   2.134
 9405SOL    HW128343   8.377   7.453   2.223
 9405SOL    HW228344   8.384   7.391   2.086
 9406SOL     OW28345   5.420   6.059   2.452
 9406SOL    HW128346   5.326   6.055   2.434
 9406SOL    HW228347   5.426   6.090   2.543
 9407SOL     OW28348   1.396   4.837   1.926
 9407SOL    HW128349   1.380   4.873   1.839
 9407SOL    HW228350   1.442   4.755   1.910
 9408SOL     OW28351   7.650   6.073   3.413
 9408SOL    HW128352   7.614   5.989   3.441
 9408SOL    HW228353   7.628   6.079   3.320
 9409SOL     OW28354   6.916   2.486   5.036
 9409SOL    HW128355   6.994   2.449   4.996
 9409SOL    HW228356   6.884   2.418   5.096
 9410SOL     OW28357  10.134   2.380   4.868
 9410SOL    HW128358  10.080   2.435   4.811
 9410SOL    HW228359  10.208   2.436   4.892
 9411SOL     OW28360   7.103   2.603   3.958
 9411SOL    HW128361   7.010   2.593   3.981
 9411SOL    HW228362   7.150   2.583   4.039
 9412SOL     OW28363   8.348   6.707   4.186
 9412SOL    HW128364   8.332   6.797   4.156
 9412SOL    HW228365   8.310   6.703   4.273
 9413SOL     OW28366   3.868   0.459   3.622
 9413SOL    HW128367   3.867   0.541   3.573
 9413SOL    HW228368   3.870   0.391   3.554
 9414SOL     OW28369   1.683   5.678   1.790
 9414SOL    HW128370   1.621   5.714   1.727
 9414SOL    HW228371   1.738   5.619   1.738
 9415SOL     OW28372   2.376   4.913   0.647
 9415SOL    HW128373   2.349   4.970   0.719
 9415SOL    HW228374   2.351   4.961   0.568
 9416SOL     OW28375   5.853   5.554   4.086
 9416SOL    HW128376   5.939   5.593   4.072
 9416SOL    HW228377   5.869   5.476   4.140
 9417SOL     OW28378   8.420   5.269   4.845
 9417SOL    HW128379   8.492   5.217   4.808
 9417SOL    HW228380   8.417   5.243   4.937
 9418SOL     OW28381   4.330   1.635   3.677
 9418SOL    HW128382   4.373   1.711   3.637
 9418SOL    HW228383   4.237   1.654   3.669
 9419SOL     OW28384   3.444   3.445   4.150
 9419SOL    HW128385   3.350   3.428   4.144
 9419SOL    HW228386   3.451   3.534   4.182
 9420SOL     OW28387   7.329   1.241   0.422
 9420SOL    HW128388   7.366   1.169   0.371
 9420SOL    HW228389   7.238   1.248   0.392
 9421SOL     OW28390   1.890   4.216   2.592
 9421SOL    HW128391   1.921   4.266   2.517
 9421SOL    HW228392   1.869   4.281   2.658
 9422SOL     OW28393   4.128   3.014   1.848
 9422SOL    HW128394   4.074   3.089   1.822
 9422SOL    HW228395   4.125   2.955   1.772
 9423SOL     OW28396   7.750   7.073   4.684
 9423SOL    HW128397   7.769   6.991   4.640
 9423SOL    HW228398   7.836   7.111   4.703
 9424SOL     OW28399   2.385   2.404   0.787
 9424SOL    HW128400   2.362   2.426   0.877
 9424SOL    HW228401   2.315   2.441   0.734
 9425SOL     OW28402   3.022   6.267   1.245
 9425SOL    HW128403   2.928   6.249   1.244
 9425SOL    HW228404   3.053   6.234   1.160
 9426SOL     OW28405   3.036   5.569   2.640
 9426SOL    HW128406   3.015   5.508   2.569
 9426SOL    HW228407   3.015   5.655   2.604
 9427SOL     OW28408   1.929   3.014   0.144
 9427SOL    HW128409   1.838   3.024   0.117
 9427SOL    HW228410   1.979   3.066   0.081
 9428SOL     OW28411   8.249   0.521   3.107
 9428SOL    HW128412   8.329   0.574   3.106
 9428SOL    HW228413   8.179   0.582   3.084
 9429SOL     OW28414   8.514   7.356   4.606
 9429SOL    HW128415   8.599   7.394   4.586
 9429SOL    HW228416   8.511   7.352   4.702
 9430SOL     OW28417   7.963   6.044   3.009
 9430SOL    HW128418   7.877   6.032   3.051
 9430SOL    HW228419   7.944   6.047   2.916
 9431SOL     OW28420   9.534   2.177   3.960
 9431SOL    HW128421   9.446   2.210   3.976
 9431SOL    HW228422   9.591   2.234   4.014
 9432SOL     OW28423   5.571   2.367   1.765
 9432SOL    HW128424   5.604   2.329   1.846
 9432SOL    HW228425   5.645   2.364   1.705
 9433SOL     OW28426   8.493   3.057   5.179
 9433SOL    HW128427   8.437   3.073   5.103
 9433SOL    HW228428   8.508   2.962   5.178
 9434SOL     OW28429   6.992   3.054   1.621
 9434SOL    HW128430   7.021   3.021   1.706
 9434SOL    HW228431   6.914   3.002   1.600
 9435SOL     OW28432   6.330   1.800   3.419
 9435SOL    HW128433   6.315   1.865   3.488
 9435SOL    HW228434   6.419   1.817   3.388
 9436SOL     OW28435   7.674   3.307   3.955
 9436SOL    HW128436   7.661   3.377   3.890
 9436SOL    HW228437   7.621   3.235   3.923
 9437SOL     OW28438   3.033   1.610   1.310
 9437SOL    HW128439   2.944   1.575   1.305
 9437SOL    HW228440   3.051   1.644   1.222
 9438SOL     OW28441   6.320   0.151   5.126
 9438SOL    HW128442   6.252   0.083   5.124
 9438SOL    HW228443   6.338   0.163   5.219
 9439SOL     OW28444   7.196   6.819   5.102
 9439SOL    HW128445   7.225   6.909   5.115
 9439SOL    HW228446   7.102   6.821   5.124
 9440SOL     OW28447   5.441   6.115   4.378
 9440SOL    HW128448   5.474   6.170   4.307
 9440SOL    HW228449   5.500   6.040   4.380
 9441SOL     OW28450   1.596   6.646   0.849
 9441SOL    HW128451   1.672   6.607   0.891
 9441SOL    HW228452   1.587   6.599   0.766
 9442SOL     OW28453   6.834   2.824   2.246
 9442SOL    HW128454   6.756   2.783   2.208
 9442SOL    HW228455   6.888   2.751   2.275
 9443SOL     OW28456   3.700   2.960   2.672
 9443SOL    HW128457   3.748   2.906   2.734
 9443SOL    HW228458   3.608   2.936   2.684
 9444SOL     OW28459   8.212   3.321   3.527
 9444SOL    HW128460   8.255   3.300   3.444
 9444SOL    HW228461   8.120   3.337   3.502
 9445SOL     OW28462   3.442   4.726   4.646
 9445SOL    HW128463   3.488   4.742   4.564
 9445SOL    HW228464   3.428   4.631   4.648
 9446SOL     OW28465   9.433   3.455   4.769
 9446SOL    HW128466   9.362   3.421   4.824
 9446SOL    HW228467   9.391   3.474   4.685
 9447SOL     OW28468   3.959   5.166   0.432
 9447SOL    HW128469   4.027   5.099   0.426
 9447SOL    HW228470   3.999   5.236   0.483
 9448SOL     OW28471   2.998   5.818   2.607
 9448SOL    HW128472   2.904   5.837   2.602
 9448SOL    HW228473   3.040   5.904   2.604
 9449SOL     OW28474   2.806   3.760   4.007
 9449SOL    HW128475   2.895   3.788   3.986
 9449SOL    HW228476   2.814   3.667   4.028
 9450SOL     OW28477  10.034   7.185   4.723
 9450SOL    HW128478  10.015   7.274   4.751
 9450SOL    HW228479  10.119   7.191   4.680
 9451SOL     OW28480   4.531   5.614   2.654
 9451SOL    HW128481   4.623   5.636   2.637
 9451SOL    HW228482   4.486   5.637   2.573
 9452SOL     OW28483   1.917   1.275   0.214
 9452SOL    HW128484   1.855   1.241   0.279
 9452SOL    HW228485   1.910   1.215   0.140
 9453SOL     OW28486   6.083   2.267   4.639
 9453SOL    HW128487   6.114   2.339   4.694
 9453SOL    HW228488   5.992   2.253   4.665
 9454SOL     OW28489   8.416   6.109   2.169
 9454SOL    HW128490   8.321   6.112   2.183
 9454SOL    HW228491   8.453   6.152   2.246
 9455SOL     OW28492   3.261   3.599   3.746
 9455SOL    HW128493   3.230   3.574   3.833
 9455SOL    HW228494   3.218   3.683   3.729
 9456SOL     OW28495   9.816   7.233   3.958
 9456SOL    HW128496   9.815   7.316   3.910
 9456SOL    HW228497   9.725   7.202   3.954
 9457SOL     OW28498   4.013   3.404   1.716
 9457SOL    HW128499   4.093   3.430   1.671
 9457SOL    HW228500   3.963   3.485   1.726
 9458SOL     OW28501   3.285   4.220   1.257
 9458SOL    HW128502   3.290   4.281   1.331
 9458SOL    HW228503   3.223   4.261   1.197
 9459SOL     OW28504   8.180   5.471   1.793
 9459SOL    HW128505   8.098   5.437   1.756
 9459SOL    HW228506   8.193   5.420   1.873
 9460SOL     OW28507   5.594   2.886   0.364
 9460SOL    HW128508   5.583   2.791   0.370
 9460SOL    HW228509   5.504   2.919   0.354
 9461SOL     OW28510   6.756   2.335   1.346
 9461SOL    HW128511   6.792   2.376   1.425
 9461SOL    HW228512   6.668   2.306   1.372
 9462SOL     OW28513   8.504   4.583   2.436
 9462SOL    HW128514   8.586   4.541   2.410
 9462SOL    HW228515   8.496   4.658   2.377
 9463SOL     OW28516   2.563   3.870   1.475
 9463SOL    HW128517   2.597   3.848   1.562
 9463SOL    HW228518   2.497   3.804   1.457
 9464SOL     OW28519   4.244   6.298   3.308
 9464SOL    HW128520   4.161   6.279   3.265
 9464SOL    HW228521   4.224   6.290   3.402
 9465SOL     OW28522   4.667   5.931   2.230
 9465SOL    HW128523   4.750   5.936   2.277
 9465SOL    HW228524   4.693   5.933   2.137
 9466SOL     OW28525   7.146   3.724   0.466
 9466SOL    HW128526   7.146   3.689   0.376
 9466SOL    HW228527   7.214   3.674   0.511
 9467SOL     OW28528   7.936   5.038   2.794
 9467SOL    HW128529   7.973   5.124   2.772
 9467SOL    HW228530   7.864   5.027   2.732
 9468SOL     OW28531   8.117   1.057   2.294
 9468SOL    HW128532   8.027   1.074   2.320
 9468SOL    HW228533   8.117   0.966   2.263
 9469SOL     OW28534   8.021   5.462   2.389
 9469SOL    HW128535   7.994   5.519   2.317
 9469SOL    HW228536   7.952   5.471   2.454
 9470SOL     OW28537   6.179   5.838   0.415
 9470SOL    HW128538   6.147   5.804   0.332
 9470SOL    HW228539   6.274   5.840   0.406
 9471SOL     OW28540   8.109   2.356   5.175
 9471SOL    HW128541   8.024   2.386   5.207
 9471SOL    HW228542   8.088   2.289   5.110
 9472SOL     OW28543   5.779   1.891   2.217
 9472SOL    HW128544   5.770   1.796   2.223
 9472SOL    HW228545   5.690   1.922   2.199
 9473SOL     OW28546   8.438   6.029   4.847
 9473SOL    HW128547   8.513   5.974   4.826
 9473SOL    HW228548   8.471   6.090   4.913
 9474SOL     OW28549   6.429   0.402   2.488
 9474SOL    HW128550   6.350   0.403   2.433
 9474SOL    HW228551   6.484   0.472   2.451
 9475SOL     OW28552   5.657   4.214   0.808
 9475SOL    HW128553   5.620   4.206   0.896
 9475SOL    HW228554   5.658   4.309   0.792
 9476SOL     OW28555   6.240   6.345   1.347
 9476SOL    HW128556   6.221   6.311   1.259
 9476SOL    HW228557   6.294   6.422   1.332
 9477SOL     OW28558  10.136   3.660   4.772
 9477SOL    HW128559  10.045   3.688   4.762
 9477SOL    HW228560  10.181   3.739   4.803
 9478SOL     OW28561   9.366   2.065   4.971
 9478SOL    HW128562   9.378   2.125   4.898
 9478SOL    HW228563   9.425   1.992   4.953
 9479SOL     OW28564   2.138   5.376   2.016
 9479SOL    HW128565   2.052   5.393   1.977
 9479SOL    HW228566   2.136   5.425   2.098
 9480SOL     OW28567   7.929   0.580   4.979
 9480SOL    HW128568   7.898   0.666   4.950
 9480SOL    HW228569   8.021   0.595   5.003
 9481SOL     OW28570   4.921   5.761   1.489
 9481SOL    HW128571   4.870   5.834   1.525
 9481SOL    HW228572   4.893   5.755   1.398
 9482SOL     OW28573   3.113   2.438   3.874
 9482SOL    HW128574   3.185   2.383   3.905
 9482SOL    HW228575   3.041   2.377   3.861
 9483SOL     OW28576   2.642   3.351   0.145
 9483SOL    HW128577   2.550   3.331   0.131
 9483SOL    HW228578   2.682   3.343   0.058
 9484SOL     OW28579   5.392   6.292   5.072
 9484SOL    HW128580   5.327   6.331   5.132
 9484SOL    HW228581   5.417   6.210   5.114
 9485SOL     OW28582   3.169   7.318   3.775
 9485SOL    HW128583   3.102   7.356   3.718
 9485SOL    HW228584   3.219   7.393   3.806
 9486SOL     OW28585   1.368   1.188   1.091
 9486SOL    HW128586   1.446   1.243   1.082
 9486SOL    HW228587   1.398   1.100   1.068
 9487SOL     OW28588   5.945   1.736   5.082
 9487SOL    HW128589   5.996   1.718   5.161
 9487SOL    HW228590   6.006   1.782   5.024
 9488SOL     OW28591   2.408   5.058   2.134
 9488SOL    HW128592   2.342   5.105   2.185
 9488SOL    HW228593   2.456   5.006   2.198
 9489SOL     OW28594   0.667   4.626   0.089
 9489SOL    HW128595   0.625   4.700   0.133
 9489SOL    HW228596   0.696   4.569   0.160
 9490SOL     OW28597   0.911   2.069   1.120
 9490SOL    HW128598   0.847   2.066   1.191
 9490SOL    HW228599   0.964   1.990   1.133
 9491SOL     OW28600   3.277   2.301   1.172
 9491SOL    HW128601   3.229   2.236   1.121
 9491SOL    HW228602   3.239   2.297   1.259
 9492SOL     OW28603   2.444   0.049   2.111
 9492SOL    HW128604   2.463   0.091   2.195
 9492SOL    HW228605   2.466  -0.043   2.124
 9493SOL     OW28606   5.522   1.392   0.956
 9493SOL    HW128607   5.466   1.338   1.012
 9493SOL    HW228608   5.599   1.337   0.939
 9494SOL     OW28609   4.317   2.310   5.151
 9494SOL    HW128610   4.313   2.342   5.242
 9494SOL    HW228611   4.397   2.257   5.149
 9495SOL     OW28612   7.953   6.071   2.010
 9495SOL    HW128613   7.985   5.986   2.041
 9495SOL    HW228614   8.024   6.104   1.954
 9496SOL     OW28615   1.569   7.196   0.516
 9496SOL    HW128616   1.579   7.183   0.610
 9496SOL    HW228617   1.551   7.108   0.482
 9497SOL     OW28618   7.875   5.775   1.026
 9497SOL    HW128619   7.834   5.725   0.955
 9497SOL    HW228620   7.817   5.761   1.101
 9498SOL     OW28621   6.997   2.781   2.937
 9498SOL    HW128622   7.069   2.718   2.944
 9498SOL    HW228623   6.985   2.792   2.842
 9499SOL     OW28624   5.976   6.478   4.757
 9499SOL    HW128625   6.064   6.442   4.759
 9499SOL    HW228626   5.922   6.410   4.798
 9500SOL     OW28627   2.222   3.471   0.104
 9500SOL    HW128628   2.129   3.491   0.096
 9500SOL    HW228629   2.228   3.413   0.179
 9501SOL     OW28630   4.411   5.569   4.168
 9501SOL    HW128631   4.465   5.550   4.245
 9501SOL    HW228632   4.356   5.491   4.158
 9502SOL     OW28633   3.157   0.453   3.397
 9502SOL    HW128634   3.216   0.528   3.390
 9502SOL    HW228635   3.170   0.421   3.486
 9503SOL     OW28636   6.373   1.645   1.988
 9503SOL    HW128637   6.407   1.563   2.024
 9503SOL    HW228638   6.280   1.628   1.973
 9504SOL     OW28639   4.196   2.420   0.504
 9504SOL    HW128640   4.133   2.386   0.442
 9504SOL    HW228641   4.205   2.513   0.481
 9505SOL     OW28642   7.895   7.020   2.478
 9505SOL    HW128643   7.937   7.103   2.453
 9505SOL    HW228644   7.832   7.004   2.408
 9506SOL     OW28645   7.017   0.414   1.643
 9506SOL    HW128646   6.995   0.476   1.574
 9506SOL    HW228647   7.105   0.383   1.621
 9507SOL     OW28648   8.819   2.459   5.162
 9507SOL    HW128649   8.747   2.424   5.215
 9507SOL    HW228650   8.895   2.406   5.186
 9508SOL     OW28651   6.288   7.031   2.054
 9508SOL    HW128652   6.204   7.073   2.032
 9508SOL    HW228653   6.352   7.101   2.043
 9509SOL     OW28654   5.063   6.775   2.209
 9509SOL    HW128655   4.987   6.755   2.264
 9509SOL    HW228656   5.028   6.828   2.137
 9510SOL     OW28657   3.836   2.634   4.634
 9510SOL    HW128658   3.868   2.713   4.678
 9510SOL    HW228659   3.844   2.565   4.700
 9511SOL     OW28660   3.099   4.263   2.265
 9511SOL    HW128661   3.148   4.332   2.311
 9511SOL    HW228662   3.022   4.309   2.230
 9512SOL     OW28663   7.674   5.931   1.551
 9512SOL    HW128664   7.621   5.898   1.478
 9512SOL    HW228665   7.727   5.855   1.577
 9513SOL     OW28666   5.784   4.147   2.201
 9513SOL    HW128667   5.796   4.217   2.137
 9513SOL    HW228668   5.851   4.163   2.267
 9514SOL     OW28669   4.070   1.562   0.307
 9514SOL    HW128670   4.064   1.509   0.228
 9514SOL    HW228671   3.989   1.544   0.354
 9515SOL     OW28672   7.638   0.961   4.732
 9515SOL    HW128673   7.605   0.872   4.747
 9515SOL    HW228674   7.678   0.957   4.645
 9516SOL     OW28675   1.538   5.629   0.475
 9516SOL    HW128676   1.462   5.592   0.430
 9516SOL    HW228677   1.608   5.566   0.459
 9517SOL     OW28678   3.745   6.451   3.696
 9517SOL    HW128679   3.783   6.538   3.681
 9517SOL    HW228680   3.655   6.459   3.663
 9518SOL     OW28681   4.890   5.155   1.699
 9518SOL    HW128682   4.825   5.223   1.683
 9518SOL    HW228683   4.838   5.079   1.729
 9519SOL     OW28684   7.668   0.372   3.577
 9519SOL    HW128685   7.761   0.377   3.554
 9519SOL    HW228686   7.655   0.444   3.639
 9520SOL     OW28687   4.489   6.316   1.489
 9520SOL    HW128688   4.487   6.301   1.395
 9520SOL    HW228689   4.439   6.244   1.526
 9521SOL     OW28690   4.807   6.868   2.517
 9521SOL    HW128691   4.729   6.845   2.569
 9521SOL    HW228692   4.880   6.829   2.564
 9522SOL     OW28693   9.148   0.253   4.801
 9522SOL    HW128694   9.059   0.286   4.787
 9522SOL    HW228695   9.176   0.295   4.882
 9523SOL     OW28696   1.259   0.766   1.602
 9523SOL    HW128697   1.270   0.750   1.696
 9523SOL    HW228698   1.172   0.804   1.593
 9524SOL     OW28699   6.101   6.005   2.979
 9524SOL    HW128700   6.051   5.982   2.900
 9524SOL    HW228701   6.072   6.094   3.000
 9525SOL     OW28702   9.758   3.902   3.986
 9525SOL    HW128703   9.707   3.894   3.906
 9525SOL    HW228704   9.849   3.906   3.956
 9526SOL     OW28705   3.735   5.324   2.647
 9526SOL    HW128706   3.822   5.363   2.644
 9526SOL    HW228707   3.675   5.395   2.624
 9527SOL     OW28708   6.655   3.080   2.971
 9527SOL    HW128709   6.705   3.078   3.052
 9527SOL    HW228710   6.565   3.062   2.998
 9528SOL     OW28711   3.397   5.551   3.081
 9528SOL    HW128712   3.319   5.601   3.105
 9528SOL    HW228713   3.367   5.491   3.013
 9529SOL     OW28714   2.577   6.222   1.038
 9529SOL    HW128715   2.515   6.289   1.066
 9529SOL    HW228716   2.619   6.259   0.960
 9530SOL     OW28717   7.684   7.121   0.579
 9530SOL    HW128718   7.649   7.046   0.626
 9530SOL    HW228719   7.607   7.170   0.550
 9531SOL     OW28720   9.652   6.638   5.225
 9531SOL    HW128721   9.612   6.634   5.312
 9531SOL    HW228722   9.597   6.700   5.177
 9532SOL     OW28723   8.979   4.047   3.846
 9532SOL    HW128724   9.019   4.012   3.766
 9532SOL    HW228725   8.958   4.138   3.825
 9533SOL     OW28726   5.802   6.564   4.403
 9533SOL    HW128727   5.773   6.572   4.494
 9533SOL    HW228728   5.894   6.591   4.406
 9534SOL     OW28729  10.356   1.248   4.924
 9534SOL    HW128730  10.307   1.178   4.967
 9534SOL    HW228731  10.292   1.317   4.909
 9535SOL     OW28732   4.579   5.164   4.001
 9535SOL    HW128733   4.491   5.183   3.968
 9535SOL    HW228734   4.609   5.247   4.038
 9536SOL     OW28735   8.076   6.790   3.446
 9536SOL    HW128736   8.015   6.830   3.383
 9536SOL    HW228737   8.020   6.762   3.518
 9537SOL     OW28738   6.281   5.111   3.356
 9537SOL    HW128739   6.254   5.146   3.441
 9537SOL    HW228740   6.377   5.111   3.360
 9538SOL     OW28741   8.420   6.568   4.471
 9538SOL    HW128742   8.344   6.510   4.466
 9538SOL    HW228743   8.383   6.655   4.483
 9539SOL     OW28744   6.197   0.490   3.896
 9539SOL    HW128745   6.254   0.417   3.872
 9539SOL    HW228746   6.241   0.567   3.861
 9540SOL     OW28747   6.509   5.556   2.152
 9540SOL    HW128748   6.454   5.528   2.079
 9540SOL    HW228749   6.572   5.617   2.113
 9541SOL     OW28750   3.350   5.888   1.357
 9541SOL    HW128751   3.429   5.877   1.304
 9541SOL    HW228752   3.327   5.980   1.346
 9542SOL     OW28753   5.863   0.353   4.363
 9542SOL    HW128754   5.929   0.415   4.332
 9542SOL    HW228755   5.908   0.302   4.430
 9543SOL     OW28756   4.472   1.755   4.862
 9543SOL    HW128757   4.407   1.686   4.874
 9543SOL    HW228758   4.494   1.751   4.769
 9544SOL     OW28759   7.417   6.671   2.193
 9544SOL    HW128760   7.386   6.640   2.278
 9544SOL    HW228761   7.383   6.607   2.130
 9545SOL     OW28762   5.947   1.201   1.790
 9545SOL    HW128763   5.962   1.162   1.704
 9545SOL    HW228764   6.027   1.184   1.839
 9546SOL     OW28765   6.935   0.841   2.403
 9546SOL    HW128766   6.852   0.811   2.368
 9546SOL    HW228767   6.920   0.933   2.426
 9547SOL     OW28768   8.331   0.369   1.306
 9547SOL    HW128769   8.415   0.416   1.303
 9547SOL    HW228770   8.351   0.288   1.353
 9548SOL     OW28771   7.125   6.146   0.340
 9548SOL    HW128772   7.207   6.171   0.384
 9548SOL    HW228773   7.069   6.222   0.349
 9549SOL     OW28774   3.409   0.767   1.984
 9549SOL    HW128775   3.456   0.837   1.940
 9549SOL    HW228776   3.393   0.702   1.916
 9550SOL     OW28777   6.006   0.810   4.304
 9550SOL    HW128778   5.937   0.876   4.302
 9550SOL    HW228779   6.072   0.846   4.364
 9551SOL     OW28780   4.140   4.964   2.657
 9551SOL    HW128781   4.089   4.921   2.726
 9551SOL    HW228782   4.146   4.899   2.588
 9552SOL     OW28783   6.014   5.505   4.340
 9552SOL    HW128784   6.025   5.522   4.433
 9552SOL    HW228785   6.041   5.587   4.297
 9553SOL     OW28786   6.236   7.389   4.268
 9553SOL    HW128787   6.245   7.373   4.362
 9553SOL    HW228788   6.223   7.484   4.262
 9554SOL     OW28789   3.728   7.416   1.090
 9554SOL    HW128790   3.665   7.464   1.036
 9554SOL    HW228791   3.778   7.485   1.134
 9555SOL     OW28792   8.291   1.879   5.268
 9555SOL    HW128793   8.260   1.908   5.183
 9555SOL    HW228794   8.359   1.815   5.249
 9556SOL     OW28795   5.635   3.436   1.988
 9556SOL    HW128796   5.645   3.355   2.038
 9556SOL    HW228797   5.631   3.407   1.897
 9557SOL     OW28798   8.864   0.777   2.530
 9557SOL    HW128799   8.811   0.704   2.563
 9557SOL    HW228800   8.829   0.854   2.574
 9558SOL     OW28801   8.057   4.630   0.919
 9558SOL    HW128802   8.006   4.669   0.848
 9558SOL    HW228803   8.138   4.681   0.921
 9559SOL     OW28804   3.585   3.341   0.856
 9559SOL    HW128805   3.635   3.301   0.785
 9559SOL    HW228806   3.624   3.306   0.936
 9560SOL     OW28807   6.326   5.690   1.608
 9560SOL    HW128808   6.334   5.773   1.560
 9560SOL    HW228809   6.241   5.695   1.651
 9561SOL     OW28810   9.434   2.327   4.326
 9561SOL    HW128811   9.364   2.276   4.285
 9561SOL    HW228812   9.391   2.408   4.353
 9562SOL     OW28813   3.287   6.348   2.043
 9562SOL    HW128814   3.227   6.360   1.970
 9562SOL    HW228815   3.231   6.326   2.118
 9563SOL     OW28816   5.455   1.700   4.136
 9563SOL    HW128817   5.498   1.644   4.200
 9563SOL    HW228818   5.424   1.775   4.187
 9564SOL     OW28819   7.580   5.205   4.074
 9564SOL    HW128820   7.518   5.189   4.003
 9564SOL    HW228821   7.647   5.138   4.064
 9565SOL     OW28822   9.636   6.888   4.076
 9565SOL    HW128823   9.652   6.914   4.167
 9565SOL    HW228824   9.615   6.970   4.032
 9566SOL     OW28825   8.589   2.505   4.064
 9566SOL    HW128826   8.595   2.596   4.094
 9566SOL    HW228827   8.608   2.510   3.971
 9567SOL     OW28828   7.198   3.376   3.808
 9567SOL    HW128829   7.153   3.291   3.805
 9567SOL    HW228830   7.208   3.393   3.902
 9568SOL     OW28831   5.761   7.195   3.461
 9568SOL    HW128832   5.730   7.280   3.492
 9568SOL    HW228833   5.725   7.132   3.523
 9569SOL     OW28834   3.342   4.598   4.249
 9569SOL    HW128835   3.278   4.613   4.180
 9569SOL    HW228836   3.308   4.647   4.324
 9570SOL     OW28837   9.985   1.713   4.380
 9570SOL    HW128838  10.060   1.658   4.406
 9570SOL    HW228839   9.920   1.650   4.348
 9571SOL     OW28840   5.351   5.751   5.081
 9571SOL    HW128841   5.272   5.772   5.131
 9571SOL    HW228842   5.410   5.825   5.098
 9572SOL     OW28843   8.893   4.291   3.755
 9572SOL    HW128844   8.889   4.383   3.780
 9572SOL    HW228845   8.893   4.291   3.660
 9573SOL     OW28846   7.073   0.053   0.438
 9573SOL    HW128847   7.062  -0.038   0.465
 9573SOL    HW228848   7.142   0.052   0.372
 9574SOL     OW28849   2.692   7.043   3.455
 9574SOL    HW128850   2.688   7.139   3.457
 9574SOL    HW228851   2.730   7.019   3.540
 9575SOL     OW28852   4.800   1.655   0.152
 9575SOL    HW128853   4.864   1.658   0.081
 9575SOL    HW228854   4.809   1.739   0.196
 9576SOL     OW28855   4.792   6.021   0.181
 9576SOL    HW128856   4.741   6.033   0.100
 9576SOL    HW228857   4.728   6.036   0.251
 9577SOL     OW28858   3.910   0.091   5.195
 9577SOL    HW128859   3.944   0.009   5.232
 9577SOL    HW228860   3.986   0.148   5.187
 9578NA      NA28861   6.418   0.231   3.042
 9579NA      NA28862   8.786   3.232   4.871
 9580NA      NA28863   8.219   7.223   2.861
 9581NA      NA28864   8.221   6.566   4.016
 9582NA      NA28865   5.402   3.705   0.747
 9583NA      NA28866   5.282   0.563   3.079
 9584NA      NA28867   6.767   1.042   3.102
 9585NA      NA28868   7.006   3.287   1.524
 9586NA      NA28869   9.572   6.595   3.533
 9587NA      NA28870   4.709   4.294   1.686
 9588NA      NA28871   0.560   4.810   0.574
 9589NA      NA28872   5.994   5.935   0.542
 9590NA      NA28873   9.649   2.993   4.755
 9591NA      NA28874   7.159   2.489   2.279
 9592NA      NA28875   4.594   4.658   3.412
 9593NA      NA28876   6.484   7.107   4.015
 9594NA      NA28877   6.144   7.397   2.305
 9595NA      NA28878   4.854   7.030   1.081
 9596NA      NA28879   5.342   3.711   2.283
 9597NA      NA28880   3.973   2.458   4.188
 9598NA      NA28881   0.906   0.751   0.397
 9599NA      NA28882   6.226   2.183   3.200
 9600NA      NA28883   3.987   5.819   5.007
 9601NA      NA28884   5.093   4.550   3.080
 9602NA      NA28885   6.935   0.196   5.276
 9603NA      NA28886   1.206   1.479   1.453
 9604NA      NA28887   6.748   2.991   2.779
 9605CL      CL28888   4.099   3.961   5.175
 9606CL      CL28889   8.748   2.078   2.108
 9607CL      CL28890   0.437   3.151   0.233
 9608CL      CL28891   6.732   6.633   0.465
 9609CL      CL28892   2.972   7.418   3.570
 9610CL      CL28893   4.874   4.474   1.808
 9611CL      CL28894   2.340   5.789   0.195
 9612CL      CL28895   5.899   5.901   1.030
 9613CL      CL28896   6.670   2.453   1.861
 9614CL      CL28897   9.699   6.968   4.366
 9615CL      CL28898   5.454   6.816   0.245
 9616CL      CL28899   6.463   0.745   2.875
 9617CL      CL28900   8.267   3.597   4.497
 9618CL      CL28901   5.343   7.087   3.149
 9619CL      CL28902   7.277   5.570   1.989
 9620CL      CL28903   6.549   1.191   5.162
 9621CL      CL28904   4.519   0.706   0.317
 9622CL      CL28905   5.908   3.567   2.667
 9623CL      CL28906   5.410   3.667   1.010
 9624CL      CL28907   4.491   4.685   4.371
 9625CL      CL28908   4.632   6.672   3.893
 9626CL      CL28909   6.649   0.443   3.279
 9627CL      CL28910   5.746   3.812   1.292
 9628CL      CL28911   7.384   6.293   2.586
 9629CL      CL28912   2.753   2.555   0.112
 9630CL      CL28913   3.695   7.089   2.619
 9631CL      CL28914   4.607   4.429   0.366
   7.46999   7.46999   5.28208   0.00000   0.00000   0.00000   0.00000   3.73500   3.73500
