Protein in water
12431
    1GLY      N    1   0.268   0.419   3.505 -0.1724 -0.2846 -0.1835
    1GLY     H1    2   0.237   0.503   3.549 -0.9113 -0.0814 -1.0785
    1GLY     H2    3   0.366   0.420   3.483  0.2519  0.1114  1.5577
    1GLY     CA    4   0.252   0.296   3.595  0.6737  0.4350 -0.2583
    1GLY    HA1    5   0.340   0.282   3.657  1.8009  3.3457 -0.9799
    1GLY    HA2    6   0.160   0.302   3.652  0.9329 -1.3962  0.4015
    1GLY      C    7   0.249   0.171   3.515  0.1455  0.2080  0.1239
    1GLY      O    8   0.325   0.076   3.531  0.4168  0.5957  0.5355
    2TYR      N    9   0.154   0.166   3.428 -0.2374  0.0068  0.2825
    2TYR     HN   10   0.100   0.249   3.414  2.6508  1.7699 -1.4109
    2TYR     CA   11   0.145   0.068   3.324 -0.1791  0.2181 -1.0692
    2TYR     HA   12   0.151  -0.028   3.373 -0.3496  1.5316  1.7244
    2TYR     CB   13   0.012   0.056   3.252  0.5930 -0.1261  0.0021
    2TYR    HB1   14   0.011  -0.025   3.175  1.4716 -0.0673 -0.0812
    2TYR    HB2   15  -0.070   0.033   3.323  1.3520 -0.9905  0.6137
    2TYR     CG   16  -0.018   0.183   3.176  0.1825  0.4556 -0.4440
    2TYR    CD1   17  -0.078   0.290   3.240  0.0477 -0.0305  0.6895
    2TYR    HD1   18  -0.132   0.277   3.332 -2.7826  0.4982 -0.7628
    2TYR    CE1   19  -0.102   0.406   3.175 -0.3118  0.3842  0.3088
    2TYR    HE1   20  -0.168   0.473   3.228 -0.7252  0.1152  0.1394
    2TYR     CZ   21  -0.074   0.422   3.037  0.1453  0.1791  0.4138
    2TYR     OH   22  -0.105   0.547   2.985  0.3264  0.2922  0.3761
    2TYR     HH   23  -0.080   0.531   2.894  0.4168 -0.7656  0.5751
    2TYR    CD2   24   0.018   0.201   3.043 -0.0842  0.3364 -0.4420
    2TYR    HD2   25   0.083   0.135   2.988 -2.2812 -1.5407 -0.8936
    2TYR    CE2   26  -0.005   0.324   2.969 -0.1171 -0.0228  0.2070
    2TYR    HE2   27   0.031   0.343   2.869 -0.4786  0.3207  0.1394
    2TYR      C   28   0.268   0.066   3.228 -0.2888 -0.0052  0.2132
    2TYR      O   29   0.338   0.168   3.200  0.7381 -0.1437 -0.1008
    3ASP      N   30   0.308  -0.051   3.181 -0.5976  0.0309 -0.4804
    3ASP     HN   31   0.262  -0.131   3.217  0.4806 -0.4349 -0.0969
    3ASP     CA   32   0.430  -0.078   3.100 -0.3781 -0.1154  0.5039
    3ASP     HA   33   0.501   0.001   3.120  0.8177 -0.8606 -0.5981
    3ASP     CB   34   0.495  -0.218   3.148 -0.2156  0.8306  0.1638
    3ASP    HB1   35   0.417  -0.295   3.166  1.7655 -1.6953 -1.1784
    3ASP    HB2   36   0.575  -0.245   3.075 -1.2927 -1.2109 -0.3433
    3ASP     CG   37   0.560  -0.199   3.284 -0.6054 -0.1560 -0.4881
    3ASP    OD1   38   0.614  -0.088   3.305 -0.0745 -0.1471  0.0233
    3ASP    OD2   39   0.591  -0.305   3.349  1.0602  0.2009 -0.0092
    3ASP      C   40   0.396  -0.078   2.955  0.1046  0.2371 -0.0739
    3ASP      O   41   0.310  -0.161   2.918 -0.3948  0.6466 -0.2690
    4PRO      N   42   0.441   0.005   2.863 -0.1735  0.1720 -0.3152
    4PRO     CD   43   0.493   0.135   2.891 -0.0968  0.4543 -0.3165
    4PRO    HD1   44   0.586   0.128   2.951  0.7176  0.5237 -1.5411
    4PRO    HD2   45   0.406   0.183   2.941 -1.3823 -0.9226 -1.1341
    4PRO     CA   46   0.387   0.003   2.728 -0.5932 -0.3204  0.3906
    4PRO     HA   47   0.281  -0.015   2.729 -0.7261  0.4638  0.9027
    4PRO     CB   48   0.403   0.148   2.675 -0.3069 -0.8188  0.1367
    4PRO    HB1   49   0.441   0.154   2.572 -0.8433 -1.6128 -0.1233
    4PRO    HB2   50   0.309   0.206   2.682  0.5157  0.7201 -1.0055
    4PRO     CG   51   0.514   0.207   2.760 -0.1317 -0.0479  0.3474
    4PRO    HG1   52   0.613   0.198   2.712  0.7004  3.7093  1.0448
    4PRO    HG2   53   0.496   0.315   2.779 -0.1263 -0.2240  1.3970
    4PRO      C   54   0.454  -0.104   2.636 -0.2506  0.0019  0.6993
    4PRO      O   55   0.555  -0.157   2.678 -0.2861 -0.2457 -0.5707
    5GLU      N   56   0.389  -0.147   2.526  0.1750  0.5190  0.0072
    5GLU     HN   57   0.296  -0.113   2.514  0.2951  2.5211  3.4022
    5GLU     CA   58   0.431  -0.249   2.435 -0.4198 -0.2731  0.7102
    5GLU     HA   59   0.441  -0.343   2.487  1.1354  0.1085  1.1718
    5GLU     CB   60   0.330  -0.264   2.323  0.2824  0.0315 -0.7294
    5GLU    HB1   61   0.235  -0.279   2.378 -0.0798 -3.4200 -2.0948
    5GLU    HB2   62   0.327  -0.173   2.260  0.2849  0.0843 -0.6539
    5GLU     CG   63   0.352  -0.387   2.230  0.1467 -0.1779  0.1438
    5GLU    HG1   64   0.454  -0.381   2.186  0.1953 -0.0126  0.2812
    5GLU    HG2   65   0.336  -0.477   2.293 -2.7451  0.6327  0.7183
    5GLU     CD   66   0.252  -0.398   2.126 -0.1070  0.1656  0.8530
    5GLU    OE1   67   0.260  -0.316   2.030  0.1793  0.7544  0.2125
    5GLU    OE2   68   0.159  -0.487   2.131 -0.3747  0.0891 -0.8858
    5GLU      C   69   0.573  -0.221   2.380 -0.3325  0.4650  0.3582
    5GLU      O   70   0.609  -0.109   2.350  0.0994 -0.1977 -0.0891
    6THR      N   71   0.660  -0.326   2.379  0.1393 -0.0655  0.1448
    6THR     HN   72   0.628  -0.413   2.415 -2.9040  0.3500 -1.2215
    6THR     CA   73   0.799  -0.323   2.331 -0.1446  0.0397  0.2889
    6THR     HA   74   0.809  -0.260   2.244  1.1185 -0.2398  0.2147
    6THR     CB   75   0.907  -0.278   2.421 -0.1906 -0.2672 -0.5531
    6THR     HB   76   0.883  -0.173   2.449  1.0468 -0.4523  1.4117
    6THR    OG1   77   1.043  -0.283   2.373 -0.3592 -0.8924  0.2605
    6THR    HG1   78   1.039  -0.278   2.277  1.5195  3.6147  0.1692
    6THR    CG2   79   0.898  -0.365   2.552 -0.0687 -0.3112 -0.1809
    6THR   HG21   80   0.911  -0.472   2.526  1.3827  0.3000 -2.2043
    6THR   HG22   81   0.980  -0.336   2.622  1.3448 -2.4906 -0.8407
    6THR   HG23   82   0.799  -0.356   2.603 -0.7610 -0.6019 -1.4412
    6THR      C   83   0.833  -0.466   2.271  0.2071 -0.3187  0.3534
    6THR      O   84   0.758  -0.567   2.296  0.5170  0.3960 -0.2400
    7GLY      N   85   0.937  -0.473   2.182 -0.1375 -0.1529  0.3475
    7GLY     HN   86   0.981  -0.389   2.152  1.1654 -0.9535 -0.0549
    7GLY     CA   87   0.975  -0.594   2.108  0.3054 -0.7249 -0.8731
    7GLY    HA1   88   0.884  -0.622   2.057 -1.3871  1.0689  0.9701
    7GLY    HA2   89   1.052  -0.561   2.040 -1.9563  0.8905 -2.8320
    7GLY      C   90   1.032  -0.698   2.198  0.2453 -0.1491  0.2909
    7GLY      O   91   1.017  -0.695   2.319  0.7852 -0.9623 -0.2363
    8THR      N   92   1.092  -0.796   2.139 -0.0751 -0.5329  0.5120
    8THR     HN   93   1.091  -0.803   2.040 -1.2799 -0.1915  0.4858
    8THR     CA   94   1.149  -0.911   2.206 -0.9074  0.6722 -0.2232
    8THR     HA   95   1.177  -0.867   2.300 -3.5912 -0.1561  1.0721
    8THR     CB   96   1.054  -1.032   2.223  0.8405  0.3547 -0.3017
    8THR     HB   97   0.950  -0.997   2.206 -0.3127 -2.1835  0.8705
    8THR    OG1   98   1.066  -1.081   2.356  0.1544 -0.2389 -0.5568
    8THR    HG1   99   1.077  -1.003   2.412  2.9429  0.7989 -2.3508
    8THR    CG2  100   1.070  -1.144   2.121 -0.3184 -0.2337 -0.4926
    8THR   HG21  101   1.159  -1.203   2.151 -0.5457 -0.3661 -0.0741
    8THR   HG22  102   0.985  -1.215   2.131  1.0196 -1.6556  1.4691
    8THR   HG23  103   1.071  -1.102   2.018  0.6727  2.0471  0.3662
    8THR      C  104   1.291  -0.941   2.149  0.5401  0.9085 -0.2632
    8THR      O  105   1.309  -0.907   2.031 -0.3206 -0.0079 -0.2870
    9TRP      N  106   1.384  -1.005   2.221  0.1180 -0.0764 -0.0168
    9TRP     HN  107   1.361  -1.018   2.317 -1.7948  3.7929  0.2352
    9TRP     CA  108   1.505  -1.056   2.166 -0.4372 -0.3155 -0.1183
    9TRP     HA  109   1.559  -0.967   2.136  0.1109 -0.8936 -0.8968
    9TRP     CB  110   1.595  -1.126   2.275  0.3716 -0.2247 -0.9528
    9TRP    HB1  111   1.605  -1.066   2.368  1.5732 -2.4696  0.4640
    9TRP    HB2  112   1.540  -1.220   2.297  1.9507 -0.8189  0.7401
    9TRP     CG  113   1.739  -1.161   2.236  0.2052 -0.0917 -0.3253
    9TRP    CD1  114   1.782  -1.290   2.231  0.4835 -0.3686 -0.8689
    9TRP    HD1  115   1.715  -1.374   2.239  1.1911 -0.9997 -1.4742
    9TRP    NE1  116   1.909  -1.291   2.178 -0.2199 -0.3063  0.3855
    9TRP    HE1  117   1.982  -1.356   2.169  0.8670  1.1627 -2.4764
    9TRP    CE2  118   1.946  -1.163   2.154 -0.7755  0.3433  0.1053
    9TRP    CD2  119   1.846  -1.076   2.199  0.6448  1.3906  0.0416
    9TRP    CE3  120   1.865  -0.940   2.190  0.3993 -1.2409 -0.5902
    9TRP    HE3  121   1.789  -0.873   2.229  1.0408 -1.8126  1.8696
    9TRP    CZ3  122   1.993  -0.893   2.153  0.3645  0.3865 -0.0257
    9TRP    HZ3  123   2.000  -0.786   2.143  1.2589  0.2529 -1.0025
    9TRP    CZ2  124   2.075  -1.112   2.121  0.2035 -0.0719  0.8167
    9TRP    HZ2  125   2.160  -1.172   2.094 -0.0680  0.0766 -0.4368
    9TRP    CH2  126   2.095  -0.975   2.116  0.7712  0.6494 -0.5214
    9TRP    HH2  127   2.187  -0.932   2.078  0.6821  0.8525 -0.5125
    9TRP      C  128   1.496  -1.148   2.045  0.2808 -0.2815  0.0014
    9TRP      O  129   1.394  -1.221   2.034 -0.4535 -0.5341  0.0953
   10GLY      N  130   1.601  -1.142   1.952  0.4235  0.3030  0.5019
   10GLY     HN  131   1.678  -1.082   1.970  0.2404  0.9579 -0.7609
   10GLY     CA  132   1.610  -1.224   1.825 -0.7509  0.3018 -0.2074
   10GLY    HA1  133   1.526  -1.186   1.769  0.6330  3.4764 -0.3371
   10GLY    HA2  134   1.705  -1.221   1.775 -1.4387 -2.8648 -1.9266
   10GLY      C  135   1.589  -1.375   1.842 -0.2898 -0.1605 -0.0142
   10GLY    OT1  136   1.646  -1.453   1.915 -0.2462  0.1249 -0.3817
   10GLY    OT2  137   1.480  -1.417   1.770 -0.4757  0.4022  0.0489
   10GLY    HT2  138   1.477  -1.509   1.796  2.3041  0.5451  1.2239
   11SOL     OW  139   2.688   5.459   3.901  0.1707  0.4643 -0.0723
   11SOL    HW1  140   2.723   5.391   3.960 -0.7088  0.8875  0.9637
   11SOL    HW2  141   2.612   5.419   3.860 -0.6254  0.9521  0.8883
   12SOL     OW  142   0.641   0.919   3.504  0.1386 -0.0631  0.0972
   12SOL    HW1  143   0.670   1.010   3.510  1.1148 -0.3818  0.2763
   12SOL    HW2  144   0.720   0.867   3.519 -0.4962 -0.9485  0.4467
   13SOL     OW  145   2.280   1.961   2.831  0.3202 -0.2238 -0.3302
   13SOL    HW1  146   2.328   1.968   2.749  1.7145 -1.1575  0.3745
   13SOL    HW2  147   2.230   1.880   2.824 -0.9277  0.5747 -0.9265
   14SOL     OW  148   4.643   5.435   1.387 -0.1649 -0.2556 -0.0037
   14SOL    HW1  149   4.634   5.530   1.387  0.1367 -0.2186  0.7561
   14SOL    HW2  150   4.687   5.415   1.304  0.6684  0.3656  0.2657
   15SOL     OW  151   3.605   4.885   2.306 -0.1774  0.0673  0.8458
   15SOL    HW1  152   3.675   4.821   2.287  0.4311  1.2278 -1.1804
   15SOL    HW2  153   3.643   4.943   2.372  0.6873  0.4637  0.0340
   16SOL     OW  154   1.968   2.677   3.287  0.3159 -0.4448 -0.4221
   16SOL    HW1  155   1.962   2.749   3.224  1.2777 -0.0037 -0.0229
   16SOL    HW2  156   1.917   2.706   3.362  1.0342  0.0193 -0.0964
   17SOL     OW  157   0.423   0.168   3.866  0.0982  0.3330  0.5979
   17SOL    HW1  158   0.503   0.165   3.919  1.6945 -1.8562 -1.6994
   17SOL    HW2  159   0.449   0.215   3.786 -0.5129 -1.3632 -0.6659
   18SOL     OW  160   2.223   2.701   2.678  0.0127 -0.7223 -0.1716
   18SOL    HW1  161   2.307   2.704   2.633  0.1032  1.9873 -0.0216
   18SOL    HW2  162   2.166   2.652   2.619  1.1852 -0.8726 -1.2220
   19SOL     OW  163   4.887   4.746   3.102  0.4326  0.4175  0.1778
   19SOL    HW1  164   4.833   4.766   3.025 -1.5702 -2.0276  0.7919
   19SOL    HW2  165   4.977   4.756   3.072 -0.3060  0.5610 -2.1609
   20SOL     OW  166   2.277   2.039   1.146  0.0411 -0.3355 -0.4798
   20SOL    HW1  167   2.215   1.985   1.096 -1.1781 -0.6590  1.2829
   20SOL    HW2  168   2.345   1.978   1.173  1.3381  0.0634 -2.6088
   21SOL     OW  169   2.601   0.122   3.735  0.2859 -0.4382 -0.7315
   21SOL    HW1  170   2.565   0.042   3.697  3.4092 -1.0262 -2.8254
   21SOL    HW2  171   2.670   0.091   3.793  2.1492  0.6679 -2.2484
   22SOL     OW  172   4.314   4.634   0.052 -0.6394 -0.4706  0.0904
   22SOL    HW1  173   4.237   4.611   0.104 -1.9321 -0.4293 -1.7109
   22SOL    HW2  174   4.359   4.550   0.039 -0.3004 -0.4839  1.2114
   23SOL     OW  175   3.245   3.383   3.212 -0.3445  0.3056  0.3303
   23SOL    HW1  176   3.305   3.385   3.286  0.5269 -0.6716 -0.3264
   23SOL    HW2  177   3.183   3.313   3.233 -0.1153  0.0487  0.1596
   24SOL     OW  178   3.945   5.051   0.357  0.8638 -0.7579  0.3350
   24SOL    HW1  179   3.968   5.106   0.283  0.0589  1.7512  1.8183
   24SOL    HW2  180   3.852   5.030   0.344  1.0122 -1.2804  0.0829
   25SOL     OW  181   4.914   5.359   1.179 -0.6797  0.1077  0.5821
   25SOL    HW1  182   4.956   5.347   1.264 -1.1001  1.1845  0.9740
   25SOL    HW2  183   4.985   5.355   1.116 -0.6254 -3.0488  0.7025
   26SOL     OW  184   1.465   2.588   1.044  0.5512 -0.0553  0.1636
   26SOL    HW1  185   1.427   2.604   1.130 -0.4502 -0.1577 -0.2437
   26SOL    HW2  186   1.504   2.672   1.020 -0.0872  0.2837  0.2789
   27SOL     OW  187   0.140   4.591   0.043  0.7635 -0.4234  0.3300
   27SOL    HW1  188   0.093   4.508   0.040 -1.3678  0.6254  1.8759
   27SOL    HW2  189   0.073   4.657   0.021  2.2407  0.9521 -0.2345
   28SOL     OW  190   0.969   4.411   2.607 -0.5258 -0.1611 -0.3171
   28SOL    HW1  191   0.992   4.441   2.520 -2.0961 -0.5038 -0.8939
   28SOL    HW2  192   1.046   4.364   2.638  0.7352  1.5522 -0.7435
   29SOL     OW  193   1.974   3.267   1.361  0.1700  0.1766  0.0237
   29SOL    HW1  194   1.944   3.301   1.277  1.4294  0.3862 -0.3746
   29SOL    HW2  195   2.066   3.294   1.366  0.9261 -2.2037  0.1777
   30SOL     OW  196   0.634   0.371   3.738 -0.3811 -0.1341 -0.6718
   30SOL    HW1  197   0.718   0.326   3.748  0.4473  1.3342 -0.8243
   30SOL    HW2  198   0.628   0.388   3.644 -1.0794 -0.6517 -0.7232
   31SOL     OW  199   3.707   1.903   2.523 -0.2404 -0.2682 -0.0454
   31SOL    HW1  200   3.739   1.913   2.612  0.6587 -2.6002 -0.0282
   31SOL    HW2  201   3.626   1.853   2.532  0.0702 -0.8836 -0.5177
   32SOL     OW  202   5.364   0.179   2.132  0.4466 -1.0108  0.1817
   32SOL    HW1  203   5.312   0.236   2.188  1.2640  1.2991 -1.2685
   32SOL    HW2  204   5.312   0.099   2.125 -1.5874  0.1503  0.9684
   33SOL     OW  205   0.917   1.148   3.825  0.4753  0.5663 -0.4801
   33SOL    HW1  206   0.852   1.090   3.865 -0.4788  1.4252 -0.7435
   33SOL    HW2  207   0.990   1.091   3.804  0.0446 -0.3200  0.3662
   34SOL     OW  208   3.552   4.617   3.739  0.6294 -0.0394 -0.0789
   34SOL    HW1  209   3.596   4.557   3.679 -0.4877  1.4388 -2.5415
   34SOL    HW2  210   3.476   4.649   3.689 -0.8120  0.7281  2.4287
   35SOL     OW  211   4.172   1.285   2.554  0.1346  0.8256 -0.2346
   35SOL    HW1  212   4.212   1.222   2.494  2.2796  1.6336  0.2427
   35SOL    HW2  213   4.118   1.340   2.498  0.5477  0.3671 -1.1122
   36SOL     OW  214   2.312   3.169   2.534 -0.5778  0.1388 -0.4344
   36SOL    HW1  215   2.358   3.229   2.476 -1.3042  0.5244 -0.6234
   36SOL    HW2  216   2.379   3.136   2.594 -0.0109  0.4715 -0.8820
   37SOL     OW  217   4.231   4.395   1.873  0.6974  0.4360 -0.0915
   37SOL    HW1  218   4.315   4.433   1.897  1.6231 -0.9166 -1.0295
   37SOL    HW2  219   4.232   4.308   1.912  0.1088  0.0896 -0.8211
   38SOL     OW  220   1.899   0.504   0.928  0.5694  0.4086  0.1341
   38SOL    HW1  221   1.806   0.509   0.947  0.8081 -0.2338  1.6056
   38SOL    HW2  222   1.940   0.561   0.993  1.1875  0.9094 -0.6785
   39SOL     OW  223   4.733   5.118   3.451  0.1804  0.0381  0.9973
   39SOL    HW1  224   4.662   5.055   3.438  1.0525 -0.5002 -1.5742
   39SOL    HW2  225   4.812   5.070   3.429  1.0277  1.5863  0.5351
   40SOL     OW  226   3.289   0.969   0.264 -0.5334  0.1250  0.0293
   40SOL    HW1  227   3.317   0.950   0.353 -0.3689 -0.6445 -0.1779
   40SOL    HW2  228   3.368   0.960   0.211 -1.1349 -2.4273 -0.6121
   41SOL     OW  229   1.048   0.051   3.822  0.1411  0.0417 -0.1186
   41SOL    HW1  230   1.138   0.069   3.794 -0.1791 -0.0150 -1.1850
   41SOL    HW2  231   1.021  -0.026   3.772 -0.3822 -0.1774  0.4769
   42SOL     OW  232   1.472   3.860   2.921 -0.0552  0.5750 -0.0516
   42SOL    HW1  233   1.461   3.777   2.875  2.6453 -0.3343  0.7593
   42SOL    HW2  234   1.408   3.857   2.992 -1.6435  0.3199 -1.4405
   43SOL     OW  235   3.191   2.979   1.984 -0.2890  0.0826  0.4435
   43SOL    HW1  236   3.280   2.981   2.021 -0.2694 -0.0741  0.4042
   43SOL    HW2  237   3.179   3.067   1.947  0.1141 -0.1074 -0.1681
   44SOL     OW  238   0.862   5.389   3.931  0.1749 -0.5317  0.4814
   44SOL    HW1  239   0.832   5.433   3.852 -0.1966 -0.6756  0.5434
   44SOL    HW2  240   0.835   5.298   3.919  0.3931 -0.6174  0.6345
   45SOL     OW  241   1.209   0.635   1.753 -0.4952 -0.2386  0.8542
   45SOL    HW1  242   1.123   0.640   1.794 -0.4209 -0.1916  1.0059
   45SOL    HW2  243   1.261   0.582   1.814 -0.4805 -0.4531  0.6542
   46SOL     OW  244   4.349   0.934   1.737 -0.0011  0.3959 -0.2838
   46SOL    HW1  245   4.321   0.852   1.779 -0.3062 -0.7926 -2.6442
   46SOL    HW2  246   4.433   0.954   1.779 -1.4135  0.7605  2.6634
   47SOL     OW  247   3.118   2.812   0.293  0.3318 -0.1040 -0.0275
   47SOL    HW1  248   3.113   2.908   0.289 -3.9037 -0.1684 -2.7332
   47SOL    HW2  249   3.202   2.790   0.254  1.5151  2.4447  0.8756
   48SOL     OW  250   3.853   0.308   2.699 -0.0582 -0.1633 -0.0819
   48SOL    HW1  251   3.840   0.368   2.625 -0.3267  0.5952  0.5689
   48SOL    HW2  252   3.776   0.251   2.697  0.4072 -0.7846 -0.9618
   49SOL     OW  253   1.661   3.234   1.786 -0.1670  0.2883 -0.2302
   49SOL    HW1  254   1.745   3.199   1.755  0.0016 -0.3350  0.8806
   49SOL    HW2  255   1.671   3.329   1.782  1.0049  0.2360  0.9434
   50SOL     OW  256   2.377   2.283   1.086 -0.3655 -0.3750 -0.3039
   50SOL    HW1  257   2.345   2.196   1.108  0.4405 -0.8054 -0.7966
   50SOL    HW2  258   2.420   2.272   1.001 -1.2602  0.7394 -0.9385
   51SOL     OW  259   3.928   4.348   1.328 -0.8134  0.0625  0.1508
   51SOL    HW1  260   3.957   4.332   1.417  0.8110  0.2158 -0.3131
   51SOL    HW2  261   3.854   4.407   1.337  1.3625  2.8628  1.3367
   52SOL     OW  262   0.887   2.654   3.057  0.6491  0.4749  0.2321
   52SOL    HW1  263   0.827   2.727   3.042  0.1849 -0.0963 -0.7702
   52SOL    HW2  264   0.895   2.612   2.972  0.7883 -0.7374  0.8314
   53SOL     OW  265   0.765   0.135   2.456  0.4714  0.1676  0.2381
   53SOL    HW1  266   0.743   0.212   2.405  1.0808 -0.2289 -0.6504
   53SOL    HW2  267   0.694   0.073   2.438  0.3020  0.2972  0.4611
   54SOL     OW  268   5.328   5.548   3.127 -0.2827  0.1233  0.5350
   54SOL    HW1  269   5.308   5.602   3.050  0.6195 -0.1167  0.1262
   54SOL    HW2  270   5.299   5.601   3.201 -0.4137  0.7084  0.0773
   55SOL     OW  271   4.810   1.884   1.138  0.1469 -0.0652  0.6915
   55SOL    HW1  272   4.728   1.933   1.135  0.0124 -0.1804  1.8827
   55SOL    HW2  273   4.864   1.922   1.069 -1.2340 -0.5899 -0.7406
   56SOL     OW  274   0.445   3.372   2.218 -0.0059  0.5519  0.1120
   56SOL    HW1  275   0.433   3.444   2.156  0.8820  1.3756  0.8611
   56SOL    HW2  276   0.484   3.413   2.295  0.2591 -0.6883  0.6639
   57SOL     OW  277   4.139   4.210   2.872  0.4799 -0.2959  0.1707
   57SOL    HW1  278   4.086   4.139   2.835  0.7474 -0.2901 -0.2351
   57SOL    HW2  279   4.080   4.285   2.875 -0.6749 -1.1812  3.1999
   58SOL     OW  280   4.878   4.810   0.365  0.2932 -1.1314  0.0532
   58SOL    HW1  281   4.949   4.749   0.382  0.4348 -0.4346  2.3391
   58SOL    HW2  282   4.810   4.786   0.428 -0.2458  0.1144 -0.0230
   59SOL     OW  283   1.010   1.916   1.413  0.4504  0.1252 -0.3284
   59SOL    HW1  284   1.029   1.823   1.424  3.7123  0.6572 -0.5589
   59SOL    HW2  285   0.966   1.921   1.328  0.6183 -1.1675 -0.5211
   60SOL     OW  286   0.975   1.238   2.362  0.6302 -0.3234  0.0705
   60SOL    HW1  287   0.904   1.298   2.382  0.3972 -0.2399 -0.9327
   60SOL    HW2  288   1.053   1.294   2.354  0.3217 -0.0541 -1.3688
   61SOL     OW  289   4.897   2.375   0.156  0.4870  0.0653 -0.3336
   61SOL    HW1  290   4.980   2.342   0.119 -0.7990 -0.9995 -2.4958
   61SOL    HW2  291   4.855   2.297   0.193  0.1745  0.4843  0.2015
   62SOL     OW  292   5.395   1.394   3.319 -0.8701 -0.5217 -0.1052
   62SOL    HW1  293   5.343   1.456   3.269  0.5203  0.3325 -0.5554
   62SOL    HW2  294   5.338   1.366   3.391 -1.8191  0.6112 -0.3987
   63SOL     OW  295   2.364   3.762   2.229  0.0971 -0.0803 -0.3749
   63SOL    HW1  296   2.446   3.736   2.271  0.2716 -0.5787 -1.0104
   63SOL    HW2  297   2.320   3.818   2.293  0.4006 -0.7533  0.4304
   64SOL     OW  298   5.022   0.292   3.857  0.1381 -0.2028  0.2965
   64SOL    HW1  299   5.082   0.358   3.823 -1.8223  1.4917 -0.1190
   64SOL    HW2  300   5.024   0.302   3.952  0.8292 -0.4737  0.3123
   65SOL     OW  301   2.423   1.242   3.459  0.0537 -0.6042 -0.1914
   65SOL    HW1  302   2.487   1.305   3.425  1.1269 -0.2278  2.3105
   65SOL    HW2  303   2.381   1.288   3.532  0.0054 -2.3635  0.9408
   66SOL     OW  304   0.376   0.212   1.053 -0.2713 -0.4946 -1.1093
   66SOL    HW1  305   0.390   0.121   1.028 -0.7399 -0.9242  0.1126
   66SOL    HW2  306   0.463   0.244   1.078 -0.2077 -0.8145 -0.9119
   67SOL     OW  307   4.901   3.410   2.361 -0.3981 -0.4426  0.6642
   67SOL    HW1  308   4.929   3.464   2.435  1.9957  0.2444 -0.6301
   67SOL    HW2  309   4.910   3.320   2.392  1.1437 -0.1759  1.0561
   68SOL     OW  310   0.716   1.368   1.232 -0.1382  0.0668 -0.1346
   68SOL    HW1  311   0.692   1.359   1.140 -0.5866 -0.3448  0.0160
   68SOL    HW2  312   0.649   1.318   1.279 -0.1567  0.6218  0.4456
   69SOL     OW  313   2.941   1.471   0.971 -0.4548  0.1746  0.3608
   69SOL    HW1  314   2.867   1.412   0.984  0.2003 -0.6917  0.2698
   69SOL    HW2  315   2.973   1.488   1.059 -1.1092  1.0219  0.4443
   70SOL     OW  316   3.647   3.639   2.129 -0.1798 -0.1701 -0.1068
   70SOL    HW1  317   3.715   3.688   2.081  0.2845 -0.4022  0.2999
   70SOL    HW2  318   3.691   3.558   2.156  0.2176  0.7971  2.4471
   71SOL     OW  319   0.982   2.065   2.398 -0.1463  0.4782  0.3734
   71SOL    HW1  320   1.028   2.143   2.430 -0.1108 -0.0847  1.7689
   71SOL    HW2  321   1.014   2.054   2.308  0.5178  1.5540  0.4502
   72SOL     OW  322   5.424   2.161   3.913  0.0259 -0.4649 -0.1132
   72SOL    HW1  323   5.350   2.208   3.874 -0.4535 -0.4010  0.8336
   72SOL    HW2  324   5.472   2.125   3.838 -0.9701 -0.5175 -0.7480
   73SOL     OW  325   2.531   0.931   2.804  0.4243 -0.3935 -0.2078
   73SOL    HW1  326   2.508   1.006   2.858 -2.4817 -0.6128 -0.9897
   73SOL    HW2  327   2.600   0.886   2.854  0.2667  1.2469  1.6018
   74SOL     OW  328   1.883   2.185   1.577  0.4930 -0.5906 -0.1694
   74SOL    HW1  329   1.940   2.256   1.547  0.2886 -1.0407 -1.7263
   74SOL    HW2  330   1.795   2.224   1.576  0.2342 -1.1414 -2.1129
   75SOL     OW  331   1.527   5.347   3.491 -0.4047 -0.3991  0.1201
   75SOL    HW1  332   1.514   5.432   3.533 -2.6639 -0.6099 -0.0534
   75SOL    HW2  333   1.622   5.338   3.483 -0.0362  1.0342  2.3055
   76SOL     OW  334   1.841   1.311   0.916 -0.1351  0.3661 -0.0280
   76SOL    HW1  335   1.829   1.259   0.836  1.5654  1.0246 -0.7591
   76SOL    HW2  336   1.881   1.392   0.886 -0.2764  0.9948  1.4111
   77SOL     OW  337   5.125   1.183   1.588 -0.1362 -0.4312 -0.0326
   77SOL    HW1  338   5.110   1.277   1.576 -1.4456 -0.6622 -0.3558
   77SOL    HW2  339   5.182   1.178   1.665 -0.6580  0.6043  0.4487
   78SOL     OW  340   0.706   2.178   0.982 -0.0492 -0.2370  0.6985
   78SOL    HW1  341   0.645   2.108   0.959 -0.4084 -0.2380  1.6038
   78SOL    HW2  342   0.791   2.146   0.954 -0.2317 -0.9734  0.9546
   79SOL     OW  343   4.067   3.684   0.413  0.3103  0.4110  0.8847
   79SOL    HW1  344   3.988   3.738   0.419 -0.9225 -1.2619  0.6409
   79SOL    HW2  345   4.109   3.693   0.499 -0.0675  1.4225  0.9755
   80SOL     OW  346   4.958   5.011   2.489 -0.0673 -0.2836 -0.4681
   80SOL    HW1  347   4.936   4.969   2.405 -1.9906  0.9056 -0.6352
   80SOL    HW2  348   4.951   5.105   2.471 -1.0594 -0.0152  1.1381
   81SOL     OW  349   5.093   2.896   2.582 -0.5077  0.3238 -0.1426
   81SOL    HW1  350   5.063   2.843   2.656  0.8365  0.4864  0.5534
   81SOL    HW2  351   5.145   2.835   2.529  0.7105  0.8036  0.4495
   82SOL     OW  352   4.780   1.636   3.569 -0.2116  1.1069 -0.0950
   82SOL    HW1  353   4.723   1.652   3.494  0.3474 -0.0769 -0.8112
   82SOL    HW2  354   4.725   1.654   3.646 -2.2685 -1.9239 -0.6951
   83SOL     OW  355   3.792   5.125   2.211 -0.4240 -0.1633 -0.2825
   83SOL    HW1  356   3.874   5.076   2.224 -0.1823  0.4853  0.7842
   83SOL    HW2  357   3.724   5.058   2.214 -0.0321 -0.5501  0.3144
   84SOL     OW  358   2.260   4.891   1.747 -0.3545 -0.5594  0.0238
   84SOL    HW1  359   2.219   4.805   1.745 -1.4531 -0.0361 -0.6841
   84SOL    HW2  360   2.305   4.899   1.662 -3.2942  0.9550 -1.5261
   85SOL     OW  361   2.686   3.041   3.149 -0.2992 -0.1331 -0.1593
   85SOL    HW1  362   2.620   2.998   3.093 -0.5886 -0.3039  0.3113
   85SOL    HW2  363   2.721   2.970   3.203  0.0249  0.0217 -0.1658
   86SOL     OW  364   3.873   5.412   0.921  0.4020 -0.1054  0.0088
   86SOL    HW1  365   3.959   5.380   0.946  1.4382  0.4182 -2.5062
   86SOL    HW2  366   3.863   5.495   0.968  1.3619 -0.0996  0.2216
   87SOL     OW  367   5.197   4.547   0.118 -0.1647  0.3027  0.4755
   87SOL    HW1  368   5.254   4.507   0.183  1.6489 -0.7610 -1.6226
   87SOL    HW2  369   5.212   4.641   0.127  0.1098  0.1739  1.5050
   88SOL     OW  370   4.551   2.825   0.146  0.3037  0.3632  0.1461
   88SOL    HW1  371   4.510   2.770   0.212 -1.6298  1.3253 -0.1816
   88SOL    HW2  372   4.517   2.793   0.062  0.8738  0.6576 -0.2082
   89SOL     OW  373   5.303   5.526   3.908  0.0375  0.2920 -0.1898
   89SOL    HW1  374   5.364   5.539   3.835 -2.0124  0.6796 -1.9585
   89SOL    HW2  375   5.219   5.509   3.865 -0.8078 -1.9390  2.1067
   90SOL     OW  376   4.291   5.042   0.814  0.0338  0.1071 -0.8369
   90SOL    HW1  377   4.291   5.055   0.719 -0.6580 -0.0365 -0.8624
   90SOL    HW2  378   4.201   5.061   0.841  0.9497  3.4845  0.2688
   91SOL     OW  379   4.714   4.304   3.179 -0.0980  0.2409 -0.8625
   91SOL    HW1  380   4.659   4.234   3.213  0.5689  0.0270 -0.2087
   91SOL    HW2  381   4.661   4.383   3.189 -0.9529 -0.1822 -1.8333
   92SOL     OW  382   1.618   3.263   2.727 -0.3039  0.7734  0.0120
   92SOL    HW1  383   1.657   3.176   2.724  1.0609  1.3063 -3.8947
   92SOL    HW2  384   1.653   3.303   2.807  0.2205 -1.6847  1.1012
   93SOL     OW  385   4.135   0.378   3.542  0.4399  0.2109 -0.5216
   93SOL    HW1  386   4.074   0.319   3.498  1.2183 -0.9580 -0.0478
   93SOL    HW2  387   4.082   0.422   3.608 -0.2792  0.5201 -1.2817
   94SOL     OW  388   5.265   4.808   0.174  0.4169 -0.0356  0.0606
   94SOL    HW1  389   5.225   4.880   0.125 -2.0496 -0.2205  1.5884
   94SOL    HW2  390   5.320   4.850   0.239 -0.8651  0.5384  0.8239
   95SOL     OW  391   0.220   4.302   0.744 -0.0964  0.7686  0.3051
   95SOL    HW1  392   0.221   4.231   0.680  0.3496 -0.3312  1.4763
   95SOL    HW2  393   0.130   4.334   0.744 -0.2150  0.4527 -0.5188
   96SOL     OW  394   4.083   1.806   1.164  0.2637 -0.0164 -0.1111
   96SOL    HW1  395   4.110   1.846   1.081  0.5614  1.4700  0.6688
   96SOL    HW2  396   3.993   1.836   1.176 -0.2811 -1.3744 -0.5459
   97SOL     OW  397   4.424   0.093   0.106  0.3565 -0.1734 -0.3563
   97SOL    HW1  398   4.378   0.049   0.178 -1.5352  0.6045 -1.0446
   97SOL    HW2  399   4.356   0.143   0.061  2.2811  3.0694  0.0614
   98SOL     OW  400   5.156   1.339   0.931  0.4660 -0.1238  0.0196
   98SOL    HW1  401   5.215   1.274   0.892 -0.3844 -1.4814  0.9267
   98SOL    HW2  402   5.072   1.324   0.887  0.5078  1.1362 -0.5525
   99SOL     OW  403   0.494   1.385   0.940 -0.3481  0.1562 -0.2410
   99SOL    HW1  404   0.485   1.476   0.967 -1.7253 -0.0949  0.2279
   99SOL    HW2  405   0.588   1.369   0.938 -0.0772  1.7385 -0.8733
  100SOL     OW  406   5.187   4.672   2.200 -0.1969 -0.3039 -0.2106
  100SOL    HW1  407   5.211   4.690   2.290  2.7428 -0.2728 -0.9144
  100SOL    HW2  408   5.165   4.578   2.199  2.0323 -0.8784  0.1543
  101SOL     OW  409   0.595   0.624   0.194  0.4698  0.5805  0.1050
  101SOL    HW1  410   0.623   0.533   0.191  3.0293  1.1975  2.0187
  101SOL    HW2  411   0.507   0.621   0.231 -0.2563 -1.1929 -1.6473
  102SOL     OW  412   2.810   0.379   0.791  0.9269  0.2911  0.1308
  102SOL    HW1  413   2.792   0.315   0.722  1.6238 -0.1606  0.3597
  102SOL    HW2  414   2.855   0.450   0.745  1.3503  0.0111  0.1069
  103SOL     OW  415   4.687   0.988   3.612 -0.3527 -0.1338 -0.4436
  103SOL    HW1  416   4.598   0.991   3.646 -0.3339 -0.2957 -0.3772
  103SOL    HW2  417   4.741   1.021   3.684 -0.2898 -0.6890 -0.2277
  104SOL     OW  418   4.394   4.948   1.213 -0.1777  0.2228 -0.0169
  104SOL    HW1  419   4.347   4.947   1.129 -0.3909  1.1504  0.0861
  104SOL    HW2  420   4.337   4.901   1.273 -1.0305  1.4143  0.1285
  105SOL     OW  421   2.716   0.307   1.434  0.3198 -0.5175  0.4790
  105SOL    HW1  422   2.779   0.358   1.485  1.0206 -1.3223  0.4257
  105SOL    HW2  423   2.658   0.268   1.499 -1.5827  1.9803  0.4761
  106SOL     OW  424   2.068   1.664   2.322  0.5012 -0.0714  0.0596
  106SOL    HW1  425   1.993   1.611   2.294  1.4426 -2.5487  1.7936
  106SOL    HW2  426   2.076   1.732   2.255 -3.4585  0.5556 -0.0089
  107SOL     OW  427   4.286   4.010   2.998 -0.0783 -0.6748 -0.1062
  107SOL    HW1  428   4.239   4.090   2.974  0.3514 -0.4062 -0.0731
  107SOL    HW2  429   4.339   3.990   2.921 -0.3728 -1.0694 -0.2058
  108SOL     OW  430   0.349   3.576   3.180  0.1491  0.0257 -0.1521
  108SOL    HW1  431   0.286   3.645   3.158 -0.8911 -0.1727  1.9431
  108SOL    HW2  432   0.297   3.496   3.179  0.0187 -0.0141  2.6658
  109SOL     OW  433   2.209   3.624   3.694  0.2529 -0.4076  0.4217
  109SOL    HW1  434   2.134   3.585   3.650 -0.2499  0.4160  0.5269
  109SOL    HW2  435   2.186   3.716   3.703  1.8307  0.1212 -0.6847
  110SOL     OW  436   5.316   2.943   0.486 -1.0156  0.3040 -0.5429
  110SOL    HW1  437   5.359   2.860   0.501  0.4030  1.1403  0.2258
  110SOL    HW2  438   5.263   2.957   0.565  0.6978  1.2530  0.5018
  111SOL     OW  439   4.342   1.721   0.469  0.2286  0.0501  0.4028
  111SOL    HW1  440   4.306   1.714   0.381  0.4110  1.7497  0.1587
  111SOL    HW2  441   4.278   1.678   0.525  0.5335 -1.8486 -0.6292
  112SOL     OW  442   4.673   0.741   2.222 -0.0932 -0.4721  0.0873
  112SOL    HW1  443   4.648   0.760   2.131 -1.8363 -1.1306  0.3858
  112SOL    HW2  444   4.653   0.821   2.270  2.1520  0.3893 -0.2767
  113SOL     OW  445   4.995   5.140   3.196 -0.0949 -0.0927 -0.0837
  113SOL    HW1  446   5.016   5.085   3.122  1.4820 -0.1989  0.4172
  113SOL    HW2  447   4.966   5.079   3.264  1.3638 -0.3122  0.3715
  114SOL     OW  448   0.586   3.747   3.937  0.2738  0.2121  0.3584
  114SOL    HW1  449   0.523   3.820   3.938  2.1182  1.8886  0.3239
  114SOL    HW2  450   0.571   3.703   3.854 -0.1039  1.2686 -0.1492
  115SOL     OW  451   1.418   2.465   0.314 -0.7144 -0.3545 -0.3414
  115SOL    HW1  452   1.405   2.465   0.409 -1.3412  0.5398 -0.4200
  115SOL    HW2  453   1.510   2.442   0.303 -1.3056 -3.5709  0.3518
  116SOL     OW  454   3.620   4.973   3.146  0.2796  0.6644  0.2023
  116SOL    HW1  455   3.585   4.885   3.137  1.3724  0.1945  0.3752
  116SOL    HW2  456   3.549   5.030   3.116 -0.5811 -0.2412  0.4454
  117SOL     OW  457   0.743   3.043   0.936 -0.5936  0.3922  0.1263
  117SOL    HW1  458   0.792   3.099   0.876  2.1979  0.7356  2.4934
  117SOL    HW2  459   0.811   2.999   0.988 -2.8070 -1.4175  1.6873
  118SOL     OW  460   3.995   3.375   0.745  0.7316  0.1885  0.5408
  118SOL    HW1  461   3.944   3.313   0.797 -0.2743 -0.7791 -1.4878
  118SOL    HW2  462   3.931   3.439   0.715  1.2615  0.6161  0.3135
  119SOL     OW  463   3.692   4.161   2.874 -0.5132  0.3608 -0.5176
  119SOL    HW1  464   3.642   4.223   2.927  1.1820  1.0135  0.3988
  119SOL    HW2  465   3.688   4.197   2.785 -0.0442  1.4673 -0.1019
  120SOL     OW  466   0.075   2.250   1.380 -0.2775  0.2030  0.1108
  120SOL    HW1  467   0.088   2.340   1.348  0.1074  0.0482 -0.1780
  120SOL    HW2  468   0.098   2.195   1.305  0.7041 -0.1691  0.6697
  121SOL     OW  469   1.088   1.929   3.015 -0.5495  0.2524 -1.0696
  121SOL    HW1  470   1.009   1.884   2.986 -1.8652  0.6595  1.5862
  121SOL    HW2  471   1.116   1.882   3.094 -1.8039  3.5956  1.6440
  122SOL     OW  472   1.728   1.183   3.807 -0.3406  0.8216 -0.1289
  122SOL    HW1  473   1.704   1.166   3.716 -0.5202  1.4327 -0.2005
  122SOL    HW2  474   1.680   1.116   3.857 -0.4201  0.6259 -0.4634
  123SOL     OW  475   2.934   2.413   1.781 -0.1187  0.4346  0.2155
  123SOL    HW1  476   2.927   2.469   1.704  1.1709  1.1201  0.5735
  123SOL    HW2  477   2.886   2.334   1.757 -0.3790  0.9333 -0.9967
  124SOL     OW  478   3.390   2.292   1.998  0.2418 -0.1635 -0.0518
  124SOL    HW1  479   3.445   2.368   1.977 -0.4592  0.1655 -0.7436
  124SOL    HW2  480   3.326   2.289   1.928 -2.5579  1.2810  2.2410
  125SOL     OW  481   2.631   4.900   3.717  0.8589 -0.2398 -0.2200
  125SOL    HW1  482   2.602   4.833   3.779  0.6366  0.0734  0.0230
  125SOL    HW2  483   2.564   4.968   3.723  0.8789 -0.1707 -0.7504
  126SOL     OW  484   2.481   3.723   3.515 -0.6951 -0.5976 -0.3848
  126SOL    HW1  485   2.405   3.765   3.476 -0.5366  0.1579  0.0996
  126SOL    HW2  486   2.515   3.787   3.576  1.0340 -0.4328 -1.4474
  127SOL     OW  487   2.479   1.592   2.263  0.1332  0.0718  0.0776
  127SOL    HW1  488   2.530   1.601   2.344  1.9470  1.4792 -1.1256
  127SOL    HW2  489   2.496   1.503   2.234  1.5770  0.3445 -0.0224
  128SOL     OW  490   1.872   0.653   3.559  0.0027 -0.2795 -0.5294
  128SOL    HW1  491   1.904   0.563   3.563 -0.0158 -0.2809 -0.4131
  128SOL    HW2  492   1.825   0.659   3.476 -1.5240 -0.8799  0.2681
  129SOL     OW  493   4.844   0.219   1.881  0.2550  0.1620  0.5707
  129SOL    HW1  494   4.777   0.221   1.814 -1.9853 -0.6878  2.6318
  129SOL    HW2  495   4.822   0.143   1.936  3.0478 -0.2960  1.2397
  130SOL     OW  496   0.860   3.845   2.440 -0.2156 -0.1517 -0.1736
  130SOL    HW1  497   0.945   3.810   2.464  0.8156  2.0891 -0.2918
  130SOL    HW2  498   0.829   3.889   2.519  0.8135  2.7764 -1.2633
  131SOL     OW  499   1.545   1.594   3.048  0.1057 -0.2743  0.2773
  131SOL    HW1  500   1.577   1.505   3.060 -0.7203 -0.5199  0.6709
  131SOL    HW2  501   1.537   1.605   2.953  0.8168 -0.3907  0.1942
  132SOL     OW  502   2.208   0.323   1.646  0.0667  0.1232  0.0822
  132SOL    HW1  503   2.269   0.342   1.717 -0.6932  0.4772  0.6547
  132SOL    HW2  504   2.184   0.409   1.612  0.7458 -0.0527 -0.9045
  133SOL     OW  505   4.674   4.998   2.196  0.2469  0.6597 -0.2881
  133SOL    HW1  506   4.647   5.022   2.107 -0.1602  1.1652 -0.0278
  133SOL    HW2  507   4.721   4.915   2.184 -1.6637 -0.4127 -0.7015
  134SOL     OW  508   4.634   2.377   0.868 -0.5114 -0.1852 -0.3323
  134SOL    HW1  509   4.694   2.389   0.942 -1.1111  0.2445  0.0982
  134SOL    HW2  510   4.556   2.336   0.907 -0.7291 -0.1979 -0.7743
  135SOL     OW  511   0.129   3.886   2.258 -0.2635 -0.0317  0.6824
  135SOL    HW1  512   0.196   3.952   2.239  0.9661 -0.5164  2.9735
  135SOL    HW2  513   0.139   3.821   2.189  1.6005 -0.0277  0.8922
  136SOL     OW  514   3.691   4.600   0.905 -0.3466 -0.0383  0.4217
  136SOL    HW1  515   3.634   4.606   0.829  0.8174  0.9634 -0.4089
  136SOL    HW2  516   3.731   4.687   0.911  2.5371 -1.2450 -0.1785
  137SOL     OW  517   2.353   2.426   2.534  0.1209  0.0351  0.3573
  137SOL    HW1  518   2.373   2.438   2.627 -1.1571  1.9513  0.4299
  137SOL    HW2  519   2.259   2.442   2.527  0.2236  0.0666 -1.3001
  138SOL     OW  520   3.254   1.157   3.351 -0.1100 -0.1508 -0.1348
  138SOL    HW1  521   3.229   1.065   3.362  1.2032 -0.3992  1.1161
  138SOL    HW2  522   3.206   1.204   3.420  2.0966 -0.5305  1.8161
  139SOL     OW  523   4.094   3.932   1.183 -0.8562  0.2142  0.0351
  139SOL    HW1  524   4.160   3.965   1.244  0.3103  0.2954 -1.2010
  139SOL    HW2  525   4.014   3.979   1.205 -0.4575  0.2569  1.4571
  140SOL     OW  526   1.954   3.921   2.149  0.0684  0.4513 -0.0053
  140SOL    HW1  527   1.885   3.913   2.083  2.7966  0.4667 -3.1094
  140SOL    HW2  528   1.976   3.831   2.171  2.5328  0.0885 -3.1883
  141SOL     OW  529   1.489   3.509   2.668 -0.1657 -0.1960  0.0614
  141SOL    HW1  530   1.518   3.418   2.677  0.5982 -0.1150 -1.2011
  141SOL    HW2  531   1.439   3.527   2.747 -1.2916 -2.0699 -0.1702
  142SOL     OW  532   0.951   1.227   0.260 -0.1080 -0.1209  0.2698
  142SOL    HW1  533   1.039   1.192   0.270 -0.4646 -0.7752  1.3286
  142SOL    HW2  534   0.897   1.151   0.239 -0.5085  0.1824  0.1844
  143SOL     OW  535   5.094   1.458   1.814 -0.0592 -0.6154  0.0793
  143SOL    HW1  536   5.155   1.393   1.847 -1.0840 -0.4185  2.5898
  143SOL    HW2  537   5.012   1.440   1.860 -0.7885  1.5229 -0.2413
  144SOL     OW  538   1.923   3.653   2.274  0.3152 -0.1435 -0.1121
  144SOL    HW1  539   1.841   3.610   2.297 -1.1136  1.9542 -1.0152
  144SOL    HW2  540   1.950   3.699   2.354  0.8187 -1.0769  0.2753
  145SOL     OW  541   3.289   1.400   3.098 -0.6024 -0.4120 -0.3116
  145SOL    HW1  542   3.198   1.407   3.129  0.1431 -0.8064  2.2007
  145SOL    HW2  543   3.325   1.325   3.147  1.2301  0.0653 -0.8584
  146SOL     OW  544   3.941   0.533   3.748 -0.5276 -0.0857  0.2515
  146SOL    HW1  545   3.855   0.518   3.786 -0.0659 -0.2435  1.2454
  146SOL    HW2  546   3.930   0.613   3.696 -1.6255 -0.8863 -0.7885
  147SOL     OW  547   4.848   0.256   0.476 -0.0805  0.0252  0.3547
  147SOL    HW1  548   4.841   0.166   0.509  2.6601  0.2918  2.0506
  147SOL    HW2  549   4.901   0.248   0.397 -1.2106  0.0424 -0.4315
  148SOL     OW  550   3.329   0.812   1.104  0.1601 -0.0954  0.4622
  148SOL    HW1  551   3.326   0.764   1.186 -0.1200  1.3407  1.3200
  148SOL    HW2  552   3.420   0.805   1.075 -0.2733 -2.8226 -0.5108
  149SOL     OW  553   2.616   3.144   3.692 -0.3947 -0.4997  0.5297
  149SOL    HW1  554   2.553   3.073   3.676 -1.6009  0.6261  0.1323
  149SOL    HW2  555   2.664   3.151   3.610 -1.9285  0.6982 -0.3405
  150SOL     OW  556   0.119   0.430   0.935 -0.5014 -0.3727 -0.0574
  150SOL    HW1  557   0.124   0.400   1.026  0.7060  0.1714  0.0716
  150SOL    HW2  558   0.052   0.498   0.936 -0.0643  0.0539  0.5599
  151SOL     OW  559   0.922   2.876   3.842  0.4498 -0.3927 -0.1420
  151SOL    HW1  560   0.912   2.942   3.773 -1.1150 -0.0743  0.3578
  151SOL    HW2  561   0.857   2.900   3.908  1.0656 -1.4238  0.8747
  152SOL     OW  562   1.782   2.583   1.711 -0.3884  0.6254  0.5728
  152SOL    HW1  563   1.868   2.565   1.672 -0.9188 -0.0181 -0.3161
  152SOL    HW2  564   1.738   2.640   1.648 -1.3205 -0.5636  0.1043
  153SOL     OW  565   3.624   0.542   1.404  0.7523  0.2976 -0.4650
  153SOL    HW1  566   3.672   0.480   1.349 -1.2778  0.1176 -2.1561
  153SOL    HW2  567   3.582   0.487   1.470  1.5648  0.2889  0.0660
  154SOL     OW  568   1.010   2.747   0.193  0.1067  0.0839  0.0812
  154SOL    HW1  569   0.959   2.742   0.274  1.0590  1.7943  0.8248
  154SOL    HW2  570   0.972   2.820   0.145  0.7214  0.2514 -0.1645
  155SOL     OW  571   1.238   1.303   2.040  0.4325  0.2113  0.2039
  155SOL    HW1  572   1.262   1.308   1.947 -0.1384 -2.1041 -0.1269
  155SOL    HW2  573   1.302   1.244   2.078  0.4772  0.9047  1.2405
  156SOL     OW  574   2.023   3.196   0.561 -0.0999  0.2413 -0.1246
  156SOL    HW1  575   1.935   3.221   0.588 -1.2939 -1.6303 -1.9463
  156SOL    HW2  576   2.028   3.102   0.581  2.6569  0.8047  2.6995
  157SOL     OW  577   3.934   5.444   1.803  0.5923 -0.4253 -0.6452
  157SOL    HW1  578   3.999   5.374   1.800  0.9622 -0.1451  0.4425
  157SOL    HW2  579   3.962   5.505   1.735  1.4882 -0.2971 -0.1744
  158SOL     OW  580   4.035   2.312   3.186 -0.1530  0.3085 -0.6331
  158SOL    HW1  581   4.069   2.375   3.123  0.1369  0.3806 -0.4104
  158SOL    HW2  582   4.007   2.237   3.134 -0.4270  0.5923 -0.8926
  159SOL     OW  583   3.918   2.458   2.017  0.6426 -0.1531  0.3832
  159SOL    HW1  584   3.956   2.433   1.933 -0.5508 -1.7988  0.2979
  159SOL    HW2  585   3.838   2.506   1.994 -0.0996 -1.2798  0.5597
  160SOL     OW  586   4.672   0.904   1.729 -0.5871  0.0422  0.1783
  160SOL    HW1  587   4.680   0.885   1.635  2.9490  0.5350  0.2248
  160SOL    HW2  588   4.695   0.822   1.772  0.4582  0.5092  0.5437
  161SOL     OW  589   5.287   4.401   0.881 -0.1742  0.4702 -0.5236
  161SOL    HW1  590   5.195   4.390   0.903  0.5292 -0.7160  2.2455
  161SOL    HW2  591   5.315   4.477   0.932  1.2407 -1.6425  2.1578
  162SOL     OW  592   1.978   4.818   0.870 -0.0573 -0.5547  0.7398
  162SOL    HW1  593   2.026   4.765   0.933  1.3961  1.7062  1.6374
  162SOL    HW2  594   2.025   4.806   0.788  0.9436  0.1346  1.1891
  163SOL     OW  595   4.778   4.043   0.645  0.4370 -0.0337 -0.0075
  163SOL    HW1  596   4.777   3.991   0.726 -1.4117 -0.4238 -0.2331
  163SOL    HW2  597   4.868   4.038   0.614  0.5664 -2.2094  0.5762
  164SOL     OW  598   2.949   4.005   3.871  0.0880 -0.1674  0.1086
  164SOL    HW1  599   3.043   3.987   3.865 -0.3968 -3.2263  0.0902
  164SOL    HW2  600   2.915   3.935   3.927 -2.3380  0.2788 -0.7009
  165SOL     OW  601   4.427   1.896   1.788 -0.3863  0.0373  0.3799
  165SOL    HW1  602   4.343   1.939   1.802 -0.2195 -0.3252  2.9957
  165SOL    HW2  603   4.482   1.963   1.747 -1.6642  0.5367 -0.5761
  166SOL     OW  604   0.470   0.102   0.603  0.8935 -0.3522  0.2049
  166SOL    HW1  605   0.457   0.193   0.629 -0.4183 -0.0229 -1.4729
  166SOL    HW2  606   0.565   0.093   0.592  1.0772  0.6507  0.8957
  167SOL     OW  607   4.857   4.466   1.971  0.4201 -0.0134 -0.1843
  167SOL    HW1  608   4.782   4.445   1.916  0.6727 -1.3295 -0.0473
  167SOL    HW2  609   4.881   4.555   1.945  2.0045 -1.3369 -3.9722
  168SOL     OW  610   3.147   2.915   2.541 -0.2556  0.1607 -0.1048
  168SOL    HW1  611   3.185   2.946   2.624  1.8462  1.0024 -1.2981
  168SOL    HW2  612   3.107   2.993   2.502  2.3740  0.8263 -1.7029
  169SOL     OW  613   0.182   4.431   0.501 -0.3859  0.2868  0.5852
  169SOL    HW1  614   0.179   4.510   0.447  0.5646  0.2369  0.4395
  169SOL    HW2  615   0.240   4.454   0.574  1.3100 -0.7981 -0.3675
  170SOL     OW  616   2.355   3.529   0.831 -0.1195 -0.0335  0.3907
  170SOL    HW1  617   2.274   3.574   0.807  0.6465  1.1859 -0.0502
  170SOL    HW2  618   2.421   3.599   0.831  1.2169 -1.2419 -0.7585
  171SOL     OW  619   3.551   3.860   0.432  0.4417 -0.3638  0.1168
  171SOL    HW1  620   3.595   3.912   0.499 -0.3858 -0.2893  0.6120
  171SOL    HW2  621   3.519   3.925   0.368  2.1735 -0.5045 -0.9529
  172SOL     OW  622   2.375   1.008   2.245  0.6064  0.0222 -0.0765
  172SOL    HW1  623   2.410   0.945   2.308  0.1600  1.0193  1.2302
  172SOL    HW2  624   2.339   1.078   2.300  0.9400  1.3270 -1.4592
  173SOL     OW  625   3.185   1.829   2.559 -0.5439  0.3341 -0.2932
  173SOL    HW1  626   3.117   1.768   2.530 -0.9207  0.2717  0.7169
  173SOL    HW2  627   3.172   1.838   2.653  0.6498  0.5703 -0.1303
  174SOL     OW  628   3.926   0.102   3.691  0.0052 -0.3200  0.6811
  174SOL    HW1  629   3.889   0.154   3.620  1.6799  0.2289  0.1552
  174SOL    HW2  630   3.971   0.029   3.647  2.3844  0.8681  0.9933
  175SOL     OW  631   2.505   0.590   1.351 -0.6190 -0.0605 -0.5155
  175SOL    HW1  632   2.541   0.515   1.398 -0.4840 -0.5781 -1.4080
  175SOL    HW2  633   2.526   0.666   1.405  2.6837 -0.1948 -1.4084
  176SOL     OW  634   1.872   4.693   0.444  0.2030  0.2457 -0.1883
  176SOL    HW1  635   1.935   4.720   0.377 -0.0078 -0.0362 -0.5016
  176SOL    HW2  636   1.826   4.618   0.406  2.2899 -2.0537  1.5164
  177SOL     OW  637   4.098   4.114   0.816 -0.1122  0.0333 -0.4082
  177SOL    HW1  638   4.102   4.111   0.721 -0.7852  1.2514 -0.5022
  177SOL    HW2  639   4.122   4.026   0.845  2.7433  0.3212 -1.5882
  178SOL     OW  640   5.180   3.510   3.624 -0.1704 -0.2373 -0.4457
  178SOL    HW1  641   5.146   3.532   3.538 -0.0741  1.2117 -0.1334
  178SOL    HW2  642   5.264   3.467   3.607  0.7215  1.6286 -1.0683
  179SOL     OW  643   1.686   3.593   3.146  0.1236  0.0678  0.0493
  179SOL    HW1  644   1.727   3.529   3.203  0.6187 -1.1882 -1.6363
  179SOL    HW2  645   1.627   3.642   3.203  1.0537 -0.6915  1.7328
  180SOL     OW  646   4.593   3.536   0.164 -0.6036 -0.1571  0.5784
  180SOL    HW1  647   4.616   3.545   0.072 -1.4228  1.3745  0.4873
  180SOL    HW2  648   4.662   3.584   0.211 -1.8524  1.7997  0.5096
  181SOL     OW  649   3.677   0.792   2.754 -0.8598 -0.8914  0.4606
  181SOL    HW1  650   3.770   0.780   2.773 -0.7035 -1.3407 -0.5558
  181SOL    HW2  651   3.638   0.809   2.840  0.0820 -1.1449  0.9586
  182SOL     OW  652   5.217   3.193   0.919  0.3203  0.0056  0.4491
  182SOL    HW1  653   5.167   3.176   0.998  0.1974 -0.7355  0.2202
  182SOL    HW2  654   5.299   3.231   0.950  0.0615  0.2017  0.8954
  183SOL     OW  655   2.737   4.356   2.178  0.1738  0.4431 -0.1176
  183SOL    HW1  656   2.660   4.300   2.170  0.6129 -0.0965 -0.8385
  183SOL    HW2  657   2.776   4.332   2.262  0.1193 -0.0360 -0.2252
  184SOL     OW  658   5.067   4.967   1.593 -0.1983  0.4522  0.3641
  184SOL    HW1  659   5.000   4.988   1.528 -0.7755  1.1522  1.1741
  184SOL    HW2  660   5.146   4.952   1.541 -1.0294 -0.6813 -0.6226
  185SOL     OW  661   4.289   2.522   3.693  0.1717  0.2066 -0.3537
  185SOL    HW1  662   4.287   2.576   3.614  0.1943 -0.3475 -0.7368
  185SOL    HW2  663   4.354   2.455   3.675  0.2235  0.1125  0.1624
  186SOL     OW  664   4.489   3.292   0.746  0.1380 -0.4167  0.0099
  186SOL    HW1  665   4.413   3.338   0.782 -0.1676 -0.7785 -0.1661
  186SOL    HW2  666   4.533   3.255   0.822  0.4360  0.2388  0.1623
  187SOL     OW  667   3.574   2.246   0.403 -0.0798  0.2835  0.3863
  187SOL    HW1  668   3.498   2.301   0.382 -0.2243 -0.5233 -1.4124
  187SOL    HW2  669   3.623   2.241   0.321  2.0626  0.9361  1.5519
  188SOL     OW  670   5.141   5.204   0.265  0.0116 -0.7913 -0.0200
  188SOL    HW1  671   5.211   5.190   0.202  0.7812  2.0771  0.0531
  188SOL    HW2  672   5.062   5.218   0.212  0.1797 -0.6999 -0.2429
  189SOL     OW  673   4.150   1.346   3.321 -0.2075 -0.6900 -0.4091
  189SOL    HW1  674   4.124   1.424   3.272 -1.0940  0.1573  1.3059
  189SOL    HW2  675   4.072   1.290   3.319 -0.1855 -0.7303 -0.1225
  190SOL     OW  676   4.627   3.530   2.506 -0.2546  0.8197 -0.0922
  190SOL    HW1  677   4.623   3.506   2.413  0.8088 -0.8083  0.2486
  190SOL    HW2  678   4.711   3.574   2.515 -0.3143  0.8853  0.1402
  191SOL     OW  679   0.524   3.045   0.376  0.1978  0.0104  0.4330
  191SOL    HW1  680   0.441   3.049   0.328  0.5938 -3.3792 -0.8111
  191SOL    HW2  681   0.584   3.096   0.322 -0.6659  1.1574  0.5068
  192SOL     OW  682   4.079   3.320   3.114  0.0868 -0.1077 -0.1984
  192SOL    HW1  683   4.103   3.233   3.145  1.5687  0.3629  0.0683
  192SOL    HW2  684   4.120   3.380   3.176 -1.1873  0.7965 -0.1877
  193SOL     OW  685   1.560   5.477   1.863 -0.3865 -0.4549 -0.1834
  193SOL    HW1  686   1.466   5.460   1.868 -0.3792 -0.2454  0.8996
  193SOL    HW2  687   1.581   5.522   1.945  0.8666 -1.5131  0.1081
  194SOL     OW  688   2.916   2.704   3.510 -0.0771  0.0623 -0.1645
  194SOL    HW1  689   2.930   2.611   3.529 -0.4192  0.1991  0.7906
  194SOL    HW2  690   2.903   2.707   3.415  1.0152 -0.7203 -0.3529
  195SOL     OW  691   2.029   1.318   1.764  0.1116 -0.0518 -0.5687
  195SOL    HW1  692   1.999   1.270   1.687 -1.1018 -2.8115  1.4669
  195SOL    HW2  693   2.122   1.299   1.770 -0.2828 -1.9999  0.0053
  196SOL     OW  694   0.110   1.833   2.676 -0.3418  0.1811  0.0127
  196SOL    HW1  695   0.171   1.796   2.739 -1.0988 -0.2778  0.4879
  196SOL    HW2  696   0.134   1.793   2.592  0.4256  0.5068  0.0760
  197SOL     OW  697   1.771   2.257   0.419 -0.5133 -0.0142  0.4226
  197SOL    HW1  698   1.759   2.206   0.499 -1.5637 -0.3671  0.0593
  197SOL    HW2  699   1.703   2.224   0.360 -0.1633  0.6902 -0.3846
  198SOL     OW  700   1.938   2.240   0.680  0.2482 -0.0687  0.2207
  198SOL    HW1  701   1.985   2.191   0.612  1.4200 -0.1966  1.0862
  198SOL    HW2  702   1.860   2.187   0.697  1.0710 -1.2494  0.5406
  199SOL     OW  703   1.528   1.415   3.810 -0.1349 -0.0973 -0.2478
  199SOL    HW1  704   1.552   1.323   3.818  1.3163  0.3523  0.9137
  199SOL    HW2  705   1.444   1.421   3.856  0.4571 -0.5964  0.9529
  200SOL     OW  706   1.135   0.794   0.038 -0.3847  0.4879  0.1329
  200SOL    HW1  707   1.215   0.820   0.082 -0.3178  0.7210 -0.1262
  200SOL    HW2  708   1.067   0.798   0.106 -0.4369  1.6435  0.0188
  201SOL     OW  709   2.164   3.908   1.188  0.3169 -0.0191  0.0528
  201SOL    HW1  710   2.109   3.978   1.224 -2.9039 -2.6924  0.9056
  201SOL    HW2  711   2.153   3.915   1.093  0.9691  1.2131  0.0371
  202SOL     OW  712   2.832   4.758   1.263  0.2175 -0.3664 -0.2301
  202SOL    HW1  713   2.809   4.838   1.310 -0.2063 -1.3628  1.3394
  202SOL    HW2  714   2.879   4.705   1.327 -1.1347 -2.1475 -0.6329
  203SOL     OW  715   1.649   4.225   3.258  0.2789 -0.3683  0.0724
  203SOL    HW1  716   1.729   4.184   3.293 -1.3009 -1.4679  2.6607
  203SOL    HW2  717   1.613   4.159   3.198  1.5606  0.4022 -1.6445
  204SOL     OW  718   2.613   1.449   0.100 -0.1792  0.3371 -0.1128
  204SOL    HW1  719   2.526   1.411   0.090  0.6373 -1.7433  0.1526
  204SOL    HW2  720   2.670   1.392   0.048  1.0567  1.5450 -0.1385
  205SOL     OW  721   5.387   3.521   0.307 -0.1192 -0.4929  0.0272
  205SOL    HW1  722   5.407   3.474   0.226  0.7300  1.5739 -1.0322
  205SOL    HW2  723   5.293   3.540   0.301 -0.3871 -1.6515  0.2850
  206SOL     OW  724   5.234   4.724   0.811  0.0046  0.3984  0.2803
  206SOL    HW1  725   5.309   4.778   0.833 -1.0710  0.9549  2.9247
  206SOL    HW2  726   5.252   4.693   0.722  3.4525  0.2688  0.8820
  207SOL     OW  727   2.519   0.259   0.584 -0.4808  0.5273 -0.6457
  207SOL    HW1  728   2.510   0.251   0.679 -1.0548  0.9631 -0.6586
  207SOL    HW2  729   2.613   0.248   0.568  0.1673  3.6392  0.3132
  208SOL     OW  730   5.358   0.347   1.889 -0.6093  0.2939  0.3484
  208SOL    HW1  731   5.366   0.318   1.980  1.5631  1.4001  0.5569
  208SOL    HW2  732   5.355   0.266   1.838 -2.1439 -0.3485  1.3730
  209SOL     OW  733   0.404   2.014   1.313  0.3145  0.3511  0.1083
  209SOL    HW1  734   0.326   2.057   1.276 -1.8886 -2.6619  0.7947
  209SOL    HW2  735   0.375   1.982   1.399  2.6058 -0.1919  0.7416
  210SOL     OW  736   2.823   1.863   2.318 -0.4829  0.1075  0.0868
  210SOL    HW1  737   2.906   1.879   2.273  0.3245 -0.1288  1.4279
  210SOL    HW2  738   2.782   1.949   2.324 -0.0996  0.3083 -0.1216
  211SOL     OW  739   0.289   4.675   1.891  0.5427 -0.0124  0.7958
  211SOL    HW1  740   0.327   4.674   1.803  0.1258  2.2886  0.5313
  211SOL    HW2  741   0.359   4.706   1.948  0.1211  0.8161  0.8760
  212SOL     OW  742   3.061   3.580   3.367 -0.8266 -1.0715  0.1191
  212SOL    HW1  743   3.133   3.571   3.305  0.8272 -1.4060  1.9859
  212SOL    HW2  744   3.030   3.490   3.380  0.5289 -1.3864  1.5964
  213SOL     OW  745   3.193   2.261   2.687  0.2581  0.7213  0.3533
  213SOL    HW1  746   3.260   2.226   2.629  0.5950 -0.3723  1.3637
  213SOL    HW2  747   3.116   2.273   2.632  0.3829 -0.8582 -0.1903
  214SOL     OW  748   1.840   1.911   1.875  0.6970 -0.3320  0.3158
  214SOL    HW1  749   1.869   1.995   1.913  0.2911  0.6163 -1.3941
  214SOL    HW2  750   1.782   1.874   1.942  1.3518  0.4409  1.3598
  215SOL     OW  751   2.008   3.864   1.845  0.4144 -0.6007 -0.1702
  215SOL    HW1  752   1.918   3.854   1.877  0.2056 -1.3546 -0.9418
  215SOL    HW2  753   2.052   3.784   1.874  0.4325 -0.9192 -1.0500
  216SOL     OW  754   0.476   4.030   3.796 -0.1438 -0.5712  0.4156
  216SOL    HW1  755   0.393   4.009   3.752 -0.7691 -0.6655  1.5941
  216SOL    HW2  756   0.512   4.103   3.746 -1.7142  0.5027  0.7553
  217SOL     OW  757   0.342   4.045   0.874  0.1096 -0.2739  0.6476
  217SOL    HW1  758   0.318   4.089   0.793  1.2149  0.1643  0.5422
  217SOL    HW2  759   0.406   3.979   0.848  0.0852 -0.4795  1.0947
  218SOL     OW  760   2.411   1.959   3.503 -0.0173  0.0024  0.3571
  218SOL    HW1  761   2.418   1.966   3.407 -0.1584  1.7347  0.4358
  218SOL    HW2  762   2.325   1.998   3.523 -1.2912 -2.9012  1.0005
  219SOL     OW  763   2.656   4.958   1.062  0.1513 -0.4787 -0.2700
  219SOL    HW1  764   2.650   4.878   1.115 -3.0159 -0.2897 -0.1882
  219SOL    HW2  765   2.598   5.020   1.105  1.6965  1.5601 -0.9625
  220SOL     OW  766   3.014   2.140   0.668 -0.0819  0.1226  1.1424
  220SOL    HW1  767   3.026   2.118   0.760  0.9906 -1.3256  0.6950
  220SOL    HW2  768   2.941   2.086   0.640  0.9529 -1.0671  0.6517
  221SOL     OW  769   0.991   3.033   1.053 -0.3336  0.4401  0.1018
  221SOL    HW1  770   1.025   3.097   0.990  0.5970 -0.5730 -0.4583
  221SOL    HW2  771   1.047   3.042   1.130 -0.6830  0.8120  0.3174
  222SOL     OW  772   0.263   2.948   3.433 -0.3806  0.0198  0.1571
  222SOL    HW1  773   0.203   2.884   3.397 -0.0967 -1.2036  1.7674
  222SOL    HW2  774   0.307   2.985   3.356 -1.2030 -1.0281 -0.8553
  223SOL     OW  775   4.825   1.692   0.534 -0.0799  0.6013  0.0136
  223SOL    HW1  776   4.837   1.597   0.532  0.6794  0.6917  0.1631
  223SOL    HW2  777   4.742   1.706   0.488  0.8652  0.0408 -1.9749
  224SOL     OW  778   3.887   1.248   3.380 -0.4217 -0.1174  0.1311
  224SOL    HW1  779   3.904   1.310   3.451 -1.9594  0.3164  0.1694
  224SOL    HW2  780   3.843   1.301   3.312 -0.1754 -0.8051 -0.5832
  225SOL     OW  781   1.174   2.268   0.316  0.1940  0.3754 -0.5363
  225SOL    HW1  782   1.141   2.326   0.248 -1.4927 -0.1353 -0.2112
  225SOL    HW2  783   1.269   2.282   0.316  0.0523  1.5796 -1.8556
  226SOL     OW  784   2.395   1.183   1.067 -0.4102 -0.4277  0.0576
  226SOL    HW1  785   2.436   1.263   1.100  0.5421 -0.3371 -1.2505
  226SOL    HW2  786   2.357   1.141   1.145  0.1709  0.6504  0.9528
  227SOL     OW  787   0.251   1.682   3.413 -0.3087 -0.5040 -0.2674
  227SOL    HW1  788   0.197   1.760   3.430  0.5189  0.6704 -2.5115
  227SOL    HW2  789   0.257   1.678   3.317  2.4063 -1.3930 -0.1408
  228SOL     OW  790   1.767   1.607   3.454 -0.2539  0.3944  0.1276
  228SOL    HW1  791   1.827   1.673   3.419  0.2021  0.6469  1.3337
  228SOL    HW2  792   1.727   1.649   3.530  0.6863 -1.0029  1.4396
  229SOL     OW  793   4.606   1.336   3.886 -0.1940 -0.4064 -0.2353
  229SOL    HW1  794   4.596   1.317   3.793  0.3407  1.7163 -0.7751
  229SOL    HW2  795   4.517   1.355   3.916 -0.5465 -2.2600  0.0212
  230SOL     OW  796   3.162   1.472   1.715  0.0949  0.3128 -0.0220
  230SOL    HW1  797   3.152   1.428   1.631 -0.7633 -0.1962  0.3367
  230SOL    HW2  798   3.085   1.446   1.765 -1.6072  3.8554 -0.5105
  231SOL     OW  799   4.038   2.113   2.899 -0.2919 -0.3765 -0.9418
  231SOL    HW1  800   4.129   2.085   2.906  0.1476  1.3977  1.6788
  231SOL    HW2  801   3.995   2.078   2.977 -0.6262  2.7251  0.4253
  232SOL     OW  802   1.200   3.687   1.336 -0.0773  0.3022 -0.0059
  232SOL    HW1  803   1.168   3.732   1.258 -0.1537 -0.1595 -0.2384
  232SOL    HW2  804   1.121   3.669   1.387  0.0416  1.4202  0.6301
  233SOL     OW  805   0.280   0.941   0.303  0.2020  0.0352  0.9860
  233SOL    HW1  806   0.288   0.852   0.337 -3.2422 -0.2114  1.5240
  233SOL    HW2  807   0.302   0.933   0.210 -0.5572 -1.5210  0.9048
  234SOL     OW  808   4.398   0.243   3.440 -0.5473  0.0429  0.0502
  234SOL    HW1  809   4.387   0.164   3.387  2.1781 -0.2592 -0.2241
  234SOL    HW2  810   4.326   0.300   3.414  0.9661  0.2446 -4.6743
  235SOL     OW  811   5.105   3.438   1.820  0.1075 -0.5177  0.1837
  235SOL    HW1  812   5.067   3.425   1.733 -0.6376  1.5296  0.1541
  235SOL    HW2  813   5.190   3.479   1.803 -0.5331  0.9592  0.4150
  236SOL     OW  814   1.828   5.048   0.619  0.2006 -0.1550 -0.4333
  236SOL    HW1  815   1.803   5.135   0.650 -0.5258  0.1213 -1.7272
  236SOL    HW2  816   1.923   5.053   0.606  0.2253  0.3011 -0.0893
  237SOL     OW  817   5.212   0.549   2.422  0.7483  1.0528 -0.3665
  237SOL    HW1  818   5.256   0.634   2.427  1.9690  0.4012  0.3969
  237SOL    HW2  819   5.177   0.534   2.510 -1.6503  1.8461 -1.1050
  238SOL     OW  820   0.788   1.652   0.552  0.2141  0.1689  0.0576
  238SOL    HW1  821   0.788   1.745   0.530  0.6048  0.0573 -0.4246
  238SOL    HW2  822   0.830   1.609   0.478  0.2633 -0.3694  0.3878
  239SOL     OW  823   0.125   0.502   0.099  0.7775  0.5169  0.4269
  239SOL    HW1  824   0.174   0.563   0.044  0.6035  1.1665  0.9713
  239SOL    HW2  825   0.037   0.502   0.062  1.1789 -0.7155 -0.6038
  240SOL     OW  826   0.447   1.016   2.449 -0.1477  0.0080 -0.2008
  240SOL    HW1  827   0.355   1.034   2.431 -0.2605 -1.5849 -1.4378
  240SOL    HW2  828   0.494   1.065   2.382 -0.3296 -2.0594 -1.9425
  241SOL     OW  829   4.007   2.311   0.888  0.3560 -0.1856  0.3193
  241SOL    HW1  830   4.025   2.358   0.807  2.4262  0.5275  1.1132
  241SOL    HW2  831   3.912   2.316   0.899  0.3351  2.5011 -0.4300
  242SOL     OW  832   0.654   0.819   1.063  0.1842  0.0987 -0.0255
  242SOL    HW1  833   0.614   0.906   1.069 -0.9143 -0.4797  1.4685
  242SOL    HW2  834   0.649   0.797   0.970 -0.6582  1.1059 -0.2431
  243SOL     OW  835   3.789   1.980   2.773 -0.3006 -0.1473  0.0505
  243SOL    HW1  836   3.876   2.010   2.799  0.3291 -0.9523 -1.0545
  243SOL    HW2  837   3.744   1.962   2.855  0.5391  0.3854  0.6368
  244SOL     OW  838   3.508   3.174   3.525  0.2389  0.2155  0.0884
  244SOL    HW1  839   3.525   3.081   3.513  0.4359  0.3993 -1.1968
  244SOL    HW2  840   3.429   3.177   3.580 -0.0962 -0.7194 -0.3178
  245SOL     OW  841   4.886   1.493   2.214  0.4904 -0.4839  0.1015
  245SOL    HW1  842   4.863   1.420   2.157  1.2010  0.2044 -1.1168
  245SOL    HW2  843   4.867   1.571   2.162 -0.9430  0.2567  1.6341
  246SOL     OW  844   1.119   1.301   0.009 -0.1074 -0.3023 -0.7315
  246SOL    HW1  845   1.157   1.272   0.092 -2.8518  1.8015  1.4971
  246SOL    HW2  846   1.124   1.397   0.013 -1.2332 -0.1232 -2.4993
  247SOL     OW  847   3.211   4.034   2.387  0.0809 -0.3553  0.1434
  247SOL    HW1  848   3.178   4.043   2.298  0.3515  0.0650  0.0840
  247SOL    HW2  849   3.133   4.020   2.440 -0.0441 -1.0099 -0.2113
  248SOL     OW  850   4.001   3.627   0.948  0.2440  0.2553 -0.6355
  248SOL    HW1  851   3.943   3.651   1.021  1.6239  2.0520 -0.0260
  248SOL    HW2  852   4.023   3.535   0.963 -0.5721  0.2209  0.4537
  249SOL     OW  853   1.264   2.655   0.710  0.3163  0.0385 -0.4175
  249SOL    HW1  854   1.328   2.724   0.693 -0.1821  0.3378 -1.1143
  249SOL    HW2  855   1.256   2.653   0.806 -0.3661  1.6076 -0.4101
  250SOL     OW  856   2.208   0.000   3.839 -0.4057 -0.0816 -0.2399
  250SOL    HW1  857   2.271  -0.072   3.848 -0.9078 -0.4609  0.3210
  250SOL    HW2  858   2.135  -0.024   3.897  0.1544  1.6859  1.3133
  251SOL     OW  859   5.381   3.939   3.708  0.2342 -0.5147  0.4042
  251SOL    HW1  860   5.414   3.894   3.631 -2.2632  0.4792 -1.3577
  251SOL    HW2  861   5.288   3.918   3.711 -0.2594  1.5100  1.6729
  252SOL     OW  862   5.097   3.282   2.061  0.5715 -0.7594 -0.6033
  252SOL    HW1  863   5.036   3.318   2.125  0.3627 -1.8837 -0.1433
  252SOL    HW2  864   5.102   3.349   1.992  0.7965  0.4671  0.5647
  253SOL     OW  865   1.954   3.278   0.204  0.1219 -0.3364  0.4839
  253SOL    HW1  866   1.901   3.323   0.139  0.1634  1.7728  1.8176
  253SOL    HW2  867   2.022   3.341   0.228  1.2839 -1.7718  1.1695
  254SOL     OW  868   5.157   2.222   2.403 -0.6620 -0.2471 -0.6313
  254SOL    HW1  869   5.238   2.217   2.352  0.2308  0.3662  0.6622
  254SOL    HW2  870   5.103   2.151   2.369  0.9463 -1.5265 -0.6492
  255SOL     OW  871   4.959   1.918   2.408 -0.0835  0.0515 -0.0912
  255SOL    HW1  872   5.049   1.894   2.386 -0.1329 -0.7692  0.5423
  255SOL    HW2  873   4.908   1.891   2.332 -0.2749 -2.8990  0.9437
  256SOL     OW  874   4.967   4.717   0.664 -0.4180  0.1062 -0.3179
  256SOL    HW1  875   4.943   4.626   0.645  0.4515 -0.1804 -0.0557
  256SOL    HW2  876   4.997   4.751   0.579 -2.5214  0.7420 -0.8699
  257SOL     OW  877   3.189   2.900   0.701 -0.1039  0.0591  0.0319
  257SOL    HW1  878   3.278   2.917   0.671 -0.3450  0.8971 -0.2380
  257SOL    HW2  879   3.174   2.808   0.682 -0.0346  0.4077 -1.8750
  258SOL     OW  880   0.630   5.294   3.623 -0.5242 -0.3756  0.3196
  258SOL    HW1  881   0.624   5.300   3.528 -1.2390  0.1130  0.3875
  258SOL    HW2  882   0.571   5.363   3.655  2.0016  1.5734  1.1032
  259SOL     OW  883   3.638   1.297   0.537 -0.7066  0.3466 -0.0040
  259SOL    HW1  884   3.576   1.365   0.562 -0.9540  0.6516 -1.3554
  259SOL    HW2  885   3.600   1.257   0.459 -0.7027 -1.5617  0.9319
  260SOL     OW  886   4.169   0.031   1.654  0.0345 -0.1380  0.0396
  260SOL    HW1  887   4.243   0.034   1.715  1.0538 -1.2735 -1.0647
  260SOL    HW2  888   4.210   0.016   1.568 -1.4454 -0.1188 -0.7060
  261SOL     OW  889   3.887   1.129   2.581  0.1751 -0.4217 -0.1245
  261SOL    HW1  890   3.797   1.097   2.589  0.3793 -0.5940  1.7664
  261SOL    HW2  891   3.940   1.050   2.579  0.5673 -0.3304  3.0777
  262SOL     OW  892   1.707   4.715   0.847 -0.5716 -0.1161  0.4663
  262SOL    HW1  893   1.759   4.782   0.891  0.4392 -0.2423 -0.4983
  262SOL    HW2  894   1.644   4.764   0.794 -0.0943  0.0741  0.0679
  263SOL     OW  895   4.136   3.415   1.404  0.1239 -0.1531 -0.5019
  263SOL    HW1  896   4.190   3.418   1.483  0.6771 -0.6886 -0.8542
  263SOL    HW2  897   4.134   3.505   1.373  1.1306 -0.1901 -0.6928
  264SOL     OW  898   3.593   2.707   2.771  0.0089  0.0574 -0.3500
  264SOL    HW1  899   3.535   2.633   2.788 -0.4428  0.9903  2.8902
  264SOL    HW2  900   3.543   2.765   2.713 -1.4151 -0.2348  0.5310
  265SOL     OW  901   3.029   1.148   2.870  0.1927  0.1505  0.3719
  265SOL    HW1  902   3.081   1.228   2.860  1.7655 -0.8878 -0.1895
  265SOL    HW2  903   3.066   1.106   2.948  0.9429 -1.1048 -0.6145
  266SOL     OW  904   0.267   3.105   0.261 -0.6354  0.0178  0.2993
  266SOL    HW1  905   0.302   3.131   0.176 -0.3805  0.8479  0.6454
  266SOL    HW2  906   0.174   3.129   0.258 -0.4086  0.9939  0.6060
  267SOL     OW  907   4.935   1.455   2.751 -0.5131  0.1597 -0.3683
  267SOL    HW1  908   4.968   1.410   2.829 -1.6528 -1.2112 -0.6362
  267SOL    HW2  909   4.934   1.387   2.683 -0.0827  1.1871 -1.4417
  268SOL     OW  910   1.782   5.274   1.366  0.0847  0.2663  0.8587
  268SOL    HW1  911   1.807   5.200   1.310  1.2947  0.9955  0.3809
  268SOL    HW2  912   1.785   5.239   1.455 -0.1562 -0.4668  0.5849
  269SOL     OW  913   2.588   2.853   2.990 -0.0464  0.2785 -0.3528
  269SOL    HW1  914   2.494   2.854   2.971  0.0992 -0.9151 -1.2108
  269SOL    HW2  915   2.603   2.767   3.030  1.1106 -0.6933 -2.6841
  270SOL     OW  916   3.035   1.061   1.191 -0.0877  0.1403 -0.0706
  270SOL    HW1  917   3.005   1.027   1.107 -1.1327 -0.1243  0.3902
  270SOL    HW2  918   3.000   1.000   1.256  2.1769 -0.6880  0.4931
  271SOL     OW  919   2.283   5.495   2.567  0.4303  0.4592 -0.1474
  271SOL    HW1  920   2.283   5.589   2.550 -0.5623  0.5354  0.1808
  271SOL    HW2  921   2.195   5.466   2.542  1.3227 -0.7686 -2.1284
  272SOL     OW  922   3.271   2.805   1.458  0.3793 -0.5198 -0.1297
  272SOL    HW1  923   3.201   2.775   1.400  0.3596 -2.2258  0.7204
  272SOL    HW2  924   3.256   2.899   1.467 -0.0417 -0.3343 -2.2882
  273SOL     OW  925   0.166   5.219   3.611  0.0420 -0.1750  0.0932
  273SOL    HW1  926   0.233   5.231   3.544 -0.6198 -1.4583 -0.8239
  273SOL    HW2  927   0.122   5.304   3.617  1.3314  0.5091  0.2874
  274SOL     OW  928   3.525   5.103   0.402 -0.1519  0.1434 -0.7271
  274SOL    HW1  929   3.504   5.021   0.358 -2.7659  0.4052 -0.1669
  274SOL    HW2  930   3.564   5.077   0.485 -1.7685 -0.6427 -0.1603
  275SOL     OW  931   2.545   0.056   1.531  0.4203  0.2400  0.1505
  275SOL    HW1  932   2.508   0.129   1.482  0.9814  0.3657 -0.0997
  275SOL    HW2  933   2.581  -0.003   1.464  0.2198 -0.1249  0.3623
  276SOL     OW  934   2.026   2.683   0.588  0.1591  0.9481  0.2287
  276SOL    HW1  935   2.058   2.611   0.533 -0.4066  0.1671  0.9071
  276SOL    HW2  936   2.021   2.758   0.528 -0.5388  0.0912 -0.8259
  277SOL     OW  937   4.326   3.683   1.732 -0.0932 -0.1478 -0.6430
  277SOL    HW1  938   4.396   3.695   1.667 -1.0411 -0.9047 -1.8697
  277SOL    HW2  939   4.318   3.588   1.741  0.7970 -0.0725  1.5221
  278SOL     OW  940   1.349   4.774   2.928  0.1544  0.4162 -0.4353
  278SOL    HW1  941   1.363   4.685   2.962 -1.5104 -0.4806 -1.8945
  278SOL    HW2  942   1.311   4.760   2.841  1.2705  2.5852 -1.3411
  279SOL     OW  943   3.304   0.216   3.506 -0.0725  0.4385 -0.0061
  279SOL    HW1  944   3.344   0.282   3.562 -0.3330 -0.3681  1.1611
  279SOL    HW2  945   3.246   0.266   3.449  0.8930  1.3762 -0.2033
  280SOL     OW  946   3.443   3.339   2.598  0.0921 -0.1103  0.2639
  280SOL    HW1  947   3.357   3.329   2.639 -0.5400  0.7802 -0.7908
  280SOL    HW2  948   3.426   3.392   2.520  1.3603 -1.1650 -0.7667
  281SOL     OW  949   1.763   0.551   0.302 -0.2899 -0.2734  0.2887
  281SOL    HW1  950   1.704   0.627   0.303 -0.8874 -0.7301  0.5017
  281SOL    HW2  951   1.850   0.589   0.311 -0.4662  0.4862 -0.8251
  282SOL     OW  952   1.852   0.051   0.714  0.4100 -0.0536 -1.0335
  282SOL    HW1  953   1.870   0.089   0.628 -0.3924  1.6725 -0.5042
  282SOL    HW2  954   1.877   0.120   0.776  4.0794 -2.3743  0.3956
  283SOL     OW  955   4.342   0.654   3.096  0.7059  0.1716 -0.0153
  283SOL    HW1  956   4.361   0.743   3.127 -0.1961  0.5574 -0.5464
  283SOL    HW2  957   4.318   0.606   3.176  2.8152 -0.0664  0.5273
  284SOL     OW  958   4.136   2.703   1.997 -0.5659  0.9446  0.3823
  284SOL    HW1  959   4.042   2.718   1.997 -0.8641 -0.3761  3.2163
  284SOL    HW2  960   4.156   2.667   2.084  2.3369 -0.1509 -0.5796
  285SOL     OW  961   1.030   4.601   0.811  0.2494 -0.1875  0.2707
  285SOL    HW1  962   0.945   4.618   0.771  0.3812  0.2502  0.1675
  285SOL    HW2  963   1.015   4.614   0.904 -0.2621 -2.0288  0.4926
  286SOL     OW  964   0.653   1.824   0.242  0.1374  0.3030  0.4934
  286SOL    HW1  965   0.726   1.783   0.195 -0.2482  2.5492 -2.3549
  286SOL    HW2  966   0.575   1.777   0.210 -0.0063  0.9147 -0.0819
  287SOL     OW  967   2.797   2.995   2.496 -0.1518  0.0955  0.0334
  287SOL    HW1  968   2.849   2.966   2.421  2.6856  1.4031  1.3447
  287SOL    HW2  969   2.827   2.939   2.568 -0.8787  0.6242  0.7621
  288SOL     OW  970   4.491   0.074   2.428 -0.1785 -0.0626 -0.2713
  288SOL    HW1  971   4.405   0.033   2.433 -0.5860  0.7928 -0.0332
  288SOL    HW2  972   4.548   0.007   2.391 -0.6724 -1.0529  0.7165
  289SOL     OW  973   4.090   1.644   0.648 -0.1535 -0.2268  0.3537
  289SOL    HW1  974   4.012   1.687   0.612  1.3850  0.4644 -2.4670
  289SOL    HW2  975   4.091   1.559   0.605  1.6163  0.5193 -1.1924
  290SOL     OW  976   1.229   5.541   3.345  0.1692  0.0158  0.5362
  290SOL    HW1  977   1.228   5.448   3.319  0.1258 -0.1673  1.1717
  290SOL    HW2  978   1.290   5.582   3.283 -2.0073  0.1597 -1.6636
  291SOL     OW  979   0.677   5.482   1.749 -0.8407 -0.5705  0.0640
  291SOL    HW1  980   0.724   5.423   1.690 -1.7402  0.1833 -1.4756
  291SOL    HW2  981   0.699   5.569   1.717 -2.8690 -0.1902 -0.4161
  292SOL     OW  982   4.648   0.947   1.201 -0.1497  1.1229  0.3690
  292SOL    HW1  983   4.682   0.913   1.118 -0.3112  0.7116  0.4690
  292SOL    HW2  984   4.579   1.009   1.176 -0.8853  0.2651  0.2019
  293SOL     OW  985   2.368   4.375   0.954 -0.2819  0.1761 -0.0515
  293SOL    HW1  986   2.442   4.433   0.938  0.1808 -1.0784 -3.1158
  293SOL    HW2  987   2.308   4.392   0.881 -0.7805 -2.1130 -0.2473
  294SOL     OW  988   1.476   4.071   0.109  0.3118 -0.5412  0.0647
  294SOL    HW1  989   1.510   3.983   0.127 -0.6378 -0.3809  3.4151
  294SOL    HW2  990   1.404   4.081   0.171  0.5686  2.7153 -0.0093
  295SOL     OW  991   2.233   2.935   0.553 -0.0543 -0.4075  0.3183
  295SOL    HW1  992   2.197   2.893   0.475  1.9875  1.2956 -1.6988
  295SOL    HW2  993   2.323   2.904   0.558  0.4823  1.1191  0.7289
  296SOL     OW  994   2.045   5.222   0.444  0.0544  0.3977  0.0208
  296SOL    HW1  995   2.134   5.205   0.472  0.2251 -0.3872 -0.9645
  296SOL    HW2  996   2.035   5.173   0.363 -0.7923  1.6595 -0.6836
  297SOL     OW  997   1.679   4.552   1.442  0.5193  0.0444  0.2082
  297SOL    HW1  998   1.748   4.545   1.376  1.0159  2.5611  0.3348
  297SOL    HW2  999   1.722   4.596   1.516 -1.2228  2.0252  0.1447
  298SOL     OW 1000   3.689   2.496   0.240  0.0379 -0.1342  0.1077
  298SOL    HW1 1001   3.691   2.409   0.201  0.2687  0.3265 -0.9674
  298SOL    HW2 1002   3.640   2.549   0.176  0.4087  0.6476  0.4601
  299SOL     OW 1003   3.653   0.309   1.260  0.2981 -0.6666  0.4682
  299SOL    HW1 1004   3.599   0.233   1.278 -0.3285 -0.1275  0.9160
  299SOL    HW2 1005   3.731   0.297   1.314 -0.9701  0.2818  2.6502
  300SOL     OW 1006   4.726   1.627   2.731 -0.3116 -0.3252 -0.1993
  300SOL    HW1 1007   4.753   1.696   2.671 -0.8157  0.2202  0.1868
  300SOL    HW2 1008   4.806   1.578   2.749  0.4397  1.2144  0.8727
  301SOL     OW 1009   3.545   4.222   3.859 -0.0142 -0.5205 -0.2835
  301SOL    HW1 1010   3.631   4.260   3.842 -0.2507 -0.5399 -1.5603
  301SOL    HW2 1011   3.485   4.296   3.856 -0.0330 -0.4754  0.8092
  302SOL     OW 1012   4.566   2.845   3.838 -0.0219  0.1693  0.0641
  302SOL    HW1 1013   4.518   2.899   3.901 -2.4582 -0.3278 -1.2293
  302SOL    HW2 1014   4.521   2.860   3.755  1.3076 -1.3549 -0.9971
  303SOL     OW 1015   2.683   2.742   2.273  0.4976 -0.0655 -0.3795
  303SOL    HW1 1016   2.602   2.767   2.230  1.1302 -1.4502 -2.5275
  303SOL    HW2 1017   2.657   2.680   2.341 -0.1761 -1.8162 -2.1447
  304SOL     OW 1018   2.953   2.994   1.628 -0.1565 -0.0748 -0.1972
  304SOL    HW1 1019   2.875   3.029   1.586  0.0860 -0.0013 -0.5936
  304SOL    HW2 1020   2.955   3.034   1.715 -0.6182 -0.1654 -0.1444
  305SOL     OW 1021   1.998   2.736   2.102 -0.0369 -0.3030 -0.1856
  305SOL    HW1 1022   1.994   2.827   2.130 -0.7692 -0.7847  1.3729
  305SOL    HW2 1023   2.013   2.740   2.007 -2.4549  1.4548 -0.5665
  306SOL     OW 1024   0.968   1.059   3.404 -0.4287 -0.1175 -1.1659
  306SOL    HW1 1025   0.884   1.085   3.366 -0.2941  1.9393 -0.1958
  306SOL    HW2 1026   1.004   1.140   3.440  1.5034 -1.1517 -0.6387
  307SOL     OW 1027   0.136   0.051   0.232  0.4646 -1.0540 -0.1524
  307SOL    HW1 1028   0.229   0.046   0.253  0.3556 -1.8278  0.1366
  307SOL    HW2 1029   0.091   0.011   0.306 -0.2064  0.6952  0.4413
  308SOL     OW 1030   1.217   5.260   1.582  0.5903 -0.5633 -0.0951
  308SOL    HW1 1031   1.192   5.175   1.547  0.0924 -0.1486 -0.7819
  308SOL    HW2 1032   1.309   5.270   1.559  0.7510 -1.0635  0.3104
  309SOL     OW 1033   2.859   4.266   2.399  0.1144  0.1251  0.0482
  309SOL    HW1 1034   2.921   4.193   2.407  0.1860  0.2843  1.1111
  309SOL    HW2 1035   2.852   4.301   2.488 -0.7345  0.7454 -0.2520
  310SOL     OW 1036   0.526   0.581   1.094 -0.4229  0.0614  0.3213
  310SOL    HW1 1037   0.558   0.671   1.088 -2.1301  0.6938  0.0451
  310SOL    HW2 1038   0.435   0.590   1.122  0.0821 -1.7209  2.8242
  311SOL     OW 1039   4.999   2.217   0.736 -0.1792  0.1086 -0.0427
  311SOL    HW1 1040   4.949   2.141   0.706 -0.3000  0.1728 -0.0066
  311SOL    HW2 1041   5.004   2.275   0.660 -1.0563  0.5720  0.2313
  312SOL     OW 1042   1.585   3.245   1.212 -0.3095  0.4345  0.1316
  312SOL    HW1 1043   1.660   3.185   1.208 -1.0288 -0.4233 -1.7262
  312SOL    HW2 1044   1.610   3.311   1.277  1.5640 -0.4806  0.3965
  313SOL     OW 1045   3.193   1.529   1.154 -0.0628 -0.3181  0.0701
  313SOL    HW1 1046   3.218   1.537   1.246 -0.2970 -1.9205  0.3121
  313SOL    HW2 1047   3.264   1.478   1.115 -0.7375 -1.0215 -0.2591
  314SOL     OW 1048   1.382   3.535   1.166  0.2239 -0.0365 -0.0225
  314SOL    HW1 1049   1.381   3.575   1.079  0.0760  0.4348  0.1942
  314SOL    HW2 1050   1.332   3.595   1.221  0.6347 -0.1408  0.4711
  315SOL     OW 1051   1.049   0.297   0.723 -0.1127  0.4725 -0.2896
  315SOL    HW1 1052   1.138   0.274   0.749 -1.0550 -1.0927  1.8271
  315SOL    HW2 1053   1.044   0.392   0.739  0.8062  0.3651  0.7669
  316SOL     OW 1054   4.616   4.025   3.423 -0.2636  0.2247  0.1869
  316SOL    HW1 1055   4.708   4.030   3.450 -0.6751  0.5721  1.6048
  316SOL    HW2 1056   4.579   3.956   3.478 -0.6154 -0.6869 -1.1542
  317SOL     OW 1057   4.025   5.102   1.909  0.0040  0.1502 -0.4559
  317SOL    HW1 1058   3.942   5.148   1.903  0.2544  0.9724  1.6578
  317SOL    HW2 1059   4.080   5.142   1.841 -0.4666  1.5044 -0.0674
  318SOL     OW 1060   3.664   5.107   2.499  0.4193  0.1455 -0.0383
  318SOL    HW1 1061   3.644   5.079   2.588 -0.6894  0.6519 -0.1235
  318SOL    HW2 1062   3.609   5.183   2.484  3.5582  2.6849  0.2760
  319SOL     OW 1063   4.414   0.585   1.327  0.5879 -0.1169  0.4510
  319SOL    HW1 1064   4.505   0.572   1.298  0.5701  0.1302  0.2850
  319SOL    HW2 1065   4.381   0.496   1.340  0.1633 -0.3295 -1.6395
  320SOL     OW 1066   1.860   1.951   0.143  0.0911  0.1555 -0.0268
  320SOL    HW1 1067   1.799   2.023   0.159 -0.9911 -1.1286  2.0605
  320SOL    HW2 1068   1.804   1.875   0.127  1.0905 -0.9578  1.4723
  321SOL     OW 1069   0.040   4.674   0.640  0.0278  0.2591  0.1638
  321SOL    HW1 1070   0.064   4.692   0.549  1.0731  0.8805  0.5545
  321SOL    HW2 1071  -0.028   4.738   0.660 -1.0225 -0.5976 -0.5045
  322SOL     OW 1072   1.031   4.575   1.680 -0.5117 -0.1482  0.0487
  322SOL    HW1 1073   0.964   4.510   1.701  0.6235 -2.3335 -2.4668
  322SOL    HW2 1074   1.106   4.550   1.734  0.0353 -1.2165 -1.1614
  323SOL     OW 1075   4.187   1.377   3.713  0.9199 -0.1516  0.5031
  323SOL    HW1 1076   4.257   1.331   3.666 -0.4783 -1.0681 -0.7755
  323SOL    HW2 1077   4.197   1.469   3.686  0.5151 -0.5604 -1.2107
  324SOL     OW 1078   5.213   1.820   2.398  0.1246  0.4047  0.3886
  324SOL    HW1 1079   5.256   1.812   2.483 -0.0009  1.3143  0.5467
  324SOL    HW2 1080   5.268   1.880   2.348 -1.3783  2.3148  0.9068
  325SOL     OW 1081   5.335   1.889   0.198 -0.2808 -0.0782  0.3891
  325SOL    HW1 1082   5.431   1.893   0.201 -0.2500 -0.9939  2.1738
  325SOL    HW2 1083   5.316   1.823   0.131  0.3194  0.1743 -0.0414
  326SOL     OW 1084   0.811   1.899   0.454  0.4476  0.1035  0.5848
  326SOL    HW1 1085   0.839   1.990   0.444  0.3067  0.2539  1.4752
  326SOL    HW2 1086   0.765   1.879   0.372 -0.8543  1.3268  0.9783
  327SOL     OW 1087   2.196   3.547   0.168 -0.1977  0.1400  0.3075
  327SOL    HW1 1088   2.138   3.616   0.200 -2.1346 -0.8606 -0.8571
  327SOL    HW2 1089   2.202   3.484   0.240  2.3969  1.8811  1.7666
  328SOL     OW 1090   1.620   3.044   0.826 -0.2549  0.0343  0.6563
  328SOL    HW1 1091   1.593   3.116   0.768 -0.4493 -1.4365 -1.1893
  328SOL    HW2 1092   1.706   3.018   0.792 -0.2379 -0.6612  1.2358
  329SOL     OW 1093   1.013   3.590   1.547 -0.4637 -0.0882  0.1104
  329SOL    HW1 1094   1.096   3.546   1.562  1.4255  3.0445 -0.3737
  329SOL    HW2 1095   0.948   3.520   1.552  2.0786 -2.5613  1.1937
  330SOL     OW 1096   4.194   1.741   2.779  0.1085 -0.0571  0.0419
  330SOL    HW1 1097   4.171   1.721   2.869  2.3398  1.8368  1.1559
  330SOL    HW2 1098   4.289   1.726   2.774 -0.2462 -2.0187 -2.5952
  331SOL     OW 1099   5.442   0.168   1.651 -0.4703 -0.3537  0.2034
  331SOL    HW1 1100   5.385   0.117   1.594 -0.2536 -0.3666  0.0005
  331SOL    HW2 1101   5.479   0.104   1.712  1.1684 -0.7561 -1.1343
  332SOL     OW 1102   3.498   1.452   0.289  0.1655  0.1299 -0.3229
  332SOL    HW1 1103   3.420   1.407   0.256 -1.0386  0.4334  1.9053
  332SOL    HW2 1104   3.464   1.533   0.328  1.8001  0.9787 -0.5802
  333SOL     OW 1105   0.873   1.802   3.575 -0.1192  0.0637  0.0963
  333SOL    HW1 1106   0.855   1.735   3.509  1.1628  1.7861 -2.1521
  333SOL    HW2 1107   0.787   1.834   3.601 -0.6682  0.0899 -1.6058
  334SOL     OW 1108   4.185   1.877   3.362 -0.3871  0.0572 -0.0424
  334SOL    HW1 1109   4.174   1.953   3.419  0.6282 -0.4626  0.8939
  334SOL    HW2 1110   4.225   1.810   3.418  0.0185 -0.7077 -1.1917
  335SOL     OW 1111   4.172   2.382   0.372 -0.5531 -0.6008  0.5961
  335SOL    HW1 1112   4.120   2.401   0.294  0.4038 -0.7743 -0.1150
  335SOL    HW2 1113   4.183   2.467   0.415  2.4467  0.4047 -1.7575
  336SOL     OW 1114   0.568   4.112   3.006  0.1635  0.2036 -0.5256
  336SOL    HW1 1115   0.489   4.075   2.968  0.4308 -1.0642  0.0857
  336SOL    HW2 1116   0.576   4.199   2.966 -2.2576  0.9476  0.3999
  337SOL     OW 1117   4.948   0.518   3.001 -0.3235 -0.1399  0.0247
  337SOL    HW1 1118   4.986   0.431   3.003 -1.4972 -0.6619  1.2796
  337SOL    HW2 1119   5.011   0.571   2.951 -0.4177 -2.0574 -2.3402
  338SOL     OW 1120   3.102   4.394   2.558  0.2656 -0.1088  0.4421
  338SOL    HW1 1121   3.008   4.393   2.573  0.3648  0.4671  1.1277
  338SOL    HW2 1122   3.141   4.382   2.644  0.8219  0.2305  0.2450
  339SOL     OW 1123   4.490   4.060   3.813  0.0259  0.0582 -0.3863
  339SOL    HW1 1124   4.532   3.986   3.769 -0.9261 -1.3785  1.0109
  339SOL    HW2 1125   4.485   4.128   3.746  2.2774 -0.5809 -1.2949
  340SOL     OW 1126   4.758   0.846   2.560 -0.3781  0.0302 -0.7845
  340SOL    HW1 1127   4.807   0.844   2.642 -0.4354 -0.7012 -0.7641
  340SOL    HW2 1128   4.695   0.774   2.568 -1.2549  0.7624 -0.9285
  341SOL     OW 1129   1.075   0.319   3.371 -0.2846  0.4241 -0.2216
  341SOL    HW1 1130   1.031   0.323   3.456 -1.2184 -0.5201 -0.6304
  341SOL    HW2 1131   1.112   0.406   3.358 -0.1096  0.5738  1.1575
  342SOL     OW 1132   0.134   1.575   0.541  0.2802  0.2003 -0.1708
  342SOL    HW1 1133   0.198   1.636   0.579 -0.4428  1.2400 -0.5501
  342SOL    HW2 1134   0.186   1.499   0.514  1.2645  0.7638  0.0688
  343SOL     OW 1135   0.440   0.317   0.014 -0.3142  0.4054  0.2684
  343SOL    HW1 1136   0.455   0.236  -0.034  0.8842  1.3773 -1.1111
  343SOL    HW2 1137   0.524   0.336   0.055  0.1502  2.0341 -1.2579
  344SOL     OW 1138   5.004   1.268   1.285  0.4273 -0.7590  0.2094
  344SOL    HW1 1139   4.967   1.181   1.296  1.0543 -1.2219 -1.0767
  344SOL    HW2 1140   5.012   1.303   1.374 -1.1242 -1.4520  0.6486
  345SOL     OW 1141   2.724   0.921   3.861 -0.4465 -0.2258  0.0679
  345SOL    HW1 1142   2.630   0.936   3.873 -0.7139 -0.8553 -1.0820
  345SOL    HW2 1143   2.734   0.904   3.767  1.1326  2.0135 -0.2512
  346SOL     OW 1144   1.533   3.831   1.544 -0.4869  0.2904 -0.1960
  346SOL    HW1 1145   1.600   3.802   1.606 -0.5295  2.1348  0.7768
  346SOL    HW2 1146   1.571   3.811   1.458  3.1966  4.5536  0.0580
  347SOL     OW 1147   5.169   4.106   1.945 -0.1681  0.1620 -0.2800
  347SOL    HW1 1148   5.264   4.113   1.932  0.0586  0.3528  1.1922
  347SOL    HW2 1149   5.135   4.191   1.917  0.0198 -0.1125 -1.3539
  348SOL     OW 1150   2.445   0.401   2.606 -0.3024  0.2230 -0.3184
  348SOL    HW1 1151   2.423   0.493   2.589  0.3560  0.7019  1.2664
  348SOL    HW2 1152   2.500   0.404   2.684 -1.0303 -1.6071  0.3068
  349SOL     OW 1153   4.702   3.289   3.116 -0.3665  0.0082  0.3091
  349SOL    HW1 1154   4.655   3.229   3.059  0.6641 -0.2821 -0.2683
  349SOL    HW2 1155   4.636   3.353   3.145 -0.8223  0.4703 -1.6066
  350SOL     OW 1156   2.557   2.632   0.449 -0.4881 -0.4369  0.2697
  350SOL    HW1 1157   2.587   2.548   0.414  1.2525  0.1358  0.3161
  350SOL    HW2 1158   2.573   2.695   0.378 -0.5428  0.0740  0.6993
  351SOL     OW 1159   3.671   2.550   1.937  0.0085  0.5864  0.5156
  351SOL    HW1 1160   3.641   2.520   1.851  0.1968 -0.5669  0.8287
  351SOL    HW2 1161   3.591   2.576   1.982 -0.5546 -1.8524  1.1116
  352SOL     OW 1162   3.607   0.639   3.288 -0.3268  0.1617 -0.3714
  352SOL    HW1 1163   3.600   0.581   3.363 -0.0593  0.0372 -0.4417
  352SOL    HW2 1164   3.555   0.597   3.219 -0.0222 -0.0653 -0.4649
  353SOL     OW 1165   4.671   2.671   1.396 -0.6199  0.1330  0.1482
  353SOL    HW1 1166   4.587   2.662   1.350 -1.1737 -0.2967  1.2026
  353SOL    HW2 1167   4.724   2.599   1.362 -0.7425  0.2838 -0.3772
  354SOL     OW 1168   4.592   5.066   1.417  0.6574 -0.1939 -0.0433
  354SOL    HW1 1169   4.612   5.044   1.508  1.1633 -0.6421 -0.2605
  354SOL    HW2 1170   4.545   4.989   1.384  1.6238 -0.5760 -0.5375
  355SOL     OW 1171   3.321   4.211   0.737 -0.1046 -0.0051  0.2465
  355SOL    HW1 1172   3.324   4.305   0.756  1.7619  0.2067 -0.7717
  355SOL    HW2 1173   3.228   4.191   0.731 -0.5947  2.2148 -1.3131
  356SOL     OW 1174   2.365   2.409   2.070 -0.4272 -0.1734  0.0940
  356SOL    HW1 1175   2.277   2.437   2.095 -0.5626 -0.3128 -0.2220
  356SOL    HW2 1176   2.370   2.427   1.976  0.3144  0.9741  0.3290
  357SOL     OW 1177   2.639   3.018   0.119 -0.6540  0.0989 -0.5055
  357SOL    HW1 1178   2.571   2.978   0.172  0.5731 -0.1260  0.9797
  357SOL    HW2 1179   2.638   3.110   0.145 -1.8008  0.5481 -2.0661
  358SOL     OW 1180   4.244   5.096   2.992 -0.4653  0.1229 -0.5195
  358SOL    HW1 1181   4.202   5.182   2.994  0.0807  0.4670  2.8912
  358SOL    HW2 1182   4.264   5.077   3.084 -0.1199 -3.4668 -1.1881
  359SOL     OW 1183   1.434   2.014   1.705 -0.3439  0.1107 -0.5040
  359SOL    HW1 1184   1.434   2.097   1.751 -1.1610 -0.4250  0.5063
  359SOL    HW2 1185   1.369   2.025   1.635 -0.4480  0.3221 -0.3740
  360SOL     OW 1186   2.578   2.062   0.229 -0.0130  0.1048 -0.5445
  360SOL    HW1 1187   2.568   1.995   0.161 -1.0179  1.7725 -2.1363
  360SOL    HW2 1188   2.492   2.067   0.270  0.0620  0.4184 -0.4287
  361SOL     OW 1189   1.067   3.144   2.801  0.3709  0.3679  0.1520
  361SOL    HW1 1190   1.015   3.085   2.747  0.1394 -0.2680  1.0544
  361SOL    HW2 1191   1.155   3.139   2.764  0.1380  0.2311 -0.3959
  362SOL     OW 1192   0.566   3.730   0.589 -0.1416  0.7746  0.0855
  362SOL    HW1 1193   0.589   3.654   0.534  2.5586  2.4316 -1.3061
  362SOL    HW2 1194   0.497   3.775   0.541 -1.2930 -0.3883  0.5926
  363SOL     OW 1195   3.816   1.897   3.647  0.2419 -0.4467  0.0478
  363SOL    HW1 1196   3.803   1.913   3.553  0.2784 -0.6873 -0.0016
  363SOL    HW2 1197   3.844   1.981   3.682  1.6157 -0.6744 -0.4246
  364SOL     OW 1198   2.713   1.470   1.954  0.1389  0.6511 -0.3801
  364SOL    HW1 1199   2.765   1.543   1.921  0.9726  0.4061  0.3695
  364SOL    HW2 1200   2.739   1.395   1.901 -0.7035  0.8687 -1.1371
  365SOL     OW 1201   3.780   1.688   3.378 -0.5267 -0.3857 -0.5947
  365SOL    HW1 1202   3.755   1.602   3.344 -2.0664  0.0957 -0.7850
  365SOL    HW2 1203   3.719   1.704   3.450  1.9386 -0.8879  1.7521
  366SOL     OW 1204   2.335   0.610   1.009  0.2462  0.0992  0.3578
  366SOL    HW1 1205   2.329   0.700   0.977  1.0046  0.0505  0.0709
  366SOL    HW2 1206   2.278   0.609   1.087 -1.6262  0.2141 -0.9414
  367SOL     OW 1207   3.729   2.301   0.858 -0.2582  0.1293 -0.5601
  367SOL    HW1 1208   3.751   2.253   0.778 -2.5638  0.1578 -1.2844
  367SOL    HW2 1209   3.684   2.379   0.828 -2.0249 -0.3280  0.7523
  368SOL     OW 1210   4.640   2.361   3.826 -0.3474  0.3944  0.3299
  368SOL    HW1 1211   4.647   2.431   3.890  0.7046 -0.0980  0.7773
  368SOL    HW2 1212   4.714   2.375   3.767 -0.2686 -0.1849  0.2810
  369SOL     OW 1213   0.458   3.793   3.336  0.0510 -0.1377  1.1044
  369SOL    HW1 1214   0.439   3.718   3.279  0.4127 -0.7129  1.7290
  369SOL    HW2 1215   0.513   3.850   3.283 -1.5269  0.4850  0.0478
  370SOL     OW 1216   5.231   1.763   1.039 -0.5825 -0.4412  0.3563
  370SOL    HW1 1217   5.212   1.752   0.946 -0.1254  0.2915  0.1611
  370SOL    HW2 1218   5.262   1.854   1.046  0.5694 -0.8677  1.0191
  371SOL     OW 1219   3.020   4.498   3.904  0.1840 -0.3135  0.2592
  371SOL    HW1 1220   3.080   4.572   3.918  1.4611 -1.3705  0.6366
  371SOL    HW2 1221   2.996   4.470   3.992 -1.6375  0.6451  0.1137
  372SOL     OW 1222   0.586   2.180   3.050 -0.1426 -0.1224  0.2204
  372SOL    HW1 1223   0.562   2.212   2.963  2.0636 -0.0391 -0.3971
  372SOL    HW2 1224   0.681   2.179   3.050 -0.1062 -1.5713  2.1211
  373SOL     OW 1225   0.568   0.815   1.555 -0.2514  0.3177 -0.0054
  373SOL    HW1 1226   0.556   0.806   1.649  0.7246  0.7253  0.1659
  373SOL    HW2 1227   0.507   0.752   1.517 -0.1975 -0.3026  0.9122
  374SOL     OW 1228   0.388   3.204   0.683  0.5367 -0.5026  0.3246
  374SOL    HW1 1229   0.292   3.199   0.690  0.6318 -0.9096  1.8166
  374SOL    HW2 1230   0.404   3.260   0.607 -0.8818 -0.7852 -0.2077
  375SOL     OW 1231   2.179   4.971   3.609 -0.0073 -0.4959 -0.4939
  375SOL    HW1 1232   2.249   4.973   3.544 -1.4384 -1.7404 -2.1615
  375SOL    HW2 1233   2.224   4.982   3.693  1.8838  1.4922 -1.6511
  376SOL     OW 1234   1.509   4.450   3.384 -0.0323  0.3762 -0.0008
  376SOL    HW1 1235   1.443   4.397   3.427  0.1955 -0.7498 -0.9788
  376SOL    HW2 1236   1.566   4.387   3.340  1.2746  1.3495  0.2139
  377SOL     OW 1237   0.375   4.078   2.145  0.3455  0.2432 -0.4331
  377SOL    HW1 1238   0.329   4.147   2.193 -0.4156 -0.5240 -0.0478
  377SOL    HW2 1239   0.448   4.054   2.201  0.5886  0.6878 -0.5476
  378SOL     OW 1240   4.614   0.206   1.095 -0.2320  0.3259  0.7847
  378SOL    HW1 1241   4.656   0.201   1.009 -0.7339  0.9017  0.4971
  378SOL    HW2 1242   4.677   0.253   1.149  0.6813 -1.2119  1.1256
  379SOL     OW 1243   3.148   2.643   3.716  0.5920 -0.3073  0.0697
  379SOL    HW1 1244   3.086   2.589   3.668  2.1711 -2.9618  0.7849
  379SOL    HW2 1245   3.171   2.589   3.792  1.3672  1.9456  1.5087
  380SOL     OW 1246   0.742   1.982   2.479  0.1638 -0.4251 -0.4603
  380SOL    HW1 1247   0.757   1.889   2.461  0.6090 -0.3384 -0.5534
  380SOL    HW2 1248   0.821   2.026   2.446 -1.9268  0.5658 -4.8121
  381SOL     OW 1249   0.460   1.576   1.204 -0.1951  0.3144  0.1676
  381SOL    HW1 1250   0.528   1.580   1.271  0.2858 -2.4020 -0.0500
  381SOL    HW2 1251   0.381   1.550   1.251 -0.4878  0.9422  0.0364
  382SOL     OW 1252   3.736   5.188   1.886  0.0065  0.1755  0.3426
  382SOL    HW1 1253   3.670   5.240   1.839 -0.8335  0.1552  1.4603
  382SOL    HW2 1254   3.688   5.110   1.915  0.4299  0.3055  1.4436
  383SOL     OW 1255   1.933   4.380   1.480  0.4354  0.4497  0.2517
  383SOL    HW1 1256   1.914   4.450   1.418 -1.6626  0.3351  0.7015
  383SOL    HW2 1257   2.019   4.347   1.453 -0.6537 -0.0901 -3.0681
  384SOL     OW 1258   0.895   1.637   0.186 -0.2783  0.8268  0.4818
  384SOL    HW1 1259   0.933   1.655   0.100  1.1882  1.7203  1.2762
  384SOL    HW2 1260   0.936   1.555   0.214 -0.1134  0.9698  0.6667
  385SOL     OW 1261   5.379   3.336   2.033  0.5941 -0.0926 -0.7607
  385SOL    HW1 1262   5.432   3.265   1.997 -0.3684 -0.2760 -1.8846
  385SOL    HW2 1263   5.288   3.309   2.016  0.0786  0.0022  1.4858
  386SOL     OW 1264   0.981   3.906   0.610  0.2144  0.2275 -0.8368
  386SOL    HW1 1265   0.957   3.825   0.564  0.0597  0.0650 -0.4703
  386SOL    HW2 1266   1.065   3.931   0.572  1.1784 -1.1085  0.3221
  387SOL     OW 1267   4.421   0.922   0.183  0.7184 -0.2729  0.0258
  387SOL    HW1 1268   4.366   0.852   0.149 -1.0001 -0.8043  3.4578
  387SOL    HW2 1269   4.368   1.001   0.176  0.4610 -0.3363  1.0609
  388SOL     OW 1270   2.578   4.097   3.071  0.1636 -0.4092 -0.0220
  388SOL    HW1 1271   2.618   4.135   3.150 -2.5978  3.4295 -0.1858
  388SOL    HW2 1272   2.594   4.162   3.003  0.2477 -2.4354 -2.0250
  389SOL     OW 1273   0.481   4.848   2.891  0.3639  0.0596 -0.5164
  389SOL    HW1 1274   0.428   4.906   2.836 -0.3148  0.8348  0.9245
  389SOL    HW2 1275   0.548   4.905   2.928  0.5302 -0.3605 -0.1706
  390SOL     OW 1276   4.667   1.667   1.280 -0.3314  0.2662 -0.4630
  390SOL    HW1 1277   4.722   1.692   1.205  0.7329 -1.8206 -0.4632
  390SOL    HW2 1278   4.727   1.669   1.355  0.0933 -2.8240 -0.5910
  391SOL     OW 1279   2.141   4.634   0.987  0.0025 -0.3894 -0.0473
  391SOL    HW1 1280   2.157   4.572   0.916  1.0124  0.3630 -0.4943
  391SOL    HW2 1281   2.188   4.597   1.062  0.4268 -0.2779 -0.2556
  392SOL     OW 1282   3.423   4.781   2.727 -0.1742 -0.7009 -0.9613
  392SOL    HW1 1283   3.506   4.798   2.683 -0.0054  2.3732  0.2311
  392SOL    HW2 1284   3.356   4.809   2.664 -0.1957 -1.2319 -1.1729
  393SOL     OW 1285   3.612   4.139   3.460 -0.1113 -0.2230  0.2748
  393SOL    HW1 1286   3.540   4.198   3.484 -0.1394  0.1996 -0.8094
  393SOL    HW2 1287   3.571   4.071   3.407 -0.1692 -1.5468  1.9146
  394SOL     OW 1288   0.642   1.014   1.876  0.1409  0.1002 -0.2136
  394SOL    HW1 1289   0.588   0.935   1.869 -2.5560  1.8915 -1.1973
  394SOL    HW2 1290   0.595   1.070   1.938  2.2132  0.8264  0.7969
  395SOL     OW 1291   1.748   3.191   2.236 -0.1035 -0.0163 -0.1737
  395SOL    HW1 1292   1.751   3.153   2.148  1.7632  0.2700 -0.2762
  395SOL    HW2 1293   1.687   3.264   2.229 -0.6045 -0.5030 -1.0060
  396SOL     OW 1294   0.857   1.431   3.567 -0.3869 -0.5308  0.2469
  396SOL    HW1 1295   0.867   1.496   3.498 -4.2870  0.0104 -0.0624
  396SOL    HW2 1296   0.794   1.368   3.531 -2.8067 -0.0719  3.2391
  397SOL     OW 1297   0.806   2.884   1.373 -0.0321  0.0349  1.2415
  397SOL    HW1 1298   0.870   2.857   1.440  1.4031  3.0243  1.2805
  397SOL    HW2 1299   0.837   2.842   1.293  0.6565 -0.3667  1.6976
  398SOL     OW 1300   1.929   0.805   2.211  0.4039 -0.2079  0.6735
  398SOL    HW1 1301   1.981   0.824   2.133  1.4091 -1.4928  0.9985
  398SOL    HW2 1302   1.982   0.836   2.284 -0.2324  0.3755  0.9006
  399SOL     OW 1303   0.196   5.572   0.668  0.4140 -0.3975  0.1749
  399SOL    HW1 1304   0.158   5.626   0.738 -0.3390 -0.7288  0.0263
  399SOL    HW2 1305   0.290   5.584   0.678  0.2929  0.0871  0.8290
  400SOL     OW 1306   2.701   1.208   2.786  0.5095 -0.1122  0.0248
  400SOL    HW1 1307   2.752   1.275   2.740 -1.8023  0.8996 -1.2971
  400SOL    HW2 1308   2.715   1.128   2.735  0.4532  0.2622 -0.5963
  401SOL     OW 1309   5.570   1.740   3.135  0.2765 -0.1403 -0.8773
  401SOL    HW1 1310   5.525   1.772   3.057  3.0145  2.0039 -1.7534
  401SOL    HW2 1311   5.633   1.676   3.101  0.0949 -0.7362 -0.1211
  402SOL     OW 1312   5.456   3.417   3.586 -0.9106 -0.6292  0.1475
  402SOL    HW1 1313   5.445   3.512   3.594 -2.5421 -0.8505  1.0377
  402SOL    HW2 1314   5.550   3.404   3.586 -0.6489  0.9429  0.6594
  403SOL     OW 1315   3.963   5.210   3.478  0.3113  0.0917  0.0172
  403SOL    HW1 1316   3.880   5.221   3.433  1.1171  1.4925 -1.1973
  403SOL    HW2 1317   3.966   5.283   3.541  1.5622  1.4433 -1.5213
  404SOL     OW 1318   2.079   5.288   3.569 -0.2449  0.6659 -0.5237
  404SOL    HW1 1319   2.078   5.352   3.498 -0.0991  0.7350 -0.4628
  404SOL    HW2 1320   2.025   5.326   3.637  2.6001  2.3609  0.9606
  405SOL     OW 1321   3.537   1.578   1.606 -0.1096 -0.7418  0.7314
  405SOL    HW1 1322   3.610   1.565   1.545  0.1764 -1.2437  1.1715
  405SOL    HW2 1323   3.577   1.625   1.680 -0.2914 -0.7814  0.8546
  406SOL     OW 1324   3.443   3.539   0.654  0.2232  0.0821 -0.0051
  406SOL    HW1 1325   3.397   3.607   0.703 -0.4688  0.4368 -1.0989
  406SOL    HW2 1326   3.502   3.587   0.596 -0.4231 -0.2130 -0.9372
  407SOL     OW 1327   5.153   3.088   1.171  0.0753 -0.5262 -0.0122
  407SOL    HW1 1328   5.157   2.995   1.149  0.4319 -0.4960 -0.0810
  407SOL    HW2 1329   5.059   3.107   1.180 -0.0738 -0.5792 -1.3233
  408SOL     OW 1330   3.317   1.318   0.746  0.5740  0.3842 -0.0161
  408SOL    HW1 1331   3.281   1.282   0.665  0.5471  0.1781  0.0853
  408SOL    HW2 1332   3.377   1.250   0.777 -2.1566 -1.2685  2.1086
  409SOL     OW 1333   4.297   5.230   0.523  0.0980 -0.2527 -0.4569
  409SOL    HW1 1334   4.257   5.143   0.525  0.5333 -0.4568 -0.4705
  409SOL    HW2 1335   4.283   5.261   0.434 -1.2326  0.2541 -0.0896
  410SOL     OW 1336   0.704   0.393   0.106  0.5901  0.3416  0.5970
  410SOL    HW1 1337   0.769   0.447   0.063  0.1266 -0.3021 -0.9825
  410SOL    HW2 1338   0.755   0.329   0.157  1.2257 -0.3096 -0.8168
  411SOL     OW 1339   5.523   4.504   2.296  1.1541  0.6890  0.0560
  411SOL    HW1 1340   5.513   4.585   2.246  1.0361  0.9922  0.5646
  411SOL    HW2 1341   5.518   4.531   2.388 -0.0711 -0.0419  0.2275
  412SOL     OW 1342   4.079   0.848   3.338 -0.1756 -0.3719 -0.1977
  412SOL    HW1 1343   4.023   0.816   3.268 -0.4837  1.8197 -1.0314
  412SOL    HW2 1344   4.025   0.911   3.385  0.8163 -0.0145  0.5092
  413SOL     OW 1345   2.877   0.966   1.950  0.3756  0.2246 -0.5652
  413SOL    HW1 1346   2.887   0.878   1.986 -0.9258  0.3305  0.1054
  413SOL    HW2 1347   2.955   0.978   1.896  0.3901 -1.4845 -0.9907
  414SOL     OW 1348   4.691   0.485   0.466 -0.5127  0.1221  0.1878
  414SOL    HW1 1349   4.756   0.545   0.503 -0.7907 -0.4956  1.7436
  414SOL    HW2 1350   4.736   0.400   0.464 -1.5450 -0.5307  2.2409
  415SOL     OW 1351   4.782   3.528   1.459 -0.6956  0.6409  0.3252
  415SOL    HW1 1352   4.869   3.537   1.498 -0.6108  1.2981 -0.0118
  415SOL    HW2 1353   4.729   3.488   1.528  0.1456 -0.8785  0.1551
  416SOL     OW 1354   3.747   5.187   3.254 -0.3421 -0.8881  0.1332
  416SOL    HW1 1355   3.662   5.220   3.283  0.5941  1.8378  0.0182
  416SOL    HW2 1356   3.725   5.112   3.199 -2.8655  0.9433 -1.6212
  417SOL     OW 1357   2.807   3.555   0.085 -0.7232  0.3364  0.0212
  417SOL    HW1 1358   2.837   3.524   0.171 -0.5216  0.7919  0.1187
  417SOL    HW2 1359   2.779   3.475   0.039 -1.3802  0.1588  0.7235
  418SOL     OW 1360   1.098   1.840   3.262 -0.0450 -0.3396 -0.0930
  418SOL    HW1 1361   1.112   1.777   3.333 -3.1770 -1.0872  0.0233
  418SOL    HW2 1362   1.026   1.895   3.293  0.3169  1.0641 -1.6294
  419SOL     OW 1363   1.802   3.467   0.075 -0.3815 -0.0626 -0.3131
  419SOL    HW1 1364   1.800   3.440  -0.017  0.2351  2.1617 -1.0660
  419SOL    HW2 1365   1.827   3.560   0.071  1.3271 -0.3446  2.2071
  420SOL     OW 1366   5.244   4.259   1.566  0.0107  0.0971  0.2291
  420SOL    HW1 1367   5.285   4.266   1.479 -1.3854 -3.1989 -0.8553
  420SOL    HW2 1368   5.312   4.223   1.622  0.8533  2.0351  0.5561
  421SOL     OW 1369   3.238   2.283   3.433  0.0484 -0.1794 -0.2268
  421SOL    HW1 1370   3.304   2.217   3.454 -1.5055 -2.1244 -1.2001
  421SOL    HW2 1371   3.157   2.251   3.473 -0.8957  0.8005 -1.2529
  422SOL     OW 1372   2.194   3.120   0.189  0.0800  0.2533 -0.0085
  422SOL    HW1 1373   2.125   3.184   0.204  1.5447  1.3243  2.6949
  422SOL    HW2 1374   2.163   3.040   0.232  0.1513  0.4769  0.4596
  423SOL     OW 1375   0.493   1.503   2.446 -0.2993 -0.0305  0.2057
  423SOL    HW1 1376   0.487   1.580   2.391  0.4390  1.9331  2.6700
  423SOL    HW2 1377   0.585   1.477   2.441 -0.7163 -1.3733 -1.3019
  424SOL     OW 1378   2.118   2.481   2.163  0.0432 -0.4448  0.2539
  424SOL    HW1 1379   2.036   2.431   2.159  0.1263 -0.7103  1.5082
  424SOL    HW2 1380   2.090   2.572   2.157 -0.3158 -0.5481  0.2999
  425SOL     OW 1381   0.857   4.609   2.990  0.6457  0.0920 -0.0995
  425SOL    HW1 1382   0.896   4.696   2.995  1.0535 -0.1449  1.2403
  425SOL    HW2 1383   0.790   4.608   3.059  0.7565 -0.7002  0.0082
  426SOL     OW 1384   3.260   0.086   1.015 -0.2582  0.2209  0.5326
  426SOL    HW1 1385   3.263   0.177   0.986 -0.6616 -0.2067 -0.9271
  426SOL    HW2 1386   3.179   0.080   1.066 -0.4685  0.5631  0.2430
  427SOL     OW 1387   2.100   0.423   2.264  0.1726  0.1335  0.0032
  427SOL    HW1 1388   2.137   0.466   2.187  2.4600  0.7305  1.3653
  427SOL    HW2 1389   2.130   0.333   2.258 -1.4178 -0.3944 -0.8284
  428SOL     OW 1390   3.001   4.472   3.398 -0.1775 -0.2223 -0.1209
  428SOL    HW1 1391   3.021   4.523   3.320  0.5875 -0.3313 -0.0030
  428SOL    HW2 1392   2.905   4.469   3.401 -0.2158  0.1654 -0.7991
  429SOL     OW 1393   0.234   1.417   2.802 -0.0747  0.1278 -0.3469
  429SOL    HW1 1394   0.140   1.399   2.804 -0.4797  2.0146 -0.6465
  429SOL    HW2 1395   0.265   1.376   2.722 -0.0943 -2.7494  1.0137
  430SOL     OW 1396   4.570   3.378   1.026 -0.0281  0.6291  0.3283
  430SOL    HW1 1397   4.575   3.471   1.045 -1.5451  0.7254  0.3559
  430SOL    HW2 1398   4.655   3.343   1.054  1.0237  2.1668 -0.7410
  431SOL     OW 1399   1.134   2.861   1.332  0.1490 -0.0355 -0.5075
  431SOL    HW1 1400   1.082   2.793   1.376  0.3199  0.5729  0.6875
  431SOL    HW2 1401   1.100   2.943   1.366  0.4616  0.4595 -1.3522
  432SOL     OW 1402   3.912   2.046   3.134 -0.0354 -0.0708  0.2638
  432SOL    HW1 1403   3.898   2.024   3.226 -1.4808  0.8139  0.2777
  432SOL    HW2 1404   3.825   2.060   3.099  0.5794  1.0743 -0.8768
  433SOL     OW 1405   4.504   3.856   3.637  0.5025 -0.2772 -0.8294
  433SOL    HW1 1406   4.443   3.845   3.564 -2.2377 -1.1051  1.4459
  433SOL    HW2 1407   4.515   3.768   3.674  1.0683  0.2648  0.3571
  434SOL     OW 1408   4.605   4.787   1.150  0.0709  0.4168 -0.0925
  434SOL    HW1 1409   4.539   4.733   1.107 -1.1407 -0.2873  2.4337
  434SOL    HW2 1410   4.555   4.859   1.189  1.2133  1.4856 -0.5408
  435SOL     OW 1411   1.547   2.439   2.631 -0.0552  0.6221 -0.2800
  435SOL    HW1 1412   1.641   2.449   2.617 -0.0038  0.6626  0.0814
  435SOL    HW2 1413   1.540   2.395   2.716 -0.2837 -2.0043 -1.5655
  436SOL     OW 1414   1.187   3.890   3.913  0.5830 -0.2832 -0.0306
  436SOL    HW1 1415   1.105   3.939   3.920  0.7349 -0.0422  0.0684
  436SOL    HW2 1416   1.190   3.837   3.993 -0.4618 -1.8244 -0.9716
  437SOL     OW 1417   2.480   1.405   1.201 -0.2648  0.6180  0.0489
  437SOL    HW1 1418   2.493   1.474   1.135  1.0679  0.7621  0.4224
  437SOL    HW2 1419   2.402   1.432   1.249 -2.8199 -0.7990 -3.0379
  438SOL     OW 1420   3.460   2.810   2.551  0.3042  0.2985 -0.2848
  438SOL    HW1 1421   3.365   2.822   2.544  0.2702  0.7785  0.8419
  438SOL    HW2 1422   3.496   2.897   2.537  0.5879  0.1092 -0.7481
  439SOL     OW 1423   3.350   5.022   3.844  0.8611  0.2687  0.0354
  439SOL    HW1 1424   3.337   4.958   3.914 -0.1443  1.4255  0.9574
  439SOL    HW2 1425   3.270   5.016   3.791  0.6092  0.9955  0.3295
  440SOL     OW 1426   5.341   0.954   0.955  0.0022 -0.1434  0.1821
  440SOL    HW1 1427   5.328   0.963   1.050  0.7183 -1.8307  0.4762
  440SOL    HW2 1428   5.339   0.860   0.940 -0.2922  0.1185 -1.5287
  441SOL     OW 1429   1.078   4.363   1.345 -0.0619 -0.8532  0.2331
  441SOL    HW1 1430   0.998   4.409   1.319 -0.3299 -1.0221  0.7467
  441SOL    HW2 1431   1.066   4.344   1.438  0.9876 -0.0428  0.5580
  442SOL     OW 1432   2.370   5.411   3.355 -0.0248  0.2538  0.4631
  442SOL    HW1 1433   2.353   5.485   3.297 -0.2682  1.7955  2.3992
  442SOL    HW2 1434   2.293   5.355   3.345 -0.3423  0.7908 -0.2187
  443SOL     OW 1435   0.349   3.416   1.759 -0.1402 -0.4458 -0.0852
  443SOL    HW1 1436   0.384   3.447   1.676  0.5283 -0.3402  0.2297
  443SOL    HW2 1437   0.380   3.326   1.767  1.4908  0.1520  0.9517
  444SOL     OW 1438   4.703   3.079   3.430 -0.3411 -0.4671  0.6379
  444SOL    HW1 1439   4.761   3.079   3.354 -0.8648  0.9491  0.1967
  444SOL    HW2 1440   4.740   3.014   3.489  2.6381  1.4429  1.0915
  445SOL     OW 1441   3.738   3.166   1.578 -0.3788  0.0752 -0.0366
  445SOL    HW1 1442   3.702   3.078   1.563  0.8801 -0.3348 -0.8083
  445SOL    HW2 1443   3.822   3.150   1.622 -0.0397  0.8851 -0.3761
  446SOL     OW 1444   1.183   0.349   1.738  0.1304  0.5912 -0.0846
  446SOL    HW1 1445   1.234   0.366   1.817  0.8970  0.0660 -0.4520
  446SOL    HW2 1446   1.242   0.299   1.681 -0.8923 -0.3342 -0.3832
  447SOL     OW 1447   3.859   0.279   3.452 -0.2827 -0.3764  0.5577
  447SOL    HW1 1448   3.879   0.365   3.415 -0.4601  0.1015  1.5523
  447SOL    HW2 1449   3.829   0.228   3.377  0.4440  0.2248 -0.1607
  448SOL     OW 1450   1.389   4.805   1.825 -0.5620 -0.6822  0.0269
  448SOL    HW1 1451   1.438   4.743   1.770  0.4066 -1.3065  1.5499
  448SOL    HW2 1452   1.356   4.753   1.897 -0.3321  0.4311  0.9721
  449SOL     OW 1453   0.528   4.743   1.998  0.2268  0.3357  0.0231
  449SOL    HW1 1454   0.569   4.674   2.051  1.1494  1.8854  1.3932
  449SOL    HW2 1455   0.575   4.823   2.022 -2.5002  1.9288  0.3939
  450SOL     OW 1456   0.734   3.428   1.973 -0.4355 -0.2046  0.3396
  450SOL    HW1 1457   0.712   3.482   1.897  0.1612  1.0396  1.0099
  450SOL    HW2 1458   0.763   3.491   2.039 -0.9804 -1.2472  1.6224
  451SOL     OW 1459   3.666   2.181   3.397 -0.0302 -0.1156  0.4251
  451SOL    HW1 1460   3.587   2.223   3.432 -0.5477  1.4604 -2.3687
  451SOL    HW2 1461   3.713   2.251   3.352  1.8846 -1.4930  0.1492
  452SOL     OW 1462   0.253   1.778   0.662  0.2831  0.1699  0.1434
  452SOL    HW1 1463   0.247   1.855   0.606 -1.1418  0.7025  0.9621
  452SOL    HW2 1464   0.344   1.777   0.691  0.0343  2.4210  1.2519
  453SOL     OW 1465   5.344   2.314   2.008  0.2297  0.0220  1.0267
  453SOL    HW1 1466   5.285   2.324   2.082 -0.6943  0.7794  0.2074
  453SOL    HW2 1467   5.323   2.227   1.973 -0.8205  0.5149  0.3977
  454SOL     OW 1468   3.990   3.762   1.539 -0.2509  0.2412 -0.7404
  454SOL    HW1 1469   4.074   3.722   1.558 -0.0625  1.0109  0.0801
  454SOL    HW2 1470   3.979   3.751   1.444  0.8149  0.2320 -0.8698
  455SOL     OW 1471   0.524   2.942   1.076  0.4513 -0.7512 -0.1330
  455SOL    HW1 1472   0.442   2.984   1.051  0.5750  0.4944  1.4567
  455SOL    HW2 1473   0.587   2.974   1.011 -0.2564 -1.6815 -1.3396
  456SOL     OW 1474   4.546   2.935   1.420 -0.4548  0.2023  0.2510
  456SOL    HW1 1475   4.606   2.864   1.443 -0.5418 -0.0556 -0.3254
  456SOL    HW2 1476   4.562   2.953   1.328 -0.7535  0.6268  0.2752
  457SOL     OW 1477   3.413   3.454   2.060  0.3435  0.4740 -0.1883
  457SOL    HW1 1478   3.402   3.460   1.965  0.5918  0.1285 -0.2382
  457SOL    HW2 1479   3.504   3.480   2.075  1.0388 -1.7549 -0.2791
  458SOL     OW 1480   5.475   4.482   0.287  0.1237  0.3995  0.1993
  458SOL    HW1 1481   5.450   4.412   0.348 -3.4175  1.6264  0.4270
  458SOL    HW2 1482   5.548   4.526   0.330  1.2892 -2.0318  0.8872
  459SOL     OW 1483   1.353   1.445   2.575  0.0924 -0.2339  0.4477
  459SOL    HW1 1484   1.279   1.397   2.613 -0.4564  0.9206  0.8585
  459SOL    HW2 1485   1.313   1.508   2.515  0.6890  0.8076  1.1153
  460SOL     OW 1486   3.403   2.559   3.179  0.3213  0.0293  0.2261
  460SOL    HW1 1487   3.409   2.650   3.152  0.2048 -0.5966 -2.0859
  460SOL    HW2 1488   3.407   2.562   3.275  2.4459  2.2743  0.1589
  461SOL     OW 1489   2.970   2.187   3.447  0.5026 -0.0169 -0.5248
  461SOL    HW1 1490   2.893   2.137   3.473  2.0203 -2.1937  0.0568
  461SOL    HW2 1491   2.978   2.173   3.352  0.1330  0.3343 -0.6121
  462SOL     OW 1492   2.989   1.656   2.999  0.3203  0.1612 -0.4926
  462SOL    HW1 1493   2.909   1.620   3.035  1.3695 -1.4753  0.3476
  462SOL    HW2 1494   3.044   1.675   3.075  1.1289  0.2376 -1.0732
  463SOL     OW 1495   3.638   2.168   2.431 -0.1446  0.0795 -0.5339
  463SOL    HW1 1496   3.679   2.091   2.470  0.0684  0.5321  0.1627
  463SOL    HW2 1497   3.549   2.168   2.465 -0.0267  0.3535 -0.2252
  464SOL     OW 1498   5.346   4.871   3.412 -0.0836 -0.1469  0.2650
  464SOL    HW1 1499   5.282   4.845   3.477 -1.7399 -1.3546 -1.7187
  464SOL    HW2 1500   5.405   4.932   3.458 -1.8825  0.0104  2.4973
  465SOL     OW 1501   5.471   3.138   3.449 -0.2781 -0.0883  0.1431
  465SOL    HW1 1502   5.492   3.066   3.389  3.3568  1.0431 -0.1629
  465SOL    HW2 1503   5.398   3.183   3.408  0.2467 -1.0430 -1.9663
  466SOL     OW 1504   2.990   0.952   3.483 -0.0847  0.5046  0.6240
  466SOL    HW1 1505   3.053   0.897   3.437 -1.3546  0.2517 -0.9103
  466SOL    HW2 1506   2.962   0.899   3.558  0.1226 -0.1611  0.2375
  467SOL     OW 1507   2.818   2.560   0.948 -0.0056 -0.3949 -0.4617
  467SOL    HW1 1508   2.802   2.631   1.011 -0.5120  0.5724 -1.6420
  467SOL    HW2 1509   2.764   2.583   0.872  1.7777 -0.6785 -1.8833
  468SOL     OW 1510   1.178   5.009   3.619  0.0794  0.0927  0.1908
  468SOL    HW1 1511   1.185   5.105   3.615 -1.7083  0.2454 -3.3113
  468SOL    HW2 1512   1.200   4.980   3.530 -0.0953 -2.7325  0.9779
  469SOL     OW 1513   1.732   3.740   1.699 -0.0085  0.1012 -0.2848
  469SOL    HW1 1514   1.797   3.741   1.628 -1.7294 -3.0050 -2.1322
  469SOL    HW2 1515   1.731   3.649   1.729 -2.4595  0.3603  0.6724
  470SOL     OW 1516   1.635   4.469   0.695 -0.2620  0.0108  0.0737
  470SOL    HW1 1517   1.685   4.548   0.715 -0.1270 -0.4942  1.8394
  470SOL    HW2 1518   1.549   4.485   0.734 -0.2098 -0.7341  0.5100
  471SOL     OW 1519   4.118   4.039   0.534  0.4700 -0.2266  0.1206
  471SOL    HW1 1520   4.177   4.114   0.535  0.2738 -0.0485  1.9417
  471SOL    HW2 1521   4.171   3.968   0.498  1.4468  0.1990  0.6724
  472SOL     OW 1522   4.256   2.474   1.832  0.5756  0.1642 -0.3567
  472SOL    HW1 1523   4.225   2.553   1.876 -0.5800  0.2082 -1.2002
  472SOL    HW2 1524   4.177   2.420   1.822  1.3465 -1.1394  0.2537
  473SOL     OW 1525   4.872   0.572   2.471  0.1111  0.6250 -0.3872
  473SOL    HW1 1526   4.889   0.652   2.521 -1.5814  0.8219 -0.0674
  473SOL    HW2 1527   4.786   0.543   2.501  1.4727 -2.4391  0.9658
  474SOL     OW 1528   3.719   0.102   0.902  0.4437 -0.3491 -0.0877
  474SOL    HW1 1529   3.689   0.189   0.928  0.3050 -0.5089  0.3018
  474SOL    HW2 1530   3.727   0.107   0.807 -3.4385 -1.0523 -0.6228
  475SOL     OW 1531   4.128   5.259   1.680  0.1274  0.2141 -0.1754
  475SOL    HW1 1532   4.038   5.259   1.645 -0.4327 -1.7088  1.1137
  475SOL    HW2 1533   4.162   5.345   1.657 -1.5610  0.5036 -1.9196
  476SOL     OW 1534   2.261   4.837   0.356 -0.5722 -0.7469 -0.0755
  476SOL    HW1 1535   2.306   4.763   0.314 -1.0752  0.3143 -2.6562
  476SOL    HW2 1536   2.169   4.824   0.335 -0.8330 -0.0751  0.6154
  477SOL     OW 1537   0.551   4.349   3.256  0.0336  0.4013  0.5406
  477SOL    HW1 1538   0.602   4.283   3.303 -0.8138 -0.5487  0.1597
  477SOL    HW2 1539   0.474   4.302   3.224 -0.2444  1.4191 -0.3517
  478SOL     OW 1540   1.482   2.001   3.280 -0.3864 -0.2441 -0.1674
  478SOL    HW1 1541   1.574   2.004   3.306 -0.5569  0.8244  0.3516
  478SOL    HW2 1542   1.483   1.960   3.193  0.5005 -0.8985  0.1446
  479SOL     OW 1543   4.089   0.911   0.914 -0.1963 -0.0437  0.0715
  479SOL    HW1 1544   4.074   0.831   0.863 -1.2552  0.0405  0.2250
  479SOL    HW2 1545   4.184   0.914   0.927 -0.0173 -0.6136 -1.0007
  480SOL     OW 1546   0.870   0.800   3.583  0.4249 -0.1076 -0.1159
  480SOL    HW1 1547   0.837   0.715   3.553  0.8363 -0.5892  0.7440
  480SOL    HW2 1548   0.888   0.786   3.676  2.5721  0.2716 -0.4360
  481SOL     OW 1549   0.417   2.735   0.652  0.5628  0.0497  0.1954
  481SOL    HW1 1550   0.456   2.702   0.733 -1.4175  0.7803  1.5096
  481SOL    HW2 1551   0.451   2.824   0.644  0.6895  0.0084  0.2722
  482SOL     OW 1552   3.793   3.410   2.477  0.0811  0.6457 -0.1761
  482SOL    HW1 1553   3.843   3.466   2.536 -0.3751 -1.0716  2.0094
  482SOL    HW2 1554   3.813   3.321   2.507 -1.1246 -0.2581 -1.8821
  483SOL     OW 1555   5.553   1.838   0.617  0.1117  0.3438  0.2850
  483SOL    HW1 1556   5.477   1.843   0.675  0.2596 -0.4558  0.5595
  483SOL    HW2 1557   5.628   1.824   0.675  0.3984  0.5615 -0.0258
  484SOL     OW 1558   3.215   2.050   3.165 -0.1013  0.6650  0.6380
  484SOL    HW1 1559   3.259   2.071   3.082  0.8940 -2.6778  0.1672
  484SOL    HW2 1560   3.283   2.061   3.232 -0.0392  0.5028  0.6024
  485SOL     OW 1561   4.218   4.313   0.966  0.3072  0.2208  0.5037
  485SOL    HW1 1562   4.166   4.267   0.900  2.8730 -0.3605 -1.2858
  485SOL    HW2 1563   4.285   4.249   0.992  0.9502  1.3304  1.7208
  486SOL     OW 1564   4.784   2.655   1.628  0.4407  0.0036  0.0147
  486SOL    HW1 1565   4.733   2.659   1.547  1.4460 -1.1942 -0.7047
  486SOL    HW2 1566   4.841   2.732   1.624 -1.0741  1.2127  0.7048
  487SOL     OW 1567   4.901   3.167   3.763  0.1663 -0.1706 -0.7508
  487SOL    HW1 1568   4.994   3.174   3.781  0.2720  0.6205 -1.5591
  487SOL    HW2 1569   4.859   3.222   3.829  0.3802  0.6413 -1.2760
  488SOL     OW 1570   0.581   0.627   0.577  0.4192 -0.6159  0.3250
  488SOL    HW1 1571   0.615   0.680   0.649  1.1714  0.6172 -0.8947
  488SOL    HW2 1572   0.507   0.579   0.615  1.1003 -0.3685  2.0287
  489SOL     OW 1573   2.696   1.133   1.594  0.0866 -0.4611  0.2485
  489SOL    HW1 1574   2.656   1.215   1.564  0.6361  0.0012  0.7539
  489SOL    HW2 1575   2.718   1.086   1.514  0.7203  0.3544 -0.0653
  490SOL     OW 1576   1.819   5.051   0.936 -0.2911 -0.2764  0.1341
  490SOL    HW1 1577   1.753   5.100   0.888 -0.1994  0.5872  0.8547
  490SOL    HW2 1578   1.868   5.004   0.869  0.5328  1.7356 -0.7610
  491SOL     OW 1579   3.108   3.865   1.339  0.4074 -0.3320  0.5864
  491SOL    HW1 1580   3.013   3.878   1.331  0.3736 -0.0249  1.3934
  491SOL    HW2 1581   3.126   3.790   1.282 -0.4671 -0.9528  1.0887
  492SOL     OW 1582   1.381   1.198   3.225  0.1562  0.7275  0.1952
  492SOL    HW1 1583   1.365   1.242   3.142  1.1124 -2.4959 -1.8428
  492SOL    HW2 1584   1.465   1.234   3.255  0.9542  0.3172 -1.4393
  493SOL     OW 1585   3.876   4.698   2.959 -0.0040  0.4380 -0.0843
  493SOL    HW1 1586   3.846   4.674   2.871  0.4578 -1.3204  0.2004
  493SOL    HW2 1587   3.796   4.711   3.009 -0.2834 -0.2993 -0.3250
  494SOL     OW 1588   5.072   3.798   0.360 -0.2305 -0.0014  0.1755
  494SOL    HW1 1589   5.063   3.706   0.334  1.2082  0.1855 -1.0741
  494SOL    HW2 1590   5.132   3.795   0.435 -1.1348 -0.1594  0.9181
  495SOL     OW 1591   3.372   4.546   2.879  0.1858 -1.0387  0.4113
  495SOL    HW1 1592   3.408   4.628   2.846  0.7026  0.6752  4.5932
  495SOL    HW2 1593   3.293   4.572   2.926  0.2619 -2.9418  1.7063
  496SOL     OW 1594   0.339   0.899   2.046  0.4651  0.1324  0.7931
  496SOL    HW1 1595   0.417   0.860   2.005  0.5112 -1.6193  2.4408
  496SOL    HW2 1596   0.278   0.826   2.056 -0.5959  1.0768  1.4053
  497SOL     OW 1597   5.311   3.023   3.942 -0.1079  0.5252  0.0900
  497SOL    HW1 1598   5.260   3.002   3.864  0.8832 -0.7759 -0.2450
  497SOL    HW2 1599   5.399   3.041   3.910  0.7234 -1.5735  0.9507
  498SOL     OW 1600   1.035   2.765   0.510  0.2574  0.4743  0.8222
  498SOL    HW1 1601   1.051   2.724   0.595  0.6428 -0.1176  0.4682
  498SOL    HW2 1602   1.116   2.752   0.461  0.0661  0.8798  0.3844
  499SOL     OW 1603   4.064   0.958   2.315  0.4409  0.9378 -0.0948
  499SOL    HW1 1604   4.087   0.929   2.227  1.0315 -0.7281  0.5663
  499SOL    HW2 1605   3.969   0.945   2.321  0.6802 -0.9628  0.1720
  500SOL     OW 1606   2.831   1.236   1.842  0.1685 -0.1391 -0.0006
  500SOL    HW1 1607   2.793   1.230   1.754 -1.2335  1.8152  0.4228
  500SOL    HW2 1608   2.819   1.148   1.879  0.1235 -0.7842 -1.4706
  501SOL     OW 1609   3.881   4.945   3.640 -0.2520  0.2648 -0.0551
  501SOL    HW1 1610   3.819   4.980   3.577  0.1508 -0.1530 -0.6996
  501SOL    HW2 1611   3.909   5.020   3.691 -0.1503  0.7067 -0.7556
  502SOL     OW 1612   5.249   4.480   3.473  0.4310 -0.3783  0.4668
  502SOL    HW1 1613   5.239   4.537   3.397  1.3959  0.2850  0.8267
  502SOL    HW2 1614   5.301   4.530   3.535 -0.5172 -0.8178  1.6753
  503SOL     OW 1615   3.722   3.431   3.386  0.1579  0.1063  0.2308
  503SOL    HW1 1616   3.634   3.454   3.358  0.2209  0.5778  0.4043
  503SOL    HW2 1617   3.751   3.364   3.323 -0.8956 -1.2117  1.0914
  504SOL     OW 1618   0.094   1.147   2.776  0.2692  0.5636 -0.3972
  504SOL    HW1 1619   0.058   1.152   2.865 -3.0536 -2.8388 -1.2496
  504SOL    HW2 1620   0.184   1.119   2.788  0.2272  1.1987  1.8865
  505SOL     OW 1621   4.389   2.060   2.213  0.1112 -0.7261 -0.1946
  505SOL    HW1 1622   4.359   2.062   2.304 -0.4058 -3.2821 -0.2529
  505SOL    HW2 1623   4.466   2.117   2.213 -1.2568  1.2456  1.2634
  506SOL     OW 1624   4.773   2.436   1.318  0.1764 -0.4756  0.4186
  506SOL    HW1 1625   4.829   2.377   1.369 -1.0479 -1.1851  0.9769
  506SOL    HW2 1626   4.686   2.397   1.324 -0.2524  0.1942 -1.0711
  507SOL     OW 1627   4.265   2.871   1.254 -0.1558  0.3511 -0.4148
  507SOL    HW1 1628   4.203   2.806   1.286 -1.7379  1.8074 -0.3590
  507SOL    HW2 1629   4.234   2.954   1.289  0.3405  1.4845 -2.4461
  508SOL     OW 1630   1.501   2.095   0.475 -0.2121  0.5658 -0.3931
  508SOL    HW1 1631   1.422   2.042   0.483  1.8821 -3.0045 -1.3037
  508SOL    HW2 1632   1.500   2.126   0.385 -1.5307  2.4311  0.1903
  509SOL     OW 1633   1.218   2.422   2.852  0.3767  0.7237 -0.0678
  509SOL    HW1 1634   1.261   2.492   2.901  0.1645  0.6553  0.2230
  509SOL    HW2 1635   1.178   2.367   2.919  0.8024  0.1486 -0.2823
  510SOL     OW 1636   3.734   1.140   0.861 -0.1093 -0.1214 -0.2218
  510SOL    HW1 1637   3.726   1.111   0.952  0.0819  2.2804  0.6284
  510SOL    HW2 1638   3.827   1.158   0.849 -0.2641  0.4615 -0.5823
  511SOL     OW 1639   3.481   4.315   3.276  0.6051  0.2144  0.2551
  511SOL    HW1 1640   3.499   4.222   3.268 -0.2167  0.0869 -0.2390
  511SOL    HW2 1641   3.495   4.335   3.368  1.9664 -0.1290  0.1525
  512SOL     OW 1642   1.643   0.510   1.005  0.4718 -0.7157  0.5976
  512SOL    HW1 1643   1.648   0.464   1.089  1.2604  0.3185  1.1493
  512SOL    HW2 1644   1.570   0.469   0.959 -0.0517 -1.2251  1.8355
  513SOL     OW 1645   1.646   3.723   2.600  0.1060  0.1543 -0.5213
  513SOL    HW1 1646   1.569   3.668   2.615 -0.2560  0.8743  0.3052
  513SOL    HW2 1647   1.720   3.671   2.632 -0.0685 -0.3942 -0.9923
  514SOL     OW 1648   4.827   4.285   1.669 -0.3610  0.1427 -0.0497
  514SOL    HW1 1649   4.915   4.319   1.682  0.0000 -1.0621  0.7729
  514SOL    HW2 1650   4.773   4.330   1.734 -0.5199  1.3967 -1.0102
  515SOL     OW 1651   3.943   2.870   2.717 -0.4290  0.5600  0.3333
  515SOL    HW1 1652   3.977   2.824   2.640  1.3104  1.9821  0.1921
  515SOL    HW2 1653   3.977   2.960   2.708 -0.3264  0.8025  2.6649
  516SOL     OW 1654   1.265   2.035   3.743  0.1057  0.5016  0.6435
  516SOL    HW1 1655   1.234   2.123   3.719 -0.3964  0.1518 -0.0343
  516SOL    HW2 1656   1.361   2.043   3.743  0.0584  1.1884  1.1535
  517SOL     OW 1657   1.025   1.678   2.347 -0.0377 -0.2990  0.0847
  517SOL    HW1 1658   1.050   1.637   2.263  1.4385  1.3447 -0.3470
  517SOL    HW2 1659   0.967   1.614   2.388 -0.3564 -1.4134 -1.9335
  518SOL     OW 1660   0.803   1.621   1.284  0.0062  0.3335  0.1339
  518SOL    HW1 1661   0.841   1.597   1.368 -1.0034  0.8589  0.7530
  518SOL    HW2 1662   0.772   1.538   1.247 -1.7482  0.3726  1.4040
  519SOL     OW 1663   4.761   0.220   3.811  0.4025 -0.5658  0.8664
  519SOL    HW1 1664   4.704   0.288   3.775 -0.0561 -1.5766 -0.4084
  519SOL    HW2 1665   4.840   0.267   3.838 -0.1624  0.5585  0.6246
  520SOL     OW 1666   0.634   4.017   1.620  0.4470 -0.4141 -0.2400
  520SOL    HW1 1667   0.571   4.047   1.686  0.3174  1.8883 -1.3235
  520SOL    HW2 1668   0.660   3.930   1.650  0.1770  0.4045  2.6931
  521SOL     OW 1669   1.343   3.710   3.502 -0.3622 -0.1956  0.3298
  521SOL    HW1 1670   1.386   3.788   3.538 -0.5339 -0.5235  1.2941
  521SOL    HW2 1671   1.251   3.735   3.496 -0.7149 -0.8309  2.2453
  522SOL     OW 1672   2.864   5.123   1.075  0.1588 -0.0208  0.1575
  522SOL    HW1 1673   2.819   5.185   1.132 -0.4617 -0.9228  0.6722
  522SOL    HW2 1674   2.804   5.049   1.069  1.1042 -0.7834 -0.0261
  523SOL     OW 1675   1.154   0.010   2.383  0.5089  0.2567  0.0142
  523SOL    HW1 1676   1.223  -0.055   2.370 -0.7177 -1.3304  1.0367
  523SOL    HW2 1677   1.099   0.003   2.305  0.5440  0.2928 -0.0140
  524SOL     OW 1678   1.325   3.453   0.077 -0.0645  0.4034 -0.4813
  524SOL    HW1 1679   1.282   3.511   0.139 -0.5519 -0.3850 -0.0728
  524SOL    HW2 1680   1.329   3.504  -0.005 -0.5608  0.9667 -0.1620
  525SOL     OW 1681   4.068   1.063   0.564 -0.1705 -0.1849  0.1759
  525SOL    HW1 1682   4.012   1.126   0.520  0.1613 -0.0940 -0.1222
  525SOL    HW2 1683   4.007   1.005   0.610 -0.5635 -0.6115 -0.8391
  526SOL     OW 1684   0.014   4.297   2.901 -0.2685 -0.5515 -0.0570
  526SOL    HW1 1685   0.029   4.211   2.862 -0.5108 -1.5280  1.8991
  526SOL    HW2 1686   0.094   4.316   2.950 -0.7577 -0.3015  0.6575
  527SOL     OW 1687   3.437   2.163   3.616 -0.9831 -0.1500  0.5759
  527SOL    HW1 1688   3.495   2.230   3.654 -0.7169  0.9455 -1.6040
  527SOL    HW2 1689   3.432   2.095   3.683  0.9941  0.7799  1.7630
  528SOL     OW 1690   5.142   1.647   0.778 -0.1760 -0.1057 -0.7698
  528SOL    HW1 1691   5.207   1.586   0.743 -0.1985 -1.1442  0.9055
  528SOL    HW2 1692   5.057   1.608   0.755 -0.2373  0.6207 -1.8771
  529SOL     OW 1693   5.295   5.575   1.200  0.0791  0.2735 -0.1307
  529SOL    HW1 1694   5.330   5.661   1.177 -2.2982  0.9754 -1.4913
  529SOL    HW2 1695   5.207   5.593   1.233 -0.3638 -1.6200 -0.1634
  530SOL     OW 1696   4.393   2.806   2.528  0.1463  0.2216  0.2467
  530SOL    HW1 1697   4.457   2.767   2.469  0.1243  0.9482 -0.2659
  530SOL    HW2 1698   4.446   2.848   2.596  0.2636  1.5544 -0.6353
  531SOL     OW 1699   1.289   3.041   3.722 -0.3213  0.4758 -0.5050
  531SOL    HW1 1700   1.338   2.994   3.654 -2.6277 -0.8317 -1.3909
  531SOL    HW2 1701   1.228   3.097   3.674 -1.0295  0.5952  0.4878
  532SOL     OW 1702   0.307   0.856   1.118 -0.0267 -0.8998 -0.1058
  532SOL    HW1 1703   0.217   0.888   1.114 -0.2218 -1.3794  0.3402
  532SOL    HW2 1704   0.302   0.779   1.174  0.9712  0.1527  1.5364
  533SOL     OW 1705   0.403   5.112   3.463 -0.0427 -0.5890 -0.0541
  533SOL    HW1 1706   0.456   5.177   3.416  0.2242 -1.7616 -1.4804
  533SOL    HW2 1707   0.467   5.057   3.508 -0.2872  0.3423  1.4911
  534SOL     OW 1708   1.467   2.951   0.417  0.2167  0.5192 -0.4433
  534SOL    HW1 1709   1.528   2.887   0.380 -1.7409 -1.3835 -0.5752
  534SOL    HW2 1710   1.494   3.034   0.379  2.9214 -0.1457 -0.2150
  535SOL     OW 1711   2.431   3.693   1.453 -0.2166  0.0438  0.0216
  535SOL    HW1 1712   2.417   3.647   1.370 -3.6453 -1.6729  1.3292
  535SOL    HW2 1713   2.392   3.634   1.518 -0.7574  2.8490  2.4006
  536SOL     OW 1714   1.191   1.651   3.434  0.3631  0.0877 -0.3410
  536SOL    HW1 1715   1.202   1.653   3.529 -0.7423 -1.3105 -0.1517
  536SOL    HW2 1716   1.279   1.637   3.400  0.9361  1.6959  0.3926
  537SOL     OW 1717   3.188   3.573   2.191 -0.0445 -0.0115  0.0052
  537SOL    HW1 1718   3.249   3.524   2.136 -0.9473  0.2161 -1.2366
  537SOL    HW2 1719   3.105   3.525   2.185 -0.5342  0.8105  0.0009
  538SOL     OW 1720   4.034   0.252   1.550  0.0555  0.0557 -0.2519
  538SOL    HW1 1721   4.072   0.293   1.473  3.0277  0.1263  1.0850
  538SOL    HW2 1722   4.091   0.177   1.567 -0.8757 -0.3073  1.5211
  539SOL     OW 1723   5.207   2.674   2.456 -0.0186  0.2342 -0.1961
  539SOL    HW1 1724   5.250   2.726   2.388 -0.2488  0.2740 -0.3116
  539SOL    HW2 1725   5.261   2.595   2.463  0.7423  0.7948  0.4872
  540SOL     OW 1726   3.312   1.133   1.750 -0.1867 -0.2165 -0.0556
  540SOL    HW1 1727   3.365   1.095   1.821 -0.6176 -0.1480  0.3030
  540SOL    HW2 1728   3.351   1.220   1.736  1.1606 -0.9625 -1.2580
  541SOL     OW 1729   1.879   5.241   2.652 -0.2873  0.0798 -0.1233
  541SOL    HW1 1730   1.890   5.151   2.683 -1.4377  0.0837  0.3621
  541SOL    HW2 1731   1.790   5.265   2.680 -0.3546  1.0315 -1.0818
  542SOL     OW 1732   5.303   3.140   1.393 -0.2696 -0.4630 -0.3936
  542SOL    HW1 1733   5.264   3.118   1.309  3.0156 -1.6883 -1.7790
  542SOL    HW2 1734   5.281   3.065   1.450 -0.8464 -0.5850 -0.7730
  543SOL     OW 1735   1.254   2.520   1.922  0.5058  0.1863  0.8512
  543SOL    HW1 1736   1.229   2.477   2.004  0.8084 -0.5544  0.5636
  543SOL    HW2 1737   1.171   2.540   1.880  0.3606 -0.1540  0.9719
  544SOL     OW 1738   4.700   1.474   1.670 -0.1183 -0.5457 -0.0812
  544SOL    HW1 1739   4.726   1.406   1.608 -0.7893 -0.4314 -0.5038
  544SOL    HW2 1740   4.753   1.550   1.646  2.5340 -1.6033  2.0228
  545SOL     OW 1741   5.008   1.490   1.116  0.3234  0.4635  0.2773
  545SOL    HW1 1742   5.039   1.449   1.197  0.0865  0.9937  0.6393
  545SOL    HW2 1743   5.062   1.451   1.047  0.2799 -0.2616  0.6422
  546SOL     OW 1744   0.884   3.528   1.133  0.0475  0.1474 -0.9387
  546SOL    HW1 1745   0.854   3.441   1.105  0.2449  0.5061 -2.3357
  546SOL    HW2 1746   0.833   3.589   1.080  0.3736  0.8740 -0.4297
  547SOL     OW 1747   3.275   0.286   2.816 -0.0529  0.2301 -0.3379
  547SOL    HW1 1748   3.210   0.218   2.805  0.2181 -0.6075  2.5345
  547SOL    HW2 1749   3.258   0.323   2.903  2.8415  0.4392  0.2473
  548SOL     OW 1750   3.640   0.464   3.514  0.1618 -0.0849  0.2278
  548SOL    HW1 1751   3.589   0.423   3.584 -0.3986  0.3323  0.0678
  548SOL    HW2 1752   3.714   0.405   3.501 -0.5007 -0.9279  0.1803
  549SOL     OW 1753   3.604   0.126   2.450 -0.2543  0.3233  0.6005
  549SOL    HW1 1754   3.642   0.098   2.534 -2.8869  1.3451  2.2632
  549SOL    HW2 1755   3.542   0.194   2.474  0.8213  2.6531 -2.5303
  550SOL     OW 1756   3.270   4.256   1.898 -0.5375  0.2607  0.2202
  550SOL    HW1 1757   3.217   4.241   1.976 -2.0078 -0.1780 -0.8083
  550SOL    HW2 1758   3.209   4.243   1.825  0.5688  1.4963 -0.9929
  551SOL     OW 1759   4.032   3.401   0.404  0.1058  0.0803  0.0707
  551SOL    HW1 1760   3.986   3.373   0.484  0.3267 -0.7687 -0.0866
  551SOL    HW2 1761   4.085   3.475   0.432  0.4404 -0.4155  0.8015
  552SOL     OW 1762   1.273   4.640   1.149 -0.7649 -0.4745  0.3181
  552SOL    HW1 1763   1.307   4.704   1.087  0.0381 -0.4947  0.7167
  552SOL    HW2 1764   1.178   4.639   1.135 -0.8649  1.2044  0.6848
  553SOL     OW 1765   0.281   3.065   2.794 -0.1349  0.4653 -0.0101
  553SOL    HW1 1766   0.297   3.051   2.701 -0.4446 -0.3606  0.0505
  553SOL    HW2 1767   0.248   2.981   2.825 -2.0213  1.3259  0.4193
  554SOL     OW 1768   1.097   2.418   0.964 -0.8242 -0.0552 -0.5240
  554SOL    HW1 1769   1.056   2.373   1.038 -1.0129  0.1008 -0.5321
  554SOL    HW2 1770   1.174   2.365   0.944  0.3154  0.9603  0.9967
  555SOL     OW 1771   2.441   3.786   0.808 -0.7845  0.1497 -0.9239
  555SOL    HW1 1772   2.536   3.783   0.800 -0.6319  1.1787  0.1556
  555SOL    HW2 1773   2.413   3.845   0.738 -0.4927  0.8543 -0.4572
  556SOL     OW 1774   5.486   0.073   3.724  0.1889 -0.1792  0.1046
  556SOL    HW1 1775   5.555   0.108   3.780 -1.7515  0.9777  1.9215
  556SOL    HW2 1776   5.436   0.150   3.697  0.3094 -0.8497 -2.2366
  557SOL     OW 1777   0.454   4.898   2.456  0.0784  0.4341 -0.4474
  557SOL    HW1 1778   0.512   4.868   2.386 -0.1518 -0.5916 -0.2188
  557SOL    HW2 1779   0.508   4.896   2.535 -0.3494 -0.9169 -0.1627
  558SOL     OW 1780   0.938   4.860   3.062  0.2227  0.2305 -0.3462
  558SOL    HW1 1781   0.985   4.901   3.135  1.7650 -2.5765  0.3819
  558SOL    HW2 1782   0.851   4.901   3.064  0.1414  0.2449  3.1721
  559SOL     OW 1783   3.859   1.943   1.228  0.0711  0.2839  0.0767
  559SOL    HW1 1784   3.811   1.956   1.310 -1.3439  0.1638 -0.7045
  559SOL    HW2 1785   3.796   1.967   1.159  1.0288 -0.1928 -0.9953
  560SOL     OW 1786   0.962   2.356   3.568 -0.2231 -0.1328 -0.5056
  560SOL    HW1 1787   1.007   2.395   3.493 -0.1442  0.0265 -0.3752
  560SOL    HW2 1788   1.014   2.279   3.589  0.9913  0.9702  0.7181
  561SOL     OW 1789   1.300   1.329   1.366 -0.1922  0.1270  0.1221
  561SOL    HW1 1790   1.239   1.259   1.343 -0.8603  0.7021  0.0912
  561SOL    HW2 1791   1.377   1.284   1.400  0.4239 -0.7468 -2.2423
  562SOL     OW 1792   1.575   3.384   1.457  0.3547 -0.4740 -0.4126
  562SOL    HW1 1793   1.655   3.391   1.510  0.2194 -0.6698 -0.1812
  562SOL    HW2 1794   1.536   3.472   1.462 -0.7075 -0.9937  1.4854
  563SOL     OW 1795   1.086   0.929   1.734 -0.3327 -0.4059  0.0027
  563SOL    HW1 1796   1.127   0.848   1.702 -0.3984 -0.0713 -0.9603
  563SOL    HW2 1797   0.993   0.920   1.711 -0.4119 -0.2241  0.2428
  564SOL     OW 1798   1.802   1.319   2.179 -0.2474 -0.0843 -0.2323
  564SOL    HW1 1799   1.733   1.257   2.203 -0.3490 -0.5060 -1.5012
  564SOL    HW2 1800   1.798   1.323   2.083  1.1266  0.3015 -0.2985
  565SOL     OW 1801   2.973   5.154   3.261 -0.0363  0.3250 -0.2110
  565SOL    HW1 1802   3.036   5.142   3.332 -0.0248 -0.4659 -0.3407
  565SOL    HW2 1803   2.943   5.244   3.269 -1.1145 -0.1495  1.6915
  566SOL     OW 1804   0.188   2.518   3.674  0.1244  0.0458  0.5311
  566SOL    HW1 1805   0.161   2.474   3.755 -1.6245 -2.0483 -1.0741
  566SOL    HW2 1806   0.233   2.451   3.624 -0.0755  0.8779 -0.8239
  567SOL     OW 1807   2.903   3.450   2.173 -0.1096  0.6901 -0.2160
  567SOL    HW1 1808   2.886   3.356   2.171  0.9138  0.4431  1.0732
  567SOL    HW2 1809   2.923   3.473   2.083 -0.8317 -0.2224 -0.6348
  568SOL     OW 1810   1.791   1.473   0.249 -0.4186 -0.0848  0.1901
  568SOL    HW1 1811   1.745   1.538   0.196  2.0537 -0.0211 -2.0789
  568SOL    HW2 1812   1.748   1.390   0.228 -1.1772  0.2974  0.1971
  569SOL     OW 1813   2.114   2.653   1.334  0.3561  0.2726  0.1590
  569SOL    HW1 1814   2.018   2.647   1.337  0.3148  0.9172  0.3446
  569SOL    HW2 1815   2.133   2.692   1.249  0.2696  2.8994  1.2630
  570SOL     OW 1816   4.320   0.023   2.134 -0.3408  0.0258  0.0086
  570SOL    HW1 1817   4.409   0.060   2.131 -0.8674  1.3118 -0.3704
  570SOL    HW2 1818   4.333  -0.070   2.115  0.9625  0.1121  0.3273
  571SOL     OW 1819   4.274   3.635   3.846 -0.4274  0.1426  0.2760
  571SOL    HW1 1820   4.198   3.584   3.816 -1.4217  1.7240  0.0251
  571SOL    HW2 1821   4.344   3.609   3.786 -1.6477  1.1082 -1.6819
  572SOL     OW 1822   0.905   5.062   3.589  0.6901  0.2204 -0.3062
  572SOL    HW1 1823   0.903   5.128   3.520 -1.7549 -1.9014 -2.5215
  572SOL    HW2 1824   0.989   5.019   3.579  1.2894  1.3792 -0.4308
  573SOL     OW 1825   0.206   3.922   1.722 -0.4505 -0.0388  0.4902
  573SOL    HW1 1826   0.114   3.897   1.714  0.0015 -1.6311  0.0095
  573SOL    HW2 1827   0.249   3.881   1.647  0.7125  0.4152  0.8894
  574SOL     OW 1828   4.016   1.159   3.000 -0.3480  0.8214 -0.0814
  574SOL    HW1 1829   4.049   1.086   3.052  0.9331  1.9158  0.7089
  574SOL    HW2 1830   4.075   1.163   2.924 -0.7850  0.6651 -0.4309
  575SOL     OW 1831   5.554   3.675   3.593  0.4143 -0.1692  0.1063
  575SOL    HW1 1832   5.485   3.716   3.541  0.1803  1.1927  1.4047
  575SOL    HW2 1833   5.623   3.654   3.531 -0.8171 -0.8076 -1.0905
  576SOL     OW 1834   1.155   4.334   2.776 -0.0779  0.0149  0.1850
  576SOL    HW1 1835   1.124   4.359   2.863 -0.7280  0.6308 -0.2129
  576SOL    HW2 1836   1.208   4.255   2.791 -0.4850 -0.0980  1.0888
  577SOL     OW 1837   3.736   5.460   2.372  0.1617  0.2791  0.3303
  577SOL    HW1 1838   3.778   5.418   2.447  1.8559  0.7898 -0.2814
  577SOL    HW2 1839   3.693   5.537   2.408 -0.2217 -0.2323  0.9765
  578SOL     OW 1840   5.259   3.988   1.160  0.5302 -0.7293  0.2589
  578SOL    HW1 1841   5.349   3.993   1.191  1.0773 -1.9750 -1.0038
  578SOL    HW2 1842   5.228   4.078   1.161  1.9858 -0.2063  0.1724
  579SOL     OW 1843   4.826   2.326   1.045 -0.8597 -0.1998  0.0596
  579SOL    HW1 1844   4.833   2.231   1.038 -0.4278 -0.1185 -0.7102
  579SOL    HW2 1845   4.791   2.341   1.133 -0.8707 -1.0643  0.2105
  580SOL     OW 1846   1.935   3.977   1.365  0.3302 -0.1993 -0.5450
  580SOL    HW1 1847   1.989   3.925   1.424 -0.1866 -1.3246 -1.0345
  580SOL    HW2 1848   1.936   4.065   1.402  1.8386 -0.3771 -0.1130
  581SOL     OW 1849   0.205   2.914   3.109  0.0041 -0.6494  0.0175
  581SOL    HW1 1850   0.247   2.835   3.077 -1.7194 -1.6774  0.1960
  581SOL    HW2 1851   0.278   2.971   3.135  1.3121 -1.4405 -1.7619
  582SOL     OW 1852   5.517   4.991   2.232 -0.4945  0.0976 -0.1712
  582SOL    HW1 1853   5.463   5.026   2.161  0.6153 -1.1522 -1.6876
  582SOL    HW2 1854   5.598   5.042   2.229  0.5779 -1.5811 -1.5077
  583SOL     OW 1855   4.456   1.066   3.003  0.3884 -0.2336 -0.1272
  583SOL    HW1 1856   4.376   1.016   3.018  0.2653  0.2557  0.9527
  583SOL    HW2 1857   4.519   1.001   2.969  0.0005 -0.9583  0.4965
  584SOL     OW 1858   1.937   1.563   0.458 -0.1319 -0.4190  0.1843
  584SOL    HW1 1859   1.896   1.554   0.371 -1.4296  3.8834  0.1462
  584SOL    HW2 1860   1.866   1.542   0.519  0.0062 -0.8320  0.2068
  585SOL     OW 1861   0.809   1.268   2.930  0.6065 -0.2226 -0.4361
  585SOL    HW1 1862   0.768   1.290   3.014  0.9957 -0.5243 -0.1604
  585SOL    HW2 1863   0.898   1.241   2.954  0.8446  0.0676 -0.9882
  586SOL     OW 1864   3.650   5.074   1.489 -0.1742 -0.0764  0.4189
  586SOL    HW1 1865   3.566   5.039   1.518 -0.8262  0.7772 -0.3729
  586SOL    HW2 1866   3.636   5.097   1.397  0.9685 -0.0592  0.2356
  587SOL     OW 1867   3.616   3.155   2.243  0.2459  0.6878  0.2407
  587SOL    HW1 1868   3.596   3.249   2.244  0.4547  0.7397 -0.1803
  587SOL    HW2 1869   3.581   3.122   2.326  0.8800  1.2845  0.7609
  588SOL     OW 1870   4.106   3.136   2.090  0.3618  0.0484 -0.0728
  588SOL    HW1 1871   4.142   3.078   2.157  0.3145 -2.3765 -2.0059
  588SOL    HW2 1872   4.011   3.123   2.096  0.1497  1.8090  1.0258
  589SOL     OW 1873   4.052   0.968   1.807  0.0680  0.1849 -0.7065
  589SOL    HW1 1874   4.001   1.001   1.733  0.7438  0.7813 -0.9152
  589SOL    HW2 1875   4.142   0.969   1.776  0.1796 -1.2431 -0.4821
  590SOL     OW 1876   1.072   0.069   2.050  0.9447 -0.2099 -0.0862
  590SOL    HW1 1877   0.981   0.084   2.074  1.7560  0.2510  3.4001
  590SOL    HW2 1878   1.116   0.152   2.073  2.4854 -1.0439  0.1249
  591SOL     OW 1879   4.962   1.448   3.265  0.5609  0.4528 -0.7771
  591SOL    HW1 1880   4.986   1.473   3.354 -0.3795  0.5148 -0.5281
  591SOL    HW2 1881   4.945   1.530   3.219  0.3461  0.3920 -0.8084
  592SOL     OW 1882   0.535   1.930   3.635 -0.0753 -0.1041  0.2412
  592SOL    HW1 1883   0.586   1.994   3.683 -0.2861  0.8549 -0.7743
  592SOL    HW2 1884   0.554   1.847   3.679 -0.9264  0.8228  2.4869
  593SOL     OW 1885   1.799   4.657   1.687  0.7935  0.2752 -0.0074
  593SOL    HW1 1886   1.866   4.705   1.736  0.8341  0.6963 -0.4725
  593SOL    HW2 1887   1.718   4.673   1.735  1.0580 -0.4766  0.7283
  594SOL     OW 1888   0.112   5.375   0.491 -0.2309  0.9886  0.1409
  594SOL    HW1 1889   0.020   5.396   0.475 -0.5205  0.4435  1.0137
  594SOL    HW2 1890   0.132   5.416   0.575  0.3215  1.0598 -0.0153
  595SOL     OW 1891   1.205   1.525   1.178  0.0008 -0.2357  0.2397
  595SOL    HW1 1892   1.251   1.445   1.204 -0.1585 -0.1115  0.9126
  595SOL    HW2 1893   1.133   1.533   1.241 -0.6686 -0.1702 -0.5122
  596SOL     OW 1894   1.977   5.060   3.439  0.0110 -0.3421 -0.3055
  596SOL    HW1 1895   1.994   4.968   3.422  1.1283 -0.0592 -0.7781
  596SOL    HW2 1896   2.024   5.080   3.520 -0.9227 -0.3751  0.2673
  597SOL     OW 1897   3.808   4.716   3.758 -0.7584 -0.2384 -0.2844
  597SOL    HW1 1898   3.722   4.725   3.718 -0.9786 -1.7100 -0.1975
  597SOL    HW2 1899   3.861   4.785   3.718 -2.5702  2.3456  1.4610
  598SOL     OW 1900   0.171   3.398   2.000  0.2240  0.8014  0.5639
  598SOL    HW1 1901   0.247   3.450   1.972 -0.1845  0.9556 -0.2973
  598SOL    HW2 1902   0.143   3.353   1.921  0.7395 -0.9900  1.3570
  599SOL     OW 1903   2.598   1.653   1.336  0.0727 -0.1938 -0.3801
  599SOL    HW1 1904   2.550   1.725   1.296  2.1754  0.3407 -2.1116
  599SOL    HW2 1905   2.581   1.663   1.430 -2.0809  0.7107 -0.7994
  600SOL     OW 1906   5.545   4.386   3.815 -0.1401 -0.9461 -0.2241
  600SOL    HW1 1907   5.581   4.351   3.896 -0.0090  0.5935  0.4210
  600SOL    HW2 1908   5.529   4.309   3.760  0.8960 -1.9237  0.7910
  601SOL     OW 1909   4.994   1.331   3.568 -0.5847  0.1822 -0.5986
  601SOL    HW1 1910   4.916   1.276   3.576 -0.0329 -0.5262  0.1217
  601SOL    HW2 1911   5.038   1.321   3.652  1.3702 -1.1335 -1.6913
  602SOL     OW 1912   4.273   2.113   1.989  0.3911 -0.3274  0.2351
  602SOL    HW1 1913   4.298   2.102   2.081  1.3860 -0.0612 -0.0024
  602SOL    HW2 1914   4.345   2.161   1.949 -1.1528  1.8332 -0.1225
  603SOL     OW 1915   5.422   3.546   3.253  0.1846 -0.2166  0.0973
  603SOL    HW1 1916   5.512   3.544   3.221  0.1211 -0.4959 -0.0594
  603SOL    HW2 1917   5.422   3.618   3.317  0.4980 -0.1650  0.0432
  604SOL     OW 1918   5.057   0.995   2.728  0.0244 -0.2109  0.4977
  604SOL    HW1 1919   5.114   0.938   2.677  0.0276 -0.0656  0.3389
  604SOL    HW2 1920   4.992   0.936   2.767 -0.3615 -0.2482 -0.1800
  605SOL     OW 1921   4.020   1.642   1.363 -0.1999  0.6263 -0.0688
  605SOL    HW1 1922   4.043   1.688   1.282 -0.1921  0.1071 -0.3613
  605SOL    HW2 1923   4.056   1.697   1.432 -2.0281  2.2105 -0.2952
  606SOL     OW 1924   3.703   3.863   3.860  0.2330  0.7369  0.1682
  606SOL    HW1 1925   3.666   3.869   3.771  1.5898 -1.2319 -0.6010
  606SOL    HW2 1926   3.750   3.946   3.872  0.0833  1.0060 -0.9880
  607SOL     OW 1927   5.483   3.972   2.460  0.5993  0.4743 -0.5258
  607SOL    HW1 1928   5.573   3.940   2.461  0.8043  1.0143  1.1135
  607SOL    HW2 1929   5.458   3.972   2.367  1.2958 -2.3514 -0.7979
  608SOL     OW 1930   2.790   3.787   3.081 -0.4107  0.2525 -0.8890
  608SOL    HW1 1931   2.727   3.751   3.018 -0.6423  0.6588 -0.8971
  608SOL    HW2 1932   2.738   3.805   3.159 -0.2988  0.5486 -0.8814
  609SOL     OW 1933   4.779   0.710   3.066 -1.0395  0.2533  0.2512
  609SOL    HW1 1934   4.839   0.635   3.069 -0.3408  0.6992 -1.3248
  609SOL    HW2 1935   4.803   0.764   3.140 -1.5096 -1.0305  1.3813
  610SOL     OW 1936   0.368   4.344   1.890  0.1887 -0.4018  0.5142
  610SOL    HW1 1937   0.322   4.417   1.933 -0.4529 -0.9674  0.8053
  610SOL    HW2 1938   0.453   4.340   1.935  0.9916  1.3051 -0.7057
  611SOL     OW 1939   0.372   4.110   1.505 -0.4523 -0.6359  0.3993
  611SOL    HW1 1940   0.374   4.030   1.453  0.8478 -0.1450 -0.3585
  611SOL    HW2 1941   0.453   4.109   1.556  0.1108  0.6596 -0.4021
  612SOL     OW 1942   3.973   0.763   2.857 -0.4814 -0.1801  0.3976
  612SOL    HW1 1943   4.040   0.805   2.802  1.8756 -0.9205  2.4815
  612SOL    HW2 1944   3.971   0.672   2.826 -2.5721  0.3906 -1.3932
  613SOL     OW 1945   1.560   4.553   0.138 -0.2765  0.4742 -0.5713
  613SOL    HW1 1946   1.562   4.609   0.060  1.2544 -0.5084 -1.2772
  613SOL    HW2 1947   1.478   4.576   0.181 -1.0691  1.2092 -2.3595
  614SOL     OW 1948   5.389   4.258   2.260 -0.5473  0.0286 -0.3741
  614SOL    HW1 1949   5.424   4.192   2.319  0.0485  0.5721 -0.1118
  614SOL    HW2 1950   5.426   4.341   2.291 -2.0358  0.6280 -0.0932
  615SOL     OW 1951   0.552   2.536   0.444  0.3055 -0.6834 -0.1285
  615SOL    HW1 1952   0.478   2.595   0.456  0.1114 -1.3387  2.2100
  615SOL    HW2 1953   0.571   2.542   0.350 -1.5430  0.8507 -0.4763
  616SOL     OW 1954   0.605   3.243   0.172 -0.2611  0.0626  0.5387
  616SOL    HW1 1955   0.699   3.250   0.188 -0.0281 -1.5073  0.0422
  616SOL    HW2 1956   0.593   3.155   0.136 -1.7012  0.8391 -1.0329
  617SOL     OW 1957   4.018   3.133   1.697  0.1657  0.4426  0.7925
  617SOL    HW1 1958   4.017   3.196   1.769  0.8756 -2.2858  3.4441
  617SOL    HW2 1959   4.014   3.048   1.741 -0.3837 -1.4031 -2.5159
  618SOL     OW 1960   2.610   0.130   0.874  0.6621  0.3425 -0.0537
  618SOL    HW1 1961   2.614   0.038   0.846  0.3386  0.1742  0.4322
  618SOL    HW2 1962   2.699   0.163   0.860  0.5432  0.2293 -1.1332
  619SOL     OW 1963   4.428   0.448   1.054 -0.1065 -0.5120  0.1027
  619SOL    HW1 1964   4.392   0.448   1.143  1.1550  0.2385  0.6432
  619SOL    HW2 1965   4.482   0.369   1.051  0.1235 -0.3556  0.1223
  620SOL     OW 1966   1.490   3.229   0.002 -0.1930 -0.3331 -0.2400
  620SOL    HW1 1967   1.432   3.304   0.014 -0.9501 -0.5215 -2.2288
  620SOL    HW2 1968   1.549   3.256  -0.069  1.0008 -0.8078  0.5507
  621SOL     OW 1969   1.912   0.543   2.074 -0.4368  0.2768  0.8500
  621SOL    HW1 1970   1.918   0.634   2.045  0.4417  0.5927  1.9228
  621SOL    HW2 1971   1.923   0.548   2.169  1.1887 -1.0664  0.7855
  622SOL     OW 1972   1.311   5.500   1.339 -0.1378  0.5434  0.6699
  622SOL    HW1 1973   1.338   5.417   1.377  2.2322  0.0616 -1.7060
  622SOL    HW2 1974   1.372   5.564   1.375 -0.3593  0.7835  0.6244
  623SOL     OW 1975   1.457   5.268   1.420  0.5161  0.3158  0.0288
  623SOL    HW1 1976   1.515   5.218   1.478  1.8277  1.7866  0.0285
  623SOL    HW2 1977   1.413   5.201   1.367  2.9678 -0.8520 -0.6700
  624SOL     OW 1978   5.019   3.494   3.406 -0.0023 -0.6037  0.0242
  624SOL    HW1 1979   4.940   3.448   3.433 -1.3912  1.6356  0.0211
  624SOL    HW2 1980   4.987   3.563   3.347  1.8161  0.9977  0.8238
  625SOL     OW 1981   5.563   3.977   3.388  0.4800 -0.7273  0.1423
  625SOL    HW1 1982   5.647   3.958   3.346  1.2863 -0.1093  1.4385
  625SOL    HW2 1983   5.585   4.033   3.462 -1.3179  1.3596 -0.8071
  626SOL     OW 1984   5.123   5.098   3.472 -0.3400 -0.3566  0.2232
  626SOL    HW1 1985   5.116   5.064   3.561  0.4295  2.8512  1.6704
  626SOL    HW2 1986   5.150   5.023   3.419  1.3223 -1.9449  3.0686
  627SOL     OW 1987   4.853   5.560   0.855 -0.1248  0.0628 -0.2465
  627SOL    HW1 1988   4.824   5.647   0.883  1.1225  0.6134 -0.5870
  627SOL    HW2 1989   4.940   5.551   0.894 -1.2515 -2.1375  2.0037
  628SOL     OW 1990   1.609   0.200   0.149 -0.3024  0.2508  0.5452
  628SOL    HW1 1991   1.602   0.139   0.223 -1.2690 -0.1838  0.1250
  628SOL    HW2 1992   1.524   0.244   0.147  0.5366  1.9779  1.1175
  629SOL     OW 1993   5.072   0.927   3.407 -0.3504 -0.7276 -0.3345
  629SOL    HW1 1994   5.144   0.990   3.407  0.5454 -1.6825  1.6915
  629SOL    HW2 1995   4.994   0.980   3.425 -0.1012  0.2062 -1.8010
  630SOL     OW 1996   3.419   0.319   0.314 -0.2909  0.3066 -0.0150
  630SOL    HW1 1997   3.382   0.349   0.231  0.4226  2.3223  0.3446
  630SOL    HW2 1998   3.347   0.325   0.376 -0.6522 -0.5926 -0.3252
  631SOL     OW 1999   3.839   5.575   2.916 -0.4027 -0.3836 -0.0269
  631SOL    HW1 2000   3.863   5.531   2.997  1.2833  1.6244  0.6599
  631SOL    HW2 2001   3.919   5.619   2.887 -1.7631  1.6250 -1.0012
  632SOL     OW 2002   1.025   2.041   2.764  0.2619  0.1731  0.3180
  632SOL    HW1 2003   0.936   2.071   2.743  0.5346  1.2932  0.6718
  632SOL    HW2 2004   1.026   1.949   2.738 -0.9587  0.1780  0.1788
  633SOL     OW 2005   0.592   2.961   0.032 -0.0295 -0.0528 -0.6616
  633SOL    HW1 2006   0.633   2.929  -0.048  1.8746  0.4209  0.0648
  633SOL    HW2 2007   0.506   2.919   0.034  0.1849 -0.6692 -2.5419
  634SOL     OW 2008   1.907   4.499   3.418 -0.6148 -0.2876  0.4212
  634SOL    HW1 2009   1.921   4.467   3.329  2.4960  0.0471  0.6973
  634SOL    HW2 2010   1.942   4.588   3.418 -2.5852  0.5617  1.4866
  635SOL     OW 2011   4.790   4.479   0.058 -0.3712 -0.0601 -0.3748
  635SOL    HW1 2012   4.829   4.468  -0.028  0.7540  0.6295  0.0199
  635SOL    HW2 2013   4.699   4.506   0.041 -1.4367 -3.7254 -1.3354
  636SOL     OW 2014   0.734   3.841   3.506 -0.3948  0.2092 -0.0709
  636SOL    HW1 2015   0.694   3.836   3.419 -0.0957 -0.2611 -0.1871
  636SOL    HW2 2016   0.827   3.860   3.489 -0.2441 -0.3393  0.1238
  637SOL     OW 2017   3.210   5.278   2.813 -0.0194  0.0865  0.8185
  637SOL    HW1 2018   3.203   5.265   2.907  0.2191  1.9205  1.1262
  637SOL    HW2 2019   3.120   5.285   2.782 -0.2025 -2.3723  0.5493
  638SOL     OW 2020   3.769   4.390   3.843 -0.2532 -0.3358 -0.4878
  638SOL    HW1 2021   3.847   4.429   3.880 -0.9365 -0.2764  0.9485
  638SOL    HW2 2022   3.746   4.446   3.769  0.8224 -0.1388 -0.6835
  639SOL     OW 2023   4.429   2.463   2.628 -0.3757  0.4230 -0.5092
  639SOL    HW1 2024   4.415   2.496   2.539 -1.2040  1.0908 -0.1518
  639SOL    HW2 2025   4.481   2.531   2.672  2.5870 -1.1850 -1.2638
  640SOL     OW 2026   1.430   4.606   3.926 -0.3179  0.0173 -0.0653
  640SOL    HW1 2027   1.354   4.659   3.950 -1.2026 -2.2136  2.6471
  640SOL    HW2 2028   1.505   4.654   3.961 -0.8820  0.4580  0.5766
  641SOL     OW 2029   5.380   0.766   2.092  0.3916 -0.4083 -0.3320
  641SOL    HW1 2030   5.309   0.710   2.062 -1.1388  1.3151 -0.0776
  641SOL    HW2 2031   5.377   0.760   2.188 -0.3701  0.7656 -0.2665
  642SOL     OW 2032   4.044   3.530   2.083  0.3691 -0.2832 -0.3120
  642SOL    HW1 2033   3.990   3.456   2.055  1.7659 -1.0739 -1.0812
  642SOL    HW2 2034   4.100   3.548   2.007 -0.0211  1.6596 -0.1839
  643SOL     OW 2035   4.170   4.158   3.747  0.2336 -0.1481  0.2853
  643SOL    HW1 2036   4.075   4.159   3.763 -0.1582  0.7965 -1.8456
  643SOL    HW2 2037   4.180   4.104   3.669  1.2751  1.0595 -0.4427
  644SOL     OW 2038   3.302   2.320   2.980 -0.3896 -0.1768  0.7442
  644SOL    HW1 2039   3.323   2.234   2.943  0.0590  1.0447 -2.1336
  644SOL    HW2 2040   3.383   2.349   3.022 -0.2122 -0.7155  0.7733
  645SOL     OW 2041   3.767   4.128   2.035 -0.2673 -0.4785 -0.3468
  645SOL    HW1 2042   3.754   4.215   1.997  0.0589 -0.0830  0.4344
  645SOL    HW2 2043   3.860   4.124   2.057 -0.1574 -1.2429 -0.8768
  646SOL     OW 2044   0.685   1.332   0.173  0.1195 -0.2470 -0.1632
  646SOL    HW1 2045   0.713   1.348   0.083  2.4132 -0.0572  0.5209
  646SOL    HW2 2046   0.765   1.309   0.219 -1.1867 -1.5261  1.6019
  647SOL     OW 2047   2.798   1.048   0.035  0.2379  0.1923  0.0918
  647SOL    HW1 2048   2.877   1.011  -0.005  0.9988  1.3953  0.4183
  647SOL    HW2 2049   2.726   1.000  -0.005  1.1664 -2.1520  1.0231
  648SOL     OW 2050   5.525   5.515   1.358 -0.4003 -0.1570  0.0266
  648SOL    HW1 2051   5.440   5.546   1.324 -0.0171  2.3967  1.1647
  648SOL    HW2 2052   5.502   5.443   1.417 -1.7950  0.5297  0.3695
  649SOL     OW 2053   2.478   3.460   3.782  0.0028 -0.3497 -0.0726
  649SOL    HW1 2054   2.405   3.494   3.731 -0.1821 -1.3111 -0.4554
  649SOL    HW2 2055   2.498   3.375   3.743  1.3974 -0.0594 -0.0425
  650SOL     OW 2056   3.314   0.740   1.716  0.3286 -0.0495 -0.1788
  650SOL    HW1 2057   3.383   0.676   1.731  0.3920 -0.2387 -1.2583
  650SOL    HW2 2058   3.359   0.820   1.692  0.2012  0.0696 -0.0269
  651SOL     OW 2059   2.812   2.077   0.368  0.0081  0.5494  0.4559
  651SOL    HW1 2060   2.726   2.071   0.326  1.0646 -1.8597 -1.5772
  651SOL    HW2 2061   2.839   2.168   0.354 -1.7349  1.0639  0.2197
  652SOL     OW 2062   0.498   2.508   2.129 -0.0773 -0.7668 -0.1175
  652SOL    HW1 2063   0.480   2.591   2.174 -1.2553 -1.0356 -0.0539
  652SOL    HW2 2064   0.425   2.451   2.154 -0.3144 -1.2024 -1.6962
  653SOL     OW 2065   4.179   2.338   2.156 -0.8363 -0.4420  0.5455
  653SOL    HW1 2066   4.101   2.382   2.123 -0.8509 -1.9392 -1.6174
  653SOL    HW2 2067   4.186   2.259   2.103  3.2169  0.5484 -0.7186
  654SOL     OW 2068   0.496   4.803   3.271  0.0885 -0.2260 -0.3662
  654SOL    HW1 2069   0.412   4.831   3.308 -0.2914  0.0708 -1.4330
  654SOL    HW2 2070   0.532   4.882   3.230  0.4401 -0.5818 -0.7500
  655SOL     OW 2071   2.215   3.406   1.312 -0.1405  0.7531  0.1951
  655SOL    HW1 2072   2.200   3.500   1.297  0.5422  1.0561  1.2380
  655SOL    HW2 2073   2.289   3.404   1.374 -0.1911 -0.4736  0.2356
  656SOL     OW 2074   1.487   4.735   3.356  0.4159  0.4459  0.0931
  656SOL    HW1 2075   1.476   4.657   3.411 -0.8976  0.6779  0.1976
  656SOL    HW2 2076   1.560   4.714   3.299  0.7218 -0.4704  0.7918
  657SOL     OW 2077   5.401   3.779   0.226  0.4661  0.1349 -0.3399
  657SOL    HW1 2078   5.343   3.776   0.150 -0.9844 -0.7382  0.7474
  657SOL    HW2 2079   5.432   3.689   0.236  0.4348  0.1853  0.2422
  658SOL     OW 2080   5.357   3.593   1.712 -0.1685 -0.3301 -0.4231
  658SOL    HW1 2081   5.325   3.607   1.623  1.2319  0.8290 -0.7877
  658SOL    HW2 2082   5.443   3.551   1.701  0.4640  0.7139  0.3034
  659SOL     OW 2083   3.859   0.279   3.034 -0.6627 -0.3290  0.1436
  659SOL    HW1 2084   3.946   0.284   3.073 -1.0796 -1.2577  1.2445
  659SOL    HW2 2085   3.868   0.214   2.965 -0.7377 -1.2995  1.0237
  660SOL     OW 2086   4.412   4.056   1.612  0.0060 -0.2578  0.2001
  660SOL    HW1 2087   4.460   4.033   1.692 -0.3901  0.1763  0.5689
  660SOL    HW2 2088   4.451   4.138   1.583 -1.0726  0.5660  0.9943
  661SOL     OW 2089   1.015   5.442   3.514 -0.4491 -0.0535 -0.3267
  661SOL    HW1 2090   1.103   5.403   3.509  0.8508  2.4418  1.1062
  661SOL    HW2 2091   0.998   5.474   3.426  0.3743 -0.0159 -0.4813
  662SOL     OW 2092   0.607   4.492   0.960  0.0298 -0.1786  0.3789
  662SOL    HW1 2093   0.597   4.398   0.971 -1.2957 -0.3901 -2.0398
  662SOL    HW2 2094   0.524   4.521   0.922  0.0890  2.1308  1.8140
  663SOL     OW 2095   3.966   1.596   2.616 -0.3547 -0.0688 -0.5005
  663SOL    HW1 2096   3.927   1.509   2.625  2.0640 -1.1388  0.5605
  663SOL    HW2 2097   4.021   1.606   2.693 -0.3321  2.3246 -0.7395
  664SOL     OW 2098   3.375   5.003   2.347 -0.1704  0.1142  0.1744
  664SOL    HW1 2099   3.317   4.969   2.416 -1.0813 -0.5154 -0.8679
  664SOL    HW2 2100   3.436   4.932   2.331 -0.9702 -0.3854 -0.7692
  665SOL     OW 2101   5.016   4.027   1.000 -0.2681  0.3242 -0.3976
  665SOL    HW1 2102   5.034   4.121   1.002 -0.6306  0.3844  0.1426
  665SOL    HW2 2103   5.103   3.987   1.006 -0.0636  0.6188 -1.2645
  666SOL     OW 2104   2.476   3.408   2.439 -0.4756  0.6750 -0.3185
  666SOL    HW1 2105   2.450   3.425   2.529  1.3666  1.8365  0.0555
  666SOL    HW2 2106   2.545   3.472   2.421  0.6586 -0.8486 -1.8575
  667SOL     OW 2107   1.685   0.803   2.058 -0.3630  0.3412  0.2061
  667SOL    HW1 2108   1.653   0.880   2.106 -0.6521  0.5329 -0.2887
  667SOL    HW2 2109   1.734   0.753   2.123 -0.0411  1.0239  0.5008
  668SOL     OW 2110   1.369   4.388   1.560  0.3835  0.5192 -0.5677
  668SOL    HW1 2111   1.379   4.411   1.467  0.7740  0.2723 -0.5895
  668SOL    HW2 2112   1.366   4.292   1.560 -0.3522  0.5411 -0.3944
  669SOL     OW 2113   2.905   3.669   0.450  0.5172  0.6078  0.0984
  669SOL    HW1 2114   2.993   3.705   0.440  0.1153  1.3292 -1.1477
  669SOL    HW2 2115   2.906   3.589   0.397 -0.1706  1.7946 -1.8484
  670SOL     OW 2116   3.432   3.137   3.140 -0.7139  0.4925 -0.0673
  670SOL    HW1 2117   3.480   3.217   3.161  0.2825 -0.7034  2.6601
  670SOL    HW2 2118   3.364   3.131   3.207 -2.0928  0.0418 -1.4411
  671SOL     OW 2119   2.226   5.425   0.271 -0.1558 -0.0745 -0.4018
  671SOL    HW1 2120   2.181   5.500   0.233  0.5064  0.5013 -0.0719
  671SOL    HW2 2121   2.186   5.414   0.357 -1.5657 -1.2999 -1.1638
  672SOL     OW 2122   1.842   4.474   3.126  0.3299 -0.0939  0.3192
  672SOL    HW1 2123   1.933   4.477   3.096  0.8987  1.2882  2.0377
  672SOL    HW2 2124   1.817   4.382   3.117  1.4311 -0.2853 -1.3898
  673SOL     OW 2125   0.406   5.563   1.304 -0.2553 -0.0801 -0.0216
  673SOL    HW1 2126   0.348   5.574   1.228  0.9584  1.0771 -0.8241
  673SOL    HW2 2127   0.433   5.472   1.300 -3.0667 -1.0830  1.2014
  674SOL     OW 2128   5.442   4.211   3.239  1.2120 -0.5264  0.3044
  674SOL    HW1 2129   5.348   4.193   3.232  1.2279 -0.1815 -1.0401
  674SOL    HW2 2130   5.477   4.136   3.287  0.3989 -1.1934 -0.1141
  675SOL     OW 2131   4.269   4.108   1.987  0.4431 -0.5425 -0.0506
  675SOL    HW1 2132   4.266   4.013   1.978  1.6522 -0.7769  1.5400
  675SOL    HW2 2133   4.351   4.134   1.946  0.4465 -0.2864  0.1143
  676SOL     OW 2134   2.949   3.443   0.299 -0.3334 -0.3387 -0.2710
  676SOL    HW1 2135   2.929   3.356   0.265  1.3822 -0.9655  0.2087
  676SOL    HW2 2136   3.041   3.438   0.324 -0.6192  1.1385  1.2458
  677SOL     OW 2137   4.262   0.380   2.197 -0.3685 -0.1173 -0.1116
  677SOL    HW1 2138   4.287   0.423   2.278 -0.0454  0.9228 -0.7445
  677SOL    HW2 2139   4.278   0.287   2.213  0.4123  0.1558  0.7428
  678SOL     OW 2140   1.449   2.389   3.165 -0.2351  0.0625  0.3301
  678SOL    HW1 2141   1.385   2.325   3.135  1.3413 -1.1742 -0.5866
  678SOL    HW2 2142   1.484   2.428   3.085  1.1234 -0.2958  0.7251
  679SOL     OW 2143   1.468   1.209   1.088 -0.2282  0.6267  0.2149
  679SOL    HW1 2144   1.485   1.138   1.150 -0.2970  0.0093 -0.4669
  679SOL    HW2 2145   1.383   1.189   1.050 -0.3106  1.1491  0.1145
  680SOL     OW 2146   2.038   4.682   3.916  0.2826  0.6165 -0.2157
  680SOL    HW1 2147   2.033   4.635   3.833  0.7937 -2.3780  1.3116
  680SOL    HW2 2148   2.114   4.644   3.961  0.2579  2.4087  1.4757
  681SOL     OW 2149   2.314   0.272   1.184 -0.7201 -0.3510  0.1199
  681SOL    HW1 2150   2.222   0.244   1.185 -0.2332 -2.0527  0.2254
  681SOL    HW2 2151   2.329   0.307   1.272 -1.0464 -0.9061  0.4074
  682SOL     OW 2152   1.520   4.972   1.370  0.2480  0.3820  1.5506
  682SOL    HW1 2153   1.593   4.911   1.379  0.0915  0.1035  1.0113
  682SOL    HW2 2154   1.539   5.021   1.291  0.1851  0.7760  1.7785
  683SOL     OW 2155   3.781   1.690   1.478 -0.3686  0.2567  0.3814
  683SOL    HW1 2156   3.727   1.740   1.418 -1.4744  0.0526  1.1685
  683SOL    HW2 2157   3.848   1.650   1.423 -1.8445 -0.6204 -0.8534
  684SOL     OW 2158   4.264   0.405   2.920 -0.3935  0.2714 -0.1332
  684SOL    HW1 2159   4.308   0.489   2.936  0.0900  0.2616 -1.2458
  684SOL    HW2 2160   4.297   0.347   2.989  0.5123  0.5707 -0.2984
  685SOL     OW 2161   0.748   3.330   1.031 -0.2436 -0.1688  0.6720
  685SOL    HW1 2162   0.704   3.327   0.946  0.6211  0.8669  0.1591
  685SOL    HW2 2163   0.755   3.239   1.058  2.3823 -0.8802 -1.9396
  686SOL     OW 2164   3.343   2.377   0.281  0.3953  0.6508  1.0087
  686SOL    HW1 2165   3.248   2.372   0.287  0.2926 -0.2016 -0.6825
  686SOL    HW2 2166   3.363   2.470   0.277 -0.4134  0.8210  0.8857
  687SOL     OW 2167   5.376   3.051   2.593  0.3071  0.3295 -0.3791
  687SOL    HW1 2168   5.390   3.042   2.687  0.9428  1.5343 -0.3342
  687SOL    HW2 2169   5.422   2.977   2.554  0.0443 -0.1753  0.2545
  688SOL     OW 2170   1.207   1.067   1.013 -0.1688  0.2361 -0.3699
  688SOL    HW1 2171   1.167   1.058   0.926 -0.3583 -0.1192 -0.2483
  688SOL    HW2 2172   1.188   0.984   1.056 -1.2187  0.8983  0.4830
  689SOL     OW 2173   1.235   5.101   1.313  0.2337 -0.0566  0.0496
  689SOL    HW1 2174   1.239   5.011   1.345 -1.4387  0.1938  1.0392
  689SOL    HW2 2175   1.148   5.109   1.275  0.0986  1.3520  0.6197
  690SOL     OW 2176   4.548   2.635   2.307 -0.0508  0.5931 -0.1205
  690SOL    HW1 2177   4.608   2.653   2.236 -1.2990 -0.5219 -1.5386
  690SOL    HW2 2178   4.514   2.547   2.288 -1.0025  0.5865  1.4236
  691SOL     OW 2179   2.000   2.862   1.075  0.1061 -0.3139  0.2064
  691SOL    HW1 2180   2.094   2.876   1.083 -0.1706  1.3886  0.7994
  691SOL    HW2 2181   1.990   2.816   0.991  1.3851  0.2920 -0.3107
  692SOL     OW 2182   5.009   4.366   0.991 -0.6007  0.0774 -0.3484
  692SOL    HW1 2183   4.964   4.304   0.933 -1.5155  2.0385 -1.8421
  692SOL    HW2 2184   4.939   4.409   1.039 -0.1419  1.2258 -0.6778
  693SOL     OW 2185   4.765   1.273   1.072  0.2334  0.2414  0.2068
  693SOL    HW1 2186   4.834   1.287   1.137 -0.0502  0.4956  0.4562
  693SOL    HW2 2187   4.812   1.259   0.990  0.6459 -1.1300  0.6430
  694SOL     OW 2188   4.786   5.498   2.909 -0.0048  0.1020 -0.1369
  694SOL    HW1 2189   4.791   5.417   2.961 -1.9615  0.2240  0.3098
  694SOL    HW2 2190   4.747   5.471   2.826 -1.1744  0.6587  0.2195
  695SOL     OW 2191   1.470   0.163   1.910  0.6317 -0.3320  0.1304
  695SOL    HW1 2192   1.410   0.095   1.882  0.1650 -0.1030  0.5434
  695SOL    HW2 2193   1.457   0.169   2.005  2.4181 -1.3345  0.4863
  696SOL     OW 2194   0.190   3.884   3.184 -0.0502 -0.1808  0.0318
  696SOL    HW1 2195   0.106   3.911   3.146 -0.5681 -2.6984 -0.7910
  696SOL    HW2 2196   0.255   3.908   3.118 -0.3456  0.0533 -0.1775
  697SOL     OW 2197   1.405   2.910   2.215  0.4012 -0.3135 -0.1360
  697SOL    HW1 2198   1.416   2.956   2.298  0.1669 -0.6095  0.0634
  697SOL    HW2 2199   1.354   2.970   2.161  0.6243 -0.0849 -0.0955
  698SOL     OW 2200   3.060   0.692   2.718 -0.2974  0.1449  0.1851
  698SOL    HW1 2201   3.137   0.644   2.685 -1.0424 -0.6695 -0.4411
  698SOL    HW2 2202   3.096   0.767   2.764  0.9173 -0.7821  0.8192
  699SOL     OW 2203   3.464   0.982   0.519 -0.5685  0.4097 -1.0866
  699SOL    HW1 2204   3.397   1.048   0.535 -0.7217  0.9385 -3.4859
  699SOL    HW2 2205   3.518   1.020   0.449  2.6239  0.2585  1.0460
  700SOL     OW 2206   1.641   0.212   1.705  0.1653  0.3383 -0.0977
  700SOL    HW1 2207   1.603   0.198   1.792  1.6533  1.8074  0.8500
  700SOL    HW2 2208   1.693   0.133   1.689 -2.6593 -1.4673 -1.1947
  701SOL     OW 2209   1.412   5.431   2.597  0.1029  0.4617  0.0358
  701SOL    HW1 2210   1.387   5.522   2.587  1.0132  0.8527  1.0945
  701SOL    HW2 2211   1.329   5.384   2.607 -0.4789  0.9018 -2.1474
  702SOL     OW 2212   2.404   1.493   3.054 -0.2630  0.1796 -0.2192
  702SOL    HW1 2213   2.434   1.576   3.016 -0.4378  1.1259  1.5846
  702SOL    HW2 2214   2.425   1.427   2.988  2.2699  1.2858 -0.6221
  703SOL     OW 2215   1.717   2.884   2.236  0.3101  0.3690 -0.0028
  703SOL    HW1 2216   1.809   2.910   2.242 -0.3320  2.6301  0.8908
  703SOL    HW2 2217   1.694   2.856   2.325 -0.2119  1.1501  0.1171
  704SOL     OW 2218   1.067   5.014   2.777  0.0614  0.2366  0.2598
  704SOL    HW1 2219   1.124   4.948   2.737 -0.0497  0.5424 -0.4081
  704SOL    HW2 2220   1.038   4.974   2.859  2.0815  0.5031  1.1446
  705SOL     OW 2221   4.336   4.241   1.236 -0.1173 -0.1852 -0.3322
  705SOL    HW1 2222   4.317   4.331   1.262  1.9025 -0.5037  2.8634
  705SOL    HW2 2223   4.271   4.188   1.282  1.5833 -0.5556  1.8192
  706SOL     OW 2224   3.547   2.691   1.047 -0.4678  0.1307 -0.2714
  706SOL    HW1 2225   3.590   2.652   0.971 -1.0158 -3.3771  1.0219
  706SOL    HW2 2226   3.462   2.719   1.013 -0.4041 -0.6632 -1.1550
  707SOL     OW 2227   5.105   5.014   0.483  0.1274  0.1590 -0.1725
  707SOL    HW1 2228   5.085   4.932   0.438  1.3675 -0.2976  0.0586
  707SOL    HW2 2229   5.138   5.072   0.415 -1.2021  0.6690 -0.4254
  708SOL     OW 2230   4.690   0.027   2.023  0.9596  0.1078 -0.2112
  708SOL    HW1 2231   4.684  -0.041   2.090  1.3128 -0.2211 -0.5152
  708SOL    HW2 2232   4.664   0.107   2.069 -2.0266 -0.6014 -0.5014
  709SOL     OW 2233   1.247   0.461   2.677 -0.0768 -0.3033  0.2952
  709SOL    HW1 2234   1.291   0.376   2.673 -0.9104 -0.7285  0.1376
  709SOL    HW2 2235   1.176   0.456   2.613  1.4753  1.4781 -1.7464
  710SOL     OW 2236   0.759   4.738   0.198 -0.3366 -0.0603  0.4801
  710SOL    HW1 2237   0.744   4.831   0.217 -1.0340  0.2643 -1.4803
  710SOL    HW2 2238   0.838   4.717   0.249 -0.6874  1.3322  1.6955
  711SOL     OW 2239   4.223   1.154   0.143 -0.0546 -0.0774  0.0918
  711SOL    HW1 2240   4.164   1.082   0.163 -0.2374  0.1677  0.4645
  711SOL    HW2 2241   4.166   1.222   0.107 -0.1135  0.3937  1.0320
  712SOL     OW 2242   0.323   5.267   1.615  0.3251 -0.5355  0.4007
  712SOL    HW1 2243   0.285   5.346   1.653  1.8450 -0.0984  1.0693
  712SOL    HW2 2244   0.337   5.209   1.689 -0.4096 -1.2895 -0.0372
  713SOL     OW 2245   0.071   3.256   2.863 -0.1629 -0.0285 -0.2316
  713SOL    HW1 2246   0.016   3.286   2.791  1.7390  1.0681 -1.3053
  713SOL    HW2 2247   0.141   3.206   2.821 -0.0225 -0.9330  1.0319
  714SOL     OW 2248   0.807   3.276   2.527  0.2326  0.7523 -0.2710
  714SOL    HW1 2249   0.759   3.346   2.483  0.3154  0.4905 -0.7848
  714SOL    HW2 2250   0.778   3.196   2.483 -0.1350  0.4242  0.5566
  715SOL     OW 2251   3.009   0.471   0.595  0.4676  0.5939  0.3558
  715SOL    HW1 2252   3.061   0.402   0.556  0.2799  1.2636 -1.1543
  715SOL    HW2 2253   3.069   0.545   0.603  0.1578  0.8798  0.0697
  716SOL     OW 2254   0.831   4.266   3.119 -0.2894 -0.6430  0.4848
  716SOL    HW1 2255   0.876   4.224   3.046 -0.2215 -1.0869  0.7812
  716SOL    HW2 2256   0.757   4.312   3.078  1.3088  1.4689 -0.2309
  717SOL     OW 2257   1.089   3.107   0.474 -0.1065 -0.2213  0.4294
  717SOL    HW1 2258   1.133   3.174   0.421  0.1527 -0.0879  0.8048
  717SOL    HW2 2259   1.079   3.032   0.415  0.8244 -0.3308  0.3891
  718SOL     OW 2260   5.537   1.009   0.717  0.0832  0.3719  0.0460
  718SOL    HW1 2261   5.509   0.954   0.790 -0.0169  1.4351  0.8446
  718SOL    HW2 2262   5.504   0.965   0.639  0.1621 -0.7674  0.6437
  719SOL     OW 2263   0.149   1.888   1.927  0.4319 -0.1842 -0.1508
  719SOL    HW1 2264   0.222   1.860   1.871 -0.4513 -0.4504 -1.2225
  719SOL    HW2 2265   0.072   1.883   1.869 -0.3229  0.8098  0.7344
  720SOL     OW 2266   4.083   3.363   1.052 -0.1908  0.1133  0.1460
  720SOL    HW1 2267   4.062   3.370   1.145  1.4855 -1.2371  0.6732
  720SOL    HW2 2268   4.023   3.297   1.018 -0.6908  0.4865  0.2911
  721SOL     OW 2269   4.275   4.387   0.699  0.2350  0.3202  0.3445
  721SOL    HW1 2270   4.281   4.295   0.674  1.2084  0.9397 -1.9271
  721SOL    HW2 2271   4.273   4.385   0.795 -2.3694 -2.1473  0.3733
  722SOL     OW 2272   4.430   3.120   3.433  0.3927 -0.2810  0.2652
  722SOL    HW1 2273   4.382   3.056   3.379  0.3827 -2.5855  2.7589
  722SOL    HW2 2274   4.520   3.116   3.400 -0.0308  0.0637 -0.9997
  723SOL     OW 2275   4.050   1.367   0.069 -0.2804 -0.0033  0.0256
  723SOL    HW1 2276   4.050   1.443   0.010  0.0772  0.3066  0.4208
  723SOL    HW2 2277   3.963   1.369   0.111  0.5479  1.6106  1.8276
  724SOL     OW 2278   1.897   2.189   2.227 -0.0934 -0.1677  0.4647
  724SOL    HW1 2279   1.858   2.262   2.178  0.2756 -0.4642 -0.2723
  724SOL    HW2 2280   1.822   2.136   2.255 -0.2412 -0.6761 -0.8575
  725SOL     OW 2281   0.014   3.686   1.405 -0.2115  0.1072  0.3470
  725SOL    HW1 2282  -0.051   3.649   1.345 -0.9171  1.3483  0.3101
  725SOL    HW2 2283   0.012   3.628   1.481 -2.2230  0.6985  0.8311
  726SOL     OW 2284   4.007   4.581   0.849  0.0359  0.0130  0.3479
  726SOL    HW1 2285   4.059   4.604   0.926  0.2941 -2.4775  1.0015
  726SOL    HW2 2286   3.935   4.528   0.884 -1.8880  1.7027 -0.7789
  727SOL     OW 2287   4.880   4.729   1.880 -0.0446  0.0714 -0.3439
  727SOL    HW1 2288   4.957   4.745   1.825  0.4508  0.5971  0.4714
  727SOL    HW2 2289   4.879   4.803   1.941 -1.0778 -0.0471 -0.2016
  728SOL     OW 2290   5.132   4.567   1.187  0.5568  0.3499  0.4184
  728SOL    HW1 2291   5.079   4.553   1.266 -0.5738 -0.6885 -0.4813
  728SOL    HW2 2292   5.071   4.606   1.124  0.2602 -2.4898 -1.2403
  729SOL     OW 2293   4.551   5.300   3.012  0.6542  0.2110 -0.0395
  729SOL    HW1 2294   4.609   5.242   2.962  1.3317  0.0974  0.8620
  729SOL    HW2 2295   4.539   5.256   3.096 -0.6019  0.3313 -0.1351
  730SOL     OW 2296   3.332   1.471   2.169 -0.1609 -0.1459  0.3621
  730SOL    HW1 2297   3.395   1.511   2.229 -0.1549  1.4175 -0.6105
  730SOL    HW2 2298   3.376   1.470   2.084 -0.4249 -1.6772  0.2137
  731SOL     OW 2299   3.452   0.055   0.075  0.1980  0.1417 -0.0840
  731SOL    HW1 2300   3.515   0.078   0.142  1.5736  1.3712 -1.7207
  731SOL    HW2 2301   3.420   0.139   0.042 -1.0575 -0.4451 -0.4384
  732SOL     OW 2302   1.400   2.664   2.571  0.3910  0.1494 -0.2151
  732SOL    HW1 2303   1.365   2.726   2.635 -0.6164 -0.6478  0.0405
  732SOL    HW2 2304   1.461   2.610   2.621  0.2697  0.0922 -0.1280
  733SOL     OW 2305   1.296   1.056   1.596  0.1671 -0.1867  0.0089
  733SOL    HW1 2306   1.221   1.019   1.643  0.0920 -1.6280 -1.1757
  733SOL    HW2 2307   1.322   0.987   1.535  1.2938  1.0058 -0.9010
  734SOL     OW 2308   3.813   3.831   2.373  0.2284 -0.2667  0.2585
  734SOL    HW1 2309   3.796   3.800   2.462  0.5866  0.6169  0.6519
  734SOL    HW2 2310   3.882   3.897   2.384  0.4697 -0.3548 -0.7120
  735SOL     OW 2311   0.810   1.985   1.248 -0.4921  0.7218  0.0201
  735SOL    HW1 2312   0.743   1.962   1.184 -0.7327  3.6510 -0.9550
  735SOL    HW2 2313   0.763   1.988   1.332 -1.6664  2.6301 -0.6336
  736SOL     OW 2314   3.544   2.432   1.702 -0.1673  0.5274 -0.3824
  736SOL    HW1 2315   3.499   2.515   1.684 -0.6955 -0.0672 -2.0107
  736SOL    HW2 2316   3.548   2.389   1.617  0.0644 -1.1399  0.4434
  737SOL     OW 2317   5.137   3.235   3.464  0.3600 -0.7571 -0.2001
  737SOL    HW1 2318   5.209   3.256   3.405 -0.2130  1.7367 -0.1379
  737SOL    HW2 2319   5.084   3.315   3.466 -2.0680 -2.2898  0.2588
  738SOL     OW 2320   1.339   5.364   2.306  0.2032  0.0218  0.2048
  738SOL    HW1 2321   1.428   5.397   2.317 -0.1451  0.9160  0.4160
  738SOL    HW2 2322   1.343   5.311   2.226  0.9098  0.0924  0.1851
  739SOL     OW 2323   0.458   4.236   0.048  0.1540 -0.8198  0.2969
  739SOL    HW1 2324   0.518   4.249   0.121 -0.2463 -0.2978  0.5341
  739SOL    HW2 2325   0.373   4.267   0.080 -0.4698 -2.3862  0.2899
  740SOL     OW 2326   0.830   4.194   1.493  0.0944 -0.2640  0.3432
  740SOL    HW1 2327   0.880   4.207   1.573 -0.0451 -1.6844  0.7014
  740SOL    HW2 2328   0.765   4.127   1.516  0.2892 -0.9709 -1.0386
  741SOL     OW 2329   4.956   3.299   0.032 -0.3724  0.2739 -0.0218
  741SOL    HW1 2330   4.921   3.221   0.074 -0.4711  0.6923  0.6894
  741SOL    HW2 2331   4.879   3.353   0.013 -0.2238  0.6818  0.4983
  742SOL     OW 2332   0.608   0.831   2.634  0.2080  0.8827 -0.5694
  742SOL    HW1 2333   0.580   0.897   2.571 -0.4795 -0.3144 -1.5405
  742SOL    HW2 2334   0.687   0.869   2.674 -1.1569  3.0736  0.2196
  743SOL     OW 2335   2.398   2.846   3.337  0.0809  0.3703 -0.4087
  743SOL    HW1 2336   2.421   2.840   3.430 -1.9669 -1.1140  0.0820
  743SOL    HW2 2337   2.372   2.938   3.325 -2.6539 -0.0234  1.3817
  744SOL     OW 2338   2.061   4.743   3.468  0.0090  0.2592 -0.0364
  744SOL    HW1 2339   2.080   4.672   3.529 -1.0699 -0.1534 -0.1478
  744SOL    HW2 2340   2.098   4.821   3.510  0.3703 -0.2119  0.5453
  745SOL     OW 2341   4.244   5.274   0.236  0.1369  0.5538  0.3585
  745SOL    HW1 2342   4.220   5.198   0.182  1.2052 -0.9288  1.8503
  745SOL    HW2 2343   4.161   5.317   0.254 -0.5271 -0.3486 -0.4228
  746SOL     OW 2344   4.920   4.180   1.309  0.1275 -0.0062 -0.6250
  746SOL    HW1 2345   4.894   4.122   1.381 -1.3847  0.4286 -0.7913
  746SOL    HW2 2346   4.880   4.264   1.330 -0.0774  0.2086 -1.7994
  747SOL     OW 2347   1.925   2.990   1.422  0.0012  0.2679 -0.2462
  747SOL    HW1 2348   1.833   2.964   1.423  0.1269 -0.3279  2.3353
  747SOL    HW2 2349   1.927   3.070   1.369 -2.1741  0.8082  0.4024
  748SOL     OW 2350   1.464   2.223   3.796 -0.0982  0.2422 -0.5603
  748SOL    HW1 2351   1.397   2.270   3.746  1.5295  1.4263 -1.7217
  748SOL    HW2 2352   1.436   2.232   3.887 -1.8951  0.0380 -1.0373
  749SOL     OW 2353   4.536   0.200   2.183 -0.2854 -0.0368 -0.3534
  749SOL    HW1 2354   4.469   0.207   2.252 -0.5060  0.2143 -0.5871
  749SOL    HW2 2355   4.582   0.284   2.187 -2.1338  1.1748 -2.3584
  750SOL     OW 2356   3.857   0.701   0.022 -0.1988  0.4672  0.3322
  750SOL    HW1 2357   3.898   0.634   0.077 -0.9037 -0.0478  0.2506
  750SOL    HW2 2358   3.771   0.717   0.063 -1.0662 -0.4993 -1.0244
  751SOL     OW 2359   0.734   1.475   3.837  0.2470  0.1358 -0.2046
  751SOL    HW1 2360   0.655   1.422   3.847 -0.3687  1.2528  1.2895
  751SOL    HW2 2361   0.776   1.441   3.758 -2.0575 -0.0633 -1.4240
  752SOL     OW 2362   4.748   3.681   3.405  0.4429  0.3277 -0.0276
  752SOL    HW1 2363   4.769   3.709   3.316  2.5450 -0.6011  0.1299
  752SOL    HW2 2364   4.672   3.623   3.394  0.3767  0.6004 -1.1610
  753SOL     OW 2365   2.573   1.582   1.653 -0.0799 -0.1622 -0.4992
  753SOL    HW1 2366   2.656   1.604   1.695  0.8896 -3.1383 -0.5857
  753SOL    HW2 2367   2.507   1.599   1.720  1.1551 -2.1885  1.3684
  754SOL     OW 2368   1.598   0.205   3.534  0.1946  0.4316 -0.1960
  754SOL    HW1 2369   1.560   0.265   3.471  0.7045  1.0205  0.0446
  754SOL    HW2 2370   1.570   0.239   3.619  0.3374  0.2270 -0.0672
  755SOL     OW 2371   4.312   5.576   1.410  0.1363  0.5748 -0.1932
  755SOL    HW1 2372   4.268   5.555   1.328  1.6279 -0.9041 -0.6637
  755SOL    HW2 2373   4.336   5.668   1.402 -1.7902  1.0969 -0.3928
  756SOL     OW 2374   5.023   2.445   0.908  0.4975 -0.4039 -0.0326
  756SOL    HW1 2375   4.936   2.410   0.927  0.0613  0.3568 -0.5674
  756SOL    HW2 2376   5.060   2.386   0.843  0.3031 -0.6155  0.0493
  757SOL     OW 2377   0.231   2.478   1.728 -0.1410  0.2195 -0.4057
  757SOL    HW1 2378   0.277   2.525   1.658 -1.4026  3.5645  0.8442
  757SOL    HW2 2379   0.208   2.394   1.688  1.4029  0.9449 -3.1244
  758SOL     OW 2380   1.660   2.466   3.309  0.0722  0.1328  0.5683
  758SOL    HW1 2381   1.589   2.445   3.248 -1.5437 -0.0867  2.4504
  758SOL    HW2 2382   1.676   2.385   3.357  1.6318  0.1817  0.1822
  759SOL     OW 2383   4.916   4.197   3.929  0.1784  0.0832  0.1829
  759SOL    HW1 2384   4.858   4.229   3.998 -0.4901 -1.2860  0.2875
  759SOL    HW2 2385   4.872   4.223   3.847 -0.8656 -1.3582  0.2534
  760SOL     OW 2386   1.327   4.485   0.518  0.4597  0.4349  0.4714
  760SOL    HW1 2387   1.293   4.431   0.589 -0.2479  1.4737  0.9243
  760SOL    HW2 2388   1.301   4.574   0.539  0.3697  0.7914 -1.0120
  761SOL     OW 2389   1.484   5.297   0.379 -0.4288 -0.1608  0.3031
  761SOL    HW1 2390   1.491   5.257   0.292 -0.0114 -0.6440  0.5481
  761SOL    HW2 2391   1.534   5.378   0.372 -1.0939  0.2110 -0.1394
  762SOL     OW 2392   0.753   2.984   1.931 -0.2839  0.0843  0.0437
  762SOL    HW1 2393   0.758   2.889   1.947  2.0152  0.2796  0.9345
  762SOL    HW2 2394   0.843   3.014   1.941 -0.8631  2.2982 -0.8508
  763SOL     OW 2395   1.320   5.316   0.759 -0.2163  0.0814 -0.1194
  763SOL    HW1 2396   1.311   5.359   0.673  1.4070  0.6625 -0.0346
  763SOL    HW2 2397   1.360   5.383   0.815 -1.5139 -0.2043  1.1845
  764SOL     OW 2398   5.330   1.948   1.444 -0.5408  0.4724 -0.0549
  764SOL    HW1 2399   5.333   1.861   1.485 -2.0448 -0.7285 -2.2264
  764SOL    HW2 2400   5.280   2.002   1.504 -2.7991 -1.2530 -0.2422
  765SOL     OW 2401   3.267   1.863   3.520  0.1115  0.0252 -0.2445
  765SOL    HW1 2402   3.187   1.825   3.485  0.1078  0.1348 -0.3557
  765SOL    HW2 2403   3.238   1.919   3.592  0.2280 -1.2626  0.8492
  766SOL     OW 2404   0.534   0.928   3.774  0.6706 -0.3783 -0.3968
  766SOL    HW1 2405   0.460   0.987   3.756  0.3898 -0.1782  1.2674
  766SOL    HW2 2406   0.564   0.901   3.687 -0.4351  0.6783 -1.1500
  767SOL     OW 2407   2.337   3.469   1.567  0.3963 -0.0345 -0.2264
  767SOL    HW1 2408   2.250   3.443   1.599  1.0336 -1.5685  0.3465
  767SOL    HW2 2409   2.396   3.448   1.639  1.7393 -2.5729 -1.9139
  768SOL     OW 2410   0.298   2.762   3.772 -0.0080 -0.0981 -0.0021
  768SOL    HW1 2411   0.265   2.678   3.740 -0.4820 -1.0548  2.7077
  768SOL    HW2 2412   0.368   2.738   3.833  2.2485  1.6944 -1.6724
  769SOL     OW 2413   2.232   4.541   1.555 -0.4709  0.0335 -0.3499
  769SOL    HW1 2414   2.210   4.578   1.469  2.3450  2.2809 -0.2359
  769SOL    HW2 2415   2.190   4.600   1.618  2.0808  1.8603 -0.2086
  770SOL     OW 2416   3.628   4.135   1.058 -0.2119  0.3177  0.1097
  770SOL    HW1 2417   3.707   4.148   1.111  0.4362 -0.0232 -0.7438
  770SOL    HW2 2418   3.661   4.105   0.973 -1.3435 -3.4052  0.7925
  771SOL     OW 2419   4.990   5.345   0.510 -0.4978  0.1128  0.5034
  771SOL    HW1 2420   4.919   5.404   0.484 -0.1515  0.1683 -0.3556
  771SOL    HW2 2421   5.010   5.296   0.431  0.0996 -0.2383  0.8700
  772SOL     OW 2422   2.626   4.447   1.802 -0.0164 -0.0392  0.2112
  772SOL    HW1 2423   2.540   4.425   1.838  0.8380  0.7641  3.0410
  772SOL    HW2 2424   2.608   4.511   1.734 -1.5971  2.2186  2.5661
  773SOL     OW 2425   2.134   4.554   3.662 -0.0697  0.7941  0.0713
  773SOL    HW1 2426   2.224   4.586   3.666 -0.0998  0.9051 -0.1453
  773SOL    HW2 2427   2.138   4.465   3.697  0.1697  0.6985 -0.2002
  774SOL     OW 2428   1.523   0.029   1.470  0.2707  0.0650  0.0141
  774SOL    HW1 2429   1.463   0.101   1.493  0.7993  0.7729 -0.7658
  774SOL    HW2 2430   1.574   0.015   1.550 -0.3619  0.0290  0.4186
  775SOL     OW 2431   2.296   5.122   2.182 -0.4123 -0.7377 -0.4689
  775SOL    HW1 2432   2.202   5.127   2.200 -0.3610  0.0818 -0.4000
  775SOL    HW2 2433   2.328   5.211   2.199  0.0359 -0.4895 -2.4624
  776SOL     OW 2434   5.505   0.378   2.423  0.4954 -0.4468  0.0649
  776SOL    HW1 2435   5.482   0.437   2.495 -0.5021 -0.3105 -0.3459
  776SOL    HW2 2436   5.423   0.367   2.375  1.3339  0.1874 -1.5823
  777SOL     OW 2437   5.385   4.903   1.001 -0.1039  0.2369 -0.9081
  777SOL    HW1 2438   5.309   4.905   1.060  1.5525 -2.4173  1.5946
  777SOL    HW2 2439   5.441   4.974   1.033 -0.6685  1.0100 -1.5789
  778SOL     OW 2440   4.931   0.041   3.354  0.4621 -0.3988 -0.5533
  778SOL    HW1 2441   4.962  -0.035   3.305 -0.5497 -0.5079 -1.0302
  778SOL    HW2 2442   4.874   0.005   3.422  1.6017 -0.2225  0.5335
  779SOL     OW 2443   2.277   4.697   0.608 -0.0884 -0.3996 -0.0138
  779SOL    HW1 2444   2.244   4.664   0.525  0.6977 -1.3411  0.0279
  779SOL    HW2 2445   2.368   4.720   0.590  0.0354 -0.4432  0.5392
  780SOL     OW 2446   3.763   1.614   0.700 -0.4677 -0.3052  0.0503
  780SOL    HW1 2447   3.794   1.686   0.645 -0.6550 -1.4676 -1.6553
  780SOL    HW2 2448   3.701   1.566   0.645  0.0288 -2.0586  0.9362
  781SOL     OW 2449   4.838   5.539   1.586  0.5801  0.1142  0.4283
  781SOL    HW1 2450   4.777   5.500   1.523  2.0261  0.1097 -1.0254
  781SOL    HW2 2451   4.795   5.620   1.614 -0.3518 -0.1791 -0.0972
  782SOL     OW 2452   0.787   0.114   0.997 -0.3093  0.0654  0.4704
  782SOL    HW1 2453   0.843   0.192   0.998  1.3857 -1.1021  1.3979
  782SOL    HW2 2454   0.726   0.127   1.070  0.1682  0.3976  0.8184
  783SOL     OW 2455   5.320   5.227   1.194  0.3725 -0.5154 -0.3447
  783SOL    HW1 2456   5.276   5.279   1.127  1.3985 -0.9760 -1.4212
  783SOL    HW2 2457   5.329   5.286   1.269  1.0540  0.7200 -1.3484
  784SOL     OW 2458   2.844   5.420   2.610  0.6019  0.3237  0.2053
  784SOL    HW1 2459   2.786   5.456   2.678 -0.6618  0.9264 -1.1519
  784SOL    HW2 2460   2.906   5.491   2.592  1.9118 -0.3623  1.7397
  785SOL     OW 2461   2.452   5.108   3.812  0.0609 -0.3868 -0.3238
  785SOL    HW1 2462   2.377   5.066   3.852 -0.6400  2.5158  1.7389
  785SOL    HW2 2463   2.416   5.157   3.738  0.1730 -0.2565 -0.2935
  786SOL     OW 2464   0.228   3.584   0.737  0.3635 -0.2916 -0.6302
  786SOL    HW1 2465   0.254   3.558   0.649  0.0864 -1.2205 -0.4467
  786SOL    HW2 2466   0.195   3.673   0.727  4.2890  1.3616 -0.7802
  787SOL     OW 2467   3.300   4.962   3.035  0.4641  0.2435  0.0667
  787SOL    HW1 2468   3.288   5.047   3.078 -2.5452 -0.4578  0.8768
  787SOL    HW2 2469   3.281   4.978   2.943  0.4037  0.5397  0.1315
  788SOL     OW 2470   3.444   3.462   0.186 -0.0238  0.3739  0.3599
  788SOL    HW1 2471   3.424   3.444   0.094  0.0636 -2.5787  0.8112
  788SOL    HW2 2472   3.358   3.468   0.228 -0.1717 -2.8079  0.7351
  789SOL     OW 2473   1.420   2.234   2.782 -0.3402  0.1102 -0.4480
  789SOL    HW1 2474   1.398   2.143   2.762 -1.4399  0.2882 -0.0923
  789SOL    HW2 2475   1.335   2.278   2.789  0.1733  1.0725 -0.1836
  790SOL     OW 2476   3.853   4.227   3.131 -0.3179 -0.5294 -0.4526
  790SOL    HW1 2477   3.929   4.282   3.108 -1.1213  0.8953  0.1728
  790SOL    HW2 2478   3.829   4.185   3.048  0.7196 -0.4478 -0.8134
  791SOL     OW 2479   3.443   1.051   1.313  0.3086 -0.4387 -0.2510
  791SOL    HW1 2480   3.408   1.076   1.227 -0.4992  0.3892  0.2996
  791SOL    HW2 2481   3.503   0.979   1.294 -0.5789 -0.9184 -1.4087
  792SOL     OW 2482   5.149   4.390   2.214 -0.6835  0.4679  0.2632
  792SOL    HW1 2483   5.110   4.345   2.289 -0.4592  0.6309  0.4781
  792SOL    HW2 2484   5.239   4.357   2.211 -1.0225 -0.4532 -0.6603
  793SOL     OW 2485   1.888   5.431   0.925  0.2021  0.4710  0.1661
  793SOL    HW1 2486   1.875   5.483   0.845  1.9612  0.1849 -0.3448
  793SOL    HW2 2487   1.921   5.494   0.989 -1.4016  0.7430  0.7720
  794SOL     OW 2488   5.577   2.143   1.857 -0.6900 -0.4329 -0.0793
  794SOL    HW1 2489   5.495   2.143   1.808  0.0815  0.7578 -1.4284
  794SOL    HW2 2490   5.642   2.178   1.796  0.4084  0.6491  1.6333
  795SOL     OW 2491   4.698   2.725   0.463  0.5571 -0.1803 -0.1698
  795SOL    HW1 2492   4.624   2.668   0.443 -0.5539  1.2746 -0.4615
  795SOL    HW2 2493   4.719   2.707   0.555  1.2074 -2.0622 -0.6631
  796SOL     OW 2494   1.960   0.936   3.650 -0.3643 -0.1488  0.9354
  796SOL    HW1 2495   1.938   0.993   3.576  1.0322  0.1325  0.7027
  796SOL    HW2 2496   1.951   0.847   3.614  1.2409 -0.0124  0.0862
  797SOL     OW 2497   4.050   4.556   2.536 -0.1731  0.2661  0.2625
  797SOL    HW1 2498   4.142   4.561   2.563  0.3943  2.1928 -1.6934
  797SOL    HW2 2499   4.007   4.627   2.584 -0.1132  0.8176 -0.4707
  798SOL     OW 2500   1.341   3.512   2.408 -0.1592 -0.0932  0.0170
  798SOL    HW1 2501   1.367   3.451   2.338  2.5899  0.2310  0.6374
  798SOL    HW2 2502   1.390   3.482   2.484 -2.2961  0.1947  1.5833
  799SOL     OW 2503   4.471   3.228   1.854 -0.7387  0.2253 -0.3505
  799SOL    HW1 2504   4.538   3.284   1.892 -0.9890  0.5088 -0.3228
  799SOL    HW2 2505   4.449   3.166   1.923 -2.2303  1.6371  0.5037
  800SOL     OW 2506   1.854   0.205   0.499  0.3000 -0.3048  0.2841
  800SOL    HW1 2507   1.765   0.239   0.491  0.2466 -0.6735 -0.8245
  800SOL    HW2 2508   1.909   0.283   0.499 -0.0106 -0.0804  0.8687
  801SOL     OW 2509   4.760   1.219   0.428  0.1095 -0.0805 -0.2944
  801SOL    HW1 2510   4.785   1.212   0.336 -1.4406  1.5517 -0.8928
  801SOL    HW2 2511   4.695   1.150   0.441 -1.5765  1.2625 -1.1784
  802SOL     OW 2512   4.029   0.285   0.506  0.0288 -0.4214 -0.2988
  802SOL    HW1 2513   3.991   0.370   0.485  1.9838  0.5541 -0.0995
  802SOL    HW2 2514   3.993   0.263   0.592 -2.2605 -0.9277 -1.3247
  803SOL     OW 2515   3.898   2.060   1.930  0.0809  0.3625 -0.3150
  803SOL    HW1 2516   3.827   2.049   1.867 -0.3980 -1.9755  0.5121
  803SOL    HW2 2517   3.868   2.128   1.989  0.2825  2.1782 -2.1953
  804SOL     OW 2518   4.017   4.476   0.590  0.1231 -0.6358  0.0071
  804SOL    HW1 2519   4.111   4.459   0.594  0.2184 -0.3575 -0.7547
  804SOL    HW2 2520   3.990   4.489   0.681  0.5825 -1.9340  0.3496
  805SOL     OW 2521   2.016   1.043   1.270 -0.1876 -0.0156 -0.0256
  805SOL    HW1 2522   2.000   1.134   1.248  0.7081  0.3280  0.6625
  805SOL    HW2 2523   2.045   1.003   1.188  0.2066  0.5124 -0.1460
  806SOL     OW 2524   3.114   3.021   1.405  0.1064  0.2725 -0.2697
  806SOL    HW1 2525   3.089   3.023   1.498 -0.4787  1.0224 -0.4235
  806SOL    HW2 2526   3.041   2.976   1.362 -0.5175  1.5324 -0.5849
  807SOL     OW 2527   5.215   3.445   0.724  0.1862  0.3908 -0.1511
  807SOL    HW1 2528   5.290   3.454   0.783 -0.1740  0.0139  0.3743
  807SOL    HW2 2529   5.243   3.379   0.660  0.6137  0.8702 -0.4616
  808SOL     OW 2530   4.497   4.844   3.078 -0.1878 -0.1213 -0.3318
  808SOL    HW1 2531   4.420   4.788   3.089 -1.7861  2.0510  0.1926
  808SOL    HW2 2532   4.522   4.869   3.167  0.2691  0.3012 -0.5744
  809SOL     OW 2533   4.135   0.736   0.376  0.1173  0.5974  0.4066
  809SOL    HW1 2534   4.150   0.642   0.364 -2.2249 -0.1943  2.8402
  809SOL    HW2 2535   4.040   0.745   0.380  0.3095  2.9874  1.0049
  810SOL     OW 2536   3.421   0.559   0.918 -0.6344  0.1221  0.1139
  810SOL    HW1 2537   3.364   0.627   0.883 -2.5775 -0.6101  1.7068
  810SOL    HW2 2538   3.439   0.587   1.008 -0.7384 -1.0203  0.5058
  811SOL     OW 2539   5.139   4.296   0.022 -0.0175 -0.2397 -0.2666
  811SOL    HW1 2540   5.141   4.391   0.033 -1.8467 -0.2438  0.4646
  811SOL    HW2 2541   5.223   4.266   0.055  0.5369  1.1069 -0.3977
  812SOL     OW 2542   1.201   2.993   0.703 -0.0833  0.0992 -0.0483
  812SOL    HW1 2543   1.283   2.950   0.679  0.0947  0.6805 -0.5204
  812SOL    HW2 2544   1.172   3.035   0.622 -0.8929 -0.1788  0.0970
  813SOL     OW 2545   0.496   1.631   0.616  0.1073 -0.1560  0.2338
  813SOL    HW1 2546   0.589   1.641   0.637  0.2920 -0.8383 -0.2222
  813SOL    HW2 2547   0.491   1.547   0.569 -0.6386  0.1995 -0.3375
  814SOL     OW 2548   2.014   4.313   0.014  0.0346  0.7612  0.2578
  814SOL    HW1 2549   1.991   4.396  -0.027 -0.5451  0.8619  0.7759
  814SOL    HW2 2550   1.941   4.255  -0.008  0.0330  0.6313  0.6066
  815SOL     OW 2551   5.220   1.279   3.777 -0.2311 -0.1275  0.3981
  815SOL    HW1 2552   5.181   1.309   3.859  0.1511  1.2253  0.0994
  815SOL    HW2 2553   5.297   1.228   3.805  0.1510  0.6860  0.8885
  816SOL     OW 2554   4.710   4.119   1.083 -0.4830 -0.9223 -0.3321
  816SOL    HW1 2555   4.691   4.097   1.174 -0.2890  0.6097  0.1071
  816SOL    HW2 2556   4.804   4.138   1.082 -1.0118  2.2525 -0.0897
  817SOL     OW 2557   1.303   2.182   3.369 -0.1683  0.0616  0.2015
  817SOL    HW1 2558   1.364   2.224   3.308 -0.0317 -1.9051 -1.1036
  817SOL    HW2 2559   1.331   2.091   3.372 -1.7079 -0.4156  1.3208
  818SOL     OW 2560   2.109   2.013   2.160  0.1455 -0.1740  0.1369
  818SOL    HW1 2561   2.023   2.051   2.176  0.2970 -0.0970  0.7953
  818SOL    HW2 2562   2.091   1.925   2.129 -0.1803 -1.0191  2.4792
  819SOL     OW 2563   2.819   4.968   3.121 -0.1852 -0.0693 -0.3054
  819SOL    HW1 2564   2.857   5.012   3.197 -0.2515  1.3439 -1.0530
  819SOL    HW2 2565   2.736   5.012   3.106 -0.5164 -0.8228 -0.7649
  820SOL     OW 2566   2.184   4.920   2.388 -0.3007 -0.0023  0.3353
  820SOL    HW1 2567   2.245   4.904   2.317 -0.3699  0.8702  0.0638
  820SOL    HW2 2568   2.176   5.015   2.392 -0.8908 -0.0674  1.0064
  821SOL     OW 2569   2.641   1.085   0.974 -0.4370 -0.0367 -0.2484
  821SOL    HW1 2570   2.558   1.101   0.930 -1.2353  0.2666  1.3229
  821SOL    HW2 2571   2.693   1.164   0.955 -0.2884 -0.4411 -1.6452
  822SOL     OW 2572   2.051   3.872   3.126 -0.6132  0.0296 -0.2006
  822SOL    HW1 2573   1.964   3.834   3.135 -0.3124 -0.5930  0.0791
  822SOL    HW2 2574   2.034   3.965   3.107 -1.3319  0.1968  1.1392
  823SOL     OW 2575   0.810   3.985   0.846 -0.2283  0.0316  0.1286
  823SOL    HW1 2576   0.873   3.976   0.774 -0.8738  1.6122 -0.6888
  823SOL    HW2 2577   0.728   4.010   0.803 -1.5050 -2.0619  1.1565
  824SOL     OW 2578   3.732   1.540   1.128  0.2249  0.3420  0.3361
  824SOL    HW1 2579   3.678   1.508   1.056 -1.5521  1.4677  1.1024
  824SOL    HW2 2580   3.815   1.565   1.087 -1.3788  2.7610 -1.7366
  825SOL     OW 2581   0.988   5.137   1.203  0.5202 -0.3011  0.5107
  825SOL    HW1 2582   0.908   5.143   1.151  1.7166 -0.7711 -1.4997
  825SOL    HW2 2583   0.958   5.133   1.294 -1.6047  2.6459  0.0739
  826SOL     OW 2584   1.414   4.875   0.994 -0.5617 -0.0328 -0.3311
  826SOL    HW1 2585   1.455   4.961   1.001 -1.8370  0.6577 -1.1031
  826SOL    HW2 2586   1.457   4.834   0.919  2.6462 -1.6135  2.0770
  827SOL     OW 2587   0.816   1.947   0.798 -0.8613  0.4428  0.3206
  827SOL    HW1 2588   0.863   1.978   0.720 -1.7185  1.2865  0.1108
  827SOL    HW2 2589   0.723   1.955   0.775 -1.1237 -0.0224  1.1593
  828SOL     OW 2590   2.177   2.246   2.380 -0.0562 -0.1259 -0.1400
  828SOL    HW1 2591   2.142   2.218   2.295 -1.2869  0.6732  0.0741
  828SOL    HW2 2592   2.247   2.308   2.358 -0.3878  0.1004 -0.5720
  829SOL     OW 2593   0.141   4.581   1.655  0.0803 -0.1237 -0.4286
  829SOL    HW1 2594   0.159   4.488   1.645 -1.9523 -0.4494 -1.5637
  829SOL    HW2 2595   0.219   4.625   1.620  1.6618 -1.3317  1.3852
  830SOL     OW 2596   3.051   1.437   0.722  0.6290  0.7233 -0.0171
  830SOL    HW1 2597   3.144   1.441   0.744  0.9408 -1.2143 -0.8547
  830SOL    HW2 2598   3.007   1.467   0.802  1.9490  1.9522  0.2908
  831SOL     OW 2599   1.294   2.236   0.847 -0.3096 -0.1376 -0.3544
  831SOL    HW1 2600   1.386   2.218   0.831  0.9337  3.5962  1.2811
  831SOL    HW2 2601   1.261   2.272   0.764 -0.1670 -0.9453 -0.7697
  832SOL     OW 2602   1.184   3.558   3.670 -0.6116  0.5688  0.0249
  832SOL    HW1 2603   1.273   3.571   3.640 -0.0222 -0.6826  1.0961
  832SOL    HW2 2604   1.193   3.517   3.756 -2.1115 -3.3638 -1.4459
  833SOL     OW 2605   1.555   5.209   3.878 -0.0424 -0.2275 -0.3657
  833SOL    HW1 2606   1.616   5.159   3.824 -0.9971 -0.9420 -0.8026
  833SOL    HW2 2607   1.581   5.190   3.968  0.3691 -0.5311 -0.5472
  834SOL     OW 2608   0.113   5.493   1.151  0.3877 -0.4892 -0.2766
  834SOL    HW1 2609   0.059   5.493   1.230  2.5431 -1.4798  1.2915
  834SOL    HW2 2610   0.063   5.442   1.088 -1.6479  0.7892  0.1794
  835SOL     OW 2611   4.946   0.378   2.135 -0.1069 -0.2166  0.0642
  835SOL    HW1 2612   4.866   0.408   2.180 -0.0900 -0.0463 -0.0157
  835SOL    HW2 2613   4.917   0.357   2.047  0.1560  1.0753 -0.3609
  836SOL     OW 2614   5.320   1.055   2.542 -0.2218 -0.2833 -0.0794
  836SOL    HW1 2615   5.298   1.071   2.450 -1.8880 -3.2267 -0.3239
  836SOL    HW2 2616   5.238   1.068   2.589 -0.0736 -1.5599  0.5643
  837SOL     OW 2617   5.359   4.814   3.780  0.0493  0.3653  0.6979
  837SOL    HW1 2618   5.451   4.831   3.799  0.8680 -1.5367 -1.1709
  837SOL    HW2 2619   5.327   4.766   3.857  0.7269  0.6503  1.1677
  838SOL     OW 2620   1.332   4.973   1.555 -0.2999  0.0836 -0.0961
  838SOL    HW1 2621   1.409   4.979   1.498 -1.4759 -2.1346 -2.1358
  838SOL    HW2 2622   1.327   4.880   1.578 -2.1375  0.2425  0.2799
  839SOL     OW 2623   0.642   3.124   1.588 -0.4781  0.1784 -0.1046
  839SOL    HW1 2624   0.617   3.134   1.680  1.4088 -0.8273  0.5841
  839SOL    HW2 2625   0.667   3.032   1.580  1.1765  0.6693 -1.1173
  840SOL     OW 2626   1.441   3.737   2.019 -0.4262 -0.1423 -1.0344
  840SOL    HW1 2627   1.478   3.753   2.106  0.9076  2.2946 -1.9591
  840SOL    HW2 2628   1.459   3.645   2.002  0.2027 -0.4140  0.8495
  841SOL     OW 2629   4.777   2.136   0.233  0.5914 -0.1378 -0.6558
  841SOL    HW1 2630   4.686   2.163   0.243  0.5649 -0.1156 -0.9543
  841SOL    HW2 2631   4.782   2.050   0.275  0.5755  0.1301 -0.0894
  842SOL     OW 2632   1.112   2.581   2.641 -0.1001 -0.0560  0.0590
  842SOL    HW1 2633   1.178   2.583   2.573  0.2223 -1.4663  0.2977
  842SOL    HW2 2634   1.158   2.552   2.720 -1.3995 -4.1455 -0.4145
  843SOL     OW 2635   3.134   2.253   1.523  0.6247 -0.1119  0.0988
  843SOL    HW1 2636   3.107   2.329   1.472 -0.7838 -1.4009 -1.1655
  843SOL    HW2 2637   3.154   2.185   1.458  0.4207 -1.2952  1.2164
  844SOL     OW 2638   5.382   4.582   1.089  0.6618  0.4387  0.4769
  844SOL    HW1 2639   5.407   4.671   1.113  0.1576  1.0200 -1.0509
  844SOL    HW2 2640   5.295   4.570   1.128  0.9193  0.4286  1.0673
  845SOL     OW 2641   2.756   5.422   0.994  0.4809  0.6510  0.2854
  845SOL    HW1 2642   2.851   5.432   0.984  0.5248  1.4332  1.3217
  845SOL    HW2 2643   2.746   5.359   1.065  0.2121  0.4330  0.0585
  846SOL     OW 2644   1.085   2.184   0.617 -0.1962 -0.3089 -0.4028
  846SOL    HW1 2645   1.109   2.161   0.528  0.7529  0.2727 -0.3093
  846SOL    HW2 2646   1.061   2.277   0.613  1.3708  0.1484  0.2165
  847SOL     OW 2647   0.339   2.346   1.019  0.8309  0.2449  0.2008
  847SOL    HW1 2648   0.404   2.358   0.949  2.7655  0.6364  1.9892
  847SOL    HW2 2649   0.363   2.411   1.085 -1.2576  0.2087  1.0424
  848SOL     OW 2650   0.647   1.003   2.210 -0.4304  0.1913 -0.0894
  848SOL    HW1 2651   0.658   1.096   2.188 -0.9195  0.4356  0.6429
  848SOL    HW2 2652   0.709   0.988   2.281  0.3978 -0.3214 -0.9069
  849SOL     OW 2653   4.408   3.242   2.217  0.6556  0.0018  0.3768
  849SOL    HW1 2654   4.417   3.182   2.143  1.3735  0.5966 -0.0490
  849SOL    HW2 2655   4.495   3.242   2.258  0.8509  1.1756  0.0046
  850SOL     OW 2656   4.541   3.871   0.758  0.5816  0.1470 -0.6002
  850SOL    HW1 2657   4.573   3.798   0.705  0.0465  0.1924 -0.9964
  850SOL    HW2 2658   4.619   3.908   0.798  0.9717 -0.0309 -1.1864
  851SOL     OW 2659   5.129   4.406   1.942  0.4306  0.1762 -0.6296
  851SOL    HW1 2660   5.161   4.397   2.032 -0.1945  2.2631 -0.1476
  851SOL    HW2 2661   5.035   4.421   1.951  0.2488 -0.2551 -1.6931
  852SOL     OW 2662   4.899   4.819   0.101 -0.4666 -0.4181  0.2584
  852SOL    HW1 2663   4.883   4.801   0.194 -2.3940 -0.0650  0.0420
  852SOL    HW2 2664   4.861   4.906   0.087  1.2336  0.2381 -0.5424
  853SOL     OW 2665   5.319   0.147   0.150  0.1794  0.0475 -0.1815
  853SOL    HW1 2666   5.398   0.132   0.098  0.8315 -0.6651  0.9562
  853SOL    HW2 2667   5.295   0.237   0.132  1.0049  0.1398 -0.8812
  854SOL     OW 2668   0.499   4.956   1.473  0.4594 -0.4347  0.3131
  854SOL    HW1 2669   0.459   4.900   1.406  0.6488  0.8411 -0.8946
  854SOL    HW2 2670   0.450   5.038   1.469  2.0077  0.5059  0.0714
  855SOL     OW 2671   5.428   4.401   1.864 -1.1583  0.1922 -0.3415
  855SOL    HW1 2672   5.455   4.344   1.936 -0.0293  0.1696 -0.7512
  855SOL    HW2 2673   5.333   4.400   1.866 -1.2090  1.4563  2.1670
  856SOL     OW 2674   1.437   0.135   2.242  0.0306 -0.5053  0.3628
  856SOL    HW1 2675   1.467   0.127   2.333  0.9252  1.3027  0.2741
  856SOL    HW2 2676   1.499   0.081   2.192  1.3451  0.7844  0.5358
  857SOL     OW 2677   1.224   0.799   2.675  0.3163 -0.4050  0.1565
  857SOL    HW1 2678   1.206   0.816   2.767 -0.2196  0.5464 -0.1099
  857SOL    HW2 2679   1.232   0.886   2.636  2.1223 -0.7736 -0.4116
  858SOL     OW 2680   4.168   2.407   1.076 -0.4765  0.0186  0.0108
  858SOL    HW1 2681   4.248   2.417   1.024 -0.7700  1.2536 -0.2155
  858SOL    HW2 2682   4.106   2.364   1.016  0.2480 -1.7312  0.4504
  859SOL     OW 2683   4.640   2.169   2.274  0.2714 -0.3867 -0.2655
  859SOL    HW1 2684   4.663   2.130   2.358  1.2406 -0.7934 -0.6985
  859SOL    HW2 2685   4.724   2.176   2.228 -0.0377  1.1747 -0.6432
  860SOL     OW 2686   3.915   2.323   2.775 -0.1773 -0.0750 -0.0698
  860SOL    HW1 2687   3.960   2.239   2.782  0.6914  0.3391 -0.6317
  860SOL    HW2 2688   3.984   2.387   2.760 -0.9962  0.4605 -1.9048
  861SOL     OW 2689   2.032   2.808   1.846  0.0882 -0.5636 -0.6939
  861SOL    HW1 2690   2.086   2.884   1.826 -0.0041 -0.4809 -0.6327
  861SOL    HW2 2691   2.067   2.738   1.791  1.1404 -0.8804  0.3408
  862SOL     OW 2692   2.727   4.695   3.096 -0.2853  0.3695 -0.4800
  862SOL    HW1 2693   2.777   4.777   3.100 -0.9149  0.7628 -0.4516
  862SOL    HW2 2694   2.663   4.709   3.026 -2.2619  1.0078  1.3320
  863SOL     OW 2695   4.855   0.323   3.388  0.6209  0.0634 -0.3369
  863SOL    HW1 2696   4.933   0.378   3.381  0.3898  0.3361 -0.7951
  863SOL    HW2 2697   4.889   0.233   3.383  1.0775  0.1178  1.1387
  864SOL     OW 2698   0.939   0.857   0.743 -0.1471  0.0478 -0.3949
  864SOL    HW1 2699   1.014   0.899   0.702  1.0638 -2.9907 -1.5735
  864SOL    HW2 2700   0.961   0.854   0.836  0.4462  0.6040 -0.5174
  865SOL     OW 2701   1.571   0.304   3.175 -0.1172  0.5943 -0.3791
  865SOL    HW1 2702   1.513   0.339   3.243 -1.1909  0.0438 -0.9861
  865SOL    HW2 2703   1.654   0.348   3.190 -0.2759  0.3895  1.3862
  866SOL     OW 2704   1.431   2.238   2.052  0.0321  0.1798 -0.5139
  866SOL    HW1 2705   1.408   2.146   2.063  0.4212  0.0093 -1.1421
  866SOL    HW2 2706   1.346   2.282   2.044 -0.1202 -0.3602 -2.0889
  867SOL     OW 2707   0.104   0.333   0.327 -0.3062  0.1121 -0.0604
  867SOL    HW1 2708   0.134   0.402   0.268 -2.8929  0.2259 -1.4103
  867SOL    HW2 2709   0.053   0.275   0.270 -2.1022 -0.3150  1.8905
  868SOL     OW 2710   3.903   0.877   3.827  0.1272 -0.3140  0.3029
  868SOL    HW1 2711   3.877   0.815   3.896  1.4325 -1.5328 -0.2385
  868SOL    HW2 2712   3.881   0.832   3.746 -0.9711  0.9214 -0.1166
  869SOL     OW 2713   2.224   4.093   0.428  0.1230  0.2696  0.1407
  869SOL    HW1 2714   2.136   4.129   0.429 -0.1271 -0.3010  2.2242
  869SOL    HW2 2715   2.216   4.011   0.380  0.0710  1.3578 -1.8375
  870SOL     OW 2716   1.705   4.511   1.040  0.3134 -0.9665 -0.5695
  870SOL    HW1 2717   1.630   4.455   1.022 -0.5916 -0.2631  0.8697
  870SOL    HW2 2718   1.716   4.562   0.960 -0.0370 -1.8389 -1.1926
  871SOL     OW 2719   4.647   0.133   0.261 -0.0218 -0.2919  0.8070
  871SOL    HW1 2720   4.585   0.172   0.323  0.5094  1.7473  0.1246
  871SOL    HW2 2721   4.596   0.118   0.182 -0.1572 -0.7188  0.9730
  872SOL     OW 2722   1.220   3.934   0.413  0.3093  0.7100  0.5548
  872SOL    HW1 2723   1.209   4.005   0.349  1.4396  1.2721  0.9460
  872SOL    HW2 2724   1.296   3.885   0.381  0.0415  0.1730  0.7405
  873SOL     OW 2725   4.613   4.263   2.833 -0.0242  0.3944 -0.1376
  873SOL    HW1 2726   4.686   4.309   2.875  1.0751 -0.9245 -0.5356
  873SOL    HW2 2727   4.643   4.173   2.826 -0.9729  0.1816 -1.9523
  874SOL     OW 2728   5.036   3.683   3.152  0.4004  0.6375  0.0808
  874SOL    HW1 2729   4.943   3.689   3.132 -0.0038 -3.1001  0.1420
  874SOL    HW2 2730   5.070   3.620   3.088  2.2816 -0.1395  1.7362
  875SOL     OW 2731   1.699   1.034   1.600 -0.3809 -0.4811 -0.1122
  875SOL    HW1 2732   1.789   1.059   1.619 -0.3226  1.8955 -2.7082
  875SOL    HW2 2733   1.682   0.958   1.655  2.5236  0.1901  1.9223
  876SOL     OW 2734   2.362   3.235   2.887  0.5822  0.3692 -0.0833
  876SOL    HW1 2735   2.417   3.279   2.822  2.0635 -0.6613  0.4077
  876SOL    HW2 2736   2.403   3.257   2.971  1.2080 -1.6384  0.1892
  877SOL     OW 2737   0.888   2.315   1.695  0.6054 -0.2654  0.2680
  877SOL    HW1 2738   0.950   2.284   1.628  0.2321  0.8228 -0.6037
  877SOL    HW2 2739   0.842   2.236   1.724 -0.0873 -0.6105 -1.6515
  878SOL     OW 2740   1.622   4.260   1.331  0.4679  0.2945 -0.0579
  878SOL    HW1 2741   1.637   4.352   1.354  0.2919  0.5627 -0.9901
  878SOL    HW2 2742   1.528   4.247   1.342  0.2335  0.6761 -1.4677
  879SOL     OW 2743   5.132   2.393   2.184  0.6999 -0.8699 -0.0555
  879SOL    HW1 2744   5.125   2.350   2.269  0.5812 -0.7655 -0.0111
  879SOL    HW2 2745   5.150   2.485   2.205 -0.0890 -0.6966 -0.1282
  880SOL     OW 2746   3.770   2.219   0.597 -0.5465  0.5499  0.6649
  880SOL    HW1 2747   3.698   2.193   0.540  0.0273 -0.9928  0.5933
  880SOL    HW2 2748   3.846   2.222   0.538 -0.0337 -0.6136  1.2469
  881SOL     OW 2749   4.397   1.471   1.558 -0.2383 -0.3598 -0.6410
  881SOL    HW1 2750   4.400   1.564   1.534 -0.3691 -0.5368 -1.3991
  881SOL    HW2 2751   4.469   1.432   1.508  0.5631 -0.4793  0.5828
  882SOL     OW 2752   4.884   3.709   2.295  0.2455 -0.0648 -0.1585
  882SOL    HW1 2753   4.935   3.731   2.373  0.3122  1.2405 -0.5500
  882SOL    HW2 2754   4.888   3.613   2.290  0.2318 -0.1760  1.4324
  883SOL     OW 2755   1.286   1.416   3.909 -0.0313 -0.1628  0.1485
  883SOL    HW1 2756   1.250   1.442   3.994 -0.8529  1.4383 -0.6528
  883SOL    HW2 2757   1.209   1.398   3.855  0.4202  0.5752 -0.7727
  884SOL     OW 2758   3.851   4.363   0.211 -0.1602  0.4566  0.2814
  884SOL    HW1 2759   3.942   4.386   0.195 -0.0633  0.5640  0.9456
  884SOL    HW2 2760   3.829   4.405   0.294 -0.2883 -0.9518  1.0065
  885SOL     OW 2761   1.939   4.115   3.026  0.0129 -0.9469  0.1818
  885SOL    HW1 2762   1.985   4.168   2.961 -0.5572 -0.8787 -0.1827
  885SOL    HW2 2763   1.848   4.113   2.994  0.0638 -2.3235  0.0673
  886SOL     OW 2764   4.984   0.040   2.521  0.0571 -0.4657 -0.0954
  886SOL    HW1 2765   4.910   0.101   2.525  0.9093  0.6264 -0.3682
  886SOL    HW2 2766   4.944  -0.046   2.510 -1.1720  0.0896 -0.1410
  887SOL     OW 2767   4.210   1.772   2.343 -0.6009 -0.2319  0.1983
  887SOL    HW1 2768   4.272   1.831   2.384  0.8053 -1.6086  0.1427
  887SOL    HW2 2769   4.154   1.742   2.415  0.3702 -0.8441  0.7176
  888SOL     OW 2770   2.256   0.680   1.277  0.0357  0.0359 -0.1797
  888SOL    HW1 2771   2.280   0.773   1.280  0.7662 -0.0793 -1.6952
  888SOL    HW2 2772   2.338   0.633   1.288  0.2213 -0.3756 -2.7070
  889SOL     OW 2773   1.886   4.087   3.291  0.1837 -0.2520  0.2394
  889SOL    HW1 2774   1.857   3.999   3.266 -0.9366  0.4340 -0.9967
  889SOL    HW2 2775   1.942   4.115   3.219 -3.3636  1.8857 -2.0399
  890SOL     OW 2776   5.462   4.166   2.021 -0.2872  1.1318  0.0145
  890SOL    HW1 2777   5.441   4.145   2.112 -1.0992 -0.2809 -0.4568
  890SOL    HW2 2778   5.551   4.132   2.009 -0.8213 -0.3018 -0.1586
  891SOL     OW 2779   3.223   5.239   1.815  0.2408  0.3193 -0.8523
  891SOL    HW1 2780   3.144   5.253   1.868  0.1454 -0.5328 -0.7641
  891SOL    HW2 2781   3.278   5.183   1.870  0.7893  0.6770 -1.0343
  892SOL     OW 2782   2.948   4.778   1.847 -0.5454  0.2289  0.4993
  892SOL    HW1 2783   2.951   4.683   1.861 -0.3804  0.0318 -0.7114
  892SOL    HW2 2784   2.857   4.796   1.822 -0.2539  0.1391 -0.7048
  893SOL     OW 2785   4.833   1.087   3.425 -0.4875 -0.4121  0.3409
  893SOL    HW1 2786   4.779   1.049   3.494  0.0378  1.2748  1.7377
  893SOL    HW2 2787   4.786   1.164   3.396  1.5353  1.7271  2.3481
  894SOL     OW 2788   1.874   1.978   3.883 -0.2809  0.6814  0.1821
  894SOL    HW1 2789   1.869   2.062   3.837  1.4835 -0.4260 -2.1788
  894SOL    HW2 2790   1.963   1.974   3.917 -0.4603 -0.1259  0.5783
  895SOL     OW 2791   0.728   0.117   0.606 -0.3208 -0.2252  0.2779
  895SOL    HW1 2792   0.800   0.062   0.638 -0.5713 -0.8506 -0.2000
  895SOL    HW2 2793   0.756   0.206   0.625  0.3964 -0.4829  0.4831
  896SOL     OW 2794   1.742   1.328   1.411  0.1540  0.3130 -0.5541
  896SOL    HW1 2795   1.660   1.282   1.397 -0.5208  1.3178  0.0246
  896SOL    HW2 2796   1.764   1.363   1.324 -0.0534  0.0985 -0.6957
  897SOL     OW 2797   1.527   3.800   0.091 -0.6549 -0.1688 -0.1549
  897SOL    HW1 2798   1.513   3.777   0.183  0.0737  0.5496  0.1457
  897SOL    HW2 2799   1.439   3.810   0.055 -0.9892 -2.3755 -0.0484
  898SOL     OW 2800   1.861   2.471   1.289 -0.2260 -0.5951  0.2971
  898SOL    HW1 2801   1.794   2.410   1.257  0.2136 -1.7318  1.4931
  898SOL    HW2 2802   1.927   2.473   1.219 -2.0834  1.6396 -1.5773
  899SOL     OW 2803   1.653   1.575   0.498 -0.1129  0.5644  0.4655
  899SOL    HW1 2804   1.564   1.544   0.517 -0.0513  0.4543  0.5777
  899SOL    HW2 2805   1.643   1.669   0.485 -0.2532  0.5469  0.4331
  900SOL     OW 2806   4.886   4.016   1.601  0.0948  0.2569  0.0134
  900SOL    HW1 2807   4.846   3.937   1.637  1.3765 -1.1520 -1.5328
  900SOL    HW2 2808   4.864   4.084   1.664 -0.2436 -1.5024  1.8959
  901SOL     OW 2809   3.136   0.739   0.550  0.4894 -0.0766 -0.0155
  901SOL    HW1 2810   3.069   0.801   0.579  0.5175 -0.1801  0.2738
  901SOL    HW2 2811   3.181   0.712   0.631 -0.2364 -1.2984  0.0050
  902SOL     OW 2812   1.432   2.844   0.663  0.0915  0.1208  0.1808
  902SOL    HW1 2813   1.512   2.818   0.708  0.2345  1.2139  0.5978
  902SOL    HW2 2814   1.462   2.879   0.579 -0.1288 -1.3528 -0.5424
  903SOL     OW 2815   0.222   3.924   3.642  0.7804  0.1161  0.2147
  903SOL    HW1 2816   0.245   3.979   3.567 -1.6593  0.8146 -0.1060
  903SOL    HW2 2817   0.164   3.857   3.605 -1.8621  1.4614  1.6538
  904SOL     OW 2818   5.193   5.215   2.281 -0.3806  0.3332 -0.4491
  904SOL    HW1 2819   5.135   5.162   2.227  0.5865 -0.8827 -0.3332
  904SOL    HW2 2820   5.135   5.252   2.348 -1.2970  0.5078 -1.3052
  905SOL     OW 2821   4.592   3.944   1.787  0.2547  1.0299  0.3421
  905SOL    HW1 2822   4.552   3.893   1.716  0.9783  2.2754 -1.0279
  905SOL    HW2 2823   4.660   3.886   1.822 -1.2979 -0.2935  1.2848
  906SOL     OW 2824   4.943   4.653   2.482 -0.4793 -0.1325  0.4301
  906SOL    HW1 2825   5.037   4.665   2.494 -0.3932  0.2193 -0.5160
  906SOL    HW2 2826   4.910   4.634   2.569  0.3366  0.6357  0.9242
  907SOL     OW 2827   0.833   0.537   0.369 -0.3306  0.3687  0.4122
  907SOL    HW1 2828   0.749   0.580   0.381  0.3245  1.3559  1.9229
  907SOL    HW2 2829   0.889   0.574   0.438  1.4296 -0.0112 -0.7256
  908SOL     OW 2830   0.888   0.388   1.895  0.2766  0.6003  0.4214
  908SOL    HW1 2831   0.962   0.329   1.888 -0.2711  0.0059 -0.5306
  908SOL    HW2 2832   0.863   0.408   1.805 -1.5982 -0.3530  0.6707
  909SOL     OW 2833   1.220   5.575   0.249  0.8463  0.0600 -0.2822
  909SOL    HW1 2834   1.130   5.598   0.225  0.0412  0.2590  2.6250
  909SOL    HW2 2835   1.259   5.545   0.167 -1.4883  1.0897 -1.8852
  910SOL     OW 2836   0.994   1.601   1.842  0.0247  0.0153  0.0577
  910SOL    HW1 2837   0.992   1.530   1.778  0.5358  0.0078  0.0472
  910SOL    HW2 2838   0.946   1.672   1.800  1.7151  0.5689 -1.0172
  911SOL     OW 2839   1.181   0.188   2.656 -0.4577 -0.5255  0.3541
  911SOL    HW1 2840   1.180   0.205   2.751  0.2486 -2.1424  0.6864
  911SOL    HW2 2841   1.088   0.180   2.632 -0.6395 -0.1995  0.9291
  912SOL     OW 2842   2.654   1.185   2.417 -0.0783 -0.2968 -0.9125
  912SOL    HW1 2843   2.718   1.252   2.439 -1.4883  0.2359  1.9754
  912SOL    HW2 2844   2.687   1.105   2.458 -1.3043  0.0518  0.8830
  913SOL     OW 2845   0.907   3.972   1.338 -0.2343 -0.2590  0.8418
  913SOL    HW1 2846   0.972   3.920   1.386  0.3184  0.3500  0.7741
  913SOL    HW2 2847   0.916   4.060   1.375  1.3025  0.5966 -1.4067
  914SOL     OW 2848   3.217   0.719   2.086 -0.0977 -0.1922 -0.4386
  914SOL    HW1 2849   3.177   0.691   2.168 -0.9143  1.1751 -0.3408
  914SOL    HW2 2850   3.304   0.752   2.112 -1.2077  2.3957  0.2915
  915SOL     OW 2851   1.768   3.506   1.812 -0.0508 -0.4683 -0.7033
  915SOL    HW1 2852   1.681   3.518   1.851 -0.5451 -0.8143 -1.6439
  915SOL    HW2 2853   1.828   3.506   1.886 -0.7431  0.7717 -0.1038
  916SOL     OW 2854   3.705   0.168   3.229 -0.2420 -0.2859  0.3554
  916SOL    HW1 2855   3.626   0.163   3.176 -0.1197  0.0588  0.1391
  916SOL    HW2 2856   3.775   0.187   3.167  0.0723 -0.9663  0.4978
  917SOL     OW 2857   3.682   1.158   1.142  0.2994  0.2148 -0.0748
  917SOL    HW1 2858   3.716   1.119   1.222 -0.0147 -0.6179 -0.3362
  917SOL    HW2 2859   3.690   1.253   1.155  1.1352  0.0607  0.5394
  918SOL     OW 2860   4.316   0.852   2.425  0.2294 -0.1549 -0.1892
  918SOL    HW1 2861   4.227   0.886   2.411  0.9411  1.4455 -1.2216
  918SOL    HW2 2862   4.372   0.930   2.417  1.6238 -0.8698  1.9102
  919SOL     OW 2863   1.511   3.226   0.355 -0.3186 -0.0061 -0.2860
  919SOL    HW1 2864   1.562   3.200   0.432  0.4043 -1.0105 -1.0666
  919SOL    HW2 2865   1.560   3.299   0.317 -0.1484 -0.1388 -0.3235
  920SOL     OW 2866   0.297   1.041   3.739 -0.3691 -0.5675 -0.1166
  920SOL    HW1 2867   0.274   0.958   3.698 -0.4817  0.0009 -1.2375
  920SOL    HW2 2868   0.275   1.107   3.673 -0.3214  0.3539  0.7738
  921SOL     OW 2869   4.187   4.499   1.624  0.2736  0.2074  0.5149
  921SOL    HW1 2870   4.182   4.478   1.717  1.2849 -1.0635  0.3281
  921SOL    HW2 2871   4.139   4.428   1.581  2.2499 -0.8728 -0.0506
  922SOL     OW 2872   2.652   4.411   1.204  0.1515 -0.2185 -0.2081
  922SOL    HW1 2873   2.683   4.429   1.293  0.5379  0.4999 -0.4778
  922SOL    HW2 2874   2.558   4.400   1.213  0.3784 -1.9132  0.5476
  923SOL     OW 2875   2.510   1.926   3.144  0.6274 -0.2557  0.0085
  923SOL    HW1 2876   2.604   1.909   3.143  0.8407  0.8006  0.8124
  923SOL    HW2 2877   2.501   2.010   3.098  0.2254  0.2605  1.0056
  924SOL     OW 2878   0.375   3.689   3.649  0.0194  0.1767 -0.2505
  924SOL    HW1 2879   0.338   3.762   3.699  2.1630  0.5957  0.8394
  924SOL    HW2 2880   0.410   3.730   3.569 -0.4906  0.0277 -0.5523
  925SOL     OW 2881   3.799   2.679   1.480  0.3349  0.2196  0.9672
  925SOL    HW1 2882   3.843   2.624   1.415  0.6684  0.9443  0.5686
  925SOL    HW2 2883   3.866   2.743   1.506  0.2422 -0.1231  2.1096
  926SOL     OW 2884   2.860   2.194   1.447  0.5759  0.5514 -0.3179
  926SOL    HW1 2885   2.887   2.213   1.537 -2.2884 -1.0372  1.0063
  926SOL    HW2 2886   2.901   2.110   1.426  1.1366  0.8587 -0.4749
  927SOL     OW 2887   1.206   0.870   2.956 -0.4659  0.3381  0.1472
  927SOL    HW1 2888   1.260   0.811   3.008 -0.2576  0.9797  0.6780
  927SOL    HW2 2889   1.136   0.897   3.015  0.6675  2.3510  0.6867
  928SOL     OW 2890   4.054   2.241   1.314 -0.2867 -0.2391 -0.4811
  928SOL    HW1 2891   4.014   2.179   1.253 -0.4332  0.8910 -1.5732
  928SOL    HW2 2892   3.998   2.319   1.309 -0.2582 -0.0955  1.0606
  929SOL     OW 2893   3.112   1.356   3.512  0.2564 -0.2132  0.7639
  929SOL    HW1 2894   3.040   1.401   3.557  0.1394 -1.2145  1.6169
  929SOL    HW2 2895   3.191   1.404   3.538 -0.1421  1.5568 -1.0168
  930SOL     OW 2896   3.805   4.139   0.800 -0.0854  0.2213  0.6648
  930SOL    HW1 2897   3.888   4.173   0.834 -0.1469  0.9167  0.1638
  930SOL    HW2 2898   3.827   4.056   0.759 -0.0951 -0.9041  2.8009
  931SOL     OW 2899   1.543   2.142   0.201 -0.2613 -0.2063  0.3895
  931SOL    HW1 2900   1.523   2.208   0.134  0.1071 -1.2954 -0.8393
  931SOL    HW2 2901   1.496   2.064   0.172  2.0804 -1.5121 -0.1664
  932SOL     OW 2902   4.563   4.409   1.288  0.0437  0.3389  0.0048
  932SOL    HW1 2903   4.513   4.351   1.345 -1.4760  0.1179 -1.4693
  932SOL    HW2 2904   4.652   4.406   1.323 -0.0887 -2.4442  0.3581
  933SOL     OW 2905   4.212   2.912   2.856 -0.7822 -0.8360  0.0970
  933SOL    HW1 2906   4.146   2.955   2.801  1.1788 -0.8667 -2.5059
  933SOL    HW2 2907   4.244   2.839   2.803  2.1433 -0.1054  0.6676
  934SOL     OW 2908   3.275   3.943   0.099 -0.0809 -0.3376 -0.4301
  934SOL    HW1 2909   3.206   3.894   0.142  2.9867 -3.9639  0.9331
  934SOL    HW2 2910   3.315   3.995   0.169 -0.9974  1.3542 -1.1040
  935SOL     OW 2911   5.555   5.408   3.574  0.0022 -0.6693  0.0128
  935SOL    HW1 2912   5.523   5.498   3.570  0.5254 -0.5156 -1.2616
  935SOL    HW2 2913   5.496   5.359   3.517  0.6602 -0.8141 -0.5602
  936SOL     OW 2914   2.161   4.603   2.816  0.2715  0.1056  0.4751
  936SOL    HW1 2915   2.085   4.576   2.765 -0.3115  0.5724  1.0707
  936SOL    HW2 2916   2.219   4.644   2.753  0.8534 -1.8252 -0.3159
  937SOL     OW 2917   5.349   0.557   0.349 -0.3842  0.1367  0.1851
  937SOL    HW1 2918   5.408   0.600   0.286 -1.3681  1.2375 -0.0202
  937SOL    HW2 2919   5.343   0.618   0.422 -2.7780  1.0108 -0.6444
  938SOL     OW 2920   2.029   0.896   1.678  0.2515  0.6036  0.4857
  938SOL    HW1 2921   2.101   0.954   1.655  0.3843  0.2438 -0.0224
  938SOL    HW2 2922   2.014   0.844   1.599  0.0671  0.0203  0.8984
  939SOL     OW 2923   5.418   4.348   0.513  0.6672 -0.0558 -0.0434
  939SOL    HW1 2924   5.453   4.326   0.599  0.1066  2.6193  0.9635
  939SOL    HW2 2925   5.360   4.275   0.491  0.9826 -0.8900  1.7529
  940SOL     OW 2926   2.691   4.104   1.348  0.2572 -0.1739 -0.3106
  940SOL    HW1 2927   2.752   4.130   1.278  2.5582 -1.2816  1.1547
  940SOL    HW2 2928   2.653   4.021   1.316  2.0285 -1.1917  0.0686
  941SOL     OW 2929   4.812   3.114   0.751 -0.3357  0.3935 -0.1573
  941SOL    HW1 2930   4.835   3.027   0.784 -0.5562 -0.3051 -1.7394
  941SOL    HW2 2931   4.884   3.170   0.778  0.1274 -0.4173  0.3373
  942SOL     OW 2932   4.315   3.342   3.530  0.4613 -0.2105  0.8437
  942SOL    HW1 2933   4.376   3.339   3.603 -0.0026 -2.8462  1.2373
  942SOL    HW2 2934   4.338   3.265   3.477 -0.7044  0.3411 -0.5112
  943SOL     OW 2935   1.645   2.780   1.592 -0.4540  0.5198  0.4166
  943SOL    HW1 2936   1.554   2.804   1.614 -0.7534  1.0911 -1.2784
  943SOL    HW2 2937   1.651   2.794   1.498  1.0583 -0.7090  0.2887
  944SOL     OW 2938   2.393   0.309   1.458  0.2281  0.1274 -0.3481
  944SOL    HW1 2939   2.426   0.338   1.544 -0.3677  2.7674 -0.9110
  944SOL    HW2 2940   2.298   0.303   1.470  0.0939  0.9647 -0.9154
  945SOL     OW 2941   5.169   1.068   1.162 -0.1696 -0.1802  0.6017
  945SOL    HW1 2942   5.124   1.152   1.167 -0.7116 -0.4114 -0.2068
  945SOL    HW2 2943   5.109   1.012   1.113  0.7981 -0.6296 -0.1015
  946SOL     OW 2944   2.605   4.833   0.811  0.0185 -0.1687  0.0688
  946SOL    HW1 2945   2.523   4.879   0.791  0.7249  0.3225 -1.9528
  946SOL    HW2 2946   2.632   4.868   0.896 -0.9701  0.9864 -0.0607
  947SOL     OW 2947   5.236   5.128   3.941  0.4604 -0.1360 -0.3866
  947SOL    HW1 2948   5.192   5.092   4.019  0.3819  1.7720  0.5006
  947SOL    HW2 2949   5.325   5.148   3.971 -0.0768  2.2642 -0.2157
  948SOL     OW 2950   5.548   1.479   0.732 -0.0228 -0.2581  0.5376
  948SOL    HW1 2951   5.577   1.493   0.823 -0.1952 -0.1745  0.5802
  948SOL    HW2 2952   5.600   1.540   0.680 -0.5881  0.3664  0.6912
  949SOL     OW 2953   5.269   4.771   2.798 -0.3095  0.1688  0.2039
  949SOL    HW1 2954   5.199   4.812   2.747  0.9118  2.3705  0.2163
  949SOL    HW2 2955   5.237   4.773   2.888 -0.3807  0.8312  0.1660
  950SOL     OW 2956   0.029   1.229   0.352  0.4641  0.2026  0.5628
  950SOL    HW1 2957   0.043   1.210   0.445  0.1197  1.8393  0.9756
  950SOL    HW2 2958  -0.049   1.285   0.351  1.1228  1.1242 -0.6089
  951SOL     OW 2959   0.462   1.260   3.400  0.4546  0.8551 -0.0967
  951SOL    HW1 2960   0.442   1.236   3.309 -2.3959  1.5830  0.2410
  951SOL    HW2 2961   0.538   1.207   3.422 -1.9839 -3.6628 -1.2298
  952SOL     OW 2962   4.868   0.769   2.807 -0.0018 -0.3900  0.3050
  952SOL    HW1 2963   4.839   0.789   2.895  2.0972 -1.0514  1.2005
  952SOL    HW2 2964   4.948   0.717   2.818  1.5093  1.2225 -1.9484
  953SOL     OW 2965   4.844   1.163   0.166  0.6303  0.1784 -0.0714
  953SOL    HW1 2966   4.925   1.205   0.139  1.2395 -0.6503  0.4195
  953SOL    HW2 2967   4.858   1.070   0.147 -0.3781  0.0752 -0.3957
  954SOL     OW 2968   1.503   5.433   2.985  0.5307  0.0122  0.3495
  954SOL    HW1 2969   1.440   5.496   3.019  0.0312 -0.2529 -0.0782
  954SOL    HW2 2970   1.579   5.442   3.043 -0.7151 -1.2742  2.3156
  955SOL     OW 2971   0.804   1.612   0.847 -0.0499 -0.1787  0.2235
  955SOL    HW1 2972   0.723   1.651   0.880  0.6175  1.7445 -0.2512
  955SOL    HW2 2973   0.807   1.636   0.754  1.0089 -0.2919  0.2090
  956SOL     OW 2974   3.198   5.011   2.793  0.1541  0.2513  0.0389
  956SOL    HW1 2975   3.239   5.096   2.776 -0.4435  0.6360  0.5048
  956SOL    HW2 2976   3.106   5.031   2.809  0.3964 -0.2175  2.3711
  957SOL     OW 2977   4.964   1.367   3.012 -0.9139  0.7584  0.2729
  957SOL    HW1 2978   4.960   1.372   3.107 -0.0283  0.2869  0.3419
  957SOL    HW2 2979   4.929   1.281   2.990  2.5908 -0.8718  0.4846
  958SOL     OW 2980   3.850   3.257   1.981 -0.0684  0.2974  0.1155
  958SOL    HW1 2981   3.762   3.261   1.944  0.1570  1.8160 -0.3287
  958SOL    HW2 2982   3.844   3.303   2.065  0.2326  0.1415  0.2265
  959SOL     OW 2983   3.493   4.572   1.127 -0.0652  0.4779 -0.2361
  959SOL    HW1 2984   3.437   4.543   1.056 -0.6498  0.6479  0.1452
  959SOL    HW2 2985   3.582   4.566   1.093 -0.3725  1.1339 -1.1800
  960SOL     OW 2986   5.080   2.509   1.361  0.3159 -0.0029 -0.1755
  960SOL    HW1 2987   5.153   2.503   1.423 -0.3104  1.9880  0.8435
  960SOL    HW2 2988   5.028   2.430   1.376  0.3716  0.2763  1.6388
  961SOL     OW 2989   5.477   1.629   1.485 -0.3808  0.7151 -0.2304
  961SOL    HW1 2990   5.505   1.561   1.424 -1.1672 -0.7480  0.9862
  961SOL    HW2 2991   5.382   1.634   1.474 -0.4763  0.7639  0.5347
  962SOL     OW 2992   2.110   3.892   1.579  0.1299 -0.4113  0.3496
  962SOL    HW1 2993   2.073   3.898   1.668 -1.9371  0.1678 -0.4842
  962SOL    HW2 2994   2.199   3.925   1.588  0.2338 -1.0897  2.3482
  963SOL     OW 2995   0.617   2.207   2.140 -0.2877  0.3129  0.3631
  963SOL    HW1 2996   0.582   2.178   2.225 -0.4229  1.1087  0.5895
  963SOL    HW2 2997   0.666   2.287   2.161 -1.8350  1.5622 -0.5475
  964SOL     OW 2998   5.446   2.188   2.356  0.5354  0.4507  0.6777
  964SOL    HW1 2999   5.472   2.157   2.270 -0.5868  2.1360 -0.3442
  964SOL    HW2 3000   5.509   2.149   2.417  0.3475 -2.1546 -0.6673
  965SOL     OW 3001   0.767   3.059   3.653  0.4373  0.0066 -0.3700
  965SOL    HW1 3002   0.686   3.013   3.633 -0.5024  0.2686  2.3816
  965SOL    HW2 3003   0.796   3.095   3.569 -1.7214 -0.9756 -1.6055
  966SOL     OW 3004   0.322   0.594   1.844  0.4477  0.2353  0.6524
  966SOL    HW1 3005   0.339   0.504   1.873  2.4272  0.6431  0.9003
  966SOL    HW2 3006   0.258   0.627   1.907 -1.9566 -1.6143 -0.6812
  967SOL     OW 3007   2.016   1.011   0.755  0.2397 -0.3700 -0.0878
  967SOL    HW1 3008   2.062   0.943   0.705 -0.3075 -2.1255  1.6831
  967SOL    HW2 3009   1.926   0.980   0.761 -0.1410  0.7525  0.3908
  968SOL     OW 3010   1.444   4.410   3.739  0.1218 -0.4287 -0.1434
  968SOL    HW1 3011   1.538   4.419   3.722  0.3637 -1.3204  0.6701
  968SOL    HW2 3012   1.420   4.490   3.786  0.4171 -0.1144 -0.5154
  969SOL     OW 3013   0.284   1.446   1.714  0.0965 -0.2320  0.1364
  969SOL    HW1 3014   0.224   1.447   1.639  0.1213  0.5622  0.1230
  969SOL    HW2 3015   0.227   1.449   1.790  0.0917 -0.5014  0.1465
  970SOL     OW 3016   3.571   5.389   0.300 -0.3172 -0.3190 -0.2627
  970SOL    HW1 3017   3.555   5.295   0.292 -0.2489 -0.5579  1.7877
  970SOL    HW2 3018   3.490   5.430   0.269 -1.0716 -1.1502  0.5394
  971SOL     OW 3019   5.345   1.507   1.037 -0.4053  0.0229  0.3075
  971SOL    HW1 3020   5.315   1.597   1.021  0.4386  0.2900  0.1688
  971SOL    HW2 3021   5.271   1.452   1.011 -0.7512  0.6539 -0.0669
  972SOL     OW 3022   5.539   4.091   3.864 -0.8766  0.0462 -0.7106
  972SOL    HW1 3023   5.557   4.009   3.911 -1.9554 -0.0648 -0.4766
  972SOL    HW2 3024   5.482   4.064   3.791 -0.5202  0.4620 -1.1473
  973SOL     OW 3025   2.163   3.519   2.259  0.9110  0.6631  0.3111
  973SOL    HW1 3026   2.207   3.525   2.174 -0.1296 -0.3233 -0.3262
  973SOL    HW2 3027   2.098   3.589   2.257  0.0678 -0.1040 -0.2364
  974SOL     OW 3028   4.186   5.389   2.921 -0.3091 -0.1475 -0.0818
  974SOL    HW1 3029   4.185   5.341   2.837 -0.2788  1.7827 -1.2357
  974SOL    HW2 3030   4.231   5.471   2.901 -2.2749  1.3409  1.2625
  975SOL     OW 3031   0.870   2.010   3.256 -0.0466 -0.2286 -0.3001
  975SOL    HW1 3032   0.831   2.035   3.173  1.4373  0.3162 -0.8610
  975SOL    HW2 3033   0.804   2.033   3.321 -0.2466  1.7126 -1.1106
  976SOL     OW 3034   4.738   3.717   3.127  0.5052 -0.2456 -0.0691
  976SOL    HW1 3035   4.771   3.723   3.038  1.3764  0.5739  0.2928
  976SOL    HW2 3036   4.645   3.739   3.120  1.0268  2.1355 -0.5004
  977SOL     OW 3037   3.885   1.256   0.433  0.0353  0.4979  0.6776
  977SOL    HW1 3038   3.800   1.245   0.476  0.1422  0.2743  0.8343
  977SOL    HW2 3039   3.868   1.318   0.362 -0.2960  0.3255  0.6017
  978SOL     OW 3040   1.384   3.421   3.201 -0.7785  0.1286  0.1835
  978SOL    HW1 3041   1.475   3.437   3.223 -0.4188  0.0306 -1.1755
  978SOL    HW2 3042   1.341   3.407   3.286  0.5583 -0.3409  0.8069
  979SOL     OW 3043   0.976   3.310   2.989  0.2643  0.2031 -0.0730
  979SOL    HW1 3044   0.990   3.237   2.928 -2.4568 -0.7465  0.3099
  979SOL    HW2 3045   0.887   3.340   2.971  0.9907  2.9516  0.3722
  980SOL     OW 3046   0.452   0.336   0.769 -0.2356  0.3481 -0.0263
  980SOL    HW1 3047   0.391   0.400   0.734 -0.3086  1.1151  1.3844
  980SOL    HW2 3048   0.409   0.302   0.848  0.0620 -1.0290 -0.4231
  981SOL     OW 3049   3.265   2.829   3.470  0.7103  0.7529  0.2016
  981SOL    HW1 3050   3.285   2.741   3.439  0.7107  0.5224  0.8566
  981SOL    HW2 3051   3.256   2.821   3.565 -2.1132  0.9104  0.0348
  982SOL     OW 3052   3.979   1.143   1.586 -0.5965  0.1846  0.4525
  982SOL    HW1 3053   4.071   1.169   1.586 -0.6731  0.4625 -0.2480
  982SOL    HW2 3054   3.931   1.223   1.563 -1.0280  0.0771  0.9532
  983SOL     OW 3055   0.265   4.835   2.185  0.3666  0.5379  0.6056
  983SOL    HW1 3056   0.349   4.854   2.227 -0.1335  1.3173  1.2722
  983SOL    HW2 3057   0.231   4.920   2.159 -0.3140  0.2482  0.5201
  984SOL     OW 3058   2.631   1.379   1.475 -0.2654  0.0510 -0.2803
  984SOL    HW1 3059   2.601   1.455   1.525  1.2971 -0.1159  1.0069
  984SOL    HW2 3060   2.572   1.374   1.399 -0.9384  2.0017  0.0770
  985SOL     OW 3061   1.098   0.197   0.455 -0.2582  0.3564 -0.1227
  985SOL    HW1 3062   1.069   0.209   0.546 -0.3230  0.3196 -0.1382
  985SOL    HW2 3063   1.192   0.215   0.457 -0.6161  2.7075 -0.4504
  986SOL     OW 3064   0.532   2.132   2.403  0.9325  0.3273 -0.3272
  986SOL    HW1 3065   0.600   2.075   2.441  0.0884  0.3933  1.3786
  986SOL    HW2 3066   0.453   2.078   2.403  0.6644  0.7140 -0.9693
  987SOL     OW 3067   2.636   3.313   0.198 -0.6197 -0.0249 -1.1432
  987SOL    HW1 3068   2.609   3.405   0.196  0.6339  0.5019  1.4664
  987SOL    HW2 3069   2.587   3.275   0.271  2.1845 -0.1680  0.8221
  988SOL     OW 3070   4.892   3.618   3.688 -0.2617 -0.2609 -0.7578
  988SOL    HW1 3071   4.956   3.547   3.696 -1.1930 -1.2661 -1.7935
  988SOL    HW2 3072   4.890   3.638   3.594 -0.5057  0.6662 -0.5631
  989SOL     OW 3073   1.051   0.536   0.860 -0.0612  0.4824 -0.3024
  989SOL    HW1 3074   1.100   0.524   0.942 -2.9898 -1.2949  1.3676
  989SOL    HW2 3075   1.048   0.631   0.849  2.0063  0.7136  0.5647
  990SOL     OW 3076   3.143   1.051   3.100  0.3307  0.0366 -0.5729
  990SOL    HW1 3077   3.076   1.091   3.154  0.8226 -1.6508  1.4270
  990SOL    HW2 3078   3.226   1.078   3.139  0.6926 -1.4883 -0.1875
  991SOL     OW 3079   2.716   3.838   3.880 -0.6209 -0.2616 -0.1283
  991SOL    HW1 3080   2.737   3.824   3.973 -1.8910  0.7074  0.3325
  991SOL    HW2 3081   2.777   3.781   3.833 -0.1924 -1.0502  1.3137
  992SOL     OW 3082   0.333   5.514   1.006 -0.3366 -0.6795 -0.2629
  992SOL    HW1 3083   0.353   5.427   0.971  0.7831  0.0453 -1.5017
  992SOL    HW2 3084   0.249   5.502   1.051  0.8718 -2.9297  1.6687
  993SOL     OW 3085   2.103   2.189   2.854 -0.0158 -0.1269  0.0628
  993SOL    HW1 3086   2.165   2.118   2.873 -0.2234 -0.2918  0.1241
  993SOL    HW2 3087   2.079   2.176   2.763 -1.0796 -0.9378  0.4391
  994SOL     OW 3088   5.485   3.281   1.553 -0.5534  0.2071 -0.1511
  994SOL    HW1 3089   5.397   3.254   1.527  0.0738 -2.1827  0.0444
  994SOL    HW2 3090   5.542   3.208   1.529  1.5802  2.0851 -1.2026
  995SOL     OW 3091   1.755   4.056   1.170  0.1223 -0.8932  0.5738
  995SOL    HW1 3092   1.820   4.034   1.236 -0.5535 -0.8848  1.2629
  995SOL    HW2 3093   1.700   4.123   1.211 -0.9800 -1.6732  0.4224
  996SOL     OW 3094   3.291   5.315   1.006 -0.0704 -0.1412 -0.4595
  996SOL    HW1 3095   3.327   5.281   1.088  0.0996  3.8125  1.3285
  996SOL    HW2 3096   3.366   5.355   0.962 -0.8691  1.6798 -0.2729
  997SOL     OW 3097   4.362   3.185   1.004  0.0492  0.4309 -0.6060
  997SOL    HW1 3098   4.424   3.121   0.967  0.6807  0.1671  0.8339
  997SOL    HW2 3099   4.414   3.264   1.016 -0.2207  0.5968 -0.5321
  998SOL     OW 3100   1.977   4.143   0.779  0.1621  0.2274  0.2937
  998SOL    HW1 3101   1.944   4.220   0.733 -0.2619 -0.3193 -0.3368
  998SOL    HW2 3102   1.969   4.166   0.872  0.7104  1.2103  0.1187
  999SOL     OW 3103   1.621   1.702   0.139 -0.6100  0.2148  0.1807
  999SOL    HW1 3104   1.547   1.756   0.167 -0.1533  0.9512 -0.0015
  999SOL    HW2 3105   1.586   1.649   0.067 -0.5088  1.8911 -1.1696
 1000SOL     OW 3106   5.549   3.079   1.219  0.5434  0.0003  0.2642
 1000SOL    HW1 3107   5.612   3.145   1.247 -3.2015  3.3583  1.6855
 1000SOL    HW2 3108   5.474   3.090   1.277 -2.8688 -1.1004 -3.4605
 1001SOL     OW 3109   0.774   0.563   2.148 -0.2791  0.3263 -0.6522
 1001SOL    HW1 3110   0.835   0.624   2.190 -1.7223  1.8126 -0.5995
 1001SOL    HW2 3111   0.824   0.525   2.076  1.2918  0.0003  0.5474
 1002SOL     OW 3112   2.268   4.004   0.695 -0.3684 -0.1596  0.2789
 1002SOL    HW1 3113   2.219   4.053   0.627 -1.8608  1.0650  2.1266
 1002SOL    HW2 3114   2.349   4.054   0.707 -1.8915  2.0834  2.1735
 1003SOL     OW 3115   0.040   3.225   1.818 -0.0931  0.0937 -0.3072
 1003SOL    HW1 3116   0.020   3.211   1.725  0.1472 -2.4861 -0.0589
 1003SOL    HW2 3117   0.130   3.192   1.827 -0.2817 -0.1141  0.9158
 1004SOL     OW 3118   1.446   3.103   2.405  0.4853  0.5968  0.0989
 1004SOL    HW1 3119   1.478   3.169   2.344  1.5268 -0.0350 -0.0702
 1004SOL    HW2 3120   1.521   3.085   2.462  0.1352 -0.2038  0.3263
 1005SOL     OW 3121   4.874   0.607   0.941  0.4103  0.1575 -0.5984
 1005SOL    HW1 3122   4.789   0.570   0.967  0.3746  0.8156  0.2446
 1005SOL    HW2 3123   4.861   0.636   0.851 -0.5592  1.1300 -0.1608
 1006SOL     OW 3124   4.659   4.152   0.016 -0.2444 -0.1518  0.5796
 1006SOL    HW1 3125   4.648   4.231  -0.037  1.0210 -1.7751 -2.3689
 1006SOL    HW2 3126   4.634   4.080  -0.043  2.0321 -2.1590  1.8631
 1007SOL     OW 3127   4.920   5.312   0.788  0.1895 -0.3747  0.9143
 1007SOL    HW1 3128   4.891   5.396   0.824 -1.3492 -0.6953  0.5068
 1007SOL    HW2 3129   4.937   5.330   0.696 -2.2449 -0.9224  0.3011
 1008SOL     OW 3130   4.397   1.959   0.588  0.2579 -0.2187  0.1816
 1008SOL    HW1 3131   4.385   1.886   0.528  0.5818 -0.6376  0.6186
 1008SOL    HW2 3132   4.314   1.965   0.635 -0.8671  1.5622 -1.8361
 1009SOL     OW 3133   1.039   5.405   1.243  0.3227  0.1413 -0.4677
 1009SOL    HW1 3134   1.114   5.425   1.298  2.1805  1.1326 -3.1660
 1009SOL    HW2 3135   1.047   5.312   1.223 -0.4400 -0.2587  0.9132
 1010SOL     OW 3136   3.392   3.212   1.472  0.0521 -0.3867  0.0610
 1010SOL    HW1 3137   3.425   3.300   1.491 -0.4335 -0.2343  0.2292
 1010SOL    HW2 3138   3.387   3.208   1.377  1.0915 -0.6196  0.0078
 1011SOL     OW 3139   4.082   2.935   3.840  0.0986  0.1804 -0.7352
 1011SOL    HW1 3140   4.118   2.855   3.878  0.1730  0.7598  0.4532
 1011SOL    HW2 3141   4.019   2.905   3.775  0.7986 -0.8409 -0.9568
 1012SOL     OW 3142   0.447   4.696   3.925 -0.2420  0.0844  0.6297
 1012SOL    HW1 3143   0.395   4.616   3.919 -0.1562  0.1228 -2.0153
 1012SOL    HW2 3144   0.479   4.710   3.836  0.4745  2.5936  1.1983
 1013SOL     OW 3145   2.183   3.650   1.853 -0.3480 -0.1293 -0.3520
 1013SOL    HW1 3146   2.173   3.574   1.797  1.6514 -0.5761 -0.1725
 1013SOL    HW2 3147   2.261   3.632   1.905 -1.1262  1.0506  1.3213
 1014SOL     OW 3148   5.559   2.101   2.139  0.7029 -0.1717 -0.1502
 1014SOL    HW1 3149   5.571   2.113   2.045  1.3441 -0.6897 -0.1501
 1014SOL    HW2 3150   5.648   2.085   2.172  0.5585  0.5962  0.6332
 1015SOL     OW 3151   2.377   1.798   0.328 -0.6318 -0.2732 -0.1805
 1015SOL    HW1 3152   2.311   1.832   0.267 -1.4040 -1.3955 -0.0174
 1015SOL    HW2 3153   2.355   1.839   0.412 -0.4375  0.1979 -0.3585
 1016SOL     OW 3154   1.041   3.258   3.282  0.1023  0.1137  0.7687
 1016SOL    HW1 3155   1.007   3.324   3.222  2.6581  0.7030 -0.1491
 1016SOL    HW2 3156   1.006   3.175   3.248 -0.6523  0.6801  0.1192
 1017SOL     OW 3157   1.679   4.478   0.419 -0.3341 -0.3382 -0.5293
 1017SOL    HW1 3158   1.691   4.385   0.402  0.7188 -0.6737  1.7217
 1017SOL    HW2 3159   1.670   4.484   0.514 -2.4299  1.6650 -0.7642
 1018SOL     OW 3160   4.398   3.000   3.200 -0.4288  0.4661 -0.1509
 1018SOL    HW1 3161   4.468   3.040   3.148  0.8765  0.9682  1.8876
 1018SOL    HW2 3162   4.434   2.915   3.226 -1.1518  0.1330 -0.2092
 1019SOL     OW 3163   3.319   0.884   3.813 -0.5340  0.0997  0.4567
 1019SOL    HW1 3164   3.358   0.917   3.732  0.1496 -0.4709  0.5501
 1019SOL    HW2 3165   3.312   0.961   3.870  1.0667  0.1121  0.6809
 1020SOL     OW 3166   5.534   3.632   0.522  0.3112 -0.1649  0.0420
 1020SOL    HW1 3167   5.516   3.602   0.611  0.7643  1.6023  0.7801
 1020SOL    HW2 3168   5.460   3.602   0.470 -0.4280 -0.4160  1.2221
 1021SOL     OW 3169   1.401   2.267   2.469 -0.3642 -0.7410  0.4693
 1021SOL    HW1 3170   1.318   2.266   2.517  0.1920 -0.6175  1.4671
 1021SOL    HW2 3171   1.459   2.322   2.522  0.7393 -1.8532  0.4789
 1022SOL     OW 3172   5.512   5.042   3.171 -0.4581  0.0562 -0.3306
 1022SOL    HW1 3173   5.526   4.970   3.233 -0.5174  0.2086 -0.1388
 1022SOL    HW2 3174   5.600   5.064   3.140 -0.3149  0.6493  0.4597
 1023SOL     OW 3175   1.768   2.480   0.723  0.0470  0.7772 -0.1700
 1023SOL    HW1 3176   1.700   2.450   0.783  0.5459  1.6800  0.8909
 1023SOL    HW2 3177   1.810   2.400   0.692  0.6871  0.2918  1.7912
 1024SOL     OW 3178   2.963   3.988   2.541 -0.3910 -0.4353 -0.0934
 1024SOL    HW1 3179   2.879   3.945   2.528 -0.6675  0.0560  0.0283
 1024SOL    HW2 3180   2.970   3.999   2.636 -0.1882 -0.4761 -0.1028
 1025SOL     OW 3181   3.007   2.156   1.080  0.4656  0.0334  0.0081
 1025SOL    HW1 3182   3.040   2.133   1.167 -0.8369 -0.0148  0.5154
 1025SOL    HW2 3183   3.001   2.073   1.034 -1.0640 -0.2860  0.7022
 1026SOL     OW 3184   4.492   2.483   0.501 -0.1593 -0.6167 -0.5949
 1026SOL    HW1 3185   4.569   2.450   0.547  0.0356 -1.3107 -1.3917
 1026SOL    HW2 3186   4.433   2.407   0.495 -1.6128  0.2646  1.3704
 1027SOL     OW 3187   1.211   0.621   3.507 -0.6197 -0.1712  0.1286
 1027SOL    HW1 3188   1.210   0.606   3.413  0.7931 -0.2897  0.1109
 1027SOL    HW2 3189   1.192   0.715   3.517  1.9152  0.4819 -0.4789
 1028SOL     OW 3190   3.297   4.866   0.700 -0.0018  0.0829  0.0858
 1028SOL    HW1 3191   3.261   4.824   0.621  0.2289  0.5958 -0.2985
 1028SOL    HW2 3192   3.251   4.824   0.772  0.4026 -1.0312 -0.2733
 1029SOL     OW 3193   5.473   4.129   1.659  0.3529 -0.3540 -0.3999
 1029SOL    HW1 3194   5.490   4.035   1.656  1.0697 -0.3547  2.0881
 1029SOL    HW2 3195   5.497   4.156   1.747 -1.7716  1.8222 -0.3684
 1030SOL     OW 3196   2.126   1.764   1.467  0.2441 -0.4535 -0.0041
 1030SOL    HW1 3197   2.117   1.782   1.561  0.4789 -1.4040  0.2128
 1030SOL    HW2 3198   2.037   1.742   1.439  0.1745 -0.1754 -0.0004
 1031SOL     OW 3199   4.411   0.391   2.451  0.3214 -0.1182  0.0510
 1031SOL    HW1 3200   4.385   0.465   2.505  2.0783 -0.0112  0.8392
 1031SOL    HW2 3201   4.480   0.347   2.502  1.6609 -0.3474 -1.8372
 1032SOL     OW 3202   2.629   0.204   0.260 -0.5891 -1.1861  0.8284
 1032SOL    HW1 3203   2.594   0.205   0.171 -0.1465  0.7028  0.6290
 1032SOL    HW2 3204   2.586   0.130   0.303 -2.0774 -1.0984 -0.4558
 1033SOL     OW 3205   4.049   1.212   1.184  0.6946 -0.2438  0.5013
 1033SOL    HW1 3206   3.985   1.263   1.235  0.7658 -0.4204  0.7685
 1033SOL    HW2 3207   4.060   1.131   1.234  1.0094 -0.2798  0.3715
 1034SOL     OW 3208   1.092   0.871   3.219  0.0151 -0.1009 -0.4106
 1034SOL    HW1 3209   1.053   0.925   3.288  0.6362  0.0636 -0.1828
 1034SOL    HW2 3210   1.186   0.880   3.232  0.1407 -0.0388 -1.3039
 1035SOL     OW 3211   4.593   0.640   0.891 -0.1648  0.4167 -0.2038
 1035SOL    HW1 3212   4.540   0.595   0.956 -0.8139  1.3957 -0.0356
 1035SOL    HW2 3213   4.539   0.642   0.812 -0.5508  1.7079  0.0634
 1036SOL     OW 3214   0.807   5.109   3.283 -0.0430 -0.5296 -0.4863
 1036SOL    HW1 3215   0.740   5.162   3.326 -1.4931 -1.8939 -0.9806
 1036SOL    HW2 3216   0.792   5.020   3.315  2.8342 -0.6293  0.9466
 1037SOL     OW 3217   4.468   1.716   2.701  0.2454 -0.2957 -0.1431
 1037SOL    HW1 3218   4.562   1.708   2.716  0.0119 -2.0112  0.5743
 1037SOL    HW2 3219   4.442   1.635   2.658 -0.7396  0.6408 -1.4029
 1038SOL     OW 3220   0.107   0.172   0.862 -0.2765  0.4029  0.0578
 1038SOL    HW1 3221   0.107   0.262   0.892 -2.2997  0.2046  0.7549
 1038SOL    HW2 3222   0.110   0.119   0.942  0.4702 -0.1821 -0.3286
 1039SOL     OW 3223   3.268   4.653   3.866 -0.2537  0.0811 -0.3656
 1039SOL    HW1 3224   3.334   4.700   3.814 -0.7852  0.9402 -0.2862
 1039SOL    HW2 3225   3.256   4.707   3.944 -1.9809  0.6562 -0.9643
 1040SOL     OW 3226   2.753   0.531   3.802 -0.2354 -0.7642  0.3530
 1040SOL    HW1 3227   2.781   0.440   3.812  0.3212 -0.7140 -0.6145
 1040SOL    HW2 3228   2.788   0.576   3.879  0.3024 -1.1789  0.3522
 1041SOL     OW 3229   2.144   1.419   2.799  0.7291 -0.4092 -0.4237
 1041SOL    HW1 3230   2.237   1.443   2.801  0.5777  0.1881 -0.1631
 1041SOL    HW2 3231   2.112   1.454   2.716 -0.1727  3.0856  1.1956
 1042SOL     OW 3232   0.134   4.684   0.373  0.4400  0.0253 -0.0330
 1042SOL    HW1 3233   0.211   4.741   0.369 -0.0890  0.7917  0.3999
 1042SOL    HW2 3234   0.110   4.671   0.282  0.9910 -0.1048 -0.1667
 1043SOL     OW 3235   2.046   3.783   2.465 -0.1418 -0.0045 -0.6181
 1043SOL    HW1 3236   2.124   3.837   2.472 -1.5064  2.0882 -0.6294
 1043SOL    HW2 3237   2.017   3.771   2.556 -0.6819  0.6128 -0.7017
 1044SOL     OW 3238   1.214   5.229   2.707  0.3544 -0.5340  0.4084
 1044SOL    HW1 3239   1.165   5.287   2.649  0.5909  0.3469  1.0678
 1044SOL    HW2 3240   1.148   5.167   2.739 -0.3023  0.4796  1.0888
 1045SOL     OW 3241   5.279   4.548   0.601  0.5474 -0.4878 -0.5765
 1045SOL    HW1 3242   5.223   4.497   0.659  1.7320 -0.7550  0.3819
 1045SOL    HW2 3243   5.341   4.484   0.566  1.7998  0.1775  0.3244
 1046SOL     OW 3244   0.545   1.286   3.815  0.8699 -0.2866  0.8079
 1046SOL    HW1 3245   0.455   1.319   3.809  0.8808 -0.2914  0.6179
 1046SOL    HW2 3246   0.542   1.223   3.887 -0.0034 -2.5854 -1.1382
 1047SOL     OW 3247   2.219   3.998   2.114  0.4495  0.2405  0.4682
 1047SOL    HW1 3248   2.259   4.059   2.052  0.3294  0.5313  0.6695
 1047SOL    HW2 3249   2.132   3.981   2.078  0.5306  0.0862  0.3452
 1048SOL     OW 3250   0.992   4.614   1.118  0.5820  1.1543 -0.6564
 1048SOL    HW1 3251   0.930   4.625   1.046  0.6815 -1.7980 -1.3400
 1048SOL    HW2 3252   0.938   4.592   1.193  0.6256 -1.4914 -1.2686
 1049SOL     OW 3253   4.849   3.040   1.148 -0.7688 -0.3746 -0.2549
 1049SOL    HW1 3254   4.887   2.963   1.104 -0.0434  0.2313 -0.7164
 1049SOL    HW2 3255   4.755   3.029   1.138 -0.7331 -1.7554  0.6196
 1050SOL     OW 3256   0.589   4.216   0.953  0.0455 -0.5755  0.3063
 1050SOL    HW1 3257   0.535   4.143   0.924  1.0044 -0.6136 -1.5272
 1050SOL    HW2 3258   0.594   4.207   1.048 -2.2525 -1.1733  0.4142
 1051SOL     OW 3259   1.718   5.276   0.761  0.4902  0.4470 -0.4764
 1051SOL    HW1 3260   1.768   5.313   0.833  0.0121  0.0299  0.0799
 1051SOL    HW2 3261   1.627   5.291   0.785  0.3204 -0.0375 -0.8082
 1052SOL     OW 3262   3.043   1.478   2.110 -0.3223  0.2571 -0.2657
 1052SOL    HW1 3263   3.130   1.459   2.144  0.1520  3.7395  0.8265
 1052SOL    HW2 3264   2.984   1.425   2.163  1.0362 -1.6383 -0.5733
 1053SOL     OW 3265   3.455   1.880   2.313  0.2562  0.4158 -0.2722
 1053SOL    HW1 3266   3.517   1.934   2.264 -0.7841 -0.5192 -2.8069
 1053SOL    HW2 3267   3.372   1.927   2.306 -0.0527 -0.0720  0.0596
 1054SOL     OW 3268   3.678   3.147   0.263 -0.1769  0.2648  0.3497
 1054SOL    HW1 3269   3.617   3.112   0.198  0.7252 -0.1436 -0.2985
 1054SOL    HW2 3270   3.763   3.113   0.236  0.1745 -0.2151  1.9624
 1055SOL     OW 3271   2.171   2.380   3.756  0.2427 -0.3946  0.1860
 1055SOL    HW1 3272   2.102   2.341   3.810 -1.0164  0.3529 -0.8354
 1055SOL    HW2 3273   2.124   2.427   3.687  1.7832  0.1460 -0.5354
 1056SOL     OW 3274   3.717   4.744   0.362  0.5124 -0.4005  0.6630
 1056SOL    HW1 3275   3.803   4.768   0.329  0.0398 -0.1268 -0.4173
 1056SOL    HW2 3276   3.730   4.660   0.405  1.0247 -1.1542 -0.8983
 1057SOL     OW 3277   1.996   2.969   2.250  0.2042 -0.1989 -0.1802
 1057SOL    HW1 3278   2.039   2.967   2.335  1.3098 -0.8445 -0.7313
 1057SOL    HW2 3279   1.979   3.062   2.234 -0.0175 -0.0795  0.7436
 1058SOL     OW 3280   3.617   4.535   2.529  0.3587 -0.1623 -0.2473
 1058SOL    HW1 3281   3.614   4.536   2.433 -1.1198 -1.0778 -0.2393
 1058SOL    HW2 3282   3.526   4.549   2.556  0.8350  0.6010  1.0469
 1059SOL     OW 3283   4.406   0.736   0.402  0.0241 -0.5729  0.0253
 1059SOL    HW1 3284   4.438   0.764   0.315  0.7191  1.9272  0.9794
 1059SOL    HW2 3285   4.312   0.751   0.398  0.2492  1.1413  0.1563
 1060SOL     OW 3286   4.580   2.750   3.516  0.4061  0.1083  0.3049
 1060SOL    HW1 3287   4.513   2.813   3.540  0.6347  0.3928  0.2059
 1060SOL    HW2 3288   4.643   2.754   3.588 -0.6804 -1.6280  1.4177
 1061SOL     OW 3289   5.195   4.337   3.811  0.0503  0.8977 -0.3387
 1061SOL    HW1 3290   5.147   4.254   3.817  0.8665  0.4253 -0.2904
 1061SOL    HW2 3291   5.263   4.331   3.878 -0.8970  2.3051  0.8051
 1062SOL     OW 3292   3.707   3.606   1.784 -0.1615 -0.1864  0.1531
 1062SOL    HW1 3293   3.684   3.558   1.705  0.1759  0.4915 -0.3735
 1062SOL    HW2 3294   3.652   3.684   1.782  0.0697 -0.0106  0.4264
 1063SOL     OW 3295   2.409   4.473   1.963 -0.2488 -0.3577 -0.5449
 1063SOL    HW1 3296   2.406   4.499   2.055 -0.7836 -0.2994 -0.5799
 1063SOL    HW2 3297   2.318   4.455   1.939 -0.0275 -1.1016 -0.8541
 1064SOL     OW 3298   3.259   3.950   3.494  0.3908  0.4365 -0.3039
 1064SOL    HW1 3299   3.238   4.004   3.418  1.0993  2.0652  0.6045
 1064SOL    HW2 3300   3.283   4.013   3.562 -0.5610 -0.9399  1.3861
 1065SOL     OW 3301   1.134   0.539   1.109  0.4813 -0.1974 -0.0777
 1065SOL    HW1 3302   1.225   0.526   1.135  1.0079  0.7432 -1.3574
 1065SOL    HW2 3303   1.094   0.587   1.182  1.5621  1.2033 -0.3854
 1066SOL     OW 3304   1.028   1.850   2.567 -0.0579 -0.1531  0.3592
 1066SOL    HW1 3305   1.007   1.789   2.496 -0.7205  0.8610 -0.3396
 1066SOL    HW2 3306   1.026   1.936   2.526 -1.3401  0.5456  1.7953
 1067SOL     OW 3307   2.657   1.642   2.447  0.0519 -0.9884  0.1009
 1067SOL    HW1 3308   2.704   1.717   2.410 -0.6241 -0.4378  0.3422
 1067SOL    HW2 3309   2.680   1.643   2.540 -0.9843 -0.2923  0.3592
 1068SOL     OW 3310   3.145   3.821   0.310 -0.3347 -0.1608  0.3923
 1068SOL    HW1 3311   3.183   3.831   0.398  1.4370 -0.9604 -0.2375
 1068SOL    HW2 3312   3.138   3.726   0.298 -0.2014 -0.0621 -0.4850
 1069SOL     OW 3313   2.725   1.734   2.100  0.1161  0.0277  0.1142
 1069SOL    HW1 3314   2.687   1.650   2.124  0.8106 -0.3701 -0.1632
 1069SOL    HW2 3315   2.749   1.774   2.183 -1.5927  0.6248  0.3498
 1070SOL     OW 3316   4.848   1.121   2.945 -0.0251  0.9854  0.8331
 1070SOL    HW1 3317   4.936   1.086   2.930  0.0084  0.1428  2.7125
 1070SOL    HW2 3318   4.817   1.076   3.024 -2.0301  1.4949  0.4076
 1071SOL     OW 3319   1.537   2.943   2.803  0.4830 -0.4218  0.0403
 1071SOL    HW1 3320   1.615   2.960   2.856  2.6143 -4.2320 -1.4366
 1071SOL    HW2 3321   1.567   2.951   2.712 -1.3755 -0.1026 -0.5801
 1072SOL     OW 3322   0.761   2.075   3.782  0.0435  0.6928 -0.0644
 1072SOL    HW1 3323   0.751   2.169   3.799  0.2164  0.6511  0.2750
 1072SOL    HW2 3324   0.849   2.054   3.814 -0.0763  0.3718  0.0556
 1073SOL     OW 3325   4.080   0.103   2.836 -0.2632  0.1156 -0.6211
 1073SOL    HW1 3326   4.129   0.178   2.801 -1.3132  1.4110  0.5589
 1073SOL    HW2 3327   4.113   0.028   2.786  1.8360  1.1295 -0.8921
 1074SOL     OW 3328   1.432   1.402   0.333  0.0793  0.0213 -0.7797
 1074SOL    HW1 3329   1.419   1.416   0.427  1.1470  0.1767 -0.6393
 1074SOL    HW2 3330   1.468   1.485   0.301  0.0606 -0.1493 -1.2571
 1075SOL     OW 3331   2.121   2.626   1.676 -0.2937 -0.0328  0.1087
 1075SOL    HW1 3332   2.089   2.552   1.624 -2.2587  0.5476  0.4009
 1075SOL    HW2 3333   2.140   2.694   1.611  0.2442 -0.3330 -0.0566
 1076SOL     OW 3334   2.834   3.529   1.125  0.1608  0.3965  0.6281
 1076SOL    HW1 3335   2.805   3.458   1.182  1.4851 -0.4335  0.3222
 1076SOL    HW2 3336   2.855   3.601   1.185 -0.4876  0.2802  1.0016
 1077SOL     OW 3337   3.247   4.753   2.160  0.4812 -0.6971  0.3023
 1077SOL    HW1 3338   3.270   4.690   2.229  0.0307 -0.7921  0.3677
 1077SOL    HW2 3339   3.177   4.805   2.198  0.5057 -0.4860  0.0596
 1078SOL     OW 3340   0.762   2.735   0.709  0.1198  0.2951  0.3673
 1078SOL    HW1 3341   0.684   2.738   0.765  0.8842  0.3429  1.4675
 1078SOL    HW2 3342   0.828   2.783   0.758  1.3657 -1.2504  0.2983
 1079SOL     OW 3343   3.108   4.756   0.517  0.2685  0.2469 -0.7974
 1079SOL    HW1 3344   3.126   4.662   0.517  2.2548  0.3580  3.3911
 1079SOL    HW2 3345   3.016   4.763   0.494 -0.2809 -2.8792 -0.0421
 1080SOL     OW 3346   1.858   2.790   3.903  0.4467  0.0712  0.3157
 1080SOL    HW1 3347   1.898   2.750   3.980 -0.8827  0.7160  1.3848
 1080SOL    HW2 3348   1.783   2.838   3.937  0.9775  2.0521 -1.1225
 1081SOL     OW 3349   5.092   5.238   1.677 -0.1376  0.6266 -0.0533
 1081SOL    HW1 3350   5.116   5.145   1.677  1.8293  1.0075 -2.6607
 1081SOL    HW2 3351   5.116   5.269   1.764  2.1290 -0.6920 -0.1320
 1082SOL     OW 3352   2.576   3.194   1.971  0.3341 -0.4745  0.0006
 1082SOL    HW1 3353   2.486   3.213   1.997  0.2595  0.5858 -0.9456
 1082SOL    HW2 3354   2.627   3.206   2.052 -0.0974  1.1729  0.0739
 1083SOL     OW 3355   3.205   0.993   2.243  0.5343 -0.0070  0.2093
 1083SOL    HW1 3356   3.122   0.974   2.200  1.6141 -0.2228 -1.9119
 1083SOL    HW2 3357   3.195   1.082   2.278 -1.1703 -0.6914  1.6420
 1084SOL     OW 3358   4.602   0.615   2.495 -0.0528 -0.1818  0.0244
 1084SOL    HW1 3359   4.579   0.523   2.486  1.5135 -0.6053  0.0045
 1084SOL    HW2 3360   4.551   0.659   2.427 -2.8803 -0.5867  1.7148
 1085SOL     OW 3361   3.253   2.699   2.312  0.3174 -0.2276 -0.8208
 1085SOL    HW1 3362   3.309   2.776   2.309 -0.9849  0.8243  0.3963
 1085SOL    HW2 3363   3.164   2.734   2.308 -0.3043 -1.6885 -0.3616
 1086SOL     OW 3364   3.115   1.358   1.447 -0.7353 -0.0638  0.6823
 1086SOL    HW1 3365   3.156   1.372   1.362 -2.2435 -0.1087 -0.0938
 1086SOL    HW2 3366   3.121   1.264   1.461 -4.1313 -0.7734 -1.4387
 1087SOL     OW 3367   0.674   4.579   3.244 -0.1804 -0.0526 -0.7535
 1087SOL    HW1 3368   0.590   4.624   3.251 -1.5631 -2.5306 -0.2358
 1087SOL    HW2 3369   0.652   4.487   3.238  2.5529 -0.9601  0.9324
 1088SOL     OW 3370   1.640   1.065   2.335 -0.2387 -0.8360 -0.1825
 1088SOL    HW1 3371   1.634   1.102   2.423  2.6482  0.2825 -0.3464
 1088SOL    HW2 3372   1.726   1.022   2.332 -0.9295 -2.2541 -1.9769
 1089SOL     OW 3373   0.803   2.020   2.117 -0.2214 -0.1452 -0.1170
 1089SOL    HW1 3374   0.721   2.069   2.118  0.7184  1.4672  1.0389
 1089SOL    HW2 3375   0.867   2.078   2.159  1.7417 -0.9924 -1.7954
 1090SOL     OW 3376   2.146   4.544   3.078  0.0490  0.1629 -0.1475
 1090SOL    HW1 3377   2.105   4.625   3.108  0.6720  0.2764  0.4321
 1090SOL    HW2 3378   2.162   4.559   2.985  1.1269  1.1578  0.1604
 1091SOL     OW 3379   3.577   2.207   2.791 -0.2504 -0.0792  0.0783
 1091SOL    HW1 3380   3.658   2.164   2.764 -0.5027  1.0339 -2.8224
 1091SOL    HW2 3381   3.531   2.226   2.709 -2.0212  2.0395  1.4430
 1092SOL     OW 3382   3.424   4.760   3.217  0.4604 -0.1717 -0.4974
 1092SOL    HW1 3383   3.345   4.814   3.206  2.0312  2.5042  0.3454
 1092SOL    HW2 3384   3.449   4.773   3.308  2.4702 -0.0028 -1.0202
 1093SOL     OW 3385   0.702   5.197   1.848  0.1382  0.3022  0.1137
 1093SOL    HW1 3386   0.664   5.284   1.835 -2.6609 -1.0011 -1.3066
 1093SOL    HW2 3387   0.709   5.160   1.760  0.4399 -1.2315  0.7426
 1094SOL     OW 3388   3.401   1.896   0.666  0.0211  0.4000 -0.2071
 1094SOL    HW1 3389   3.472   1.906   0.602 -0.2611 -0.8438 -0.7495
 1094SOL    HW2 3390   3.366   1.808   0.650 -0.8913  0.5454  0.8241
 1095SOL     OW 3391   3.867   3.029   3.075 -0.2461 -0.0546  0.2320
 1095SOL    HW1 3392   3.960   3.031   3.099 -0.1839 -2.5431  0.4081
 1095SOL    HW2 3393   3.824   2.987   3.149 -1.2079 -0.7520 -0.7101
 1096SOL     OW 3394   1.412   4.457   0.859 -0.2300  0.5498  0.2627
 1096SOL    HW1 3395   1.437   4.402   0.933  1.1072  2.2768  1.1452
 1096SOL    HW2 3396   1.319   4.477   0.874 -0.3574 -0.3130  0.6642
 1097SOL     OW 3397   0.707   1.198   3.580 -0.4040  0.0178 -0.5676
 1097SOL    HW1 3398   0.650   1.219   3.654 -2.1404 -0.9936 -1.5655
 1097SOL    HW2 3399   0.795   1.197   3.618 -1.1022  0.7835  1.2031
 1098SOL     OW 3400   0.227   1.657   2.453  1.1836  0.2880  0.0983
 1098SOL    HW1 3401   0.315   1.650   2.415  0.9479 -0.1551 -0.3718
 1098SOL    HW2 3402   0.192   1.568   2.448  0.2890  0.6780 -0.7315
 1099SOL     OW 3403   5.162   1.587   2.216  0.5286 -0.5987  0.5316
 1099SOL    HW1 3404   5.068   1.587   2.234  0.3191 -2.7885 -0.2333
 1099SOL    HW2 3405   5.192   1.673   2.243 -2.3873  1.8084 -3.0026
 1100SOL     OW 3406   1.672   5.459   0.553  0.4523 -0.0454 -0.3936
 1100SOL    HW1 3407   1.702   5.377   0.592 -0.5940  0.4339  1.5629
 1100SOL    HW2 3408   1.700   5.526   0.615 -1.5800  0.7396 -0.2788
 1101SOL     OW 3409   2.552   4.304   2.786 -0.5985  0.5948 -0.0668
 1101SOL    HW1 3410   2.471   4.308   2.836 -1.3575  0.5434 -1.2477
 1101SOL    HW2 3411   2.549   4.380   2.728 -0.4945 -0.1623 -1.1055
 1102SOL     OW 3412   1.635   0.739   0.593 -0.2223  0.4796  0.0346
 1102SOL    HW1 3413   1.625   0.765   0.502 -3.0878  0.2989  0.2166
 1102SOL    HW2 3414   1.675   0.815   0.635 -1.0785  1.5124 -0.9514
 1103SOL     OW 3415   0.852   1.090   1.158 -0.9461 -0.6850 -0.7317
 1103SOL    HW1 3416   0.854   1.182   1.134 -0.2949 -0.6849 -0.7050
 1103SOL    HW2 3417   0.850   1.090   1.254  2.7684 -0.6487 -0.4983
 1104SOL     OW 3418   0.241   0.603   1.183 -0.1800  0.5116  0.0008
 1104SOL    HW1 3419   0.217   0.511   1.172 -0.2834  0.4181  0.9147
 1104SOL    HW2 3420   0.166   0.642   1.228 -0.7466  1.3862 -1.6395
 1105SOL     OW 3421   1.873   5.396   0.054 -0.3422  0.2827 -0.4305
 1105SOL    HW1 3422   1.809   5.413   0.123  0.8622 -0.0262  0.8206
 1105SOL    HW2 3423   1.868   5.473  -0.003 -2.1426  0.0379 -0.6743
 1106SOL     OW 3424   0.471   2.959   3.646 -0.1494  0.1503  0.4192
 1106SOL    HW1 3425   0.421   2.967   3.565  0.3106  0.3096  0.1493
 1106SOL    HW2 3426   0.449   2.872   3.679  2.6383 -1.6232 -1.8960
 1107SOL     OW 3427   4.327   0.778   2.827  0.0422  0.5283  0.1157
 1107SOL    HW1 3428   4.354   0.701   2.777  0.3605  2.2535 -2.5368
 1107SOL    HW2 3429   4.402   0.837   2.825 -0.4301  1.2214  1.4831
 1108SOL     OW 3430   1.291   3.187   3.053  0.4163  0.2724 -0.4890
 1108SOL    HW1 3431   1.220   3.225   3.002 -0.6551 -1.0284 -0.0114
 1108SOL    HW2 3432   1.326   3.261   3.103 -0.6160  0.9287 -0.7090
 1109SOL     OW 3433   5.356   0.405   1.557  0.3069  0.0883  0.0219
 1109SOL    HW1 3434   5.395   0.324   1.588  0.3688 -0.2800 -0.9617
 1109SOL    HW2 3435   5.269   0.380   1.526 -0.2821  0.6884  1.1252
 1110SOL     OW 3436   4.052   4.423   3.478 -0.1629 -0.2782  0.5133
 1110SOL    HW1 3437   3.982   4.362   3.454 -0.6832  0.5642 -0.1897
 1110SOL    HW2 3438   4.045   4.432   3.573  0.3066 -1.7537  0.7074
 1111SOL     OW 3439   3.537   2.791   0.222  0.3519 -0.1198 -0.1385
 1111SOL    HW1 3440   3.631   2.776   0.234  0.2796 -0.6359 -0.1957
 1111SOL    HW2 3441   3.507   2.823   0.307  0.6754  0.5444 -0.2730
 1112SOL     OW 3442   0.090   4.402   2.051  0.2491 -0.4059  0.6068
 1112SOL    HW1 3443   0.022   4.386   2.116  0.0098 -1.3511  0.1420
 1112SOL    HW2 3444   0.079   4.332   1.987  0.8654  0.1600 -0.1384
 1113SOL     OW 3445   2.703   2.402   1.280 -0.3156 -0.2669 -0.2388
 1113SOL    HW1 3446   2.759   2.354   1.340 -0.0252  0.6389  0.2387
 1113SOL    HW2 3447   2.615   2.369   1.297 -0.1691 -0.3516  0.3525
 1114SOL     OW 3448   5.217   2.786   2.836 -0.0776 -0.2524 -0.6448
 1114SOL    HW1 3449   5.220   2.851   2.906 -2.1456 -0.3774 -0.3874
 1114SOL    HW2 3450   5.300   2.796   2.790  1.0490  0.2985  1.3932
 1115SOL     OW 3451   0.846   4.910   1.089  0.5077 -0.2696  0.1616
 1115SOL    HW1 3452   0.817   4.820   1.100  0.1778 -0.3929 -1.5278
 1115SOL    HW2 3453   0.941   4.906   1.093  0.6006 -1.0180 -1.8330
 1116SOL     OW 3454   0.285   0.927   0.013  0.1751  0.1485  0.0525
 1116SOL    HW1 3455   0.341   0.856  -0.019  2.6030  2.5901 -1.5773
 1116SOL    HW2 3456   0.213   0.931  -0.049  0.6023 -0.2177 -0.4839
 1117SOL     OW 3457   1.513   1.156   1.470  0.2552  0.3281  0.4905
 1117SOL    HW1 3458   1.589   1.115   1.510  0.2882 -0.7840 -0.6613
 1117SOL    HW2 3459   1.438   1.115   1.512  0.2910 -0.6634 -0.3895
 1118SOL     OW 3460   5.178   2.578   1.095  0.4758 -0.1856 -0.3715
 1118SOL    HW1 3461   5.128   2.537   1.024  0.9080 -0.3857 -0.5672
 1118SOL    HW2 3462   5.131   2.553   1.175 -1.2613  1.7833 -0.6674
 1119SOL     OW 3463   3.355   3.885   2.819 -0.2521 -0.2144  0.2824
 1119SOL    HW1 3464   3.390   3.796   2.817  1.9039  0.5384  1.3280
 1119SOL    HW2 3465   3.404   3.932   2.752 -0.9218  0.3582  0.1781
 1120SOL     OW 3466   1.709   2.217   3.421  0.5551  0.1142  0.4886
 1120SOL    HW1 3467   1.730   2.130   3.454  0.0796  0.0683  0.6944
 1120SOL    HW2 3468   1.673   2.263   3.498 -2.0194 -0.4796 -0.2410
 1121SOL     OW 3469   3.667   0.717   0.235 -0.0479 -0.2304 -0.3376
 1121SOL    HW1 3470   3.635   0.726   0.325 -1.6899 -0.3998 -0.8850
 1121SOL    HW2 3471   3.596   0.673   0.188  1.0217 -0.6878 -1.5965
 1122SOL     OW 3472   1.694   3.049   0.111  0.7261 -0.3211 -0.0396
 1122SOL    HW1 3473   1.745   3.071   0.189 -1.9637 -2.3163  2.4958
 1122SOL    HW2 3474   1.620   3.110   0.114 -0.8498 -2.1667  0.6695
 1123SOL     OW 3475   0.389   0.378   2.386 -0.6402 -0.0925 -0.1288
 1123SOL    HW1 3476   0.382   0.448   2.321  1.6490  0.4774  0.1539
 1123SOL    HW2 3477   0.318   0.319   2.365 -1.1902  1.1194 -1.8820
 1124SOL     OW 3478   5.058   3.947   0.121  0.1052 -0.3619  0.0255
 1124SOL    HW1 3479   5.031   3.911   0.205 -2.1350 -0.5794 -0.7413
 1124SOL    HW2 3480   5.067   4.041   0.136  0.7283 -0.5245  0.7258
 1125SOL     OW 3481   0.778   1.331   0.954 -0.1715  0.3599  0.3470
 1125SOL    HW1 3482   0.863   1.313   0.994  0.1261 -1.9060 -1.1149
 1125SOL    HW2 3483   0.790   1.414   0.909  1.1389  0.3061  0.5507
 1126SOL     OW 3484   1.645   5.074   0.264 -0.0047 -0.0652  0.0449
 1126SOL    HW1 3485   1.700   5.151   0.252  0.8407 -0.7859 -0.8437
 1126SOL    HW2 3486   1.674   5.036   0.347  0.7943 -0.3939 -0.3762
 1127SOL     OW 3487   4.773   2.024   1.916  0.4108  0.0277  0.0109
 1127SOL    HW1 3488   4.811   2.069   1.991  0.6463 -0.5430  0.2370
 1127SOL    HW2 3489   4.685   1.999   1.945  0.5425 -0.2913  0.1364
 1128SOL     OW 3490   3.174   2.749   1.847 -0.5323 -0.0862  0.4391
 1128SOL    HW1 3491   3.161   2.836   1.884  0.0235  0.9771 -1.6850
 1128SOL    HW2 3492   3.091   2.727   1.806 -0.4667 -0.2717  0.4040
 1129SOL     OW 3493   0.417   2.503   3.001 -0.1754  0.0520 -0.6245
 1129SOL    HW1 3494   0.389   2.457   3.081  2.0332  0.3519  0.3956
 1129SOL    HW2 3495   0.473   2.441   2.956 -1.0963  0.0317 -1.7917
 1130SOL     OW 3496   5.381   2.241   1.684  0.6695 -0.2608 -0.0849
 1130SOL    HW1 3497   5.399   2.324   1.726 -1.0394  0.2829 -0.3550
 1130SOL    HW2 3498   5.373   2.262   1.591  1.5286 -0.9639 -0.3348
 1131SOL     OW 3499   1.846   3.514   2.921  0.3455  0.1234 -0.6196
 1131SOL    HW1 3500   1.763   3.553   2.949  0.4167  1.1166 -1.7594
 1131SOL    HW2 3501   1.848   3.430   2.967 -0.3281  0.9496  1.0090
 1132SOL     OW 3502   3.503   5.184   3.007 -0.2520 -0.0274 -0.2663
 1132SOL    HW1 3503   3.500   5.237   3.086  0.4432  0.1012 -0.3257
 1132SOL    HW2 3504   3.547   5.239   2.942 -0.9192 -0.0871 -0.7819
 1133SOL     OW 3505   0.405   1.320   0.181 -0.2056  0.7566  0.7427
 1133SOL    HW1 3506   0.497   1.345   0.184 -0.6490  2.6657 -0.1467
 1133SOL    HW2 3507   0.403   1.239   0.129  0.7771  1.8598 -1.1064
 1134SOL     OW 3508   1.522   3.989   3.414 -0.3379  0.0780 -0.1048
 1134SOL    HW1 3509   1.536   4.037   3.495  0.0007 -0.4634  0.1607
 1134SOL    HW2 3510   1.434   4.016   3.385 -0.5552  0.1002  0.5553
 1135SOL     OW 3511   4.540   1.796   2.952 -0.1623 -0.1252 -0.7182
 1135SOL    HW1 3512   4.450   1.817   2.977  0.0408  0.3730 -0.3842
 1135SOL    HW2 3513   4.537   1.782   2.858 -0.5258  0.2288 -0.7570
 1136SOL     OW 3514   2.612   5.052   1.906  0.4360  0.1439  0.0997
 1136SOL    HW1 3515   2.676   5.120   1.923  0.7003 -0.2068  0.5137
 1136SOL    HW2 3516   2.619   4.992   1.980  1.2285 -1.1186 -0.9332
 1137SOL     OW 3517   2.487   5.149   0.244  0.1198  0.3035 -0.1095
 1137SOL    HW1 3518   2.574   5.182   0.225 -0.4863  1.3277 -1.2625
 1137SOL    HW2 3519   2.452   5.121   0.160 -1.6356  2.4206 -0.1703
 1138SOL     OW 3520   4.866   0.784   3.640  0.0502 -0.7004  0.3815
 1138SOL    HW1 3521   4.784   0.820   3.605 -0.2282 -1.6890 -0.0210
 1138SOL    HW2 3522   4.908   0.858   3.685  1.2657  1.1841 -3.4240
 1139SOL     OW 3523   3.549   3.062   2.504 -0.2134 -0.3466 -0.4742
 1139SOL    HW1 3524   3.517   3.148   2.531 -0.4136  0.4742 -3.0687
 1139SOL    HW2 3525   3.645   3.070   2.510 -0.2587 -0.5644  0.9160
 1140SOL     OW 3526   5.195   0.143   3.347  0.1560 -0.7561  0.1975
 1140SOL    HW1 3527   5.185   0.237   3.361 -0.4877 -0.7385 -0.3208
 1140SOL    HW2 3528   5.106   0.108   3.356  0.4248 -1.3539  0.6307
 1141SOL     OW 3529   3.870   3.306   1.338 -0.4056 -0.0863 -0.2593
 1141SOL    HW1 3530   3.848   3.268   1.424  0.6953  1.7134  0.8710
 1141SOL    HW2 3531   3.962   3.331   1.346 -0.8135  1.8770 -1.2697
 1142SOL     OW 3532   3.860   1.353   2.733  0.2837 -0.6785  0.6193
 1142SOL    HW1 3533   3.767   1.341   2.751  0.5288 -1.1655  1.6242
 1142SOL    HW2 3534   3.883   1.278   2.678 -0.0054 -0.3132 -0.0146
 1143SOL     OW 3535   4.719   2.396   1.597  0.1014  0.6870 -0.3081
 1143SOL    HW1 3536   4.626   2.375   1.592 -0.0392  1.3263 -0.4783
 1143SOL    HW2 3537   4.721   2.488   1.624  0.6792  0.7880 -0.6834
 1144SOL     OW 3538   2.266   4.230   1.900 -0.1852  0.3035 -0.2117
 1144SOL    HW1 3539   2.180   4.191   1.887  0.5068 -0.6504 -2.2993
 1144SOL    HW2 3540   2.302   4.241   1.812  1.8489  0.6618  0.5974
 1145SOL     OW 3541   0.031   2.574   2.298 -0.2095 -0.0259  0.0097
 1145SOL    HW1 3542   0.014   2.663   2.267 -1.7695 -0.3341 -0.0699
 1145SOL    HW2 3543   0.079   2.587   2.380 -1.2642  0.9260  0.5042
 1146SOL     OW 3544   2.908   2.296   0.157 -0.1953 -0.2662  0.2037
 1146SOL    HW1 3545   2.968   2.228   0.125 -0.2453  0.0248 -0.5410
 1146SOL    HW2 3546   2.949   2.330   0.236  0.9841  0.4050 -0.6719
 1147SOL     OW 3547   2.882   3.688   3.712 -0.8161  0.1540 -0.1032
 1147SOL    HW1 3548   2.859   3.599   3.687 -1.5170 -0.4708  2.4617
 1147SOL    HW2 3549   2.972   3.700   3.683 -0.2304 -1.9147  0.6887
 1148SOL     OW 3550   1.706   2.264   1.152  0.6632 -0.0877 -0.1493
 1148SOL    HW1 3551   1.652   2.213   1.213  1.1203  0.4585  0.7428
 1148SOL    HW2 3552   1.770   2.202   1.119  0.0907 -0.5158 -0.4720
 1149SOL     OW 3553   1.939   1.163   1.560 -0.5526  0.1460  0.3705
 1149SOL    HW1 3554   1.904   1.230   1.500  2.1213  0.4063 -1.0200
 1149SOL    HW2 3555   1.964   1.091   1.502 -2.2636 -1.6466  1.7342
 1150SOL     OW 3556   4.832   4.777   1.465 -0.9396 -0.4188 -0.2054
 1150SOL    HW1 3557   4.822   4.762   1.371 -1.7577 -2.1424  0.1157
 1150SOL    HW2 3558   4.751   4.821   1.491 -1.2612 -1.0555 -0.1113
 1151SOL     OW 3559   5.177   3.270   2.334  0.2513  0.1597 -0.0050
 1151SOL    HW1 3560   5.187   3.362   2.359 -0.8652  0.4551 -0.5973
 1151SOL    HW2 3561   5.160   3.273   2.240  1.7421 -0.7666 -0.3301
 1152SOL     OW 3562   3.256   0.863   2.875 -0.3777  0.2466  0.4309
 1152SOL    HW1 3563   3.252   0.903   2.961  1.2981 -0.2672  0.7784
 1152SOL    HW2 3564   3.303   0.781   2.889 -0.5036 -0.0747 -0.8921
 1153SOL     OW 3565   3.633   1.983   1.064  0.2485  0.0118 -0.0054
 1153SOL    HW1 3566   3.624   1.940   0.979  2.1760  0.7684 -0.6457
 1153SOL    HW2 3567   3.585   2.065   1.054 -0.6998 -0.5102  0.1324
 1154SOL     OW 3568   4.936   2.852   0.829 -0.6981  0.8758 -0.3218
 1154SOL    HW1 3569   4.942   2.773   0.775 -2.5601  0.4590  0.0077
 1154SOL    HW2 3570   4.963   2.823   0.916 -1.1003  0.6521 -0.2663
 1155SOL     OW 3571   2.703   5.249   1.595  0.8135  0.3625 -0.0451
 1155SOL    HW1 3572   2.714   5.340   1.620 -0.1933 -0.0985  2.4003
 1155SOL    HW2 3573   2.752   5.199   1.661  0.4780 -0.8832 -0.6941
 1156SOL     OW 3574   4.795   5.250   2.118  0.1692  1.2462 -0.1776
 1156SOL    HW1 3575   4.707   5.252   2.080  0.0086 -0.7858 -0.0272
 1156SOL    HW2 3576   4.781   5.267   2.212  0.2504  3.3046 -0.4839
 1157SOL     OW 3577   0.834   2.453   3.242  0.3764 -0.1140 -0.4440
 1157SOL    HW1 3578   0.927   2.429   3.242  0.9526  1.9169 -0.8184
 1157SOL    HW2 3579   0.822   2.501   3.160 -1.2084 -0.9953 -0.7561
 1158SOL     OW 3580   3.172   4.153   1.285  0.2108  0.0989 -0.0013
 1158SOL    HW1 3581   3.242   4.196   1.236  0.5253 -0.3434  0.0574
 1158SOL    HW2 3582   3.193   4.060   1.280 -0.1892 -0.0089  0.3068
 1159SOL     OW 3583   1.361   0.993   1.957  0.1905  0.4173 -0.0037
 1159SOL    HW1 3584   1.384   0.940   1.881  1.0087  0.4910  0.1742
 1159SOL    HW2 3585   1.424   1.065   1.956 -0.3589  0.9126  0.2436
 1160SOL     OW 3586   0.307   0.632   0.299  0.2762 -0.3498 -0.6356
 1160SOL    HW1 3587   0.228   0.602   0.253 -0.0644 -0.7865  0.2144
 1160SOL    HW2 3588   0.315   0.573   0.374  2.5150 -1.5948 -1.7560
 1161SOL     OW 3589   5.243   2.927   3.119 -0.3102  0.1880  0.0094
 1161SOL    HW1 3590   5.262   3.021   3.121  1.0846 -0.0763  0.2395
 1161SOL    HW2 3591   5.329   2.885   3.123 -0.7604 -1.1108 -2.2117
 1162SOL     OW 3592   3.095   5.081   2.272  0.0072 -0.1292 -0.3355
 1162SOL    HW1 3593   3.188   5.093   2.253 -0.4933 -0.2012 -3.4363
 1162SOL    HW2 3594   3.080   5.130   2.352  2.3063  1.7416 -0.9348
 1163SOL     OW 3595   0.620   0.109   0.151  0.4978 -0.3076  0.1922
 1163SOL    HW1 3596   0.568   0.140   0.225 -1.7820 -1.9212 -0.6339
 1163SOL    HW2 3597   0.636   0.016   0.170  2.0942 -0.1379 -0.1657
 1164SOL     OW 3598   0.215   1.513   0.187 -0.6556  0.0430  0.3919
 1164SOL    HW1 3599   0.286   1.448   0.186 -0.7993 -0.1592  1.8818
 1164SOL    HW2 3600   0.136   1.462   0.171 -0.6964 -0.0571  0.9040
 1165SOL     OW 3601   1.948   2.215   1.880 -0.5160 -0.2848 -0.0002
 1165SOL    HW1 3602   1.953   2.245   1.789  0.4545 -1.8542 -0.4873
 1165SOL    HW2 3603   1.857   2.233   1.905 -0.2796  2.0836 -0.5559
 1166SOL     OW 3604   0.801   4.518   1.811  0.3795  0.4107 -0.5444
 1166SOL    HW1 3605   0.780   4.430   1.778  1.0480  0.2182 -0.4756
 1166SOL    HW2 3606   0.784   4.513   1.905  0.6144  0.2933 -0.5080
 1167SOL     OW 3607   3.938   1.331   2.396 -0.4415  0.4777  0.1643
 1167SOL    HW1 3608   3.890   1.279   2.460  0.5613 -0.2855  0.3302
 1167SOL    HW2 3609   3.959   1.268   2.326  1.1541  0.5412  0.5659
 1168SOL     OW 3610   1.564   2.480   1.860 -0.2794 -0.2001 -0.3569
 1168SOL    HW1 3611   1.640   2.515   1.814 -1.0320 -0.1414 -1.6008
 1168SOL    HW2 3612   1.510   2.557   1.880 -0.1753 -0.2737  0.2388
 1169SOL     OW 3613   4.372   1.355   2.989  0.2044  0.2572 -0.1979
 1169SOL    HW1 3614   4.423   1.274   2.995  1.4280  1.0714  0.8561
 1169SOL    HW2 3615   4.307   1.337   2.922  0.6543 -1.4942 -0.2087
 1170SOL     OW 3616   5.048   0.811   2.432  0.3109  0.4143 -0.0934
 1170SOL    HW1 3617   5.026   0.724   2.398  2.0369  0.0048 -0.2223
 1170SOL    HW2 3618   5.035   0.870   2.358  0.7847  0.0147 -0.4969
 1171SOL     OW 3619   3.633   0.629   0.730 -0.4528  0.0005 -0.5291
 1171SOL    HW1 3620   3.725   0.625   0.756 -0.7757 -0.1651  0.6471
 1171SOL    HW2 3621   3.609   0.539   0.710 -1.0620 -0.4019  1.7985
 1172SOL     OW 3622   4.016   1.173   0.904  0.4421 -0.2857 -0.8626
 1172SOL    HW1 3623   4.029   1.079   0.907  3.3874  0.0321 -1.0533
 1172SOL    HW2 3624   4.044   1.204   0.990  1.1551  0.5660 -1.3912
 1173SOL     OW 3625   2.007   5.269   3.063 -0.5207 -0.1911  0.7661
 1173SOL    HW1 3626   2.094   5.266   3.101  0.7479 -0.7607 -1.9503
 1173SOL    HW2 3627   1.987   5.362   3.055  0.7454  0.0071 -0.4130
 1174SOL     OW 3628   3.720   3.280   3.149 -0.3098  0.0730  0.5262
 1174SOL    HW1 3629   3.695   3.273   3.057  1.4170 -0.6435  0.0703
 1174SOL    HW2 3630   3.719   3.189   3.181  1.2907  0.0455  0.5651
 1175SOL     OW 3631   0.027   3.521   1.612  0.0344 -0.4385 -0.0155
 1175SOL    HW1 3632  -0.015   3.437   1.593 -0.2219 -0.6720  1.4676
 1175SOL    HW2 3633   0.115   3.498   1.642  0.4239 -0.0915 -0.8779
 1176SOL     OW 3634   5.119   2.970   0.095  0.3227 -0.0726 -0.2731
 1176SOL    HW1 3635   5.072   2.943   0.016 -0.0062  2.0004 -0.8640
 1176SOL    HW2 3636   5.109   2.897   0.155 -3.2922 -0.0194 -0.5549
 1177SOL     OW 3637   3.728   4.757   3.410  0.2772  0.0129  0.5253
 1177SOL    HW1 3638   3.810   4.804   3.393 -0.5977  1.1110 -0.8989
 1177SOL    HW2 3639   3.670   4.823   3.449 -0.4640 -0.3108 -0.0102
 1178SOL     OW 3640   5.151   3.889   2.838  0.1227 -0.5775 -0.0296
 1178SOL    HW1 3641   5.246   3.902   2.843  0.1362 -1.1610  1.8267
 1178SOL    HW2 3642   5.115   3.954   2.899 -0.8820  1.1026 -2.2498
 1179SOL     OW 3643   2.599   4.322   0.158  0.1050 -0.5472 -0.2868
 1179SOL    HW1 3644   2.575   4.237   0.196  1.8228 -0.3814  1.3039
 1179SOL    HW2 3645   2.596   4.383   0.232 -1.5079  0.9201 -1.4764
 1180SOL     OW 3646   1.083   0.452   2.915  0.1010  0.4862  0.0971
 1180SOL    HW1 3647   1.063   0.488   2.828  0.4000 -0.3982 -0.3600
 1180SOL    HW2 3648   1.020   0.381   2.927  0.2058  0.4593  0.5018
 1181SOL     OW 3649   2.241   5.483   1.849 -0.4979  0.0214  0.0706
 1181SOL    HW1 3650   2.297   5.557   1.828 -1.2142  0.5042 -0.1892
 1181SOL    HW2 3651   2.298   5.406   1.842  0.5117  0.6190  1.3404
 1182SOL     OW 3652   0.693   3.994   0.268  0.3516  0.2720 -0.6708
 1182SOL    HW1 3653   0.752   3.919   0.280  1.1243  1.0492  0.5102
 1182SOL    HW2 3654   0.751   4.069   0.261 -0.4273  0.8093 -1.7267
 1183SOL     OW 3655   3.505   1.331   1.748 -0.2067  0.6524  0.4400
 1183SOL    HW1 3656   3.562   1.270   1.701 -1.9030  0.2974 -1.3023
 1183SOL    HW2 3657   3.501   1.408   1.693 -0.5489  1.1049  1.0872
 1184SOL     OW 3658   0.100   5.157   2.559 -0.3994  0.6491  0.7417
 1184SOL    HW1 3659   0.091   5.228   2.623 -1.1984  2.1943 -1.0016
 1184SOL    HW2 3660   0.020   5.162   2.507  0.1124 -0.7374 -0.2195
 1185SOL     OW 3661   4.532   1.621   1.850  0.0641  0.3644 -0.3499
 1185SOL    HW1 3662   4.588   1.558   1.804 -0.4937  0.0923 -0.6659
 1185SOL    HW2 3663   4.516   1.690   1.786 -0.3050  0.2337 -0.3986
 1186SOL     OW 3664   1.167   5.271   1.857  0.3581 -0.6307 -0.1080
 1186SOL    HW1 3665   1.246   5.217   1.864 -0.5207 -1.8486  1.0056
 1186SOL    HW2 3666   1.152   5.279   1.763  2.3637  0.5305 -0.4030
 1187SOL     OW 3667   4.638   5.473   1.080  0.0246 -0.1058 -0.0498
 1187SOL    HW1 3668   4.699   5.417   1.032  1.5351  1.5305 -0.1259
 1187SOL    HW2 3669   4.686   5.555   1.094 -2.3997  1.5529 -0.7655
 1188SOL     OW 3670   0.477   1.524   3.511 -0.1431 -0.1723  0.1452
 1188SOL    HW1 3671   0.454   1.452   3.452  1.1162  0.4006 -1.1000
 1188SOL    HW2 3672   0.398   1.578   3.515 -0.6007 -0.8065 -0.1231
 1189SOL     OW 3673   4.579   2.856   1.892  0.1868  0.1834 -0.1477
 1189SOL    HW1 3674   4.548   2.778   1.846  1.0659  0.7344 -1.7350
 1189SOL    HW2 3675   4.667   2.832   1.921  0.7017  0.7707 -1.1792
 1190SOL     OW 3676   1.362   3.395   1.707  0.1349 -0.2319  0.3019
 1190SOL    HW1 3677   1.319   3.319   1.667  2.2247 -1.5831  0.4342
 1190SOL    HW2 3678   1.348   3.466   1.644 -0.1134 -1.2677 -0.8621
 1191SOL     OW 3679   3.311   4.673   3.564 -0.0831  0.3930  0.4008
 1191SOL    HW1 3680   3.266   4.729   3.502  0.6371  1.2201  0.6030
 1191SOL    HW2 3681   3.243   4.643   3.624 -0.4646  1.1600  0.3605
 1192SOL     OW 3682   5.513   1.599   3.700  0.1602  0.1272 -0.5277
 1192SOL    HW1 3683   5.585   1.553   3.656 -0.0962  0.6268 -1.5048
 1192SOL    HW2 3684   5.556   1.669   3.749  0.4475 -0.4215  0.0240
 1193SOL     OW 3685   1.977   1.300   1.161  0.1860 -0.0452  0.5748
 1193SOL    HW1 3686   1.940   1.294   1.073 -1.3526 -1.5413  1.2647
 1193SOL    HW2 3687   1.965   1.392   1.186 -1.4363 -0.0864  0.0597
 1194SOL     OW 3688   1.585   1.792   1.405 -0.0025  0.4854 -0.0184
 1194SOL    HW1 3689   1.533   1.714   1.384  2.7095 -1.5858  0.4033
 1194SOL    HW2 3690   1.576   1.802   1.499  0.5973 -0.1037  0.1117
 1195SOL     OW 3691   1.390   0.997   0.716 -0.8221 -0.0739 -0.0544
 1195SOL    HW1 3692   1.411   1.087   0.740 -0.2335 -0.2692  0.1659
 1195SOL    HW2 3693   1.471   0.962   0.679 -1.2958 -0.2471 -0.9491
 1196SOL     OW 3694   1.701   5.521   1.239 -0.4119 -0.0794 -0.5465
 1196SOL    HW1 3695   1.657   5.534   1.323 -0.6769  0.1775 -0.7265
 1196SOL    HW2 3696   1.727   5.429   1.240  1.8111  0.4838  0.8948
 1197SOL     OW 3697   0.187   2.633   0.808  0.2345  0.8134  0.8803
 1197SOL    HW1 3698   0.261   2.600   0.757 -0.9114 -0.9647  0.2740
 1197SOL    HW2 3699   0.228   2.688   0.875  2.1043 -0.0381  0.5263
 1198SOL     OW 3700   4.154   0.367   1.840  0.1449 -0.0528  0.1697
 1198SOL    HW1 3701   4.126   0.296   1.898 -0.0382 -0.4520 -0.4015
 1198SOL    HW2 3702   4.205   0.324   1.771 -0.0625  0.3550 -0.2465
 1199SOL     OW 3703   0.385   1.685   0.326 -0.2794 -0.2163 -0.6986
 1199SOL    HW1 3704   0.300   1.644   0.312  0.0399 -1.3428  0.4566
 1199SOL    HW2 3705   0.425   1.635   0.397  1.1146  0.6545 -0.8166
 1200SOL     OW 3706   2.096   5.416   2.087  0.4269  0.0523  0.1332
 1200SOL    HW1 3707   2.052   5.498   2.111 -0.6680 -0.5028  0.0602
 1200SOL    HW2 3708   2.145   5.438   2.008  0.8875  0.8668  0.6284
 1201SOL     OW 3709   2.009   2.429   1.550 -0.0497 -0.0634  0.2923
 1201SOL    HW1 3710   1.977   2.464   1.467 -0.0233  0.2129  0.3967
 1201SOL    HW2 3711   2.099   2.402   1.531 -0.1088 -0.1831  0.1815
 1202SOL     OW 3712   1.414   0.394   0.918 -0.3892 -0.1031  0.4051
 1202SOL    HW1 3713   1.379   0.306   0.903  0.8172 -0.9867  2.4484
 1202SOL    HW2 3714   1.393   0.413   1.009  1.5156  0.6906  0.7228
 1203SOL     OW 3715   3.272   5.291   1.536 -0.5026 -0.1990  0.4453
 1203SOL    HW1 3716   3.278   5.294   1.631 -2.8071  0.2336  0.6312
 1203SOL    HW2 3717   3.182   5.264   1.518 -0.2650  0.1883 -1.6205
 1204SOL     OW 3718   4.932   2.336   2.806  0.3276 -0.1220  0.7299
 1204SOL    HW1 3719   4.995   2.396   2.846 -1.0402  0.2610  2.4476
 1204SOL    HW2 3720   4.906   2.380   2.725  2.5420 -0.5107 -0.2622
 1205SOL     OW 3721   3.528   5.361   2.569 -0.0498 -0.4234 -0.1074
 1205SOL    HW1 3722   3.476   5.433   2.605 -0.8027  0.3938 -2.6624
 1205SOL    HW2 3723   3.619   5.390   2.580 -0.2654 -0.0079  0.6815
 1206SOL     OW 3724   4.629   0.431   1.544  0.2209  0.1800 -0.1667
 1206SOL    HW1 3725   4.630   0.447   1.450  2.9648 -1.5552 -0.5619
 1206SOL    HW2 3726   4.698   0.487   1.579 -0.3955  0.3947  0.7479
 1207SOL     OW 3727   2.790   4.275   0.393 -0.1630 -0.1453 -0.0990
 1207SOL    HW1 3728   2.852   4.237   0.332 -0.9759 -0.0625 -0.9982
 1207SOL    HW2 3729   2.707   4.231   0.374 -0.5095  0.1300  0.7073
 1208SOL     OW 3730   4.306   2.938   0.087 -0.4848 -0.1951 -0.4955
 1208SOL    HW1 3731   4.390   2.915   0.128 -0.6810 -1.2461 -0.6563
 1208SOL    HW2 3732   4.259   2.985   0.156  0.4281  0.8634 -0.5679
 1209SOL     OW 3733   3.432   3.413   3.427  0.0676  0.5165  0.1697
 1209SOL    HW1 3734   3.403   3.467   3.500 -1.4477 -0.5527  0.4136
 1209SOL    HW2 3735   3.465   3.333   3.467  0.1975  0.3410 -0.2787
 1210SOL     OW 3736   0.828   0.154   2.097  0.0410  0.1758 -0.3194
 1210SOL    HW1 3737   0.791   0.221   2.154 -0.2329  1.6711 -2.1735
 1210SOL    HW2 3738   0.754   0.100   2.070 -0.4372  1.5854 -1.9617
 1211SOL     OW 3739   5.423   2.523   1.242  0.4115 -0.0369  0.4100
 1211SOL    HW1 3740   5.457   2.611   1.230  3.4753 -1.1417  0.0286
 1211SOL    HW2 3741   5.350   2.517   1.180  1.4603  1.5856 -1.0802
 1212SOL     OW 3742   4.062   2.040   0.670  0.2985  0.3160  0.2419
 1212SOL    HW1 3743   4.065   2.001   0.582 -0.2243 -0.3639  0.5141
 1212SOL    HW2 3744   4.036   2.131   0.655 -0.5995 -0.0059 -0.2645
 1213SOL     OW 3745   2.652   4.008   1.615  0.1725 -1.1163  0.2464
 1213SOL    HW1 3746   2.658   4.079   1.551  1.9374 -0.5517  0.9675
 1213SOL    HW2 3747   2.658   4.051   1.700  0.1500 -2.0271  0.7254
 1214SOL     OW 3748   4.552   2.885   2.729 -0.9257 -0.6827 -0.1918
 1214SOL    HW1 3749   4.630   2.899   2.675 -0.9358 -0.7662 -0.2277
 1214SOL    HW2 3750   4.574   2.810   2.784 -0.7567 -0.3332  0.2193
 1215SOL     OW 3751   3.069   4.925   0.301  0.2589 -0.5612  0.2241
 1215SOL    HW1 3752   2.985   4.881   0.286  0.6910 -1.0693 -0.8086
 1215SOL    HW2 3753   3.119   4.865   0.356 -0.4100  0.1981  1.7146
 1216SOL     OW 3754   1.785   3.059   3.356 -0.2197  0.1973  0.1109
 1216SOL    HW1 3755   1.822   3.140   3.392  0.6922  0.4858 -1.3922
 1216SOL    HW2 3756   1.690   3.074   3.356 -0.0748  1.1949  0.0072
 1217SOL     OW 3757   3.642   4.921   1.976 -0.1727  0.2573  0.0251
 1217SOL    HW1 3758   3.725   4.878   1.956 -0.8889 -1.4661  0.5225
 1217SOL    HW2 3759   3.586   4.850   2.007 -1.1176  1.7525  1.9035
 1218SOL     OW 3760   4.249   0.688   1.068 -0.7581  0.1648  0.0487
 1218SOL    HW1 3761   4.316   0.677   1.135  0.3934  1.0204 -0.9165
 1218SOL    HW2 3762   4.285   0.754   1.009 -1.6995 -0.6323 -1.4726
 1219SOL     OW 3763   3.433   4.492   1.897  0.4886  0.8109 -0.0707
 1219SOL    HW1 3764   3.390   4.415   1.935  0.6875 -0.6694 -2.5725
 1219SOL    HW2 3765   3.365   4.535   1.845  0.9475  0.9110 -0.6115
 1220SOL     OW 3766   3.992   5.371   0.307  0.5968 -0.3888 -0.5826
 1220SOL    HW1 3767   4.023   5.441   0.365  0.6915  0.8585 -2.0759
 1220SOL    HW2 3768   3.931   5.415   0.248  0.3285 -1.6782 -1.2882
 1221SOL     OW 3769   1.909   4.026   0.167  0.3508 -0.2632  0.0707
 1221SOL    HW1 3770   1.848   4.040   0.239  1.6384  0.7733  1.0182
 1221SOL    HW2 3771   1.871   4.074   0.093 -0.7392 -0.9298  0.1827
 1222SOL     OW 3772   1.586   2.375   0.904  0.5144  0.0286  0.5890
 1222SOL    HW1 3773   1.541   2.437   0.962  2.2742  0.5756  1.4224
 1222SOL    HW2 3774   1.623   2.310   0.962  1.0439 -0.2634 -0.0624
 1223SOL     OW 3775   0.115   3.401   3.095  0.1305 -0.1946 -0.3181
 1223SOL    HW1 3776   0.114   3.327   3.034 -0.6819  0.3041 -0.9367
 1223SOL    HW2 3777   0.085   3.475   3.043  0.5614  0.4971  0.3961
 1224SOL     OW 3778   1.198   4.780   3.759  0.1763 -0.0521 -0.6324
 1224SOL    HW1 3779   1.193   4.863   3.712 -2.1415 -0.1161 -0.6434
 1224SOL    HW2 3780   1.198   4.713   3.690  0.1526 -0.0852 -0.6004
 1225SOL     OW 3781   2.961   3.075   2.888 -0.3631  0.0777 -0.6929
 1225SOL    HW1 3782   3.009   3.025   2.954 -1.6582  0.7731  0.8315
 1225SOL    HW2 3783   2.884   3.022   2.869 -0.5228  0.3650 -0.8569
 1226SOL     OW 3784   0.978   2.070   3.573 -0.3670  0.1667 -0.0334
 1226SOL    HW1 3785   0.904   2.089   3.514  0.3003  1.2324 -0.5600
 1226SOL    HW2 3786   0.963   1.980   3.602 -0.8499 -0.3059 -1.6519
 1227SOL     OW 3787   0.921   4.475   3.355 -0.1315 -0.2295  0.5633
 1227SOL    HW1 3788   0.845   4.514   3.313  0.6133 -0.0609 -0.6909
 1227SOL    HW2 3789   0.887   4.398   3.400 -0.9295 -0.6246 -0.6623
 1228SOL     OW 3790   0.950   2.191   1.126  0.6092 -0.0290 -0.1072
 1228SOL    HW1 3791   1.040   2.156   1.131 -0.1363 -2.0766  0.1282
 1228SOL    HW2 3792   0.898   2.127   1.175 -1.0433  0.9260 -0.5702
 1229SOL     OW 3793   3.488   0.341   3.728 -0.2752 -0.3046 -0.2806
 1229SOL    HW1 3794   3.575   0.300   3.733 -0.6116 -1.2435 -1.5605
 1229SOL    HW2 3795   3.496   0.420   3.780  1.0214 -0.9543  0.5635
 1230SOL     OW 3796   2.921   3.135   0.264 -0.2005  0.4093  0.4517
 1230SOL    HW1 3797   2.967   3.142   0.348  1.2119  0.1838 -0.2774
 1230SOL    HW2 3798   2.845   3.080   0.283 -0.1772  0.7769  1.6929
 1231SOL     OW 3799   4.171   1.550   1.682  0.0201 -0.4399 -0.5774
 1231SOL    HW1 3800   4.241   1.500   1.639 -0.9313 -1.3027 -1.1628
 1231SOL    HW2 3801   4.161   1.628   1.627  1.1376  0.1566  0.0312
 1232SOL     OW 3802   2.461   0.973   3.938  0.5674  0.3965 -0.1779
 1232SOL    HW1 3803   2.384   1.029   3.951  0.1840 -0.1394 -0.1031
 1232SOL    HW2 3804   2.429   0.902   3.882  0.6048 -0.6596  1.0926
 1233SOL     OW 3805   2.157   4.320   3.915  0.1460  0.2012 -0.3702
 1233SOL    HW1 3806   2.239   4.297   3.872  0.1332 -1.6469  0.4892
 1233SOL    HW2 3807   2.170   4.296   4.006 -0.8993  1.1483  0.0567
 1234SOL     OW 3808   5.411   5.210   0.127 -0.4561 -0.3923 -0.2641
 1234SOL    HW1 3809   5.474   5.272   0.165 -1.3362 -0.1664  0.8957
 1234SOL    HW2 3810   5.360   5.263   0.066  0.6297 -0.6381 -1.4210
 1235SOL     OW 3811   3.290   2.457   2.460 -0.5469  0.0394  0.3241
 1235SOL    HW1 3812   3.196   2.448   2.470 -0.3905 -0.2877  1.7700
 1235SOL    HW2 3813   3.301   2.533   2.403 -1.6713  0.5303  0.7340
 1236SOL     OW 3814   4.659   0.592   3.755  0.0001  0.5364  0.1946
 1236SOL    HW1 3815   4.743   0.619   3.718 -0.0681  0.5933  0.0790
 1236SOL    HW2 3816   4.630   0.520   3.699  1.7730 -2.1312  2.4511
 1237SOL     OW 3817   3.100   0.598   1.866 -0.6228  0.0781 -0.3264
 1237SOL    HW1 3818   3.143   0.632   1.788  1.1825 -0.6055  0.3149
 1237SOL    HW2 3819   3.130   0.655   1.937 -1.6446  0.2388 -0.0043
 1238SOL     OW 3820   2.185   1.474   3.235  0.2521  0.1440 -0.1450
 1238SOL    HW1 3821   2.222   1.492   3.321 -0.3283 -1.8715  0.5749
 1238SOL    HW2 3822   2.257   1.489   3.174  0.4205  2.5220  0.5264
 1239SOL     OW 3823   4.246   2.018   1.426 -0.1751  0.0196 -0.0941
 1239SOL    HW1 3824   4.282   1.941   1.383 -0.2984 -0.2981  0.3712
 1239SOL    HW2 3825   4.197   2.063   1.357 -0.9561 -0.8533 -0.1170
 1240SOL     OW 3826   5.470   1.524   2.572 -0.2942  0.0752 -0.2811
 1240SOL    HW1 3827   5.501   1.512   2.482  1.9211 -0.2946  0.4654
 1240SOL    HW2 3828   5.479   1.438   2.612  1.7308  0.8768  1.1161
 1241SOL     OW 3829   4.291   4.682   3.125 -0.3364 -0.7439  0.3112
 1241SOL    HW1 3830   4.235   4.696   3.049 -0.4390  0.8876  0.6527
 1241SOL    HW2 3831   4.231   4.673   3.199 -0.1980 -0.8844  0.4092
 1242SOL     OW 3832   0.737   5.021   0.225 -0.4126 -0.1218 -0.0568
 1242SOL    HW1 3833   0.780   5.079   0.287  1.6259  0.0304 -1.5236
 1242SOL    HW2 3834   0.643   5.041   0.234  0.0017  1.2554  1.5442
 1243SOL     OW 3835   1.963   4.322   0.296  0.0557 -0.6765 -0.7269
 1243SOL    HW1 3836   1.892   4.258   0.298 -2.1560  1.5716  1.9304
 1243SOL    HW2 3837   1.962   4.357   0.206  0.9317 -3.7389 -2.0518
 1244SOL     OW 3838   2.260   2.207   0.202 -0.0536 -0.5153 -0.2552
 1244SOL    HW1 3839   2.207   2.128   0.210 -1.0632  0.2455  0.9414
 1244SOL    HW2 3840   2.301   2.217   0.288  1.3226 -0.5701 -0.8705
 1245SOL     OW 3841   5.272   3.585   1.002 -0.0891 -0.2508 -0.0051
 1245SOL    HW1 3842   5.203   3.639   1.042 -1.0978 -1.0467 -0.6049
 1245SOL    HW2 3843   5.298   3.633   0.924  0.7507  0.5294  0.7371
 1246SOL     OW 3844   3.990   2.547   2.369 -0.2738 -0.0422 -0.1288
 1246SOL    HW1 3845   3.902   2.580   2.355 -1.2072 -1.4253  1.8940
 1246SOL    HW2 3846   3.977   2.459   2.405  1.8039  0.5344  2.3647
 1247SOL     OW 3847   2.029   1.694   3.257  0.2516 -0.7444  0.7352
 1247SOL    HW1 3848   1.971   1.693   3.181  2.0256  0.0723 -0.7127
 1247SOL    HW2 3849   2.078   1.612   3.252  1.3681 -0.0734  0.1260
 1248SOL     OW 3850   0.325   4.048   2.492 -0.7235 -0.0665 -0.4863
 1248SOL    HW1 3851   0.280   4.050   2.577  0.4541  1.5471  0.1582
 1248SOL    HW2 3852   0.283   4.117   2.441 -0.1242  0.3223 -0.4702
 1249SOL     OW 3853   2.015   2.881   2.749 -0.2389  0.3576 -0.2298
 1249SOL    HW1 3854   2.077   2.828   2.699  0.5765  1.5096 -0.4832
 1249SOL    HW2 3855   1.993   2.827   2.825 -1.3984 -1.3882 -1.7139
 1250SOL     OW 3856   2.940   2.139   3.154 -0.5298 -0.5401  0.2478
 1250SOL    HW1 3857   2.927   2.222   3.109 -1.9399 -0.0457  1.4919
 1250SOL    HW2 3858   3.033   2.121   3.146 -0.1974  1.1800 -0.0124
 1251SOL     OW 3859   4.586   3.832   2.323 -0.2892  0.0327 -0.1104
 1251SOL    HW1 3860   4.675   3.855   2.296 -0.0771  0.4224  0.8509
 1251SOL    HW2 3861   4.592   3.825   2.419 -1.6770  1.8603  0.1753
 1252SOL     OW 3862   0.742   3.237   3.403  0.1538  0.1660  0.0099
 1252SOL    HW1 3863   0.667   3.279   3.445  0.6248 -0.5135  1.6434
 1252SOL    HW2 3864   0.811   3.303   3.405 -0.0763  0.4228 -0.4844
 1253SOL     OW 3865   0.877   3.594   3.775 -0.8192 -0.0905  0.1222
 1253SOL    HW1 3866   0.848   3.506   3.800 -0.0840  0.3406  2.7728
 1253SOL    HW2 3867   0.957   3.609   3.827 -0.3267  1.7462 -1.0642
 1254SOL     OW 3868   5.153   5.547   0.293 -0.4919  0.1378 -0.3903
 1254SOL    HW1 3869   5.174   5.454   0.292  3.4192  0.7493  1.5956
 1254SOL    HW2 3870   5.205   5.584   0.222 -1.9770  0.8622 -1.1380
 1255SOL     OW 3871   4.142   4.996   0.594  0.2228 -0.5209  0.1429
 1255SOL    HW1 3872   4.049   5.012   0.578  0.2352  0.4729  0.9397
 1255SOL    HW2 3873   4.145   4.908   0.632 -0.6785  0.2877  2.2788
 1256SOL     OW 3874   2.421   4.102   0.939  0.0342  0.3999 -0.5787
 1256SOL    HW1 3875   2.404   4.195   0.925  0.8627  0.9025  1.3669
 1256SOL    HW2 3876   2.383   4.084   1.025  1.7464 -0.5002  0.0455
 1257SOL     OW 3877   4.736   3.552   3.924 -0.4538 -0.5094 -0.4821
 1257SOL    HW1 3878   4.795   3.581   3.854 -0.0416  1.2727  0.5479
 1257SOL    HW2 3879   4.790   3.497   3.980 -0.3237 -0.5214 -0.6181
 1258SOL     OW 3880   0.013   4.429   3.218  0.0250 -0.6526  0.5461
 1258SOL    HW1 3881  -0.021   4.495   3.278 -0.6571 -1.3987  1.0022
 1258SOL    HW2 3882  -0.045   4.354   3.229 -0.3128 -0.7206 -1.2498
 1259SOL     OW 3883   0.066   2.338   3.860 -0.0583  0.3462 -0.2322
 1259SOL    HW1 3884  -0.006   2.315   3.919  0.0740  0.2994 -0.0858
 1259SOL    HW2 3885   0.145   2.316   3.910  0.0770  1.1544 -0.0667
 1260SOL     OW 3886   4.704   4.472   2.209 -0.1248  0.2440  0.5669
 1260SOL    HW1 3887   4.697   4.390   2.257 -0.6163  2.1231  4.0365
 1260SOL    HW2 3888   4.777   4.459   2.148  1.1554 -2.0818  2.4620
 1261SOL     OW 3889   0.882   4.700   3.596 -0.4129 -0.1931 -0.0633
 1261SOL    HW1 3890   0.850   4.627   3.650 -1.2162  1.0214  1.1695
 1261SOL    HW2 3891   0.970   4.672   3.568  1.0466 -0.0165  3.7520
 1262SOL     OW 3892   1.812   0.391   3.272 -0.4512 -0.3383 -0.3502
 1262SOL    HW1 3893   1.857   0.475   3.266 -0.9034 -0.1001 -0.4865
 1262SOL    HW2 3894   1.854   0.346   3.345 -0.7401  0.3327  0.2439
 1263SOL     OW 3895   2.446   1.003   3.595  0.1451  0.3335 -0.0248
 1263SOL    HW1 3896   2.367   0.983   3.646 -0.1158 -0.0854 -0.5894
 1263SOL    HW2 3897   2.428   1.087   3.554 -1.1096 -0.9178 -2.2583
 1264SOL     OW 3898   5.548   2.589   3.482 -0.0724  0.3048  0.0759
 1264SOL    HW1 3899   5.576   2.648   3.412 -0.1257 -1.1794 -1.2304
 1264SOL    HW2 3900   5.622   2.587   3.542  0.4753  0.6161 -0.5751
 1265SOL     OW 3901   2.816   2.072   2.770 -0.3429  0.1969 -0.1646
 1265SOL    HW1 3902   2.858   2.041   2.690 -0.5646  0.0895 -0.2382
 1265SOL    HW2 3903   2.805   2.166   2.756 -0.3490  0.1842 -0.2437
 1266SOL     OW 3904   0.385   0.622   2.214 -0.4706  0.7073  0.0304
 1266SOL    HW1 3905   0.459   0.671   2.178  0.0132 -0.5950 -0.8282
 1266SOL    HW2 3906   0.383   0.541   2.163 -0.3913 -0.7819  2.2671
 1267SOL     OW 3907   4.821   1.923   2.889 -0.1573  0.1952 -0.8549
 1267SOL    HW1 3908   4.798   1.831   2.899 -0.5784  0.4513  0.8074
 1267SOL    HW2 3909   4.815   1.939   2.795  2.1447 -2.0189 -1.4771
 1268SOL     OW 3910   2.316   5.105   0.440  0.1747  0.3319 -0.5060
 1268SOL    HW1 3911   2.365   5.141   0.367 -2.9432 -0.5642 -3.2749
 1268SOL    HW2 3912   2.317   5.010   0.426  2.2028 -0.2703  2.5962
 1269SOL     OW 3913   3.443   3.957   1.185  0.2162 -0.7405  0.7061
 1269SOL    HW1 3914   3.373   3.958   1.120  0.3768  1.2431  0.4914
 1269SOL    HW2 3915   3.515   4.003   1.142  1.0696 -1.2692  1.5444
 1270SOL     OW 3916   0.759   0.252   3.497 -0.2633  0.1618 -0.3079
 1270SOL    HW1 3917   0.726   0.179   3.549 -1.6517  0.9012 -0.0929
 1270SOL    HW2 3918   0.696   0.261   3.426  0.6237  0.3188 -1.1017
 1271SOL     OW 3919   3.346   0.673   3.490  0.2455 -0.2916 -0.3630
 1271SOL    HW1 3920   3.288   0.739   3.452 -0.4197 -0.7291 -0.1213
 1271SOL    HW2 3921   3.424   0.723   3.516 -0.0579  0.3237 -0.6025
 1272SOL     OW 3922   1.545   0.578   1.994 -0.3821 -0.3827 -0.5130
 1272SOL    HW1 3923   1.455   0.596   2.022  0.1992  0.5066  0.8681
 1272SOL    HW2 3924   1.583   0.664   1.979 -0.0814 -0.7806 -2.2591
 1273SOL     OW 3925   1.049   1.909   1.918  0.2277  0.0130 -0.2109
 1273SOL    HW1 3926   1.082   1.999   1.908  0.4930  0.1006  1.2125
 1273SOL    HW2 3927   1.016   1.886   1.831  1.3664  0.9984 -0.9463
 1274SOL     OW 3928   1.303   0.740   1.518  0.0653 -0.3455 -0.0038
 1274SOL    HW1 3929   1.294   0.719   1.611  1.4677 -2.1286 -0.2219
 1274SOL    HW2 3930   1.375   0.685   1.487 -0.0725  0.5245 -2.0642
 1275SOL     OW 3931   2.659   4.972   2.406  0.2672 -0.0592  0.1180
 1275SOL    HW1 3932   2.662   4.960   2.311 -1.1698 -0.8977  0.1505
 1275SOL    HW2 3933   2.660   5.067   2.419  0.1918  0.0633 -0.7532
 1276SOL     OW 3934   1.320   0.223   1.495 -0.7313  0.3065  0.0066
 1276SOL    HW1 3935   1.225   0.218   1.480 -0.8038  2.6206 -0.7045
 1276SOL    HW2 3936   1.341   0.315   1.484  1.6553 -0.1727  0.0335
 1277SOL     OW 3937   3.897   4.968   0.049 -0.1958 -0.3042  0.1261
 1277SOL    HW1 3938   3.826   5.026   0.022  0.3700  0.4953  0.3162
 1277SOL    HW2 3939   3.882   4.887  -0.000 -2.2707 -0.8344  1.5020
 1278SOL     OW 3940   2.717   0.527   0.503 -0.3022  0.2394 -0.4643
 1278SOL    HW1 3941   2.808   0.496   0.501  0.2364  1.8122 -1.3071
 1278SOL    HW2 3942   2.694   0.541   0.411 -1.1606  0.5365 -0.2142
 1279SOL     OW 3943   1.309   2.595   1.411 -0.0246  0.1982  0.0419
 1279SOL    HW1 3944   1.336   2.631   1.327 -0.5501 -0.0477 -0.2415
 1279SOL    HW2 3945   1.315   2.669   1.472 -0.0781  0.4936 -0.3080
 1280SOL     OW 3946   5.204   2.249   2.669 -0.0210  0.2481 -0.1979
 1280SOL    HW1 3947   5.197   2.214   2.580 -0.5482 -0.4083  0.0974
 1280SOL    HW2 3948   5.138   2.318   2.673  0.4315  0.7105 -0.5053
 1281SOL     OW 3949   0.570   2.915   2.480 -0.1378 -0.2203 -0.6316
 1281SOL    HW1 3950   0.499   2.978   2.481 -1.6383 -1.8331  0.4013
 1281SOL    HW2 3951   0.591   2.901   2.572  0.5961 -0.7667 -0.8689
 1282SOL     OW 3952   5.412   5.003   1.426  0.4136  0.0355  0.4959
 1282SOL    HW1 3953   5.358   4.936   1.384  0.3111  0.5893 -0.2786
 1282SOL    HW2 3954   5.479   4.953   1.473  0.6056 -0.6113 -0.4286
 1283SOL     OW 3955   5.459   3.412   3.914  0.5777 -0.0482 -0.3235
 1283SOL    HW1 3956   5.464   3.344   3.847  0.7587  1.3020 -1.7563
 1283SOL    HW2 3957   5.462   3.365   3.997 -0.9367 -1.8927 -1.2308
 1284SOL     OW 3958   0.908   3.317   0.481  1.2554  0.3403 -0.3388
 1284SOL    HW1 3959   0.905   3.398   0.532  0.6932  0.0495  0.1050
 1284SOL    HW2 3960   0.939   3.251   0.543  1.6903  0.2046 -0.6928
 1285SOL     OW 3961   1.846   0.547   0.664  0.0761 -0.3077  0.5497
 1285SOL    HW1 3962   1.893   0.535   0.747 -1.7346  0.9865  1.8466
 1285SOL    HW2 3963   1.797   0.629   0.676 -1.6625 -1.0281 -1.0933
 1286SOL     OW 3964   2.660   2.941   1.350 -0.1952  0.2381  0.0695
 1286SOL    HW1 3965   2.704   3.019   1.386  2.3485 -2.0189  2.3016
 1286SOL    HW2 3966   2.662   2.954   1.255  5.5075  0.4968 -0.1050
 1287SOL     OW 3967   0.957   1.936   3.902 -0.2597 -0.0999 -0.2632
 1287SOL    HW1 3968   1.035   1.894   3.866  1.9258  0.6420  3.1313
 1287SOL    HW2 3969   0.915   1.867   3.953  0.6083  0.4936  1.3243
 1288SOL     OW 3970   2.524   1.351   2.129 -0.4006 -0.3615 -0.5131
 1288SOL    HW1 3971   2.580   1.405   2.072  0.9050  0.1610  1.1850
 1288SOL    HW2 3972   2.575   1.272   2.145 -0.3556 -0.1100  0.6444
 1289SOL     OW 3973   1.278   1.290   1.762  0.3045  0.5854 -0.5373
 1289SOL    HW1 3974   1.278   1.353   1.690 -1.1805  0.8414 -0.3505
 1289SOL    HW2 3975   1.264   1.205   1.720  2.6815  0.2657 -0.8275
 1290SOL     OW 3976   5.057   3.827   3.454 -0.1341 -0.3530  1.3151
 1290SOL    HW1 3977   5.067   3.782   3.370  2.1685  0.6332  0.9773
 1290SOL    HW2 3978   4.963   3.845   3.460 -0.6137 -2.0515 -0.1633
 1291SOL     OW 3979   3.082   0.784   0.287 -0.0507  0.1532 -0.0362
 1291SOL    HW1 3980   3.125   0.736   0.357 -1.7423  0.5976  1.3963
 1291SOL    HW2 3981   3.133   0.865   0.279  1.3872 -0.7873 -0.8114
 1292SOL     OW 3982   3.014   0.907   1.450 -0.1765  0.4207  0.4648
 1292SOL    HW1 3983   3.052   0.985   1.492 -2.6149  1.2658  1.2485
 1292SOL    HW2 3984   3.085   0.843   1.452  1.1473  1.8126  2.0356
 1293SOL     OW 3985   3.114   4.989   1.130 -0.3131  0.1332  0.0626
 1293SOL    HW1 3986   3.024   5.022   1.133  0.3216  1.9967 -0.0878
 1293SOL    HW2 3987   3.132   4.978   1.037 -0.2129  0.2454  0.0691
 1294SOL     OW 3988   0.525   3.356   3.508 -0.0491  0.2277 -0.3116
 1294SOL    HW1 3989   0.459   3.322   3.569 -0.1908 -0.5397 -0.8723
 1294SOL    HW2 3990   0.561   3.433   3.552 -1.6468  0.9477 -0.1893
 1295SOL     OW 3991   4.438   1.737   1.511 -0.2263 -0.4098  0.0194
 1295SOL    HW1 3992   4.435   1.773   1.600 -1.1247  0.1089 -0.2070
 1295SOL    HW2 3993   4.532   1.727   1.493 -0.0440 -2.1842  1.6621
 1296SOL     OW 3994   2.058   0.800   1.973  0.0290  0.3949 -0.1206
 1296SOL    HW1 3995   2.073   0.840   1.888  1.4316  0.9510  0.3408
 1296SOL    HW2 3996   2.144   0.765   1.998 -0.8960 -2.0114 -0.0207
 1297SOL     OW 3997   4.672   3.853   2.600 -0.3159 -0.0442  0.6772
 1297SOL    HW1 3998   4.674   3.896   2.686  0.7199 -0.5570  0.9200
 1297SOL    HW2 3999   4.751   3.799   2.598  1.2506  2.0998 -1.7112
 1298SOL     OW 4000   4.171   0.678   2.235 -0.4733  0.1122  0.0510
 1298SOL    HW1 4001   4.188   0.612   2.168  0.8464  1.3018 -0.8552
 1298SOL    HW2 4002   4.189   0.761   2.191 -0.9495  1.0156  1.4908
 1299SOL     OW 4003   1.901   4.353   3.846 -0.4918 -0.2171 -0.3495
 1299SOL    HW1 4004   1.994   4.341   3.867 -0.6076 -1.8487 -0.6033
 1299SOL    HW2 4005   1.857   4.355   3.931 -0.1845  1.2312 -0.1988
 1300SOL     OW 4006   4.120   3.050   1.432 -0.2872  0.2022  0.2005
 1300SOL    HW1 4007   4.191   3.109   1.407  0.4609 -0.4573  0.7323
 1300SOL    HW2 4008   4.065   3.103   1.490  0.2060  0.4740  0.4275
 1301SOL     OW 4009   1.253   2.286   3.631  0.3140  0.1305  0.4743
 1301SOL    HW1 4010   1.278   2.246   3.547 -0.1530 -1.1025  0.8980
 1301SOL    HW2 4011   1.279   2.377   3.623  2.5881 -0.4968 -0.0948
 1302SOL     OW 4012   2.110   2.436   0.166  0.3533 -0.0128 -0.8142
 1302SOL    HW1 4013   2.142   2.346   0.165 -1.0217 -0.5270 -0.9761
 1302SOL    HW2 4014   2.066   2.445   0.251  1.5533  0.9245 -0.2628
 1303SOL     OW 4015   2.783   1.938   3.039  0.4494  0.2378 -0.1045
 1303SOL    HW1 4016   2.827   2.010   3.083  1.3016 -0.0767 -0.4201
 1303SOL    HW2 4017   2.766   1.971   2.950  1.4991 -0.1777 -0.4821
 1304SOL     OW 4018   1.831   1.677   1.382  0.3352  0.4727  0.3541
 1304SOL    HW1 4019   1.813   1.629   1.463 -0.0070 -0.5567 -0.3164
 1304SOL    HW2 4020   1.752   1.730   1.368  0.6933  1.2238  1.0669
 1305SOL     OW 4021   4.311   1.806   3.112 -0.7430  0.3616  0.0027
 1305SOL    HW1 4022   4.297   1.840   3.200  0.0790  2.4783 -0.6222
 1305SOL    HW2 4023   4.235   1.750   3.095 -1.8625  1.4092  1.3670
 1306SOL     OW 4024   1.078   0.261   1.392  0.3376  0.1291 -0.3770
 1306SOL    HW1 4025   1.003   0.210   1.423  1.2030 -1.2646 -0.4749
 1306SOL    HW2 4026   1.062   0.350   1.423 -0.4086 -0.5480  1.2846
 1307SOL     OW 4027   3.316   4.546   2.472 -0.5406 -0.5432  0.5284
 1307SOL    HW1 4028   3.244   4.483   2.467 -0.4687 -0.6678  0.9941
 1307SOL    HW2 4029   3.276   4.625   2.508 -1.3897  0.8485 -3.0451
 1308SOL     OW 4030   3.224   3.251   2.179  0.1059  0.6215  0.4444
 1308SOL    HW1 4031   3.284   3.323   2.158  1.1184  0.2607  1.8918
 1308SOL    HW2 4032   3.253   3.221   2.266 -0.0110 -1.8132 -0.2865
 1309SOL     OW 4033   5.402   4.005   2.811 -0.3137  0.0534 -0.0295
 1309SOL    HW1 4034   5.388   4.096   2.785  0.7045  0.5043  0.9350
 1309SOL    HW2 4035   5.477   3.976   2.758  1.3115  0.7557  1.7708
 1310SOL     OW 4036   5.218   5.524   2.120  0.0463 -0.1245  0.4154
 1310SOL    HW1 4037   5.131   5.537   2.081  0.3751 -0.8147 -0.5589
 1310SOL    HW2 4038   5.200   5.478   2.202 -0.3362 -4.2572 -1.7027
 1311SOL     OW 4039   2.958   4.258   1.445 -0.1316 -0.1175 -0.5736
 1311SOL    HW1 4040   3.026   4.223   1.387  0.5168  2.6604 -1.7063
 1311SOL    HW2 4041   2.884   4.277   1.387 -0.3656  0.5158 -0.0797
 1312SOL     OW 4042   0.611   4.777   0.745 -0.5460  0.0038  0.2677
 1312SOL    HW1 4043   0.622   4.834   0.669 -0.1283 -0.0289  0.3015
 1312SOL    HW2 4044   0.543   4.820   0.798 -2.2122 -0.9256 -1.0179
 1313SOL     OW 4045   4.237   1.155   1.592 -0.1652 -0.3951  0.6838
 1313SOL    HW1 4046   4.284   1.082   1.632  0.5961  0.3069  1.1070
 1313SOL    HW2 4047   4.292   1.182   1.519  0.1910  0.5313  1.2728
 1314SOL     OW 4048   2.241   1.743   0.012  0.2050 -0.0728 -0.1141
 1314SOL    HW1 4049   2.290   1.670  -0.027 -0.2849 -0.0673 -0.7678
 1314SOL    HW2 4050   2.184   1.702   0.076  1.6301  0.0071  1.2617
 1315SOL     OW 4051   2.961   4.669   2.196 -0.6997 -0.2011 -0.4925
 1315SOL    HW1 4052   3.011   4.598   2.235 -0.0239 -0.1872 -1.3125
 1315SOL    HW2 4053   2.875   4.630   2.177 -0.4107 -0.7265 -0.7261
 1316SOL     OW 4054   2.742   3.113   3.433 -0.0399  0.1213 -0.2956
 1316SOL    HW1 4055   2.699   3.041   3.387 -0.8769  0.9411 -0.8364
 1316SOL    HW2 4056   2.812   3.072   3.482 -0.7557 -1.1182 -0.2751
 1317SOL     OW 4057   3.497   3.628   2.749 -0.6105  0.0033 -0.1208
 1317SOL    HW1 4058   3.414   3.584   2.730 -0.0166 -1.3112  0.2209
 1317SOL    HW2 4059   3.561   3.584   2.693  0.0979  0.0494  0.6342
 1318SOL     OW 4060   4.126   3.437   3.744 -0.2168  0.3222 -0.1940
 1318SOL    HW1 4061   4.136   3.358   3.796  0.4907  0.7651  0.3498
 1318SOL    HW2 4062   4.154   3.412   3.656  2.2502  0.5611  0.4729
 1319SOL     OW 4063   1.478   3.014   1.890 -0.3103 -0.1167 -0.2096
 1319SOL    HW1 4064   1.518   3.096   1.859  0.0351  0.3337  1.3323
 1319SOL    HW2 4065   1.400   3.043   1.938 -1.9114 -0.9157 -2.1805
 1320SOL     OW 4066   1.896   2.456   3.091 -0.1067  0.2713 -0.4820
 1320SOL    HW1 4067   1.899   2.362   3.109 -0.6037  0.4646  0.6403
 1320SOL    HW2 4068   1.901   2.498   3.176 -0.4439  1.2605 -0.9287
 1321SOL     OW 4069   3.665   3.444   1.213  0.1750 -0.0678  0.0296
 1321SOL    HW1 4070   3.685   3.506   1.284  0.9548 -0.0177 -0.2260
 1321SOL    HW2 4071   3.731   3.376   1.221 -0.6608 -0.8717  0.2893
 1322SOL     OW 4072   3.102   3.866   1.660  0.0635 -0.2602 -0.4535
 1322SOL    HW1 4073   3.194   3.878   1.639 -0.0243  0.1135 -0.6381
 1322SOL    HW2 4074   3.058   3.861   1.575 -0.3471  1.6476 -0.4102
 1323SOL     OW 4075   5.005   2.354   0.511 -0.1721 -0.4904  0.1602
 1323SOL    HW1 4076   4.924   2.323   0.471 -1.4911  0.5476  1.8916
 1323SOL    HW2 4077   5.016   2.443   0.477  0.1591 -0.5727  0.0505
 1324SOL     OW 4078   2.837   3.639   2.635  0.7417  0.4747 -0.1100
 1324SOL    HW1 4079   2.771   3.695   2.676 -3.0687 -3.5764  0.0499
 1324SOL    HW2 4080   2.895   3.613   2.708 -1.8550 -1.2921  1.4959
 1325SOL     OW 4081   0.344   2.589   3.361 -1.3128  0.7291  0.3342
 1325SOL    HW1 4082   0.397   2.601   3.439  0.6605  0.9022 -0.9659
 1325SOL    HW2 4083   0.349   2.496   3.343 -0.7570  0.8669 -0.2474
 1326SOL     OW 4084   3.074   2.387   0.935 -0.4449  0.2746 -0.1926
 1326SOL    HW1 4085   3.098   2.328   1.007  1.2577  1.9032  0.6919
 1326SOL    HW2 4086   2.979   2.394   0.940 -0.5884 -1.6046  0.2753
 1327SOL     OW 4087   3.713   2.631   3.934  0.4797 -0.4599  0.2446
 1327SOL    HW1 4088   3.729   2.722   3.960  1.2116 -0.1288 -1.2319
 1327SOL    HW2 4089   3.746   2.579   4.007  0.4372  0.4529  0.9352
 1328SOL     OW 4090   2.229   3.060   3.678  0.4441  0.5294  0.1594
 1328SOL    HW1 4091   2.177   2.997   3.728 -0.0644 -0.7827 -1.9004
 1328SOL    HW2 4092   2.308   3.012   3.653 -0.0220  0.6044 -1.5777
 1329SOL     OW 4093   4.285   2.074   3.005  0.1010  0.0832  0.0671
 1329SOL    HW1 4094   4.351   2.139   3.030  2.0397 -0.9197 -2.0849
 1329SOL    HW2 4095   4.309   1.996   3.054 -0.0071 -0.0450 -0.0857
 1330SOL     OW 4096   1.584   5.116   1.110  0.0150 -0.6862 -0.3433
 1330SOL    HW1 4097   1.535   5.190   1.074  0.7186 -0.9891 -2.0324
 1330SOL    HW2 4098   1.676   5.140   1.099  0.2507 -1.4740 -0.2041
 1331SOL     OW 4099   2.948   4.327   1.998 -0.3822  0.0899  0.2677
 1331SOL    HW1 4100   3.018   4.331   2.063 -0.0805 -3.6061  0.3683
 1331SOL    HW2 4101   2.868   4.343   2.048  0.1729  2.4565  0.4980
 1332SOL     OW 4102   1.106   3.729   2.548  0.0982 -0.0475  0.1216
 1332SOL    HW1 4103   1.099   3.659   2.613  0.9391 -0.9471 -0.7245
 1332SOL    HW2 4104   1.184   3.706   2.497 -0.7606  0.4271 -1.4511
 1333SOL     OW 4105   0.382   4.802   1.291 -0.0042  0.2804 -0.2426
 1333SOL    HW1 4106   0.298   4.822   1.250  0.7645 -0.0437 -2.0774
 1333SOL    HW2 4107   0.372   4.712   1.322 -1.0685  0.9899  1.6605
 1334SOL     OW 4108   5.423   5.273   1.749  0.0221 -0.1249  0.4158
 1334SOL    HW1 4109   5.490   5.311   1.805  2.1907 -1.4577 -1.1061
 1334SOL    HW2 4110   5.415   5.183   1.779 -0.2162 -0.3013 -0.1689
 1335SOL     OW 4111   2.686   3.894   2.444 -0.0316 -0.5878 -0.0677
 1335SOL    HW1 4112   2.650   3.806   2.456 -0.6596 -0.9138 -3.3839
 1335SOL    HW2 4113   2.613   3.952   2.464 -0.2115 -0.8993  0.2079
 1336SOL     OW 4114   0.697   0.342   2.285 -0.6763  0.1539  0.5135
 1336SOL    HW1 4115   0.704   0.423   2.234  1.2418 -0.4401 -0.2596
 1336SOL    HW2 4116   0.603   0.324   2.289 -0.9977  1.1918 -1.2676
 1337SOL     OW 4117   3.817   5.451   1.201  0.0824  0.2601  0.5795
 1337SOL    HW1 4118   3.743   5.421   1.148 -0.0396 -1.2548  1.5227
 1337SOL    HW2 4119   3.871   5.373   1.213  1.2343  1.0734  0.8811
 1338SOL     OW 4120   4.591   3.314   2.751 -0.2098  0.3092  0.1528
 1338SOL    HW1 4121   4.502   3.316   2.787 -0.3191 -0.3949 -0.0691
 1338SOL    HW2 4122   4.593   3.385   2.688 -0.4263  0.7181  0.6026
 1339SOL     OW 4123   3.016   2.391   2.985  0.3465 -0.1805  0.1768
 1339SOL    HW1 4124   3.110   2.372   2.989  0.3791  0.1563  2.1281
 1339SOL    HW2 4125   3.009   2.482   3.013 -0.6116 -0.4828  0.9830
 1340SOL     OW 4126   0.029   1.345   3.149  0.5478 -0.0802 -0.0372
 1340SOL    HW1 4127   0.039   1.251   3.137  0.3303 -0.1252  0.1340
 1340SOL    HW2 4128  -0.055   1.355   3.193  0.3571  0.2258 -0.4629
 1341SOL     OW 4129   4.702   1.353   0.676 -1.0069  0.5410  0.6912
 1341SOL    HW1 4130   4.609   1.354   0.702 -1.2321 -0.2404 -0.0670
 1341SOL    HW2 4131   4.703   1.310   0.591  0.1318  0.0081  0.9627
 1342SOL     OW 4132   3.558   2.540   2.493  0.3343  0.0189 -0.3224
 1342SOL    HW1 4133   3.473   2.500   2.508  1.2632 -1.6995  0.6499
 1342SOL    HW2 4134   3.554   2.623   2.541 -0.8512  0.0663 -0.4778
 1343SOL     OW 4135   3.393   2.045   3.353 -0.1266 -0.0626 -0.1583
 1343SOL    HW1 4136   3.473   2.085   3.389  0.2989 -0.5184 -0.5760
 1343SOL    HW2 4137   3.363   1.987   3.422  0.1318 -0.1926 -0.1527
 1344SOL     OW 4138   5.465   2.814   0.896 -0.0401 -0.0837  0.4321
 1344SOL    HW1 4139   5.370   2.818   0.889  0.0459  1.1466 -0.3186
 1344SOL    HW2 4140   5.494   2.768   0.818  0.0495  0.8442 -0.1001
 1345SOL     OW 4141   0.636   0.824   0.401  0.5543 -0.2826 -0.0817
 1345SOL    HW1 4142   0.647   0.766   0.325 -1.0935 -0.9893  0.1915
 1345SOL    HW2 4143   0.604   0.767   0.471  0.8801  0.5901  0.8089
 1346SOL     OW 4144   0.996   4.681   0.327  0.2316 -0.4244 -0.8049
 1346SOL    HW1 4145   0.939   4.649   0.397 -1.7670  0.2191 -2.0575
 1346SOL    HW2 4146   1.032   4.763   0.360  2.9529 -2.2208  1.1950
 1347SOL     OW 4147   1.114   4.550   3.641 -0.1407  0.0887 -0.6163
 1347SOL    HW1 4148   1.089   4.547   3.733  0.7748 -0.5627 -0.3707
 1347SOL    HW2 4149   1.096   4.463   3.608  0.9187 -0.1373 -0.6531
 1348SOL     OW 4150   3.277   2.567   1.103  0.5923 -0.2412  0.2687
 1348SOL    HW1 4151   3.215   2.590   1.172  0.7977  2.0688 -0.2332
 1348SOL    HW2 4152   3.237   2.599   1.023  1.4979 -0.6082 -0.3515
 1349SOL     OW 4153   5.533   1.961   2.969 -0.2325  0.0820  0.8300
 1349SOL    HW1 4154   5.596   2.033   2.958  1.2474 -1.3080 -0.3090
 1349SOL    HW2 4155   5.462   1.981   2.909 -0.7672  1.5225  1.8975
 1350SOL     OW 4156   0.000   2.722   1.116 -0.4107 -0.0091  0.2347
 1350SOL    HW1 4157  -0.025   2.794   1.174 -1.2949 -0.1447  0.0432
 1350SOL    HW2 4158  -0.032   2.749   1.030 -0.0044 -0.2586  0.0027
 1351SOL     OW 4159   4.121   5.521   1.177 -0.3572 -0.5211 -0.8401
 1351SOL    HW1 4160   4.059   5.590   1.199 -0.1117  0.3174 -2.6362
 1351SOL    HW2 4161   4.092   5.445   1.229 -2.3306  0.0942 -0.9651
 1352SOL     OW 4162   2.991   4.380   3.020  0.3351  0.7439 -0.5696
 1352SOL    HW1 4163   2.989   4.290   2.990 -1.6005  0.6831 -0.3715
 1352SOL    HW2 4164   3.081   4.393   3.052  0.5211 -1.2286 -0.1778
 1353SOL     OW 4165   3.425   2.966   2.924  0.1313 -0.0699 -0.0616
 1353SOL    HW1 4166   3.446   3.040   2.981 -0.1895  2.0806 -2.5887
 1353SOL    HW2 4167   3.500   2.959   2.865 -1.2758  0.4979 -2.0231
 1354SOL     OW 4168   4.161   0.958   1.362 -0.6863  0.2174  0.0220
 1354SOL    HW1 4169   4.198   1.022   1.423 -0.0396  1.6854 -1.8160
 1354SOL    HW2 4170   4.213   0.879   1.378 -0.0806  0.7599  0.8941
 1355SOL     OW 4171   1.854   2.594   2.848  0.0740  0.3542 -0.5227
 1355SOL    HW1 4172   1.861   2.556   2.936  1.7711  0.0768 -0.7482
 1355SOL    HW2 4173   1.769   2.638   2.849 -0.7725 -1.1500  0.6488
 1356SOL     OW 4174   4.181   0.894   2.056 -0.0930  0.1773 -0.2525
 1356SOL    HW1 4175   4.171   0.859   1.967  0.9062 -2.0871  0.4653
 1356SOL    HW2 4176   4.220   0.981   2.042  2.3117 -1.0555 -2.0133
 1357SOL     OW 4177   5.510   2.705   2.698  0.4155 -1.0663 -0.2250
 1357SOL    HW1 4178   5.491   2.751   2.616 -0.5264  0.2868  0.6915
 1357SOL    HW2 4179   5.461   2.623   2.692 -1.7195  0.1268 -0.0250
 1358SOL     OW 4180   5.109   1.934   2.687 -0.5556  0.4158 -0.5541
 1358SOL    HW1 4181   5.103   1.886   2.605 -0.8850  1.1774 -0.9887
 1358SOL    HW2 4182   5.045   2.006   2.678 -1.3202 -0.0554  0.7536
 1359SOL     OW 4183   4.593   1.409   1.366  0.2072  0.6643 -0.1361
 1359SOL    HW1 4184   4.637   1.494   1.365  0.1766  0.6829  0.1109
 1359SOL    HW2 4185   4.522   1.418   1.302 -0.6257  1.2645  0.8540
 1360SOL     OW 4186   4.127   3.967   3.558  0.2728  0.3542  0.3178
 1360SOL    HW1 4187   4.193   3.919   3.507  0.5623  1.2143 -0.1378
 1360SOL    HW2 4188   4.074   4.012   3.492 -1.8688 -1.6394  0.5591
 1361SOL     OW 4189   2.261   3.097   3.227  0.6500 -0.4949 -0.9556
 1361SOL    HW1 4190   2.209   3.107   3.147  1.6155  1.1607 -1.4303
 1361SOL    HW2 4191   2.348   3.130   3.204  0.9334  0.1189  0.7930
 1362SOL     OW 4192   2.418   5.242   1.860  0.0558  0.2455 -0.2756
 1362SOL    HW1 4193   2.399   5.224   1.768  1.6240  2.6248 -1.1476
 1362SOL    HW2 4194   2.471   5.167   1.888 -1.5623 -1.1901 -0.8227
 1363SOL     OW 4195   5.363   5.153   2.064  0.2373 -0.2177  0.2549
 1363SOL    HW1 4196   5.344   5.204   2.142  1.3760  1.5746 -0.5626
 1363SOL    HW2 4197   5.292   5.176   2.003 -1.7311 -3.0411  1.2694
 1364SOL     OW 4198   2.597   1.393   3.301  0.2760  0.3457 -0.5377
 1364SOL    HW1 4199   2.576   1.486   3.290  1.7433  0.8643  0.6532
 1364SOL    HW2 4200   2.617   1.363   3.212  1.9193  1.7650 -0.7231
 1365SOL     OW 4201   3.840   3.795   0.452  0.5768  0.8853 -0.2490
 1365SOL    HW1 4202   3.797   3.881   0.449  0.9651  1.0676 -0.7743
 1365SOL    HW2 4203   3.802   3.747   0.378 -0.1243  0.3647  0.4403
 1366SOL     OW 4204   1.149   4.061   3.659 -0.2083  0.6009  0.0575
 1366SOL    HW1 4205   1.121   3.973   3.635  2.2734 -0.3823  0.5408
 1366SOL    HW2 4206   1.163   4.057   3.754 -2.2170  2.2209  0.5231
 1367SOL     OW 4207   4.037   4.221   2.099  0.1977  0.5771  0.3502
 1367SOL    HW1 4208   4.060   4.299   2.149 -1.0549  1.0859  0.1802
 1367SOL    HW2 4209   4.121   4.183   2.073  0.8540  0.7717  2.0915
 1368SOL     OW 4210   2.342   3.054   0.938 -0.3669  0.2769  0.2945
 1368SOL    HW1 4211   2.334   3.083   0.847 -3.1697 -0.2999  0.2704
 1368SOL    HW2 4212   2.309   3.128   0.990  0.3756  0.2549  0.8210
 1369SOL     OW 4213   0.174   4.139   0.145 -0.2903 -0.1803 -0.0013
 1369SOL    HW1 4214   0.090   4.141   0.099 -0.1857 -0.3838 -0.2014
 1369SOL    HW2 4215   0.208   4.051   0.130 -0.1184 -0.1536  0.2222
 1370SOL     OW 4216   0.602   2.285   1.502  0.0889 -0.3628  0.7845
 1370SOL    HW1 4217   0.660   2.209   1.512 -1.5959 -1.5929  1.5718
 1370SOL    HW2 4218   0.575   2.283   1.411  0.4702 -0.3748  0.6696
 1371SOL     OW 4219   5.387   1.693   2.866  0.5135 -0.0949 -0.1202
 1371SOL    HW1 4220   5.334   1.762   2.907 -1.2640 -0.6606 -1.3711
 1371SOL    HW2 4221   5.388   1.716   2.773  0.7348 -1.2217 -0.4027
 1372SOL     OW 4222   5.009   4.698   0.981  0.1884 -0.1066  0.4202
 1372SOL    HW1 4223   4.931   4.661   0.940 -0.1394  0.8779  0.1129
 1372SOL    HW2 4224   5.078   4.691   0.915  0.3595 -0.9358  0.6759
 1373SOL     OW 4225   5.466   1.189   3.870  1.1388 -0.4263  0.2828
 1373SOL    HW1 4226   5.468   1.156   3.960 -0.1096 -2.5805 -0.4029
 1373SOL    HW2 4227   5.526   1.130   3.822 -1.0968 -1.8357 -0.9748
 1374SOL     OW 4228   1.684   0.356   1.228  0.1301  0.2423 -0.2783
 1374SOL    HW1 4229   1.719   0.380   1.314 -0.0985  0.4988 -0.2589
 1374SOL    HW2 4230   1.617   0.291   1.248  0.6074 -0.2762 -0.3177
 1375SOL     OW 4231   1.915   2.138   1.053  0.0012  0.2106  0.8873
 1375SOL    HW1 4232   1.988   2.199   1.039 -0.0579  0.5312  1.8564
 1375SOL    HW2 4233   1.928   2.070   0.987  1.9186 -0.4149  1.8128
 1376SOL     OW 4234   3.484   1.781   2.735 -0.0038  0.4767 -0.1358
 1376SOL    HW1 4235   3.543   1.836   2.786  0.1060  1.1041 -0.9182
 1376SOL    HW2 4236   3.400   1.785   2.782 -0.2440  2.0502 -0.6485
 1377SOL     OW 4237   3.277   1.192   3.867  0.0295  0.1549  0.5460
 1377SOL    HW1 4238   3.337   1.188   3.793 -0.0222 -1.1931  0.5399
 1377SOL    HW2 4239   3.275   1.284   3.892  0.2398  0.5933 -0.9622
 1378SOL     OW 4240   3.129   4.817   3.387 -0.0603 -0.0657  0.0948
 1378SOL    HW1 4241   3.106   4.850   3.300 -0.7358 -0.0319  0.2787
 1378SOL    HW2 4242   3.050   4.832   3.440  0.7341  1.0209  1.0276
 1379SOL     OW 4243   0.661   1.784   1.474 -0.2806 -0.0774 -0.0297
 1379SOL    HW1 4244   0.583   1.728   1.472 -0.1315 -0.2828 -1.2926
 1379SOL    HW2 4245   0.715   1.751   1.402  1.3181 -0.4208  1.2669
 1380SOL     OW 4246   3.211   2.006   2.329  0.3396  0.1880 -0.1515
 1380SOL    HW1 4247   3.136   1.996   2.270  1.1356 -1.1729 -1.0028
 1380SOL    HW2 4248   3.209   1.928   2.384  3.0987 -1.8746 -2.6160
 1381SOL     OW 4249   1.829   0.440   2.723  0.2298  0.1555  0.3391
 1381SOL    HW1 4250   1.916   0.458   2.687 -0.1301 -0.5223 -0.9397
 1381SOL    HW2 4251   1.772   0.506   2.684 -0.3494 -1.1893 -1.2156
 1382SOL     OW 4252   1.397   4.484   2.779 -0.0413  0.0154  0.1943
 1382SOL    HW1 4253   1.440   4.470   2.863  0.1224 -1.1154 -0.0554
 1382SOL    HW2 4254   1.313   4.439   2.788  0.0742 -0.3133 -0.3154
 1383SOL     OW 4255   3.095   0.952   1.778  0.1851  0.1624 -0.2248
 1383SOL    HW1 4256   3.170   1.011   1.768  0.4650 -0.2348 -0.4952
 1383SOL    HW2 4257   3.133   0.865   1.773 -0.0204 -0.0744  1.5808
 1384SOL     OW 4258   4.686   0.033   3.168 -0.0966 -0.4921  0.3548
 1384SOL    HW1 4259   4.727  -0.012   3.094  0.3650 -0.0184  0.3101
 1384SOL    HW2 4260   4.678  -0.034   3.235  0.5389 -0.6622  0.2735
 1385SOL     OW 4261   4.548   3.083   2.973 -0.6487  0.3739  0.5682
 1385SOL    HW1 4262   4.469   3.131   2.946 -1.1614 -1.4010 -1.3723
 1385SOL    HW2 4263   4.558   3.014   2.907  2.0343 -0.0333  1.2704
 1386SOL     OW 4264   1.315   5.461   0.504  0.3277  0.3615  0.0636
 1386SOL    HW1 4265   1.285   5.519   0.433 -1.7617  0.6926  1.1388
 1386SOL    HW2 4266   1.361   5.391   0.458 -0.0833  1.0809 -1.5577
 1387SOL     OW 4267   2.407   1.170   3.174 -0.2717 -0.1522  0.0142
 1387SOL    HW1 4268   2.426   1.222   3.252  3.2090 -1.9350  0.5496
 1387SOL    HW2 4269   2.407   1.234   3.103 -0.1708  1.0711  1.0640
 1388SOL     OW 4270   5.445   2.382   2.756 -0.5125 -0.5198 -0.1132
 1388SOL    HW1 4271   5.423   2.351   2.844 -1.7923 -0.1016 -0.2494
 1388SOL    HW2 4272   5.369   2.358   2.703  0.0102 -0.2871 -0.9868
 1389SOL     OW 4273   0.416   3.735   1.244  0.0156 -0.1093 -0.6704
 1389SOL    HW1 4274   0.399   3.670   1.175 -0.3947  0.6768 -1.3381
 1389SOL    HW2 4275   0.508   3.757   1.234 -0.3455  0.9702 -1.8617
 1390SOL     OW 4276   5.119   0.487   0.881 -0.4316 -0.1213 -0.3696
 1390SOL    HW1 4277   5.035   0.531   0.879 -0.8445 -0.4363  3.1039
 1390SOL    HW2 4278   5.101   0.398   0.853 -1.6163 -0.5747  1.6953
 1391SOL     OW 4279   1.560   0.823   2.774 -0.2404 -0.4038  0.0040
 1391SOL    HW1 4280   1.501   0.761   2.816 -0.7922  1.1776  1.7331
 1391SOL    HW2 4281   1.647   0.794   2.801 -0.3936 -1.1237 -0.2421
 1392SOL     OW 4282   2.984   2.346   0.407 -0.1534 -0.6971  0.4034
 1392SOL    HW1 4283   3.024   2.432   0.414  2.5030 -1.7485 -0.2741
 1392SOL    HW2 4284   2.962   2.322   0.497 -2.3204  1.2042  0.4540
 1393SOL     OW 4285   3.774   0.588   3.017 -0.4144 -0.1307 -0.3876
 1393SOL    HW1 4286   3.860   0.557   2.990 -0.1107  0.8703 -0.6204
 1393SOL    HW2 4287   3.724   0.509   3.034  0.2307 -0.7419 -1.2512
 1394SOL     OW 4288   1.966   0.690   2.529  0.4523 -0.4932 -0.6122
 1394SOL    HW1 4289   1.879   0.678   2.493 -0.3857 -0.7778  1.3698
 1394SOL    HW2 4290   2.003   0.601   2.535  0.9530 -0.3597 -1.5869
 1395SOL     OW 4291   1.736   1.966   2.783 -0.1182 -0.3690  0.2932
 1395SOL    HW1 4292   1.702   2.055   2.794  1.9700  0.5810 -0.5498
 1395SOL    HW2 4293   1.741   1.954   2.688  1.5843 -0.5602  0.3812
 1396SOL     OW 4294   3.598   4.106   1.369  0.5993  0.3406  0.3273
 1396SOL    HW1 4295   3.537   4.046   1.327  0.6799  1.2748 -1.2252
 1396SOL    HW2 4296   3.544   4.183   1.391  0.7386  0.2031  1.1528
 1397SOL     OW 4297   3.383   3.233   1.192  0.6134  0.4964 -0.6358
 1397SOL    HW1 4298   3.437   3.290   1.137  1.6249 -0.7889 -1.0448
 1397SOL    HW2 4299   3.297   3.275   1.193  1.4028  2.2068 -0.6044
 1398SOL     OW 4300   5.190   0.612   1.369  0.4270 -0.5768 -0.2184
 1398SOL    HW1 4301   5.156   0.634   1.456 -0.8734 -0.3497 -0.7532
 1398SOL    HW2 4302   5.274   0.656   1.364  0.4010 -0.3847  0.8322
 1399SOL     OW 4303   2.614   0.759   3.022 -0.4689  0.2119  0.3238
 1399SOL    HW1 4304   2.594   0.800   3.106 -0.6841 -0.2206  0.4852
 1399SOL    HW2 4305   2.547   0.691   3.012  0.4476 -0.7448  0.5144
 1400SOL     OW 4306   2.965   4.000   1.851  0.1095 -0.0506  0.3537
 1400SOL    HW1 4307   2.875   3.972   1.864  0.0521  0.1471  0.3969
 1400SOL    HW2 4308   2.994   3.955   1.771 -0.4114  0.7801 -0.3218
 1401SOL     OW 4309   1.106   0.514   1.512  0.0810  0.3772 -0.1970
 1401SOL    HW1 4310   1.141   0.597   1.479 -0.7166  0.7954 -0.0094
 1401SOL    HW2 4311   1.156   0.497   1.592  1.5064 -0.2637 -1.1678
 1402SOL     OW 4312   3.029   0.314   1.828 -0.1086  0.0684  0.2435
 1402SOL    HW1 4313   3.039   0.367   1.907 -0.6879 -0.1800  0.4875
 1402SOL    HW2 4314   3.092   0.351   1.766 -1.3661  1.8665 -0.0314
 1403SOL     OW 4315   5.154   1.829   2.955 -0.3493  0.0240  0.0208
 1403SOL    HW1 4316   5.134   1.882   2.878 -1.7648  1.4059  1.2823
 1403SOL    HW2 4317   5.090   1.758   2.952 -0.4123  0.0844 -0.0625
 1404SOL     OW 4318   0.744   2.425   1.954  0.4694 -0.4726 -0.0894
 1404SOL    HW1 4319   0.716   2.432   1.863 -1.0118  0.8527  0.4435
 1404SOL    HW2 4320   0.670   2.384   1.999  0.7011  0.0006  0.7385
 1405SOL     OW 4321   2.036   2.544   3.581 -0.4604  0.5345  0.4102
 1405SOL    HW1 4322   1.989   2.480   3.528 -1.1800 -0.2764  1.9359
 1405SOL    HW2 4323   2.020   2.628   3.538 -0.7994 -0.1112 -0.7650
 1406SOL     OW 4324   1.675   5.194   1.921  0.2406  0.0705 -0.2156
 1406SOL    HW1 4325   1.642   5.278   1.888  1.5298  0.0183 -1.7339
 1406SOL    HW2 4326   1.769   5.208   1.932 -0.0040 -0.1290  2.9381
 1407SOL     OW 4327   3.702   0.929   1.771 -0.0265  0.1922 -0.5299
 1407SOL    HW1 4328   3.748   0.939   1.854 -0.6543 -0.0155 -0.1469
 1407SOL    HW2 4329   3.711   0.836   1.750 -1.2926 -0.1284  0.1833
 1408SOL     OW 4330   2.411   0.609   0.297  0.0935  0.3907  0.1412
 1408SOL    HW1 4331   2.362   0.529   0.315  0.2103  0.2369 -0.2111
 1408SOL    HW2 4332   2.498   0.578   0.272 -0.0204  0.6103 -0.5216
 1409SOL     OW 4333   0.056   5.125   2.855  0.2282  0.0078 -0.4012
 1409SOL    HW1 4334   0.051   5.030   2.845 -0.0187  0.0463 -0.6568
 1409SOL    HW2 4335   0.065   5.139   2.949  1.9751 -0.3411 -0.4858
 1410SOL     OW 4336   0.140   5.297   3.275  0.1330  0.0402 -0.1370
 1410SOL    HW1 4337   0.053   5.286   3.237 -0.6680 -1.0491  1.9078
 1410SOL    HW2 4338   0.189   5.220   3.246  0.5149  0.7282 -1.4148
 1411SOL     OW 4339   3.247   1.021   0.959  0.0660 -0.1139  0.1013
 1411SOL    HW1 4340   3.265   0.959   1.029  1.3039  0.7960  0.6114
 1411SOL    HW2 4341   3.332   1.039   0.920 -0.3833  0.6900 -0.5376
 1412SOL     OW 4342   0.954   0.643   0.593  0.1490 -0.4271  0.0029
 1412SOL    HW1 4343   1.049   0.638   0.599  0.3629  0.8377 -1.6151
 1412SOL    HW2 4344   0.931   0.727   0.633 -0.0167  0.3679 -1.6883
 1413SOL     OW 4345   0.923   4.762   1.507  0.4397 -0.2760  0.5500
 1413SOL    HW1 4346   0.997   4.821   1.493 -0.2844  0.6340  0.4667
 1413SOL    HW2 4347   0.962   4.684   1.546  1.4097  0.2887  0.7467
 1414SOL     OW 4348   0.591   5.012   2.029 -0.1283 -0.1830 -0.0174
 1414SOL    HW1 4349   0.639   5.031   2.110  0.4574 -0.5222 -0.2734
 1414SOL    HW2 4350   0.628   5.072   1.964  1.2384 -1.6308 -0.6528
 1415SOL     OW 4351   1.539   1.078   2.857 -0.2733  0.5332 -0.2328
 1415SOL    HW1 4352   1.531   0.983   2.844  0.7283  0.4430 -0.2252
 1415SOL    HW2 4353   1.552   1.113   2.769 -0.2358  0.6216 -0.1920
 1416SOL     OW 4354   0.225   0.785   3.669 -0.8762  0.1107 -0.5300
 1416SOL    HW1 4355   0.298   0.730   3.699  0.0175 -0.0275 -2.7660
 1416SOL    HW2 4356   0.150   0.725   3.665 -0.9689  0.0678  0.9897
 1417SOL     OW 4357   5.371   1.004   1.562  0.4002 -0.0057 -0.7141
 1417SOL    HW1 4358   5.457   0.964   1.577 -0.1565 -1.3570 -0.9611
 1417SOL    HW2 4359   5.313   0.957   1.622 -0.4601 -0.2810 -1.7468
 1418SOL     OW 4360   2.254   3.071   1.470  0.1859  0.8127 -0.4693
 1418SOL    HW1 4361   2.236   2.979   1.450 -0.7959  0.9889 -0.4454
 1418SOL    HW2 4362   2.178   3.118   1.435  0.7529  1.6368 -0.6259
 1419SOL     OW 4363   1.751   0.817   1.752 -0.1012  0.3872  0.0626
 1419SOL    HW1 4364   1.835   0.857   1.726 -0.0716  1.9010  2.2667
 1419SOL    HW2 4365   1.742   0.837   1.845 -3.3149  0.9963 -0.2756
 1420SOL     OW 4366   0.948   3.514   0.055  0.0160 -0.3050 -0.1112
 1420SOL    HW1 4367   0.879   3.549   0.111 -1.5971 -3.0408 -0.2158
 1420SOL    HW2 4368   0.905   3.498  -0.029  1.4946  0.3777 -1.0357
 1421SOL     OW 4369   2.084   2.834   0.349  0.3706  0.0778  0.5120
 1421SOL    HW1 4370   2.012   2.844   0.287  0.0057  1.5694  1.1504
 1421SOL    HW2 4371   2.145   2.773   0.305 -1.2231 -1.1867 -0.0486
 1422SOL     OW 4372   5.323   0.566   3.657  0.1803  0.8638  0.3175
 1422SOL    HW1 4373   5.263   0.628   3.616 -1.1988 -1.0059 -0.6224
 1422SOL    HW2 4374   5.273   0.529   3.730  0.2266 -0.5460 -0.3314
 1423SOL     OW 4375   2.796   1.735   3.243  0.1180 -0.0029  0.6440
 1423SOL    HW1 4376   2.750   1.773   3.317  1.4332  0.9011  1.0447
 1423SOL    HW2 4377   2.808   1.809   3.183 -0.1237 -0.5219 -0.0514
 1424SOL     OW 4378   2.637   1.698   0.219  0.2246 -0.1291  0.3148
 1424SOL    HW1 4379   2.618   1.608   0.192  1.3342 -0.2329 -0.1982
 1424SOL    HW2 4380   2.570   1.719   0.283 -0.2272 -1.2211  0.2203
 1425SOL     OW 4381   2.252   1.860   3.852 -0.1217 -0.3746 -0.1553
 1425SOL    HW1 4382   2.204   1.922   3.906 -0.7147 -0.5327 -0.4874
 1425SOL    HW2 4383   2.307   1.812   3.913  0.5830  0.6794  0.0700
 1426SOL     OW 4384   4.025   0.539   2.527 -0.2103 -0.5967 -0.0231
 1426SOL    HW1 4385   3.958   0.477   2.499 -0.5666  0.3307 -1.3285
 1426SOL    HW2 4386   4.095   0.529   2.462  0.0781 -0.2114  0.2256
 1427SOL     OW 4387   4.359   3.668   0.973  0.1698  0.0073  0.3784
 1427SOL    HW1 4388   4.320   3.585   0.947 -1.5411  0.5920  0.9257
 1427SOL    HW2 4389   4.379   3.712   0.890 -0.8524 -0.1040  0.0550
 1428SOL     OW 4390   4.526   1.565   0.128 -0.0950 -0.8595 -0.0951
 1428SOL    HW1 4391   4.440   1.576   0.168  0.4348  0.8908  0.6780
 1428SOL    HW2 4392   4.561   1.484   0.165 -0.0770  0.1329  2.1988
 1429SOL     OW 4393   1.229   1.554   0.115 -0.2739  0.2810  0.2169
 1429SOL    HW1 4394   1.290   1.546   0.188 -0.4433 -1.2257  0.2221
 1429SOL    HW2 4395   1.206   1.647   0.113 -1.0884  0.1938  2.7577
 1430SOL     OW 4396   2.840   0.909   1.068  0.3692  0.3191 -0.3198
 1430SOL    HW1 4397   2.796   0.868   1.143 -1.2959 -1.3794 -2.1067
 1430SOL    HW2 4398   2.776   0.971   1.033  0.2614 -0.4462 -1.5461
 1431SOL     OW 4399   0.054   3.059   1.560  0.1129  0.2463  0.5704
 1431SOL    HW1 4400   0.040   2.977   1.609  0.0009 -0.0112  0.1143
 1431SOL    HW2 4401   0.132   3.042   1.508  0.0949  0.4315  0.4837
 1432SOL     OW 4402   4.454   3.414   3.098  0.1462 -0.2964 -0.5299
 1432SOL    HW1 4403   4.436   3.493   3.048  0.1217 -0.1186 -0.2382
 1432SOL    HW2 4404   4.386   3.352   3.070 -1.8919  0.8184  1.6238
 1433SOL     OW 4405   3.283   0.590   2.609  0.9427 -0.2221  0.3158
 1433SOL    HW1 4406   3.346   0.598   2.537 -0.6297  1.1031 -0.9852
 1433SOL    HW2 4407   3.256   0.498   2.606  1.1788 -0.2780 -0.5862
 1434SOL     OW 4408   2.865   0.410   0.058 -0.0396  0.3282  0.4093
 1434SOL    HW1 4409   2.944   0.461   0.040 -0.8461  0.7265 -2.5901
 1434SOL    HW2 4410   2.872   0.335  -0.000 -1.8357  0.3590  0.1070
 1435SOL     OW 4411   3.639   0.136   0.244  0.5483  0.2447 -0.5907
 1435SOL    HW1 4412   3.583   0.200   0.288  0.7072  0.9614 -1.3933
 1435SOL    HW2 4413   3.675   0.082   0.315 -0.7730  0.0669 -0.0253
 1436SOL     OW 4414   1.575   3.479   0.236  0.0000 -0.0303 -0.2119
 1436SOL    HW1 4415   1.498   3.465   0.181 -0.5291  2.5972 -0.3065
 1436SOL    HW2 4416   1.648   3.476   0.176 -0.2065 -0.6914 -0.4381
 1437SOL     OW 4417   3.362   2.542   3.451  0.1483  0.4885 -0.5781
 1437SOL    HW1 4418   3.445   2.498   3.469 -0.0149 -0.0498 -1.0944
 1437SOL    HW2 4419   3.297   2.472   3.454 -0.5768  1.1937  1.6970
 1438SOL     OW 4420   5.506   4.034   0.552  0.3423  0.0224 -0.0826
 1438SOL    HW1 4421   5.581   3.975   0.544 -0.2862 -0.9251  0.7314
 1438SOL    HW2 4422   5.525   4.105   0.491  1.4138 -0.7122 -0.6472
 1439SOL     OW 4423   0.738   4.247   2.774 -0.5052  0.3373 -0.1136
 1439SOL    HW1 4424   0.796   4.314   2.738  0.5149  0.2287  1.2262
 1439SOL    HW2 4425   0.672   4.296   2.823 -0.5830  0.4174 -0.3005
 1440SOL     OW 4426   5.364   4.189   0.139 -0.1940  0.1136 -0.6328
 1440SOL    HW1 4427   5.344   4.151   0.224 -1.3096  1.3811 -0.2901
 1440SOL    HW2 4428   5.433   4.133   0.103  1.0530  0.1307  1.5231
 1441SOL     OW 4429   5.270   4.807   1.329  0.2512 -0.5237 -0.2336
 1441SOL    HW1 4430   5.206   4.737   1.342 -0.2482 -0.0171  0.0941
 1441SOL    HW2 4431   5.235   4.859   1.256 -0.5575  0.6745  0.9582
 1442SOL     OW 4432   3.225   0.704   1.360  0.0273  0.0922  0.8026
 1442SOL    HW1 4433   3.187   0.620   1.383 -1.6708  0.7945  0.7194
 1442SOL    HW2 4434   3.289   0.722   1.429  1.1841 -1.7103  0.2511
 1443SOL     OW 4435   3.658   1.159   1.620 -0.4350  0.6263 -0.0393
 1443SOL    HW1 4436   3.752   1.173   1.608 -0.8455  2.7574 -1.3035
 1443SOL    HW2 4437   3.652   1.083   1.678  2.0569  0.7604  0.4960
 1444SOL     OW 4438   2.996   4.843   2.424 -0.6693 -0.2175  0.0294
 1444SOL    HW1 4439   2.956   4.770   2.377 -0.6906 -0.5460  0.5462
 1444SOL    HW2 4440   2.981   4.919   2.368  0.6071 -0.8273 -1.2139
 1445SOL     OW 4441   2.710   2.567   2.883  0.3680  0.5202 -0.4033
 1445SOL    HW1 4442   2.797   2.606   2.897  0.1747  0.8793 -0.1927
 1445SOL    HW2 4443   2.662   2.588   2.963 -0.0779  0.7613 -0.7322
 1446SOL     OW 4444   0.545   1.990   0.718  0.6218 -0.5199 -0.3230
 1446SOL    HW1 4445   0.532   1.972   0.625  1.2485  0.0301 -0.5210
 1446SOL    HW2 4446   0.543   2.085   0.724  0.5716 -0.5542  0.2337
 1447SOL     OW 4447   5.423   0.941   0.444  0.3209 -0.1818 -0.3446
 1447SOL    HW1 4448   5.469   0.935   0.361  1.4141  0.5463  0.1847
 1447SOL    HW2 4449   5.372   0.860   0.449  0.8468 -0.5928 -1.3536
 1448SOL     OW 4450   3.661   0.942   2.533 -0.0800  0.7796  0.0590
 1448SOL    HW1 4451   3.678   0.879   2.603 -0.1126 -0.0473 -0.6556
 1448SOL    HW2 4452   3.573   0.975   2.552  0.0472  0.8288  0.5930
 1449SOL     OW 4453   1.696   2.451   0.262  0.1363  0.5093  0.0262
 1449SOL    HW1 4454   1.725   2.421   0.176 -1.2135  2.7767 -1.3428
 1449SOL    HW2 4455   1.749   2.402   0.324  3.0678  0.6978 -2.1348
 1450SOL     OW 4456   2.247   4.945   3.885  0.1300 -0.1392  0.0880
 1450SOL    HW1 4457   2.221   4.961   3.976  1.3604 -0.3306  0.4958
 1450SOL    HW2 4458   2.207   4.861   3.863 -0.9710  0.3573  0.1127
 1451SOL     OW 4459   4.774   5.054   2.721 -0.0745 -0.4378 -0.2149
 1451SOL    HW1 4460   4.722   4.984   2.759  1.7399 -2.3759 -1.0632
 1451SOL    HW2 4461   4.816   5.014   2.645  0.3178  1.8634 -1.3003
 1452SOL     OW 4462   0.372   0.576   3.783  0.2200  0.3007 -0.4314
 1452SOL    HW1 4463   0.333   0.538   3.861 -0.6579  1.6551 -0.1691
 1452SOL    HW2 4464   0.458   0.608   3.812 -0.7205  2.2266  0.4636
 1453SOL     OW 4465   5.550   2.743   2.970 -0.4026 -0.2664 -0.0105
 1453SOL    HW1 4466   5.641   2.713   2.977  0.0007  0.7782 -0.5566
 1453SOL    HW2 4467   5.537   2.758   2.876 -0.8337  0.4902  0.1597
 1454SOL     OW 4468   4.184   3.186   3.763  0.9067 -0.3053 -0.1906
 1454SOL    HW1 4469   4.153   3.105   3.802 -0.5013  0.0968 -0.4361
 1454SOL    HW2 4470   4.201   3.163   3.671 -0.5537 -0.0939 -0.5406
 1455SOL     OW 4471   2.427   1.992   1.897  0.0497 -0.3626 -0.1123
 1455SOL    HW1 4472   2.514   1.953   1.885 -0.2311 -0.8249 -0.7194
 1455SOL    HW2 4473   2.404   1.973   1.988 -0.3381 -2.1829 -0.5485
 1456SOL     OW 4474   3.875   1.895   1.656 -0.3932  0.4741 -0.2072
 1456SOL    HW1 4475   3.870   1.824   1.592 -1.5104  0.9963 -0.7321
 1456SOL    HW2 4476   3.791   1.893   1.702  1.2290 -1.4679  3.0585
 1457SOL     OW 4477   1.945   0.964   3.921 -0.3597  0.4048  0.2184
 1457SOL    HW1 4478   1.918   0.957   3.829  1.4136  3.0734 -0.6394
 1457SOL    HW2 4479   2.027   0.916   3.926 -0.3181  0.4857  0.3317
 1458SOL     OW 4480   3.911   0.521   0.466 -0.2735 -0.3582 -0.0057
 1458SOL    HW1 4481   3.838   0.468   0.497 -1.1103  0.3915 -0.6464
 1458SOL    HW2 4482   3.921   0.590   0.531  0.0286 -0.5979  0.2055
 1459SOL     OW 4483   5.560   4.500   2.575 -0.3720 -0.3634  0.1776
 1459SOL    HW1 4484   5.482   4.456   2.607  0.4020 -1.4424  0.6218
 1459SOL    HW2 4485   5.611   4.520   2.654  0.7677 -1.5662 -0.2088
 1460SOL     OW 4486   0.198   5.086   3.090  0.2808  0.5777  0.2647
 1460SOL    HW1 4487   0.241   5.033   3.158  0.0350  1.6798  1.2958
 1460SOL    HW2 4488   0.262   5.088   3.019  1.1052  0.5170  0.9830
 1461SOL     OW 4489   4.611   4.733   1.875 -0.2319  0.3937  0.7839
 1461SOL    HW1 4490   4.694   4.689   1.856 -0.2884  0.2734  0.8115
 1461SOL    HW2 4491   4.635   4.804   1.934 -0.3240 -0.4910  1.9269
 1462SOL     OW 4492   5.565   2.052   2.551  0.3393  0.2913  0.3278
 1462SOL    HW1 4493   5.481   2.052   2.596 -0.3871 -0.3742 -0.9615
 1462SOL    HW2 4494   5.612   1.977   2.587 -0.1132 -0.0638  0.1796
 1463SOL     OW 4495   3.127   4.842   1.364 -0.1803 -0.3782 -0.5914
 1463SOL    HW1 4496   3.208   4.824   1.412  0.3765 -0.3045 -1.4835
 1463SOL    HW2 4497   3.154   4.850   1.273 -1.0671  0.5456 -0.7942
 1464SOL     OW 4498   4.571   3.277   1.300 -0.2490  0.2487  0.7959
 1464SOL    HW1 4499   4.604   3.323   1.376 -0.4337  2.4062 -0.3509
 1464SOL    HW2 4500   4.635   3.296   1.231 -1.6278  0.9011 -0.3500
 1465SOL     OW 4501   4.969   1.645   3.035  0.3219  0.3978 -0.0324
 1465SOL    HW1 4502   4.982   1.562   2.990  1.4673 -0.2297  1.3709
 1465SOL    HW2 4503   4.876   1.664   3.024  0.0001 -1.1654 -0.2229
 1466SOL     OW 4504   3.470   0.928   2.209 -0.4792 -0.1254 -0.2410
 1466SOL    HW1 4505   3.376   0.945   2.214 -0.5702 -0.6387 -0.1800
 1466SOL    HW2 4506   3.508   0.982   2.279 -0.7378  0.0207 -0.2147
 1467SOL     OW 4507   4.451   3.533   1.380 -0.5699 -0.3479 -0.4335
 1467SOL    HW1 4508   4.448   3.452   1.329 -1.4301 -1.4692  1.3037
 1467SOL    HW2 4509   4.452   3.504   1.471 -1.4041  1.6168  0.2505
 1468SOL     OW 4510   0.948   2.345   2.508 -0.4296  0.1808  0.1103
 1468SOL    HW1 4511   0.868   2.337   2.456  0.1163 -1.2924 -0.5409
 1468SOL    HW2 4512   0.972   2.437   2.500 -0.5833  0.0948 -1.9324
 1469SOL     OW 4513   2.027   5.397   1.347  0.3622  0.4016  0.0247
 1469SOL    HW1 4514   2.043   5.466   1.411  0.0017  0.4461  0.0656
 1469SOL    HW2 4515   1.939   5.364   1.368  0.9337 -0.7936  0.6924
 1470SOL     OW 4516   2.727   0.952   3.606  0.5331  0.0718 -0.4973
 1470SOL    HW1 4517   2.771   1.036   3.619  2.0809 -0.5936 -1.1534
 1470SOL    HW2 4518   2.638   0.975   3.579  0.7744  1.4872 -0.1384
 1471SOL     OW 4519   0.033   4.233   2.449  0.3789 -0.0306 -0.3999
 1471SOL    HW1 4520   0.050   4.177   2.525  1.0278 -0.2480 -0.7029
 1471SOL    HW2 4521   0.032   4.322   2.485  0.3992 -0.1542 -0.0919
 1472SOL     OW 4522   1.712   5.055   3.705 -0.2114  0.0801 -0.3923
 1472SOL    HW1 4523   1.725   4.962   3.685 -0.9014 -0.0136 -0.4277
 1472SOL    HW2 4524   1.793   5.081   3.751 -0.7962 -1.0483  1.4110
 1473SOL     OW 4525   1.362   2.001   2.137 -0.1922  0.1844 -0.0278
 1473SOL    HW1 4526   1.276   1.959   2.149  0.1978 -0.6988 -0.2442
 1473SOL    HW2 4527   1.400   2.004   2.225  0.5745 -1.7128 -0.2383
 1474SOL     OW 4528   1.219   2.086   1.090  0.3916  0.0983 -0.3330
 1474SOL    HW1 4529   1.250   2.138   1.016  0.6967  0.0743 -0.2211
 1474SOL    HW2 4530   1.232   1.995   1.063  0.8865  0.0943 -0.0852
 1475SOL     OW 4531   4.487   4.214   3.591 -0.1092  0.3893 -0.4853
 1475SOL    HW1 4532   4.474   4.155   3.517 -3.5732  0.4201 -0.0610
 1475SOL    HW2 4533   4.437   4.293   3.567 -2.1466  0.0389  2.1612
 1476SOL     OW 4534   5.264   2.583   0.275 -0.7343 -0.7845  0.3667
 1476SOL    HW1 4535   5.316   2.515   0.318 -1.7150 -1.5729  0.3419
 1476SOL    HW2 4536   5.221   2.630   0.347 -1.0792 -1.0362  0.3264
 1477SOL     OW 4537   1.273   2.673   2.261 -0.1452 -0.4848  0.4374
 1477SOL    HW1 4538   1.329   2.742   2.227 -0.0412 -0.9095 -0.2747
 1477SOL    HW2 4539   1.310   2.651   2.347 -1.0080  1.2946  1.3117
 1478SOL     OW 4540   1.354   1.686   3.790  0.1277 -0.3275  0.4784
 1478SOL    HW1 4541   1.323   1.604   3.829  1.1715  0.3219  2.8504
 1478SOL    HW2 4542   1.276   1.740   3.781 -0.5123 -1.3963 -0.7584
 1479SOL     OW 4543   4.355   5.085   3.292 -0.4563  0.0778 -0.0248
 1479SOL    HW1 4544   4.402   5.038   3.361 -2.1678 -0.4268  0.8568
 1479SOL    HW2 4545   4.338   5.172   3.329  1.2736  0.8929 -1.0273
 1480SOL     OW 4546   1.650   1.294   2.971 -0.0700 -0.4735 -0.3368
 1480SOL    HW1 4547   1.663   1.300   3.065 -2.4404 -0.8526  0.0709
 1480SOL    HW2 4548   1.618   1.205   2.956  1.1580 -0.7352 -1.6539
 1481SOL     OW 4549   4.880   1.538   0.783  0.0297 -0.2867 -0.4011
 1481SOL    HW1 4550   4.847   1.473   0.722 -1.1610  0.0682 -0.1566
 1481SOL    HW2 4551   4.805   1.560   0.839  0.0019  2.2028 -1.2846
 1482SOL     OW 4552   4.999   0.859   0.987  0.3181  0.3146 -0.0780
 1482SOL    HW1 4553   4.914   0.903   0.988  0.2609  0.2357 -1.0781
 1482SOL    HW2 4554   4.979   0.769   1.011  0.0259  0.1501 -0.9086
 1483SOL     OW 4555   0.427   1.837   1.737 -0.7953  0.1688  0.8165
 1483SOL    HW1 4556   0.390   1.787   1.665 -0.9092  0.5595  0.6046
 1483SOL    HW2 4557   0.427   1.928   1.707  0.9805  0.1123  0.5345
 1484SOL     OW 4558   2.518   5.445   0.225 -0.3735  1.0134 -0.3786
 1484SOL    HW1 4559   2.530   5.515   0.290  1.0596  0.4297  0.0407
 1484SOL    HW2 4560   2.435   5.404   0.248  0.4070  0.4031  1.5190
 1485SOL     OW 4561   2.400   1.559   1.867 -1.1563 -0.0246 -0.5126
 1485SOL    HW1 4562   2.362   1.606   1.941 -3.3258  1.3550 -2.3686
 1485SOL    HW2 4563   2.484   1.526   1.900 -2.5117 -0.4778  2.8613
 1486SOL     OW 4564   5.022   0.931   2.163 -0.0678 -0.0999 -0.6666
 1486SOL    HW1 4565   5.003   0.978   2.083  0.4855 -0.4268 -0.9991
 1486SOL    HW2 4566   4.997   0.841   2.145 -0.8826  0.0048 -0.1215
 1487SOL     OW 4567   0.409   0.098   0.325 -0.3752  0.3629 -0.0488
 1487SOL    HW1 4568   0.430   0.187   0.353 -0.2968  0.2957  0.1057
 1487SOL    HW2 4569   0.412   0.046   0.405 -0.8860  0.3062 -0.0614
 1488SOL     OW 4570   0.343   1.151   0.521  0.4605  0.4471 -0.4805
 1488SOL    HW1 4571   0.323   1.089   0.451  0.0511 -0.1847  0.1885
 1488SOL    HW2 4572   0.258   1.184   0.548  0.6663  1.2280 -0.7523
 1489SOL     OW 4573   4.762   4.986   0.911  0.3650 -0.2186  0.4133
 1489SOL    HW1 4574   4.711   4.908   0.888  0.4178 -0.3323  0.6717
 1489SOL    HW2 4575   4.706   5.033   0.973 -0.0381  0.3971 -0.3944
 1490SOL     OW 4576   3.428   1.717   0.392 -0.3305  0.2590  0.1691
 1490SOL    HW1 4577   3.439   1.771   0.314  1.2623  1.4169  1.1290
 1490SOL    HW2 4578   3.336   1.728   0.416 -0.2461  1.9461 -0.1479
 1491SOL     OW 4579   1.424   0.473   1.488 -0.0903 -0.1193  0.5595
 1491SOL    HW1 4580   1.509   0.480   1.446  0.3058 -4.4953  0.2541
 1491SOL    HW2 4581   1.444   0.477   1.582  0.3610 -0.5205  0.4828
 1492SOL     OW 4582   2.016   2.411   0.424  0.4852 -0.2001  0.0640
 1492SOL    HW1 4583   2.072   2.400   0.501 -0.9738  0.1719  1.2353
 1492SOL    HW2 4584   1.947   2.345   0.434 -0.4223  0.6677 -0.2321
 1493SOL     OW 4585   4.370   1.493   2.581  0.0571  0.0520  0.1932
 1493SOL    HW1 4586   4.295   1.434   2.583 -0.5922  0.7818 -1.1449
 1493SOL    HW2 4587   4.446   1.435   2.577 -0.5205 -0.6983 -0.1939
 1494SOL     OW 4588   5.103   2.731   0.476  0.4395 -0.3367  0.2714
 1494SOL    HW1 4589   5.157   2.803   0.508  0.0585  0.5706 -1.0656
 1494SOL    HW2 4590   5.028   2.773   0.435 -0.0572 -1.5158 -0.0841
 1495SOL     OW 4591   5.050   1.450   1.522 -0.3848 -0.0785 -0.2919
 1495SOL    HW1 4592   5.064   1.482   1.611  0.1283 -2.1651  0.4310
 1495SOL    HW2 4593   5.106   1.506   1.468  1.0165 -0.1675  0.9774
 1496SOL     OW 4594   2.397   2.616   2.282 -0.4282  0.2647  0.3410
 1496SOL    HW1 4595   2.386   2.552   2.353  1.1921 -2.5527 -1.7130
 1496SOL    HW2 4596   2.390   2.563   2.202 -3.1575  3.4017 -1.7473
 1497SOL     OW 4597   0.333   4.527   1.382 -0.4330 -0.3849  0.1971
 1497SOL    HW1 4598   0.342   4.556   1.473 -1.6666  0.6008  0.0448
 1497SOL    HW2 4599   0.244   4.492   1.377  0.1498 -1.8447 -0.2768
 1498SOL     OW 4600   1.019   3.233   0.044  0.5321 -0.0764  0.2325
 1498SOL    HW1 4601   0.971   3.316   0.052 -0.7152 -0.7669  0.1517
 1498SOL    HW2 4602   1.086   3.238   0.111  0.5941  1.0787  0.1094
 1499SOL     OW 4603   5.273   3.694   1.950 -0.2241 -0.0154  0.0068
 1499SOL    HW1 4604   5.335   3.644   2.002 -0.3458  1.4180  1.6047
 1499SOL    HW2 4605   5.299   3.678   1.859  0.0091 -2.5563  0.4496
 1500SOL     OW 4606   0.762   5.457   2.841 -0.1474 -0.1743  0.1315
 1500SOL    HW1 4607   0.677   5.452   2.797 -0.9656 -0.2977  1.6689
 1500SOL    HW2 4608   0.746   5.420   2.928  1.1726  0.9583  0.8891
 1501SOL     OW 4609   0.781   4.562   0.636  0.6311  0.2349  0.6582
 1501SOL    HW1 4610   0.758   4.472   0.660 -0.5751 -0.1735 -1.7352
 1501SOL    HW2 4611   0.711   4.616   0.673  0.5803  0.0242  0.8673
 1502SOL     OW 4612   0.037   3.643   2.984 -0.0097  0.3358 -0.3892
 1502SOL    HW1 4613   0.084   3.677   2.907  1.0529  1.2908  0.6479
 1502SOL    HW2 4614  -0.003   3.720   3.024  0.3510  0.0249  0.6066
 1503SOL     OW 4615   3.316   5.513   3.122 -0.3862  0.6824  0.2111
 1503SOL    HW1 4616   3.347   5.519   3.032 -0.1813  1.2143  0.3135
 1503SOL    HW2 4617   3.274   5.598   3.138 -0.7015  0.4719  0.5137
 1504SOL     OW 4618   0.155   2.345   2.664 -0.0479 -0.1306 -0.0705
 1504SOL    HW1 4619   0.216   2.272   2.657  1.7607  1.4229 -2.2359
 1504SOL    HW2 4620   0.068   2.305   2.667  0.9500 -2.3743  1.3196
 1505SOL     OW 4621   1.098   0.160   1.136 -0.0707 -0.0038  0.2965
 1505SOL    HW1 4622   1.027   0.219   1.112 -1.9315 -1.1223  2.6597
 1505SOL    HW2 4623   1.121   0.185   1.225  1.1947 -0.9325  0.2675
 1506SOL     OW 4624   5.090   4.617   1.459  0.2847 -0.1415 -0.2619
 1506SOL    HW1 4625   5.099   4.575   1.544  1.2622  2.4458  0.9914
 1506SOL    HW2 4626   5.009   4.668   1.466 -0.8481 -1.6114 -1.7395
 1507SOL     OW 4627   5.150   4.720   0.445  0.6184 -0.1238  0.2924
 1507SOL    HW1 4628   5.213   4.744   0.377 -1.0413 -0.3179 -1.3744
 1507SOL    HW2 4629   5.192   4.647   0.491  1.7386 -0.0539 -0.5677
 1508SOL     OW 4630   2.489   1.559   0.710  0.3187  0.5579  0.6479
 1508SOL    HW1 4631   2.492   1.577   0.804 -0.5743 -1.7108  1.1763
 1508SOL    HW2 4632   2.433   1.482   0.702  0.0198  0.9488 -1.8103
 1509SOL     OW 4633   5.084   0.083   1.336 -0.0628 -0.6186  0.1593
 1509SOL    HW1 4634   5.119   0.067   1.423  0.5168  0.3038  0.1113
 1509SOL    HW2 4635   5.041   0.168   1.343  2.2658  0.7719 -1.0681
 1510SOL     OW 4636   3.031   5.367   3.628 -0.3822  0.4360 -0.1255
 1510SOL    HW1 4637   3.070   5.411   3.552 -0.2487  0.5116 -0.0141
 1510SOL    HW2 4638   3.070   5.411   3.704 -1.0187  0.8120 -0.0043
 1511SOL     OW 4639   5.030   5.364   1.411 -0.5381  0.1839  0.3708
 1511SOL    HW1 4640   5.065   5.296   1.468 -0.2110  1.7634  2.1753
 1511SOL    HW2 4641   4.972   5.415   1.467 -0.8849  1.3087 -0.9423
 1512SOL     OW 4642   4.480   3.204   0.336  0.3717  0.2827 -0.0593
 1512SOL    HW1 4643   4.556   3.220   0.393 -1.2896  1.7149  1.8859
 1512SOL    HW2 4644   4.436   3.288   0.331 -1.0860 -0.5062 -1.1925
 1513SOL     OW 4645   0.938   3.642   0.474 -0.4387 -0.5348 -0.3255
 1513SOL    HW1 4646   1.025   3.605   0.458 -0.0998  0.3497 -0.5560
 1513SOL    HW2 4647   0.910   3.603   0.557  0.7402  0.1863  0.4349
 1514SOL     OW 4648   0.510   4.531   3.635 -0.2855 -0.1704  0.4059
 1514SOL    HW1 4649   0.501   4.624   3.614  1.1906 -0.4887 -2.0533
 1514SOL    HW2 4650   0.422   4.496   3.623 -0.4310  0.5501 -0.8701
 1515SOL     OW 4651   1.977   4.759   2.490  0.3897  0.0477 -0.1355
 1515SOL    HW1 4652   1.894   4.805   2.505 -0.3726 -1.3475  0.1134
 1515SOL    HW2 4653   2.030   4.821   2.440 -2.5846 -0.7458 -4.8304
 1516SOL     OW 4654   5.524   1.835   1.078 -0.0881 -0.2925 -0.1216
 1516SOL    HW1 4655   5.487   1.885   1.150  0.2031  2.0458 -1.4702
 1516SOL    HW2 4656   5.597   1.889   1.047  0.5897 -1.8407 -1.3604
 1517SOL     OW 4657   4.178   0.709   0.735 -0.0073 -0.1617  0.0201
 1517SOL    HW1 4658   4.204   0.624   0.771  0.2232  0.2916  0.9680
 1517SOL    HW2 4659   4.248   0.731   0.673 -0.6188 -1.1436 -1.0414
 1518SOL     OW 4660   4.955   4.067   0.450 -0.4838 -0.9121 -0.4409
 1518SOL    HW1 4661   4.906   4.079   0.369  0.0821  0.8904 -0.5586
 1518SOL    HW2 4662   5.003   3.985   0.436  2.1610  0.8679 -3.3883
 1519SOL     OW 4663   5.314   3.290   3.272  0.4306 -0.5533  0.8426
 1519SOL    HW1 4664   5.340   3.382   3.273  2.6731 -1.1300  2.2600
 1519SOL    HW2 4665   5.324   3.264   3.180  0.8047  0.3303  0.6238
 1520SOL     OW 4666   3.178   1.688   0.502  0.3024 -0.1117 -0.1963
 1520SOL    HW1 4667   3.189   1.667   0.595  1.4021  0.0984 -0.2665
 1520SOL    HW2 4668   3.094   1.649   0.478  0.6089 -1.2617  0.5644
 1521SOL     OW 4669   2.139   0.097   2.825 -0.2184  0.3395 -0.3131
 1521SOL    HW1 4670   2.095   0.014   2.804  0.5284 -0.1831  0.1328
 1521SOL    HW2 4671   2.168   0.130   2.740  1.7444 -1.1744 -0.3088
 1522SOL     OW 4672   5.402   4.249   3.569  0.1087 -0.5029  0.4653
 1522SOL    HW1 4673   5.339   4.180   3.549 -0.6640  0.3723 -0.1781
 1522SOL    HW2 4674   5.358   4.330   3.544  2.0429  0.0466 -1.4695
 1523SOL     OW 4675   0.224   1.223   3.541  0.1374  0.0232 -0.1233
 1523SOL    HW1 4676   0.302   1.230   3.485  0.5116  2.3154  0.5522
 1523SOL    HW2 4677   0.202   1.314   3.561 -2.3411 -0.6041  0.2580
 1524SOL     OW 4678   3.396   0.149   0.693  0.4853  0.3365 -0.0935
 1524SOL    HW1 4679   3.486   0.120   0.684  1.0871  1.6758  1.1421
 1524SOL    HW2 4680   3.370   0.119   0.781  0.3052  1.3791  0.2208
 1525SOL     OW 4681   5.085   3.513   2.956  0.2252  0.5376  0.5626
 1525SOL    HW1 4682   5.175   3.487   2.935  0.1976  1.8521 -1.4132
 1525SOL    HW2 4683   5.033   3.435   2.935  0.9337 -0.6353  2.7796
 1526SOL     OW 4684   0.735   0.696   3.009  0.3413  0.0955  0.3059
 1526SOL    HW1 4685   0.649   0.699   3.051  1.7242  0.7548  3.4119
 1526SOL    HW2 4686   0.739   0.608   2.971 -0.4681 -1.3409  3.1855
 1527SOL     OW 4687   0.126   4.871   2.500 -0.4127  0.0962 -0.4734
 1527SOL    HW1 4688   0.104   4.961   2.527 -0.5860  0.0823 -0.5684
 1527SOL    HW2 4689   0.208   4.880   2.451 -0.8246  0.3053 -1.1387
 1528SOL     OW 4690   4.915   4.182   0.176  0.0668 -0.1577  0.6012
 1528SOL    HW1 4691   4.971   4.217   0.107  0.2436 -1.9936 -0.2388
 1528SOL    HW2 4692   4.826   4.205   0.149  0.2500  0.9024  0.8444
 1529SOL     OW 4693   0.666   0.394   0.949 -0.5267 -0.3821  0.0946
 1529SOL    HW1 4694   0.619   0.459   1.002 -0.9376  0.5841 -1.3968
 1529SOL    HW2 4695   0.600   0.356   0.892 -0.1443 -1.6308  0.4456
 1530SOL     OW 4696   4.248   4.728   3.806  0.1939 -0.2420  0.2317
 1530SOL    HW1 4697   4.228   4.809   3.758 -1.2506 -1.3301 -1.1129
 1530SOL    HW2 4698   4.333   4.701   3.773  0.0839  0.0482 -0.3082
 1531SOL     OW 4699   1.777   5.553   1.673 -0.1362 -0.4858  0.6083
 1531SOL    HW1 4700   1.857   5.501   1.676  0.3322 -0.0885 -2.2444
 1531SOL    HW2 4701   1.715   5.504   1.728  1.6807 -1.4156  1.9418
 1532SOL     OW 4702   4.079   4.478   1.119  0.0001  0.6283 -0.5960
 1532SOL    HW1 4703   4.018   4.433   1.177  0.0297  0.4614 -0.6950
 1532SOL    HW2 4704   4.127   4.408   1.076 -0.1758  0.7460 -0.9900
 1533SOL     OW 4705   2.749   1.703   0.966 -0.0277 -0.3901 -0.1729
 1533SOL    HW1 4706   2.663   1.674   0.997 -0.6264 -0.8893 -2.1453
 1533SOL    HW2 4707   2.803   1.624   0.968 -0.4021 -0.6881 -1.4536
 1534SOL     OW 4708   2.491   1.859   0.045 -0.5573 -0.2327  0.1656
 1534SOL    HW1 4709   2.409   1.813   0.028 -1.0973 -0.3999  2.8383
 1534SOL    HW2 4710   2.541   1.800   0.102  1.1688  0.1392 -0.8883
 1535SOL     OW 4711   4.864   3.171   0.316 -0.0611  0.3810 -0.0150
 1535SOL    HW1 4712   4.811   3.234   0.364  0.3278 -0.1875  1.1894
 1535SOL    HW2 4713   4.954   3.198   0.331  0.0659  0.3615 -0.6797
 1536SOL     OW 4714   0.183   3.350   0.120 -0.5592 -0.0327  0.0250
 1536SOL    HW1 4715   0.248   3.368   0.052 -1.4433 -1.4046 -1.2235
 1536SOL    HW2 4716   0.209   3.407   0.192  0.6289  1.2059 -1.3050
 1537SOL     OW 4717   5.544   1.262   1.801  0.1662  0.4544  0.5069
 1537SOL    HW1 4718   5.591   1.181   1.821  0.2555  0.6894  1.2645
 1537SOL    HW2 4719   5.557   1.273   1.706  1.1591  0.2109  0.5939
 1538SOL     OW 4720   3.225   3.504   2.744 -0.0575  0.4291  0.4964
 1538SOL    HW1 4721   3.230   3.429   2.804  1.3399  0.9346  1.0427
 1538SOL    HW2 4722   3.178   3.571   2.792  0.9926  0.8055  1.0377
 1539SOL     OW 4723   5.225   4.637   2.480  0.3109  0.2587  0.0987
 1539SOL    HW1 4724   5.258   4.552   2.509  1.0928  0.5245  0.0123
 1539SOL    HW2 4725   5.298   4.697   2.495 -0.5769  1.1143  1.1135
 1540SOL     OW 4726   0.203   0.658   3.058 -0.1940  0.5165  0.2667
 1540SOL    HW1 4727   0.216   0.611   2.976  0.2719  1.0129  0.0545
 1540SOL    HW2 4728   0.228   0.595   3.126 -1.3937 -0.1967  0.0910
 1541SOL     OW 4729   0.487   1.988   2.095  0.0647 -0.4275 -0.1057
 1541SOL    HW1 4730   0.526   2.075   2.091 -1.3734  0.2268 -0.2755
 1541SOL    HW2 4731   0.530   1.939   2.024  0.8211  0.1563 -0.0570
 1542SOL     OW 4732   1.956   1.338   3.153  0.7729  0.1758 -0.3108
 1542SOL    HW1 4733   1.963   1.290   3.070 -0.2899 -0.3358 -0.1330
 1542SOL    HW2 4734   2.044   1.372   3.169  1.2263 -0.5405 -1.1603
 1543SOL     OW 4735   3.651   5.054   3.515 -0.6844  1.0030  0.0803
 1543SOL    HW1 4736   3.555   5.059   3.520 -0.9995 -2.8317  2.8170
 1543SOL    HW2 4737   3.681   5.139   3.547 -3.3078  1.3093  2.1221
 1544SOL     OW 4738   1.079   3.772   3.506  0.2264 -0.0184 -0.4555
 1544SOL    HW1 4739   1.049   3.706   3.444 -2.1558  0.7132 -0.1845
 1544SOL    HW2 4740   1.061   3.734   3.592 -1.3700  1.0166 -0.2979
 1545SOL     OW 4741   0.919   4.005   2.207 -0.4209  0.4296 -0.1683
 1545SOL    HW1 4742   0.897   3.923   2.250 -0.5967  0.0871 -0.8919
 1545SOL    HW2 4743   0.936   4.066   2.278 -0.0004 -0.3142  0.3796
 1546SOL     OW 4744   2.836   5.284   2.995 -0.2878 -0.1071  0.0738
 1546SOL    HW1 4745   2.859   5.215   3.056  0.0308  0.1928  0.2996
 1546SOL    HW2 4746   2.794   5.351   3.048 -2.6448 -1.0455 -0.4699
 1547SOL     OW 4747   0.334   4.302   3.598  0.4461 -0.0334 -0.5838
 1547SOL    HW1 4748   0.377   4.221   3.569  0.3836 -0.1209 -0.4354
 1547SOL    HW2 4749   0.251   4.302   3.551 -0.0291 -0.6076  0.2272
 1548SOL     OW 4750   3.966   2.909   2.309  0.1907 -0.5023  0.8256
 1548SOL    HW1 4751   4.053   2.892   2.344  0.4604 -2.1367 -0.4824
 1548SOL    HW2 4752   3.911   2.839   2.346 -0.7093  0.7975  2.0273
 1549SOL     OW 4753   5.151   0.818   3.688  0.1074 -0.0293 -0.3387
 1549SOL    HW1 4754   5.119   0.812   3.599 -0.6703 -0.1813 -0.0553
 1549SOL    HW2 4755   5.238   0.856   3.680  0.1896 -0.3842 -1.1883
 1550SOL     OW 4756   3.207   5.243   3.078  0.0760  0.0103 -0.0685
 1550SOL    HW1 4757   3.158   5.231   3.159  0.8771 -1.3011  0.2513
 1550SOL    HW2 4758   3.261   5.320   3.094  0.2659 -0.2703  0.6601
 1551SOL     OW 4759   0.165   3.257   3.314  0.4458  0.0373 -0.3337
 1551SOL    HW1 4760   0.086   3.223   3.357 -0.3723  0.4563 -1.4568
 1551SOL    HW2 4761   0.132   3.301   3.235  1.2371  4.5840  1.5393
 1552SOL     OW 4762   1.793   3.545   0.564 -0.7052  0.0355 -0.4925
 1552SOL    HW1 4763   1.773   3.456   0.535 -0.9601 -0.3506  0.8011
 1552SOL    HW2 4764   1.745   3.555   0.646 -1.9433  1.9378 -1.3922
 1553SOL     OW 4765   2.035   2.061   0.510 -0.3091 -0.3465 -0.1277
 1553SOL    HW1 4766   2.127   2.046   0.532 -0.4258 -0.8154  0.0699
 1553SOL    HW2 4767   2.008   1.979   0.468  0.0069  0.6614 -2.4064
 1554SOL     OW 4768   1.005   1.382   1.351  0.0920 -0.4863  0.2780
 1554SOL    HW1 4769   1.043   1.297   1.368  0.2448 -0.3581  0.5827
 1554SOL    HW2 4770   0.947   1.368   1.276  0.6023 -0.7146 -0.0766
 1555SOL     OW 4771   0.627   1.864   1.901  0.1793  0.4249  0.3731
 1555SOL    HW1 4772   0.553   1.863   1.840  0.6291  2.6795 -0.3212
 1555SOL    HW2 4773   0.699   1.825   1.853  0.0957  0.6482  0.0575
 1556SOL     OW 4774   5.214   5.013   0.011  0.1905  0.5340  0.0022
 1556SOL    HW1 4775   5.298   5.010  -0.036 -0.1342  1.5640 -0.6844
 1556SOL    HW2 4776   5.167   5.086  -0.030 -0.8219  0.3144  0.7516
 1557SOL     OW 4777   4.463   4.537   1.999 -0.0944 -0.2418 -1.0665
 1557SOL    HW1 4778   4.530   4.599   1.971 -0.4548  0.1056 -1.1594
 1557SOL    HW2 4779   4.457   4.548   2.094 -3.3909  3.2395 -1.4217
 1558SOL     OW 4780   3.137   1.786   3.201 -0.4093  0.6519  0.0271
 1558SOL    HW1 4781   3.164   1.873   3.172 -1.1487  0.7040 -0.5287
 1558SOL    HW2 4782   3.113   1.797   3.292 -1.6099  1.2988 -0.3433
 1559SOL     OW 4783   4.016   1.543   2.237 -0.7287  0.4636 -0.1154
 1559SOL    HW1 4784   3.971   1.594   2.304  1.5050 -0.2516  2.0770
 1559SOL    HW2 4785   3.981   1.455   2.246 -1.6109  0.6997 -1.0691
 1560SOL     OW 4786   4.700   5.316   2.670 -0.0140 -0.1512 -0.0201
 1560SOL    HW1 4787   4.721   5.223   2.679 -2.3214 -0.6705  0.5685
 1560SOL    HW2 4788   4.759   5.347   2.601  1.3216 -1.8541  0.2957
 1561SOL     OW 4789   1.640   4.279   0.080 -0.5627  0.2032 -0.1744
 1561SOL    HW1 4790   1.626   4.358   0.132  0.0646  0.7814 -0.8597
 1561SOL    HW2 4791   1.560   4.228   0.091 -1.2637  1.2471 -0.2779
 1562SOL     OW 4792   4.927   4.231   2.721  0.8716  0.5036  0.2470
 1562SOL    HW1 4793   4.976   4.247   2.802  0.4123 -0.6929  0.7831
 1562SOL    HW2 4794   4.942   4.139   2.702 -2.0046 -0.2379  1.0434
 1563SOL     OW 4795   1.652   3.613   0.799 -0.6741  0.4425  0.2852
 1563SOL    HW1 4796   1.652   3.541   0.861  1.6740  0.7153  0.6915
 1563SOL    HW2 4797   1.642   3.692   0.853  0.2150  0.6084  0.2216
 1564SOL     OW 4798   5.250   4.060   3.451  0.6369  0.0345  0.0458
 1564SOL    HW1 4799   5.220   4.128   3.390  0.5897 -1.3797 -1.5952
 1564SOL    HW2 4800   5.174   4.003   3.462 -0.0802  1.3867  3.2344
 1565SOL     OW 4801   4.790   1.908   0.379  0.2255  0.3979 -0.0766
 1565SOL    HW1 4802   4.728   1.836   0.393 -0.7227  1.4448  1.5158
 1565SOL    HW2 4803   4.876   1.868   0.390  0.0181 -1.3659 -3.5734
 1566SOL     OW 4804   2.214   4.063   2.887 -0.3490  0.1383  0.0033
 1566SOL    HW1 4805   2.214   4.050   2.982  2.4053  0.6833  0.1621
 1566SOL    HW2 4806   2.284   4.006   2.855 -1.4093 -0.2513 -1.7790
 1567SOL     OW 4807   4.531   5.203   2.039  0.2976  0.5661 -0.0262
 1567SOL    HW1 4808   4.481   5.223   1.960  1.1190  0.2204 -0.6447
 1567SOL    HW2 4809   4.472   5.225   2.111 -0.3445  1.1899 -0.7291
 1568SOL     OW 4810   1.650   5.557   2.113 -0.0839  0.3297 -0.2177
 1568SOL    HW1 4811   1.685   5.508   2.188 -1.2913  0.2796  0.3513
 1568SOL    HW2 4812   1.707   5.632   2.104  0.6814 -0.2021  0.1152
 1569SOL     OW 4813   1.571   2.333   2.258  0.5336 -0.2314 -0.0591
 1569SOL    HW1 4814   1.527   2.311   2.176 -1.4452  1.0255  0.5914
 1569SOL    HW2 4815   1.510   2.308   2.327  1.2784  0.5739  0.9412
 1570SOL     OW 4816   5.115   0.209   1.574 -0.2651  0.0361  0.0770
 1570SOL    HW1 4817   5.110   0.134   1.633  0.1600 -0.1832 -0.1600
 1570SOL    HW2 4818   5.054   0.273   1.611 -1.1958 -0.7083 -0.1256
 1571SOL     OW 4819   0.889   1.106   1.453  0.0389 -0.1755 -0.2705
 1571SOL    HW1 4820   0.851   1.043   1.514 -0.9798  0.7842  0.1073
 1571SOL    HW2 4821   0.842   1.188   1.470  0.6429  0.4378 -1.4461
 1572SOL     OW 4822   2.065   3.537   0.655 -0.0517  0.1012  0.3162
 1572SOL    HW1 4823   2.071   3.530   0.750  1.3327  0.4371  0.2647
 1572SOL    HW2 4824   1.971   3.542   0.637 -0.2953  1.2354  1.7527
 1573SOL     OW 4825   3.570   4.003   2.191  0.6838 -0.1424 -0.5769
 1573SOL    HW1 4826   3.496   4.043   2.145  0.5688 -0.1513 -0.4026
 1573SOL    HW2 4827   3.647   4.030   2.142  0.6454  0.6493 -0.2125
 1574SOL     OW 4828   5.168   2.003   3.685 -0.2030 -0.2904  0.9465
 1574SOL    HW1 4829   5.245   1.956   3.655  0.1637  0.7699  0.1823
 1574SOL    HW2 4830   5.147   2.064   3.615 -0.9707  0.3317  1.6844
 1575SOL     OW 4831   1.229   3.380   1.407 -0.3914 -0.1628  0.0224
 1575SOL    HW1 4832   1.294   3.449   1.419 -1.4179  0.8578 -0.1411
 1575SOL    HW2 4833   1.269   3.320   1.344 -0.0463  1.0268 -0.9266
 1576SOL     OW 4834   2.227   0.084   0.932  0.6892 -0.4424 -0.0984
 1576SOL    HW1 4835   2.183   0.042   1.006  2.6965  0.6328  1.8357
 1576SOL    HW2 4836   2.237   0.015   0.867 -1.1287 -1.4381  0.6208
 1577SOL     OW 4837   0.714   5.010   1.626 -0.0016 -0.4359  0.1391
 1577SOL    HW1 4838   0.637   4.985   1.575 -0.5254 -0.5841  0.9882
 1577SOL    HW2 4839   0.745   4.927   1.663 -0.6858 -0.1044  1.5081
 1578SOL     OW 4840   5.243   1.536   0.380 -0.1086  0.2428  0.3000
 1578SOL    HW1 4841   5.331   1.546   0.344 -0.0170  0.5484  0.6032
 1578SOL    HW2 4842   5.258   1.516   0.473 -0.3730  0.9775  0.5023
 1579SOL     OW 4843   1.527   3.139   3.391 -0.1901 -0.1645  0.0357
 1579SOL    HW1 4844   1.455   3.077   3.380  0.6991 -1.3591  0.7191
 1579SOL    HW2 4845   1.493   3.205   3.450 -1.1073 -0.0634 -0.5805
 1580SOL     OW 4846   2.307   2.464   1.804 -0.4046 -0.3732  0.0953
 1580SOL    HW1 4847   2.293   2.384   1.754  0.6911 -0.8806  0.5631
 1580SOL    HW2 4848   2.237   2.523   1.777 -0.6288 -1.1322 -1.0005
 1581SOL     OW 4849   2.432   1.904   1.534  0.4508  0.2431  0.0899
 1581SOL    HW1 4850   2.526   1.907   1.554 -0.0565 -0.7319  3.1566
 1581SOL    HW2 4851   2.428   1.864   1.447  2.8709  0.2081 -0.0933
 1582SOL     OW 4852   1.281   1.751   1.729 -0.0468 -0.0253  0.5902
 1582SOL    HW1 4853   1.225   1.749   1.806 -1.4817  3.1395 -0.2153
 1582SOL    HW2 4854   1.357   1.802   1.756 -0.1530  0.3717  0.1499
 1583SOL     OW 4855   0.749   2.085   2.731 -0.2833  0.5582 -0.2583
 1583SOL    HW1 4856   0.678   2.040   2.776 -0.7642  1.7425  0.2071
 1583SOL    HW2 4857   0.729   2.075   2.638 -1.1957  1.0853 -0.1268
 1584SOL     OW 4858   4.092   2.422   3.879 -0.0758 -0.2661 -0.0899
 1584SOL    HW1 4859   4.173   2.463   3.851  0.7329 -1.1459  0.8919
 1584SOL    HW2 4860   4.111   2.328   3.880 -0.1280 -0.3375  3.0242
 1585SOL     OW 4861   2.563   4.549   2.604  0.3098 -0.4418  0.2499
 1585SOL    HW1 4862   2.632   4.616   2.603  0.4685 -0.5089  2.4427
 1585SOL    HW2 4863   2.498   4.580   2.541  1.0742  1.0277  0.1507
 1586SOL     OW 4864   4.058   0.617   1.544 -0.2018 -0.1723 -0.7863
 1586SOL    HW1 4865   4.038   0.575   1.460 -2.0377  0.1854 -0.5774
 1586SOL    HW2 4866   4.146   0.652   1.533  0.4204 -1.8989 -1.8340
 1587SOL     OW 4867   5.282   2.475   0.593  0.6956 -0.5761 -0.2274
 1587SOL    HW1 4868   5.301   2.451   0.683 -0.6317  0.1995  0.2843
 1587SOL    HW2 4869   5.281   2.392   0.545  1.0715 -1.0225  0.5295
 1588SOL     OW 4870   0.795   2.501   1.454 -0.1395  0.3719 -0.1243
 1588SOL    HW1 4871   0.759   2.448   1.525 -0.9378  0.1249 -0.6913
 1588SOL    HW2 4872   0.869   2.451   1.420 -0.8703 -0.3854 -0.6358
 1589SOL     OW 4873   3.309   1.263   0.159  0.0614  0.2387 -0.0172
 1589SOL    HW1 4874   3.284   1.239   0.069  0.9638 -1.9639  0.2636
 1589SOL    HW2 4875   3.233   1.239   0.211 -0.7764  2.2529 -0.2311
 1590SOL     OW 4876   2.703   1.075   0.306  0.2189 -0.0162  0.1289
 1590SOL    HW1 4877   2.722   1.046   0.217  1.3916  0.1691  0.3069
 1590SOL    HW2 4878   2.756   1.154   0.318 -0.3375  0.2741  0.8173
 1591SOL     OW 4879   3.191   3.680   1.835 -0.1240 -0.1042 -0.0125
 1591SOL    HW1 4880   3.256   3.747   1.856 -0.3420  0.0902  0.0473
 1591SOL    HW2 4881   3.120   3.727   1.792  1.2250 -0.7927 -3.2063
 1592SOL     OW 4882   0.820   0.818   0.055  0.0158 -0.0879 -0.3962
 1592SOL    HW1 4883   0.798   0.887   0.117  1.9445 -0.7672  1.1466
 1592SOL    HW2 4884   0.856   0.865  -0.021  0.6320  0.6455  0.3347
 1593SOL     OW 4885   4.362   2.212   2.700 -0.4312  0.2075 -0.4851
 1593SOL    HW1 4886   4.379   2.303   2.674 -1.3426  0.3910 -0.5057
 1593SOL    HW2 4887   4.313   2.220   2.782  0.0324 -0.2900 -0.1540
 1594SOL     OW 4888   4.543   4.269   1.513 -0.4352 -0.3487 -0.4605
 1594SOL    HW1 4889   4.630   4.246   1.545 -1.6727 -2.8240  1.5019
 1594SOL    HW2 4890   4.517   4.344   1.566  0.2382 -0.0113 -0.6028
 1595SOL     OW 4891   4.509   1.175   1.103  0.1458  0.1607  0.4498
 1595SOL    HW1 4892   4.452   1.250   1.087  0.6642  0.7010  1.0946
 1595SOL    HW2 4893   4.597   1.206   1.079  0.3092 -0.3605  0.3626
 1596SOL     OW 4894   4.337   4.391   2.392  0.3378 -0.4587  0.4833
 1596SOL    HW1 4895   4.395   4.367   2.464 -0.3293 -0.3218  1.0682
 1596SOL    HW2 4896   4.369   4.477   2.363  0.8824 -0.7128  0.3180
 1597SOL     OW 4897   4.423   0.937   3.783  0.5638 -0.1808  0.1595
 1597SOL    HW1 4898   4.500   0.926   3.839  0.1433  1.7108  1.2073
 1597SOL    HW2 4899   4.359   0.983   3.838 -2.3169 -3.7103  0.1623
 1598SOL     OW 4900   2.943   1.749   0.759 -0.1306 -0.2356  0.7184
 1598SOL    HW1 4901   2.856   1.750   0.800 -0.3507  0.3185  0.2592
 1598SOL    HW2 4902   2.945   1.829   0.706 -0.1083 -1.2374 -0.8519
 1599SOL     OW 4903   3.706   2.993   2.860  0.4248 -0.5356  0.4555
 1599SOL    HW1 4904   3.752   3.016   2.941 -1.7361 -2.7265  2.5216
 1599SOL    HW2 4905   3.766   2.935   2.814  1.0098 -0.7392  1.4339
 1600SOL     OW 4906   4.475   4.665   0.834 -0.2848 -0.0025  0.2982
 1600SOL    HW1 4907   4.434   4.596   0.886  2.4220 -2.7883 -0.9334
 1600SOL    HW2 4908   4.435   4.655   0.747  0.8930 -0.8523 -0.1713
 1601SOL     OW 4909   3.288   2.652   0.627  0.0538  0.8183  0.6288
 1601SOL    HW1 4910   3.291   2.581   0.691  0.4343 -0.6739 -0.9805
 1601SOL    HW2 4911   3.376   2.653   0.587 -0.7816  0.2746 -1.3357
 1602SOL     OW 4912   2.495   2.706   2.604 -0.3289  0.2535  0.1288
 1602SOL    HW1 4913   2.574   2.678   2.557  0.8508  0.8962  1.6181
 1602SOL    HW2 4914   2.480   2.638   2.669  0.1211  0.9854  1.0420
 1603SOL     OW 4915   1.590   1.213   2.586  0.9927 -0.2291 -0.3332
 1603SOL    HW1 4916   1.507   1.257   2.572  0.4532 -0.9459  0.4721
 1603SOL    HW2 4917   1.646   1.279   2.628  0.1810 -0.3062  0.9137
 1604SOL     OW 4918   5.310   4.995   2.993  0.2491 -0.2360 -0.1367
 1604SOL    HW1 4919   5.350   5.031   3.072  1.2712  0.1570 -0.8063
 1604SOL    HW2 4920   5.360   5.034   2.921  0.1875 -1.5818 -0.9380
 1605SOL     OW 4921   1.802   4.157   1.576 -0.3320 -0.2330 -0.8023
 1605SOL    HW1 4922   1.836   4.231   1.526 -0.6907 -0.4184 -1.3298
 1605SOL    HW2 4923   1.729   4.124   1.524  0.8219 -1.9776 -1.4291
 1606SOL     OW 4924   0.567   0.407   1.880 -0.0392 -0.1636  0.4095
 1606SOL    HW1 4925   0.576   0.397   1.785  0.8657 -0.8216  0.5606
 1606SOL    HW2 4926   0.650   0.377   1.916 -0.7019 -0.7822  1.4708
 1607SOL     OW 4927   4.471   2.730   0.767  0.4375  0.0436 -0.3007
 1607SOL    HW1 4928   4.420   2.660   0.808 -1.8438 -0.3632 -3.4028
 1607SOL    HW2 4929   4.560   2.696   0.763  0.1433 -1.0568  1.5550
 1608SOL     OW 4930   2.259   3.428   3.206  0.2600  0.2494  0.1125
 1608SOL    HW1 4931   2.308   3.510   3.207 -0.7760  1.0482 -2.5796
 1608SOL    HW2 4932   2.319   3.364   3.168  0.6163  0.0934  0.9229
 1609SOL     OW 4933   4.956   2.054   0.964 -0.1250  0.4143 -0.1398
 1609SOL    HW1 4934   4.932   2.087   0.877 -0.1333  1.0187  0.0875
 1609SOL    HW2 4935   5.050   2.066   0.970 -0.0239 -0.2240 -0.3046
 1610SOL     OW 4936   5.038   0.939   0.445 -0.3248 -0.6497  0.2628
 1610SOL    HW1 4937   4.968   0.873   0.442 -1.1343  0.1071  1.4317
 1610SOL    HW2 4938   5.110   0.895   0.491 -0.2628 -1.2273 -0.3737
 1611SOL     OW 4939   1.366   1.445   0.609  0.7368  0.2776 -0.3317
 1611SOL    HW1 4940   1.409   1.471   0.691 -0.5980  2.2129 -0.1805
 1611SOL    HW2 4941   1.275   1.430   0.633  0.7434 -1.2615 -1.1214
 1612SOL     OW 4942   5.208   0.417   0.148 -0.1276 -0.3508  0.8122
 1612SOL    HW1 4943   5.177   0.475   0.079  0.8539 -1.9113 -1.0469
 1612SOL    HW2 4944   5.242   0.476   0.215  1.2224  1.2863 -1.1594
 1613SOL     OW 4945   4.610   1.376   2.570 -0.1736  0.6949 -0.0533
 1613SOL    HW1 4946   4.616   1.345   2.660  3.2627  0.3848 -0.2736
 1613SOL    HW2 4947   4.637   1.468   2.574 -0.4066  0.7996 -0.7196
 1614SOL     OW 4948   1.351   1.872   0.540 -0.4152  0.0214  0.0430
 1614SOL    HW1 4949   1.260   1.898   0.529 -0.9540 -1.4472  0.7251
 1614SOL    HW2 4950   1.357   1.843   0.631  0.8479  0.5055  0.1293
 1615SOL     OW 4951   1.942   4.837   1.881  0.3669 -0.3275 -0.1425
 1615SOL    HW1 4952   1.871   4.829   1.945  0.6853 -1.3479  0.1070
 1615SOL    HW2 4953   1.995   4.910   1.913 -0.5938  0.4926 -0.3707
 1616SOL     OW 4954   3.478   5.383   2.059  0.2038  0.4409 -0.0414
 1616SOL    HW1 4955   3.435   5.439   2.124  0.2737  0.5363 -0.0768
 1616SOL    HW2 4956   3.430   5.301   2.062 -0.6181  0.8827 -0.7894
 1617SOL     OW 4957   4.301   0.602   2.582  0.0160 -0.2174 -0.3120
 1617SOL    HW1 4958   4.316   0.673   2.519 -0.5163 -0.0776 -0.2903
 1617SOL    HW2 4959   4.206   0.603   2.596 -0.5233 -2.9244 -2.7111
 1618SOL     OW 4960   2.802   2.867   2.768  0.7005  0.4152  0.9325
 1618SOL    HW1 4961   2.870   2.800   2.774 -0.3424 -0.7195  0.4616
 1618SOL    HW2 4962   2.755   2.861   2.852  0.4093  0.3287  0.7644
 1619SOL     OW 4963   4.974   2.276   1.461  0.0516 -0.4584 -0.2304
 1619SOL    HW1 4964   4.929   2.270   1.546  0.4560  0.3591  0.0552
 1619SOL    HW2 4965   5.027   2.197   1.456  3.9066  1.6213  2.5802
 1620SOL     OW 4966   4.070   2.922   1.044  0.2097 -0.0385  0.4612
 1620SOL    HW1 4967   4.135   2.851   1.046  0.8902  0.5762  0.4224
 1620SOL    HW2 4968   4.102   2.982   0.977 -1.2344 -0.4872 -0.6911
 1621SOL     OW 4969   3.820   3.056   3.818  0.5834 -0.3592  0.2597
 1621SOL    HW1 4970   3.758   3.021   3.882 -1.0063  0.2410 -0.8861
 1621SOL    HW2 4971   3.906   3.029   3.850 -0.1618 -0.1823  2.5591
 1622SOL     OW 4972   4.280   2.691   3.449 -0.4139  0.6541  0.5549
 1622SOL    HW1 4973   4.190   2.722   3.455 -0.7101 -0.0814  0.0942
 1622SOL    HW2 4974   4.316   2.734   3.371 -0.5602  0.4890  0.3951
 1623SOL     OW 4975   0.965   4.169   0.673  0.3909 -0.0806  0.0691
 1623SOL    HW1 4976   0.872   4.186   0.657  0.1351 -0.8344  0.7109
 1623SOL    HW2 4977   0.976   4.075   0.654  1.0251  0.0034 -0.0154
 1624SOL     OW 4978   0.028   1.576   0.990 -0.0194  0.5048  0.7372
 1624SOL    HW1 4979   0.008   1.669   1.001 -0.9840  0.2275  1.3946
 1624SOL    HW2 4980  -0.050   1.530   1.020  0.3061 -0.5183  0.0654
 1625SOL     OW 4981   4.726   5.147   1.146  0.5296 -0.4197 -0.0779
 1625SOL    HW1 4982   4.798   5.207   1.168 -0.0889  0.0721  0.6629
 1625SOL    HW2 4983   4.661   5.162   1.214 -1.3163  0.8762 -1.9981
 1626SOL     OW 4984   0.551   2.014   3.939  0.0133 -0.6010  0.0187
 1626SOL    HW1 4985   0.639   2.030   3.905  0.1947  0.7304  1.0170
 1626SOL    HW2 4986   0.553   1.923   3.969  0.8829 -0.7456 -0.4407
 1627SOL     OW 4987   1.828   2.403   2.670  0.0056  0.0966  0.5473
 1627SOL    HW1 4988   1.913   2.384   2.630 -0.0755  0.8026  0.0117
 1627SOL    HW2 4989   1.847   2.467   2.739 -0.1625  0.7859 -0.0279
 1628SOL     OW 4990   1.065   3.874   1.544 -0.3395 -0.2070  0.9123
 1628SOL    HW1 4991   1.046   3.784   1.570 -0.6431 -0.5389 -0.4016
 1628SOL    HW2 4992   1.105   3.913   1.621 -0.9660 -1.2240  1.7785
 1629SOL     OW 4993   3.983   1.307   2.098  0.5142 -0.3056 -0.5632
 1629SOL    HW1 4994   3.904   1.281   2.050  0.2350  0.3078 -0.4504
 1629SOL    HW2 4995   4.025   1.372   2.042 -0.5901  1.5356  0.6207
 1630SOL     OW 4996   4.142   3.035   3.098 -0.1266 -0.0152 -0.0204
 1630SOL    HW1 4997   4.178   3.002   3.016 -0.3943  0.6777 -0.4262
 1630SOL    HW2 4998   4.211   3.020   3.163  1.5117  2.4997 -1.0222
 1631SOL     OW 4999   1.256   2.779   0.337 -0.5855  0.4614 -0.6094
 1631SOL    HW1 5000   1.236   2.789   0.244 -1.8849  0.7799 -0.3121
 1631SOL    HW2 5001   1.314   2.852   0.358  0.8677 -0.3981 -1.4643
 1632SOL     OW 5002   3.468   5.478   1.445  0.4402 -0.5481 -0.2428
 1632SOL    HW1 5003   3.466   5.572   1.461  2.2426 -0.6969  1.1107
 1632SOL    HW2 5004   3.388   5.445   1.487 -0.1670  0.3305 -0.6653
 1633SOL     OW 5005   1.602   2.081   1.390  0.4370 -0.4792  0.4431
 1633SOL    HW1 5006   1.622   2.131   1.470 -2.2418  0.3757  0.7107
 1633SOL    HW2 5007   1.619   1.990   1.413 -0.2202 -0.2393  2.0196
 1634SOL     OW 5008   5.031   2.019   1.457  0.3131 -0.4395  0.9039
 1634SOL    HW1 5009   5.078   2.003   1.538  1.5317 -1.1265  0.1030
 1634SOL    HW2 5010   5.065   1.952   1.397 -0.1341  0.4073 -0.3269
 1635SOL     OW 5011   2.125   3.624   2.912  0.0497  0.4513  0.0056
 1635SOL    HW1 5012   2.072   3.685   2.861 -1.1154 -1.0909 -0.7046
 1635SOL    HW2 5013   2.061   3.568   2.956  1.0882  0.1340  1.1674
 1636SOL     OW 5014   0.119   0.012   2.154  0.0249  0.6399  0.9032
 1636SOL    HW1 5015   0.074  -0.072   2.165  0.9002  0.0095 -0.1453
 1636SOL    HW2 5016   0.102   0.059   2.235 -1.9224  0.1478  0.8253
 1637SOL     OW 5017   3.100   4.172   1.681 -0.5626 -0.7356 -0.0840
 1637SOL    HW1 5018   3.027   4.214   1.636 -0.5539 -1.4551 -0.7891
 1637SOL    HW2 5019   3.062   4.098   1.727 -0.4523 -0.4305  0.5135
 1638SOL     OW 5020   3.777   1.495   1.827  0.1035 -0.1891 -0.4152
 1638SOL    HW1 5021   3.742   1.561   1.887 -1.2987 -0.2620 -1.1156
 1638SOL    HW2 5022   3.750   1.412   1.866  0.8508 -0.3141 -0.1532
 1639SOL     OW 5023   1.341   2.601   0.111  0.0847 -0.1097  0.0087
 1639SOL    HW1 5024   1.345   2.537   0.182 -1.6364  0.6789  0.8775
 1639SOL    HW2 5025   1.410   2.664   0.132 -1.0604  0.6929  1.6412
 1640SOL     OW 5026   3.208   4.602   1.765 -0.1461  0.0083 -0.5775
 1640SOL    HW1 5027   3.184   4.693   1.784  0.2822 -0.1164  0.7020
 1640SOL    HW2 5028   3.125   4.555   1.765 -0.4057  0.4514 -1.6189
 1641SOL     OW 5029   5.523   2.980   3.236 -0.0996  0.0336 -0.3802
 1641SOL    HW1 5030   5.597   2.986   3.176  0.6860  1.9526  0.7223
 1641SOL    HW2 5031   5.512   2.886   3.251  1.1343 -0.3610 -1.7250
 1642SOL     OW 5032   1.951   0.033   0.311 -0.0324  0.2051 -0.0770
 1642SOL    HW1 5033   1.909   0.109   0.350 -1.3457  0.2482 -1.4812
 1642SOL    HW2 5034   2.004  -0.005   0.382 -0.6950  1.4361  1.1081
 1643SOL     OW 5035   2.210   3.718   0.558  1.0235 -0.6951 -0.3462
 1643SOL    HW1 5036   2.150   3.786   0.528  0.3941 -0.7204  0.7780
 1643SOL    HW2 5037   2.153   3.647   0.586  1.5867 -0.9107  0.2856
 1644SOL     OW 5038   4.540   0.806   1.988 -0.5417  0.3363  0.4355
 1644SOL    HW1 5039   4.453   0.781   1.956 -0.5671  0.8784  0.0656
 1644SOL    HW2 5040   4.536   0.901   1.995  0.7038  0.6040 -1.6720
 1645SOL     OW 5041   1.448   1.421   3.537  0.3049  0.5388 -0.0286
 1645SOL    HW1 5042   1.453   1.447   3.628 -0.8324 -0.1294  0.2442
 1645SOL    HW2 5043   1.440   1.503   3.488  3.4924  1.1255  0.1841
 1646SOL     OW 5044   4.784   2.891   2.552  0.0290 -0.2934 -0.0477
 1646SOL    HW1 5045   4.868   2.936   2.559 -0.2606  0.1698  0.4221
 1646SOL    HW2 5046   4.768   2.885   2.458 -0.2383  1.1601 -0.1125
 1647SOL     OW 5047   0.897   2.956   0.051  0.4637  0.2692 -0.4463
 1647SOL    HW1 5048   0.858   2.997  -0.026  0.9641  1.4961 -0.0645
 1647SOL    HW2 5049   0.874   3.014   0.124  1.6529  0.1817  0.0176
 1648SOL     OW 5050   0.672   4.006   2.632 -0.1048 -0.2294 -0.1609
 1648SOL    HW1 5051   0.647   3.922   2.670  1.5070  0.0433  1.6281
 1648SOL    HW2 5052   0.699   4.060   2.707 -1.2169  1.9620 -1.2259
 1649SOL     OW 5053   2.495   0.553   2.307  0.2026 -0.2494 -0.1499
 1649SOL    HW1 5054   2.425   0.534   2.370  0.7847  0.8981  0.8801
 1649SOL    HW2 5055   2.538   0.631   2.342  1.1201 -0.1211 -1.5090
 1650SOL     OW 5056   4.775   3.224   1.690 -0.6304  0.1216  0.0891
 1650SOL    HW1 5057   4.711   3.285   1.655  1.5584  2.1704 -0.5836
 1650SOL    HW2 5058   4.772   3.236   1.785 -1.5813 -0.2156  0.1109
 1651SOL     OW 5059   2.698   3.684   0.939 -0.0445  0.3088  0.1400
 1651SOL    HW1 5060   2.684   3.772   0.975 -0.8455 -0.0842  0.8229
 1651SOL    HW2 5061   2.723   3.631   1.015  1.1999  0.1055 -0.4006
 1652SOL     OW 5062   0.783   5.353   1.536  0.4959 -0.4318 -0.3668
 1652SOL    HW1 5063   0.808   5.365   1.444  0.0692 -0.7613 -0.5320
 1652SOL    HW2 5064   0.700   5.305   1.531  0.9207 -1.2399  0.2189
 1653SOL     OW 5065   1.050   3.996   0.145  0.6176 -0.2805 -0.3005
 1653SOL    HW1 5066   0.985   3.930   0.169 -0.2187  1.4287  2.6499
 1653SOL    HW2 5067   1.006   4.050   0.078 -0.4964 -0.0065  0.6194
 1654SOL     OW 5068   2.817   1.002   2.556 -0.4891  0.0775 -0.0425
 1654SOL    HW1 5069   2.794   0.912   2.578 -0.5249  0.1236  0.1159
 1654SOL    HW2 5070   2.913   1.000   2.546 -0.5451 -0.0816 -0.5500
 1655SOL     OW 5071   0.088   3.756   2.736 -0.4725  0.1071  0.3770
 1655SOL    HW1 5072   0.071   3.743   2.642 -0.0519 -0.8604  0.4292
 1655SOL    HW2 5073   0.119   3.847   2.742  0.2237 -0.0600 -0.5203
 1656SOL     OW 5074   5.062   0.609   3.836  0.4545 -0.4430  0.1327
 1656SOL    HW1 5075   5.024   0.645   3.916 -0.6126 -1.0569 -0.0918
 1656SOL    HW2 5076   5.093   0.686   3.789 -2.0779  0.2783 -0.4835
 1657SOL     OW 5077   0.974   3.026   2.231  0.3201  0.2656 -0.3599
 1657SOL    HW1 5078   0.913   3.089   2.192 -0.8232  0.9964  2.3675
 1657SOL    HW2 5079   1.029   3.080   2.289  1.1052 -0.8979  0.0015
 1658SOL     OW 5080   3.417   1.536   1.329 -0.1233  0.0310  0.6756
 1658SOL    HW1 5081   3.488   1.601   1.322 -0.7289  0.9004  2.2364
 1658SOL    HW2 5082   3.463   1.451   1.328  0.8533  0.5414  0.5629
 1659SOL     OW 5083   1.057   0.579   2.214  0.0162 -0.0380  0.1321
 1659SOL    HW1 5084   1.038   0.487   2.233 -0.8623  0.0580 -0.2225
 1659SOL    HW2 5085   1.087   0.615   2.298 -1.9469 -0.0868  0.9141
 1660SOL     OW 5086   2.007   1.805   3.503  0.1453 -0.0392  0.0169
 1660SOL    HW1 5087   2.082   1.791   3.560 -0.9402 -1.8454  1.0782
 1660SOL    HW2 5088   2.037   1.778   3.416  1.1849  0.8175  0.0852
 1661SOL     OW 5089   0.396   4.707   1.608 -0.3708  0.0382  0.4759
 1661SOL    HW1 5090   0.477   4.659   1.591 -0.6445 -0.7602  1.3172
 1661SOL    HW2 5091   0.417   4.798   1.590 -0.0275 -0.4396 -1.8631
 1662SOL     OW 5092   1.697   0.713   3.153 -0.1939 -0.2240  0.0257
 1662SOL    HW1 5093   1.675   0.787   3.210 -1.6467 -0.4710 -0.1619
 1662SOL    HW2 5094   1.769   0.669   3.197 -1.4740 -0.5978  1.8811
 1663SOL     OW 5095   3.610   3.596   2.404 -0.7585  0.1885 -0.0263
 1663SOL    HW1 5096   3.694   3.554   2.423 -0.2678  1.4643  0.7936
 1663SOL    HW2 5097   3.551   3.524   2.384  0.0818 -0.8947  1.2023
 1664SOL     OW 5098   4.354   2.702   0.290  0.0897 -0.2440  0.0759
 1664SOL    HW1 5099   4.341   2.746   0.374  1.0057 -0.7695  0.5043
 1664SOL    HW2 5100   4.265   2.677   0.262 -0.5235  2.1498 -0.3775
 1665SOL     OW 5101   4.226   5.328   3.804  0.2771 -0.0421  0.0182
 1665SOL    HW1 5102   4.269   5.412   3.790 -1.0820  0.4846 -1.4513
 1665SOL    HW2 5103   4.158   5.346   3.869  0.6767 -0.2631  0.4966
 1666SOL     OW 5104   5.429   0.924   3.340  0.3961 -0.5613  0.4334
 1666SOL    HW1 5105   5.522   0.925   3.318  0.0745 -1.8339 -1.0832
 1666SOL    HW2 5106   5.392   0.850   3.292 -1.3260 -0.3990  1.3918
 1667SOL     OW 5107   1.570   0.326   2.729  0.0264  0.4307 -0.0434
 1667SOL    HW1 5108   1.648   0.361   2.771  0.6496 -1.7750  0.7985
 1667SOL    HW2 5109   1.514   0.297   2.801 -0.8649  0.5542 -0.6658
 1668SOL     OW 5110   0.820   2.755   1.731  0.2150  0.2608 -0.5643
 1668SOL    HW1 5111   0.767   2.757   1.811 -0.5054  0.6123 -1.0386
 1668SOL    HW2 5112   0.763   2.793   1.664  1.6024  2.1088 -0.7673
 1669SOL     OW 5113   2.438   0.051   0.417 -0.0741  0.0157  0.7858
 1669SOL    HW1 5114   2.458   0.103   0.495  0.1458 -1.6116  1.8748
 1669SOL    HW2 5115   2.365  -0.005   0.443  1.1307 -1.8206  0.4797
 1670SOL     OW 5116   2.597   1.796   0.630 -0.0941 -0.4977 -0.4518
 1670SOL    HW1 5117   2.514   1.843   0.626  0.4673  0.8109  1.4209
 1670SOL    HW2 5118   2.573   1.704   0.635 -1.5459 -0.0793  1.3720
 1671SOL     OW 5119   3.911   1.418   1.593 -0.2208  0.6953 -0.6020
 1671SOL    HW1 5120   3.854   1.417   1.669  1.0705 -0.7559  0.3936
 1671SOL    HW2 5121   3.980   1.481   1.615  1.1154 -0.9743  0.2375
 1672SOL     OW 5122   1.512   0.278   3.778 -0.0710 -0.6056  1.0095
 1672SOL    HW1 5123   1.452   0.353   3.783  0.1019 -0.3363 -0.6134
 1672SOL    HW2 5124   1.497   0.231   3.861 -0.6813  0.8278  1.7576
 1673SOL     OW 5125   3.541   3.874   2.510 -0.8213 -0.0844 -0.6452
 1673SOL    HW1 5126   3.603   3.825   2.563 -1.5064  1.0711  1.3203
 1673SOL    HW2 5127   3.558   3.966   2.530  0.0519  0.5703 -3.7916
 1674SOL     OW 5128   2.025   3.236   3.800  0.2571  0.3800 -0.1889
 1674SOL    HW1 5129   2.117   3.223   3.777  0.2522  1.1671 -0.6701
 1674SOL    HW2 5130   2.005   3.163   3.859  1.3584  0.5525  0.4244
 1675SOL     OW 5131   0.281   0.102   1.540  0.1658 -0.0428  0.1131
 1675SOL    HW1 5132   0.273   0.045   1.617  0.1030  0.5120  0.5221
 1675SOL    HW2 5133   0.289   0.041   1.466  2.3533 -0.6157  0.7564
 1676SOL     OW 5134   4.252   3.798   3.149  0.4695 -0.3935 -0.2363
 1676SOL    HW1 5135   4.181   3.745   3.114  1.6613 -0.7492 -2.2714
 1676SOL    HW2 5136   4.238   3.885   3.112  1.8285 -0.8111 -1.8390
 1677SOL     OW 5137   0.617   0.173   3.252 -0.0692 -0.1613  0.4576
 1677SOL    HW1 5138   0.530   0.184   3.214 -0.3609 -0.5582  0.9874
 1677SOL    HW2 5139   0.624   0.079   3.271  0.8245 -0.2845 -0.3823
 1678SOL     OW 5140   1.794   3.068   2.847  0.7348 -0.0517  0.5307
 1678SOL    HW1 5141   1.863   3.085   2.782  1.8088 -3.0132  0.7589
 1678SOL    HW2 5142   1.837   3.080   2.932  1.2639 -2.5327  0.6831
 1679SOL     OW 5143   2.979   4.645   3.165 -0.6322 -0.0538  0.0358
 1679SOL    HW1 5144   3.016   4.691   3.090 -0.6582  1.4709  0.9303
 1679SOL    HW2 5145   2.886   4.635   3.142 -0.6874  0.5989 -0.0490
 1680SOL     OW 5146   1.283   3.017   3.325  0.3596 -0.4069 -0.4008
 1680SOL    HW1 5147   1.269   3.049   3.236  1.5867  0.9447 -0.1488
 1680SOL    HW2 5148   1.217   2.949   3.337  0.9613 -1.5332 -2.7775
 1681SOL     OW 5149   5.191   2.972   2.284  0.1367 -0.1677  0.5857
 1681SOL    HW1 5150   5.115   2.977   2.226  0.1028  0.8522  0.7104
 1681SOL    HW2 5151   5.262   2.940   2.227  0.1063  0.8178 -0.0264
 1682SOL     OW 5152   4.541   1.558   0.968  0.0738  0.6502 -0.2883
 1682SOL    HW1 5153   4.505   1.638   0.931 -0.4292  1.0972  1.0869
 1682SOL    HW2 5154   4.629   1.581   0.995  0.1886  0.5283 -0.5573
 1683SOL     OW 5155   2.966   3.983   3.015 -0.3104  0.5460 -0.7340
 1683SOL    HW1 5156   2.925   4.038   2.948 -0.8044 -0.9519 -1.7171
 1683SOL    HW2 5157   2.898   3.919   3.037  0.3120  0.2011  0.2400
 1684SOL     OW 5158   2.516   3.535   1.249 -0.2662 -0.1596 -0.1026
 1684SOL    HW1 5159   2.481   3.593   1.182 -1.1271 -1.5519 -0.8831
 1684SOL    HW2 5160   2.556   3.463   1.201 -1.4799 -1.5210  0.8420
 1685SOL     OW 5161   0.050   1.249   1.034  0.8116 -0.2362 -0.0921
 1685SOL    HW1 5162   0.109   1.302   0.980  1.9664 -1.5705 -0.2012
 1685SOL    HW2 5163   0.052   1.290   1.120  1.3439  0.1485 -0.2867
 1686SOL     OW 5164   2.505   4.608   1.591  0.5584 -0.0849 -0.1184
 1686SOL    HW1 5165   2.417   4.569   1.588 -0.0597  1.0246  1.7735
 1686SOL    HW2 5166   2.490   4.702   1.579  1.5070  0.1163  0.1758
 1687SOL     OW 5167   0.529   3.470   3.817  0.0012 -0.1114 -0.8095
 1687SOL    HW1 5168   0.438   3.494   3.832 -0.2629  0.1879 -2.6094
 1687SOL    HW2 5169   0.560   3.532   3.750  1.5016 -0.2670 -0.3065
 1688SOL     OW 5170   1.497   3.719   2.312  0.0195  0.1111  0.2439
 1688SOL    HW1 5171   1.537   3.735   2.398 -2.3003  2.4117  1.0250
 1688SOL    HW2 5172   1.436   3.647   2.326 -2.0383  1.9337  1.2367
 1689SOL     OW 5173   3.661   0.431   0.497  0.7181 -0.5566  0.2352
 1689SOL    HW1 5174   3.616   0.352   0.527  0.9535 -0.2550  1.4807
 1689SOL    HW2 5175   3.607   0.464   0.425  0.2430 -1.4674  0.1551
 1690SOL     OW 5176   0.892   0.441   2.513  0.0194  0.4837 -0.6688
 1690SOL    HW1 5177   0.922   0.531   2.499 -1.0924  1.0183  0.2171
 1690SOL    HW2 5178   0.811   0.434   2.463  0.8982 -0.5498 -2.0149
 1691SOL     OW 5179   2.163   3.427   2.536 -0.1770  0.2942  0.5838
 1691SOL    HW1 5180   2.181   3.435   2.442  1.0578 -2.0437  0.5491
 1691SOL    HW2 5181   2.239   3.469   2.578 -1.5169  2.8570  0.6430
 1692SOL     OW 5182   1.217   1.191   2.628  0.5038 -0.3698  0.6509
 1692SOL    HW1 5183   1.144   1.249   2.610  1.1558 -0.0278 -1.1521
 1692SOL    HW2 5184   1.207   1.119   2.565  0.9268 -1.0535  1.3503
 1693SOL     OW 5185   2.038   1.127   0.227 -0.2633  0.7129 -0.5611
 1693SOL    HW1 5186   2.025   1.035   0.250  0.0651  1.0289  1.0118
 1693SOL    HW2 5187   1.952   1.168   0.242 -0.0881  0.8917 -0.0235
 1694SOL     OW 5188   4.518   4.422   0.093  0.2149 -0.3437  0.3844
 1694SOL    HW1 5189   4.543   4.357   0.158 -2.1083 -0.0991  1.6181
 1694SOL    HW2 5190   4.510   4.373   0.011  1.7090 -0.9303  0.5491
 1695SOL     OW 5191   2.951   3.833   3.368  0.0942  0.1441  0.0235
 1695SOL    HW1 5192   2.958   3.748   3.326 -0.3797  0.5501 -0.9048
 1695SOL    HW2 5193   2.889   3.820   3.440 -0.4828 -0.1475 -0.5206
 1696SOL     OW 5194   3.202   0.298   2.529 -0.5483  0.0051 -0.5830
 1696SOL    HW1 5195   3.110   0.276   2.542 -0.2413 -0.7618  0.4573
 1696SOL    HW2 5196   3.246   0.264   2.607  0.4586  1.4093 -0.4928
 1697SOL     OW 5197   1.411   0.330   2.951  0.0496 -0.1267 -0.0121
 1697SOL    HW1 5198   1.463   0.347   3.030  1.1883 -0.3592 -0.6950
 1697SOL    HW2 5199   1.330   0.291   2.984  0.3325  0.1753  1.0763
 1698SOL     OW 5200   0.520   2.325   2.808 -0.6382 -0.1221 -0.1940
 1698SOL    HW1 5201   0.449   2.296   2.751 -1.9177  1.8838  0.2648
 1698SOL    HW2 5202   0.595   2.337   2.750 -1.3637 -0.0020 -1.1226
 1699SOL     OW 5203   0.170   2.482   1.270  0.4855  0.5114 -0.0630
 1699SOL    HW1 5204   0.261   2.504   1.254  0.6323  1.6910  2.0237
 1699SOL    HW2 5205   0.120   2.554   1.232  0.3401 -0.3297 -1.5640
 1700SOL     OW 5206   0.758   0.392   0.672  0.4963  0.4847  0.0595
 1700SOL    HW1 5207   0.732   0.401   0.764  0.6038 -0.1891  0.1588
 1700SOL    HW2 5208   0.819   0.464   0.658 -2.6905  3.2818 -0.6894
 1701SOL     OW 5209   3.777   5.304   0.480  0.0165 -0.5370  0.0039
 1701SOL    HW1 5210   3.844   5.310   0.412 -0.3083  3.0439 -0.1938
 1701SOL    HW2 5211   3.703   5.353   0.445 -0.5724  0.4504  2.4381
 1702SOL     OW 5212   0.042   2.828   1.689  0.2033 -0.5298 -0.2147
 1702SOL    HW1 5213   0.061   2.742   1.654 -0.8291  0.3172 -3.1334
 1702SOL    HW2 5214  -0.018   2.812   1.762  1.5605 -2.3262  0.5826
 1703SOL     OW 5215   3.707   5.558   1.608  0.6404 -0.1970 -0.8182
 1703SOL    HW1 5216   3.714   5.489   1.674  3.0721 -0.3349 -1.1312
 1703SOL    HW2 5217   3.625   5.540   1.562 -0.1248 -1.2410  0.8680
 1704SOL     OW 5218   2.258   1.767   1.749 -0.2992 -0.4008 -0.2260
 1704SOL    HW1 5219   2.181   1.722   1.784  0.4379 -2.1617 -0.7538
 1704SOL    HW2 5220   2.322   1.698   1.736  1.3051  0.9966 -0.0375
 1705SOL     OW 5221   2.490   3.580   3.209 -0.7568 -0.0574 -0.4728
 1705SOL    HW1 5222   2.432   3.649   3.240  2.1445  2.0953  0.6139
 1705SOL    HW2 5223   2.544   3.558   3.285  0.4949 -1.2620 -1.6490
 1706SOL     OW 5224   1.329   5.277   1.141 -0.2344  0.2098 -0.3672
 1706SOL    HW1 5225   1.260   5.262   1.076 -1.1845 -0.3602  0.7377
 1706SOL    HW2 5226   1.306   5.220   1.214  1.3297  0.1417  0.1047
 1707SOL     OW 5227   3.964   0.427   2.119  0.4715  0.5329 -0.0219
 1707SOL    HW1 5228   3.932   0.343   2.152  0.8571  0.4065  0.0369
 1707SOL    HW2 5229   4.057   0.412   2.102  0.5443  0.9528 -0.0034
 1708SOL     OW 5230   3.391   4.474   1.598 -0.5728 -0.0532  0.4449
 1708SOL    HW1 5231   3.475   4.499   1.638 -1.0875 -0.2474  1.6741
 1708SOL    HW2 5232   3.325   4.517   1.651 -1.2547  1.0885 -1.2336
 1709SOL     OW 5233   2.291   5.455   0.748 -0.4692  0.0125 -0.0060
 1709SOL    HW1 5234   2.301   5.390   0.818  0.9539  0.2583  0.0493
 1709SOL    HW2 5235   2.379   5.465   0.712 -0.4553  2.5409  0.5495
 1710SOL     OW 5236   1.500   4.264   1.059 -0.4946  0.6426 -0.2168
 1710SOL    HW1 5237   1.457   4.318   1.125 -0.5856  1.3246 -0.8154
 1710SOL    HW2 5238   1.447   4.184   1.055 -0.0270  0.2502  1.0811
 1711SOL     OW 5239   1.846   0.321   3.579  0.2758  0.3615  0.2478
 1711SOL    HW1 5240   1.883   0.262   3.644 -1.0027  0.0796  0.7518
 1711SOL    HW2 5241   1.751   0.317   3.594 -0.0553  0.2550 -1.6635
 1712SOL     OW 5242   3.148   4.396   2.223  0.7298  0.1338  0.5551
 1712SOL    HW1 5243   3.243   4.385   2.219  0.5830 -1.5273  0.9802
 1712SOL    HW2 5244   3.125   4.375   2.314 -0.1481 -0.4228  0.2178
 1713SOL     OW 5245   5.397   2.363   0.309  0.6068  0.1906  0.0710
 1713SOL    HW1 5246   5.457   2.362   0.234 -0.1445 -1.1190 -0.5401
 1713SOL    HW2 5247   5.450   2.332   0.383  1.1316  0.7065 -0.0815
 1714SOL     OW 5248   3.874   2.939   1.243 -0.1186  0.5828  0.5607
 1714SOL    HW1 5249   3.949   2.959   1.299  0.6968 -1.7105  0.4213
 1714SOL    HW2 5250   3.913   2.924   1.156 -0.5659 -1.3789  0.6469
 1715SOL     OW 5251   2.493   3.231   1.468  0.0462  0.0647  0.3715
 1715SOL    HW1 5252   2.461   3.318   1.490 -0.5409  0.0270 -0.3311
 1715SOL    HW2 5253   2.422   3.172   1.493 -0.2358 -0.0632 -0.6967
 1716SOL     OW 5254   4.170   2.469   2.733 -0.1191  0.6532  0.4556
 1716SOL    HW1 5255   4.262   2.444   2.726 -0.5341 -0.8348 -0.1511
 1716SOL    HW2 5256   4.159   2.539   2.669  0.3601  0.0585 -0.3070
 1717SOL     OW 5257   2.444   5.227   1.504 -1.0185  0.3632  0.2982
 1717SOL    HW1 5258   2.421   5.135   1.488 -0.7856  0.6250 -1.7795
 1717SOL    HW2 5259   2.537   5.225   1.527 -0.7827  0.1455 -0.6408
 1718SOL     OW 5260   3.780   4.438   0.464 -0.7999  0.3610 -0.0130
 1718SOL    HW1 5261   3.711   4.408   0.523  0.8272 -1.3730  1.1403
 1718SOL    HW2 5262   3.854   4.455   0.522  0.3189  0.3686 -1.3917
 1719SOL     OW 5263   0.389   3.569   1.014  0.3027  0.6614  0.2270
 1719SOL    HW1 5264   0.309   3.572   0.961  0.0804 -0.9165  0.4209
 1719SOL    HW2 5265   0.460   3.566   0.950  0.0035 -2.1657 -0.1087
 1720SOL     OW 5266   2.963   2.023   2.540 -0.3652  0.1451 -0.0451
 1720SOL    HW1 5267   3.037   1.964   2.526 -0.9037 -0.2832 -1.2088
 1720SOL    HW2 5268   2.964   2.080   2.463  0.9776  2.6328  1.6788
 1721SOL     OW 5269   5.472   3.240   0.709 -0.0503 -0.5765 -0.1741
 1721SOL    HW1 5270   5.422   3.162   0.735 -1.8518  0.1171 -1.3952
 1721SOL    HW2 5271   5.453   3.305   0.777  0.1394 -0.6794 -0.0215
 1722SOL     OW 5272   1.761   0.239   2.020 -0.0836 -0.4969  0.0879
 1722SOL    HW1 5273   1.725   0.308   2.076 -0.1810 -0.9700  0.6209
 1722SOL    HW2 5274   1.815   0.286   1.956  2.7244 -0.0649  2.5339
 1723SOL     OW 5275   0.980   4.218   1.706 -0.5058 -0.5036 -0.0684
 1723SOL    HW1 5276   1.049   4.280   1.729  0.4622 -1.3554 -0.5789
 1723SOL    HW2 5277   1.022   4.132   1.713 -0.9175 -0.9467 -2.3289
 1724SOL     OW 5278   3.654   0.871   1.236 -0.0283 -0.1057 -0.0222
 1724SOL    HW1 5279   3.711   0.834   1.303  0.6383 -1.9218 -1.4997
 1724SOL    HW2 5280   3.714   0.903   1.169 -0.6472  2.5735  0.5996
 1725SOL     OW 5281   1.185   4.322   0.989  0.1727  0.2910 -0.6515
 1725SOL    HW1 5282   1.091   4.309   0.999  0.2749  0.2303  0.3463
 1725SOL    HW2 5283   1.212   4.362   1.072  0.9914  0.4809 -1.0054
 1726SOL     OW 5284   2.769   1.583   3.921 -0.1273 -0.0457 -0.1926
 1726SOL    HW1 5285   2.714   1.531   3.863 -0.1418 -0.9265  0.5953
 1726SOL    HW2 5286   2.723   1.583   4.005 -0.0305  1.0841 -0.1246
 1727SOL     OW 5287   1.346   4.389   1.257  0.3167 -0.5702  0.7053
 1727SOL    HW1 5288   1.340   4.485   1.255 -0.8593 -0.5833 -2.7738
 1727SOL    HW2 5289   1.256   4.360   1.272 -0.1226 -1.0191 -2.2456
 1728SOL     OW 5290   1.678   2.024   2.211 -0.3278  0.1074 -0.3981
 1728SOL    HW1 5291   1.663   1.951   2.150 -1.7804  0.1543 -0.1278
 1728SOL    HW2 5292   1.599   2.026   2.265  0.3062  1.0123  0.5164
 1729SOL     OW 5293   3.220   1.103   1.481 -0.4595 -0.7671 -0.1894
 1729SOL    HW1 5294   3.258   1.116   1.567 -1.3498  0.0487  0.0976
 1729SOL    HW2 5295   3.295   1.089   1.423  0.2808  0.6424  0.3805
 1730SOL     OW 5296   2.241   1.007   1.529 -0.8089  0.4688  0.0596
 1730SOL    HW1 5297   2.237   1.078   1.466  0.3757  0.5539  0.0584
 1730SOL    HW2 5298   2.280   1.046   1.607  0.0936 -0.2181 -0.0275
 1731SOL     OW 5299   0.200   2.087   3.162 -0.6181  0.6019 -0.5953
 1731SOL    HW1 5300   0.153   2.019   3.211  0.5483  1.0178  1.2261
 1731SOL    HW2 5301   0.142   2.163   3.165 -0.1608  0.9328  1.1257
 1732SOL     OW 5302   4.071   1.617   3.291  0.0137  0.4499 -0.1452
 1732SOL    HW1 5303   4.132   1.635   3.363  0.1571  1.1174 -0.4200
 1732SOL    HW2 5304   3.991   1.663   3.316 -0.2128 -0.0181 -0.0153
 1733SOL     OW 5305   1.774   2.515   2.326  0.0564 -0.0465  0.0455
 1733SOL    HW1 5306   1.766   2.564   2.244 -0.4964 -1.3634 -0.7245
 1733SOL    HW2 5307   1.721   2.437   2.312 -0.5405 -0.0178  1.9052
 1734SOL     OW 5308   3.890   4.723   1.156 -0.0693 -0.2135 -0.3178
 1734SOL    HW1 5309   3.850   4.710   1.242  0.0246  0.4339 -0.1775
 1734SOL    HW2 5310   3.930   4.638   1.136  0.0401 -0.3225  0.3401
 1735SOL     OW 5311   2.568   0.574   0.726 -0.3596 -0.0349  0.0187
 1735SOL    HW1 5312   2.632   0.643   0.740 -0.5565  0.1133  0.1986
 1735SOL    HW2 5313   2.596   0.531   0.646 -1.0721  1.1921 -0.9180
 1736SOL     OW 5314   5.153   1.907   0.745 -0.6901 -0.1845  0.1963
 1736SOL    HW1 5315   5.095   1.938   0.675 -0.4482  0.0720  0.1115
 1736SOL    HW2 5316   5.133   1.813   0.752  0.0474 -0.4460 -0.9605
 1737SOL     OW 5317   0.271   5.003   3.759  0.9515 -0.2693  0.2690
 1737SOL    HW1 5318   0.342   5.024   3.820 -0.2534 -0.1368  1.6928
 1737SOL    HW2 5319   0.242   5.089   3.727 -0.2295 -0.0914  1.6988
 1738SOL     OW 5320   0.820   0.020   1.372 -0.6568  0.0814  0.4146
 1738SOL    HW1 5321   0.891  -0.034   1.337 -1.1386 -0.8644  0.8612
 1738SOL    HW2 5322   0.762   0.034   1.297 -0.3884  0.2180  0.2298
 1739SOL     OW 5323   2.677   2.855   3.391  0.3215  0.0795 -0.3327
 1739SOL    HW1 5324   2.733   2.799   3.445 -1.6867  0.0319  1.8643
 1739SOL    HW2 5325   2.599   2.801   3.375 -0.5338  1.3057 -0.4055
 1740SOL     OW 5326   3.577   1.763   1.801 -0.3792 -0.4222 -0.1475
 1740SOL    HW1 5327   3.609   1.733   1.886  1.7024 -0.2907 -0.8213
 1740SOL    HW2 5328   3.556   1.856   1.815  1.4746  0.0302 -0.1080
 1741SOL     OW 5329   4.600   1.691   3.350 -0.5174 -0.1880 -0.2154
 1741SOL    HW1 5330   4.583   1.619   3.289  0.3495  0.2162 -0.9554
 1741SOL    HW2 5331   4.620   1.765   3.294  0.7928  0.0667  0.5614
 1742SOL     OW 5332   2.964   4.106   0.246  0.1009  0.1950  0.2462
 1742SOL    HW1 5333   2.961   4.047   0.170  0.4410 -0.8705  1.0253
 1742SOL    HW2 5334   2.962   4.047   0.321 -0.3162  1.2370  1.0734
 1743SOL     OW 5335   1.152   1.754   0.365 -0.0854 -0.0007 -0.6839
 1743SOL    HW1 5336   1.107   1.670   0.357  1.0241 -0.6030 -0.7413
 1743SOL    HW2 5337   1.082   1.816   0.389 -0.7115 -1.1759  0.7000
 1744SOL     OW 5338   2.140   0.570   2.776  0.5244  0.4805 -0.1238
 1744SOL    HW1 5339   2.203   0.638   2.752 -0.1696  1.4853  0.7959
 1744SOL    HW2 5340   2.138   0.511   2.700  2.9901  0.0589  0.0588
 1745SOL     OW 5341   4.457   1.894   3.514  0.2918  0.1740  0.1158
 1745SOL    HW1 5342   4.506   1.934   3.586  0.7565 -1.3070  0.6662
 1745SOL    HW2 5343   4.523   1.875   3.448  0.3927 -1.2199  0.5836
 1746SOL     OW 5344   4.334   3.089   0.589 -0.0311  0.0836 -0.0826
 1746SOL    HW1 5345   4.406   3.108   0.529  0.3353  1.8811  0.8435
 1746SOL    HW2 5346   4.316   2.996   0.577  1.5108 -0.0918 -1.3413
 1747SOL     OW 5347   4.564   2.966   1.139 -0.9612 -0.1703  0.6615
 1747SOL    HW1 5348   4.571   2.984   1.045 -1.0833 -0.9599  0.4887
 1747SOL    HW2 5349   4.483   2.917   1.148 -0.1964 -1.4335  0.9561
 1748SOL     OW 5350   2.727   3.535   2.407 -0.3601  0.4908  0.3553
 1748SOL    HW1 5351   2.795   3.505   2.347 -1.8395 -0.8275 -0.7392
 1748SOL    HW2 5352   2.774   3.586   2.473  1.3540  1.9295 -1.8359
 1749SOL     OW 5353   4.760   1.825   0.756 -0.5784 -0.3517  0.1704
 1749SOL    HW1 5354   4.704   1.834   0.833  0.4217 -0.7229  0.9585
 1749SOL    HW2 5355   4.747   1.734   0.727 -0.8789 -0.2404 -0.0611
 1750SOL     OW 5356   1.920   5.426   3.744 -0.3500 -0.2899  0.2790
 1750SOL    HW1 5357   1.963   5.414   3.828 -0.9817  1.5815  0.9368
 1750SOL    HW2 5358   1.827   5.431   3.765 -0.7411 -1.9758 -0.8344
 1751SOL     OW 5359   4.109   2.531   1.516  0.7026  0.5923  0.2802
 1751SOL    HW1 5360   4.135   2.621   1.536  0.9238  0.4104  0.8301
 1751SOL    HW2 5361   4.041   2.511   1.581  0.1229  0.6121 -0.3091
 1752SOL     OW 5362   4.308   5.101   3.919 -0.0947  0.7974  0.3384
 1752SOL    HW1 5363   4.380   5.159   3.944 -1.4889  2.2471  1.2352
 1752SOL    HW2 5364   4.246   5.159   3.873 -0.5335 -0.4872 -0.7536
 1753SOL     OW 5365   1.233   0.642   0.569 -0.2930  0.0563  0.7638
 1753SOL    HW1 5366   1.204   0.636   0.478  3.0820  0.1551 -0.4612
 1753SOL    HW2 5367   1.302   0.577   0.577 -0.1783  0.3685  3.1694
 1754SOL     OW 5368   3.463   2.971   1.145  0.1749 -0.0482  0.2223
 1754SOL    HW1 5369   3.418   3.054   1.160  2.8758  1.8185 -1.2952
 1754SOL    HW2 5370   3.413   2.929   1.075 -0.7169  0.6789  0.4077
 1755SOL     OW 5371   1.638   1.839   1.685  0.5095  0.1413 -0.2433
 1755SOL    HW1 5372   1.707   1.852   1.750  1.0862 -0.1559 -0.7882
 1755SOL    HW2 5373   1.570   1.902   1.710  0.6694 -0.0484  0.7131
 1756SOL     OW 5374   4.665   1.783   3.781 -0.2467  0.0455 -0.2491
 1756SOL    HW1 5375   4.639   1.864   3.738 -0.2364 -0.0524 -0.4388
 1756SOL    HW2 5376   4.758   1.796   3.803 -0.2489  0.0894 -0.2665
 1757SOL     OW 5377   1.074   3.763   1.114 -0.0975 -0.3539  0.3132
 1757SOL    HW1 5378   1.049   3.852   1.089  0.5394 -0.3972 -0.4878
 1757SOL    HW2 5379   0.992   3.713   1.111 -0.2103 -0.1248 -0.6897
 1758SOL     OW 5380   0.117   0.559   1.610  0.0611  0.2111  0.3113
 1758SOL    HW1 5381   0.184   0.519   1.665 -1.5521 -1.9970  0.7929
 1758SOL    HW2 5382   0.039   0.564   1.665 -0.8231  0.5979 -0.9114
 1759SOL     OW 5383   1.754   5.191   3.176  0.2754  0.1174 -0.2004
 1759SOL    HW1 5384   1.849   5.189   3.164  0.1279  1.2217 -1.8834
 1759SOL    HW2 5385   1.730   5.282   3.159 -1.2304 -0.4262 -1.1379
 1760SOL     OW 5386   5.506   4.144   1.028  0.4382  0.4335 -0.4776
 1760SOL    HW1 5387   5.496   4.235   1.058 -0.7607  0.5658 -1.2182
 1760SOL    HW2 5388   5.586   4.114   1.071  0.2898  1.4983  0.6213
 1761SOL     OW 5389   4.368   5.417   1.050  0.2448 -0.0985  0.8082
 1761SOL    HW1 5390   4.455   5.436   1.084  0.0009  0.3722  1.1713
 1761SOL    HW2 5391   4.315   5.493   1.074  0.3263  0.8019 -1.5713
 1762SOL     OW 5392   1.561   1.210   0.790 -0.2373  0.0647 -0.2361
 1762SOL    HW1 5393   1.560   1.173   0.878 -0.3353 -1.5994 -0.9030
 1762SOL    HW2 5394   1.530   1.300   0.801 -1.0581 -0.3833  1.3037
 1763SOL     OW 5395   3.121   3.650   1.129 -0.5221 -0.0744 -0.2371
 1763SOL    HW1 5396   3.033   3.614   1.119 -0.6516 -0.3108  1.4877
 1763SOL    HW2 5397   3.178   3.584   1.088 -1.1142 -0.0124 -1.1875
 1764SOL     OW 5398   1.255   3.847   0.041  0.2077  0.0264 -0.0416
 1764SOL    HW1 5399   1.203   3.921   0.074 -0.4357  0.0324 -1.0116
 1764SOL    HW2 5400   1.192   3.794  -0.009  0.3547 -1.8910  1.6850
 1765SOL     OW 5401   3.023   1.963   2.150  0.4129 -0.0077 -0.4474
 1765SOL    HW1 5402   3.061   1.880   2.120 -1.2477 -1.0871  0.3139
 1765SOL    HW2 5403   3.001   2.010   2.070  0.6182 -0.6470 -0.8837
 1766SOL     OW 5404   5.189   3.773   0.612  0.2652  0.2031 -0.0586
 1766SOL    HW1 5405   5.176   3.706   0.679  1.7337 -0.4383 -0.3943
 1766SOL    HW2 5406   5.251   3.835   0.651  1.6791 -0.5387 -1.0348
 1767SOL     OW 5407   3.362   1.568   1.893 -0.2083  0.3514  0.3230
 1767SOL    HW1 5408   3.430   1.618   1.848 -0.6654  1.2154  0.5669
 1767SOL    HW2 5409   3.317   1.521   1.823  0.4567 -0.0034  0.1277
 1768SOL     OW 5410   0.255   1.694   2.872  0.2510 -0.2677 -0.3813
 1768SOL    HW1 5411   0.350   1.682   2.866  0.3854 -0.0772  1.0376
 1768SOL    HW2 5412   0.218   1.613   2.838  0.9228 -0.5495 -0.4475
 1769SOL     OW 5413   2.347   1.756   1.287 -0.0166  0.5279 -0.4642
 1769SOL    HW1 5414   2.270   1.790   1.333 -0.2824 -1.3645  0.6038
 1769SOL    HW2 5415   2.319   1.748   1.196 -0.5493  1.3336 -0.3828
 1770SOL     OW 5416   4.660   5.430   2.338 -0.3247  0.3440 -0.2125
 1770SOL    HW1 5417   4.754   5.412   2.342 -0.0741  0.5836 -3.2009
 1770SOL    HW2 5418   4.619   5.352   2.377  1.0494  0.7400  2.2245
 1771SOL     OW 5419   2.594   3.767   2.723 -0.0902  0.4978  0.2933
 1771SOL    HW1 5420   2.550   3.852   2.724 -2.0162 -0.3788 -1.1630
 1771SOL    HW2 5421   2.586   3.734   2.812 -0.7724  1.1630  0.4851
 1772SOL     OW 5422   0.639   3.668   1.518 -0.1804 -0.0892  0.2412
 1772SOL    HW1 5423   0.689   3.588   1.502 -0.8239 -0.4222 -0.1265
 1772SOL    HW2 5424   0.670   3.730   1.453  2.8277  1.1616  2.6213
 1773SOL     OW 5425   4.379   0.353   1.658 -0.1511 -0.1318 -0.1325
 1773SOL    HW1 5426   4.470   0.366   1.633 -0.0034 -1.3249 -0.3159
 1773SOL    HW2 5427   4.333   0.344   1.574 -0.2129 -0.7702 -0.0401
 1774SOL     OW 5428   1.469   0.952   1.171  0.3141 -0.7507  0.0918
 1774SOL    HW1 5429   1.540   0.951   1.235  1.1454 -1.0704 -0.8087
 1774SOL    HW2 5430   1.504   0.904   1.096  0.5943  2.2886 -1.8910
 1775SOL     OW 5431   4.125   2.705   3.145  0.2955 -0.5686 -0.2144
 1775SOL    HW1 5432   4.183   2.632   3.123  1.2902  0.2019 -0.2394
 1775SOL    HW2 5433   4.092   2.736   3.060  1.5007  0.2896 -0.3973
 1776SOL     OW 5434   4.290   0.524   3.322  0.4065 -0.7603  0.4628
 1776SOL    HW1 5435   4.236   0.475   3.384 -0.3706 -2.8066 -1.6419
 1776SOL    HW2 5436   4.324   0.598   3.372 -3.5602  0.1413  2.2161
 1777SOL     OW 5437   0.342   5.295   0.839  0.5358  0.2516  0.0721
 1777SOL    HW1 5438   0.388   5.222   0.882  1.8939  1.5599  0.9235
 1777SOL    HW2 5439   0.395   5.312   0.760  0.3605  0.4751  0.0025
 1778SOL     OW 5440   3.282   3.089   0.238  0.0789 -0.0857  0.1047
 1778SOL    HW1 5441   3.308   3.125   0.323 -1.7461 -0.3553  0.8261
 1778SOL    HW2 5442   3.363   3.055   0.200  0.8640 -0.3956  1.9589
 1779SOL     OW 5443   1.799   3.110   0.362 -0.0732 -0.3757  0.1016
 1779SOL    HW1 5444   1.791   3.138   0.454 -0.0066  0.3627 -0.1124
 1779SOL    HW2 5445   1.853   3.177   0.321  0.9597 -1.3666 -0.1979
 1780SOL     OW 5446   1.322   2.551   3.627 -0.2190 -0.6141 -0.1445
 1780SOL    HW1 5447   1.272   2.625   3.662  0.4511 -0.8011  1.2855
 1780SOL    HW2 5448   1.288   2.539   3.538  0.0772  1.7814 -0.6443
 1781SOL     OW 5449   3.369   4.515   0.466 -0.2811  0.5574 -0.1206
 1781SOL    HW1 5450   3.278   4.487   0.476 -0.0228 -0.7780 -1.1750
 1781SOL    HW2 5451   3.382   4.525   0.372  1.2576 -1.6062 -0.2290
 1782SOL     OW 5452   0.399   1.101   3.092  0.1430 -0.3163 -0.6759
 1782SOL    HW1 5453   0.371   1.034   3.030  0.2061 -0.5876 -0.4136
 1782SOL    HW2 5454   0.399   1.056   3.177 -0.6193  0.2373 -0.3731
 1783SOL     OW 5455   3.501   1.536   0.610 -0.0886 -0.1100 -0.5448
 1783SOL    HW1 5456   3.429   1.511   0.668  0.5220  1.8542  1.2363
 1783SOL    HW2 5457   3.463   1.600   0.551 -0.1507 -0.2123 -0.6152
 1784SOL     OW 5458   3.512   0.552   1.798 -0.1725  0.1469 -0.4639
 1784SOL    HW1 5459   3.605   0.544   1.779 -0.2264  0.0816 -0.7043
 1784SOL    HW2 5460   3.508   0.568   1.892  0.1054  0.5706 -0.5211
 1785SOL     OW 5461   0.204   3.052   1.006  0.3154 -0.5246  0.1678
 1785SOL    HW1 5462   0.166   3.126   0.958 -0.0811  0.3683  1.7744
 1785SOL    HW2 5463   0.135   3.026   1.068  1.2550 -0.7927  1.1295
 1786SOL     OW 5464   5.150   4.773   3.066 -0.5623  0.0411  0.0454
 1786SOL    HW1 5465   5.209   4.709   3.106  0.7850 -0.4479 -2.5654
 1786SOL    HW2 5466   5.203   4.852   3.056 -1.7195  1.0852  1.6889
 1787SOL     OW 5467   4.642   4.524   2.926 -0.3548  0.0113 -0.1450
 1787SOL    HW1 5468   4.620   4.517   3.019 -0.7037 -0.6511 -0.2770
 1787SOL    HW2 5469   4.572   4.478   2.881  1.7001 -3.0597 -0.5217
 1788SOL     OW 5470   3.649   2.796   1.681  0.0098 -0.2374 -0.1399
 1788SOL    HW1 5471   3.583   2.733   1.710 -1.5492  1.5975  0.4348
 1788SOL    HW2 5472   3.693   2.751   1.608 -2.2527 -1.3085 -0.9323
 1789SOL     OW 5473   1.881   0.659   3.850 -0.1005 -0.1502  0.0750
 1789SOL    HW1 5474   1.828   0.580   3.861 -0.6982  0.0606 -1.1381
 1789SOL    HW2 5475   1.884   0.673   3.755  1.7852  0.0831  0.1281
 1790SOL     OW 5476   4.366   4.367   2.939 -0.2156 -0.6025  0.0267
 1790SOL    HW1 5477   4.294   4.310   2.912 -0.0908 -0.6062 -0.3022
 1790SOL    HW2 5478   4.442   4.309   2.945 -0.3162 -0.6678  0.7342
 1791SOL     OW 5479   3.486   1.634   2.495 -0.5139 -0.0752 -0.1956
 1791SOL    HW1 5480   3.455   1.654   2.583 -0.8496 -2.2310  0.2318
 1791SOL    HW2 5481   3.434   1.692   2.438 -1.3429  0.2981  0.9027
 1792SOL     OW 5482   2.127   5.021   1.974  0.2327  0.1557 -0.0599
 1792SOL    HW1 5483   2.180   4.983   1.903 -0.4859  0.6499 -0.8862
 1792SOL    HW2 5484   2.190   5.070   2.027  0.5866  1.0870 -1.2732
 1793SOL     OW 5485   1.118   3.129   3.542  0.3373  0.1206 -0.5411
 1793SOL    HW1 5486   1.076   3.184   3.477  1.1247 -1.9263 -2.9758
 1793SOL    HW2 5487   1.179   3.074   3.491  0.8669 -1.7491  1.8984
 1794SOL     OW 5488   5.024   4.878   2.715  0.6505 -0.2718  0.4087
 1794SOL    HW1 5489   4.949   4.822   2.729  0.6481 -0.8796 -1.6613
 1794SOL    HW2 5490   5.008   4.918   2.629  1.5278  1.4932  1.0159
 1795SOL     OW 5491   2.310   0.693   3.429  0.0493  0.1412 -0.6723
 1795SOL    HW1 5492   2.401   0.666   3.423 -0.1006 -0.3365 -0.8060
 1795SOL    HW2 5493   2.283   0.666   3.517  0.5897  2.0222  0.1279
 1796SOL     OW 5494   2.975   1.373   3.125 -0.1152  0.0937 -0.0173
 1796SOL    HW1 5495   2.946   1.288   3.156 -0.4063  0.2116  0.0436
 1796SOL    HW2 5496   2.904   1.403   3.068  0.0718  0.2104 -0.1896
 1797SOL     OW 5497   4.659   3.232   0.538  0.6686  0.4200  0.1227
 1797SOL    HW1 5498   4.714   3.187   0.603 -0.0288  1.3679  1.4174
 1797SOL    HW2 5499   4.591   3.275   0.590  0.3217  1.5549 -1.2158
 1798SOL     OW 5500   3.283   2.406   0.773 -0.2188 -0.1652 -0.6757
 1798SOL    HW1 5501   3.197   2.386   0.812  1.0292  0.1515  2.5629
 1798SOL    HW2 5502   3.312   2.323   0.735 -0.9982 -0.9080  0.2829
 1799SOL     OW 5503   0.305   0.358   1.667  0.0646 -0.0845 -1.2599
 1799SOL    HW1 5504   0.400   0.373   1.666  0.6853 -2.9278  0.8511
 1799SOL    HW2 5505   0.294   0.276   1.620 -1.4206  0.3477 -1.6950
 1800SOL     OW 5506   5.168   2.945   0.730  0.3185  0.0538 -0.4276
 1800SOL    HW1 5507   5.089   2.901   0.759  1.7690 -1.8677  0.8251
 1800SOL    HW2 5508   5.176   3.020   0.788  0.7642 -1.2122  1.2076
 1801SOL     OW 5509   3.469   2.092   3.000  0.0633 -0.5680  0.0538
 1801SOL    HW1 5510   3.481   2.167   3.057 -0.5826  0.4709 -1.1214
 1801SOL    HW2 5511   3.506   2.119   2.916  0.7474 -1.9562 -0.1354
 1802SOL     OW 5512   1.407   0.121   0.878  0.1097  0.0430 -0.5320
 1802SOL    HW1 5513   1.500   0.101   0.893  0.1846  1.0207  0.4602
 1802SOL    HW2 5514   1.360   0.059   0.933  0.0788 -1.5263 -2.2395
 1803SOL     OW 5515   5.345   5.321   2.785 -0.3945 -0.5328 -0.1043
 1803SOL    HW1 5516   5.256   5.347   2.762 -0.2900  0.3250  0.4096
 1803SOL    HW2 5517   5.348   5.227   2.770 -0.4078 -0.1267 -3.3467
 1804SOL     OW 5518   0.339   4.497   2.181  0.3239 -0.3385 -0.5586
 1804SOL    HW1 5519   0.330   4.421   2.238  0.8789 -1.3623 -1.8044
 1804SOL    HW2 5520   0.408   4.549   2.222 -0.3654 -0.2436  0.5427
 1805SOL     OW 5521   2.689   1.293   3.051 -0.3144  0.2380 -0.1727
 1805SOL    HW1 5522   2.694   1.381   3.013 -1.4159  0.6085  0.5166
 1805SOL    HW2 5523   2.703   1.234   2.976  0.3402  0.9914 -0.6555
 1806SOL     OW 5524   1.893   5.060   3.905  0.2135  0.6273  0.0302
 1806SOL    HW1 5525   1.831   5.076   3.976  1.3843  3.1314  0.6137
 1806SOL    HW2 5526   1.979   5.078   3.943  1.1193 -0.6282 -1.3210
 1807SOL     OW 5527   3.224   0.370   1.630 -0.2932 -0.1197 -0.1460
 1807SOL    HW1 5528   3.283   0.304   1.592 -2.0695 -0.9099 -1.6915
 1807SOL    HW2 5529   3.182   0.410   1.554 -0.8232  1.3131  0.8816
 1808SOL     OW 5530   1.819   1.772   3.102 -0.4412  0.4420  0.1645
 1808SOL    HW1 5531   1.737   1.729   3.080  0.7507 -1.3955 -0.9649
 1808SOL    HW2 5532   1.793   1.852   3.148 -2.8076 -0.4585  0.5163
 1809SOL     OW 5533   0.250   3.552   2.782  0.1802 -0.1047  0.2057
 1809SOL    HW1 5534   0.194   3.628   2.768 -0.2730 -0.6261 -0.9538
 1809SOL    HW2 5535   0.189   3.478   2.784  0.6769 -0.5036  0.6735
 1810SOL     OW 5536   3.835   0.840   1.019 -0.6557  0.5423  0.2979
 1810SOL    HW1 5537   3.911   0.898   1.018 -1.9127  2.2657 -0.5705
 1810SOL    HW2 5538   3.871   0.754   1.040  1.1965  1.7216  2.4732
 1811SOL     OW 5539   5.384   2.809   1.831  0.0104 -1.0047  0.1405
 1811SOL    HW1 5540   5.303   2.853   1.806  0.4584 -0.1621  0.1194
 1811SOL    HW2 5541   5.359   2.719   1.848 -1.1111 -0.5140  1.1668
 1812SOL     OW 5542   1.932   2.650   0.861  0.3256 -0.2179 -0.0838
 1812SOL    HW1 5543   1.975   2.692   0.787 -0.1496  2.0789  0.8317
 1812SOL    HW2 5544   1.876   2.583   0.822  0.1685  0.8455 -1.8129
 1813SOL     OW 5545   5.525   2.136   0.925  0.2959  0.5968  0.0057
 1813SOL    HW1 5546   5.532   2.145   1.020 -0.0006  1.6197 -0.0590
 1813SOL    HW2 5547   5.608   2.170   0.891  0.1353  0.8522 -0.1325
 1814SOL     OW 5548   2.614   1.965   0.879  0.2016  0.1649  0.1772
 1814SOL    HW1 5549   2.572   2.040   0.837 -0.8118 -0.2630  0.3796
 1814SOL    HW2 5550   2.603   1.893   0.817  0.3518 -0.0277  0.3726
 1815SOL     OW 5551   5.383   0.013   2.658  0.0736  0.0223  0.2546
 1815SOL    HW1 5552   5.318   0.047   2.720 -0.7949 -0.5340 -0.3310
 1815SOL    HW2 5553   5.402  -0.075   2.690 -0.5923 -0.3755 -0.4126
 1816SOL     OW 5554   1.900   0.977   0.419  0.3211 -0.4913  0.3947
 1816SOL    HW1 5555   1.979   0.946   0.463  0.1266 -0.2143  0.9477
 1816SOL    HW2 5556   1.879   1.060   0.463  1.7122  1.2743 -2.0555
 1817SOL     OW 5557   4.062   3.970   2.308 -0.0545  0.3808 -0.1817
 1817SOL    HW1 5558   4.138   3.922   2.275 -0.6945  0.5322 -1.9633
 1817SOL    HW2 5559   4.098   4.052   2.341  0.6908 -0.0628  0.1307
 1818SOL     OW 5560   1.206   2.401   2.162 -0.2902 -0.1037  0.5015
 1818SOL    HW1 5561   1.112   2.383   2.164 -0.2337 -0.3489  1.9016
 1818SOL    HW2 5562   1.215   2.486   2.204  0.1361 -0.1852  0.5776
 1819SOL     OW 5563   5.279   2.818   3.397  0.5345 -0.1302  0.1145
 1819SOL    HW1 5564   5.308   2.765   3.472 -1.4417 -0.0818  0.9927
 1819SOL    HW2 5565   5.310   2.770   3.320  1.9433 -0.5926  0.9413
 1820SOL     OW 5566   0.774   3.740   0.978 -0.0085 -0.3425 -0.4496
 1820SOL    HW1 5567   0.718   3.697   0.914  1.2763 -0.7558 -1.3312
 1820SOL    HW2 5568   0.791   3.826   0.942 -0.2817 -0.1159 -0.0499
 1821SOL     OW 5569   2.961   0.714   3.632  0.6537 -0.0732  0.2313
 1821SOL    HW1 5570   2.960   0.679   3.721 -0.9602 -0.2619  0.1649
 1821SOL    HW2 5571   2.974   0.638   3.576  1.9798  0.0857  0.3089
 1822SOL     OW 5572   1.678   3.949   2.458  0.3173  0.7026  0.1742
 1822SOL    HW1 5573   1.763   3.991   2.471  0.2327  0.1828  2.9868
 1822SOL    HW2 5574   1.683   3.868   2.507 -1.2264 -0.2388 -1.1163
 1823SOL     OW 5575   1.634   4.659   2.657  0.3489  0.1169  0.4028
 1823SOL    HW1 5576   1.588   4.721   2.601  1.0938  0.5000  0.2009
 1823SOL    HW2 5577   1.623   4.694   2.746 -1.0445 -0.6268  0.5431
 1824SOL     OW 5578   4.844   4.958   3.913  0.4823  0.2394 -0.3607
 1824SOL    HW1 5579   4.809   4.890   3.856  0.1865  0.6189 -0.6316
 1824SOL    HW2 5580   4.870   4.911   3.992 -0.4738 -0.0859 -0.2200
 1825SOL     OW 5581   4.292   2.466   0.786  0.0395 -0.0475 -0.1739
 1825SOL    HW1 5582   4.201   2.491   0.773  0.6806  1.6654 -1.8628
 1825SOL    HW2 5583   4.315   2.416   0.708  0.8363  0.4741 -0.2852
 1826SOL     OW 5584   2.312   2.229   0.759 -0.1355  0.1166 -0.1888
 1826SOL    HW1 5585   2.403   2.246   0.780 -0.0798 -0.3609 -0.0493
 1826SOL    HW2 5586   2.309   2.138   0.729 -0.6526 -0.0473  0.3392
 1827SOL     OW 5587   2.776   3.338   1.309  0.0741  0.3191  0.3016
 1827SOL    HW1 5588   2.829   3.384   1.374 -1.3486  2.7526 -0.1019
 1827SOL    HW2 5589   2.696   3.313   1.356  1.5372 -3.7001  1.0230
 1828SOL     OW 5590   2.021   0.812   1.413  0.5653  0.0259  0.3166
 1828SOL    HW1 5591   2.047   0.888   1.362  2.1931 -0.4885  0.3115
 1828SOL    HW2 5592   2.104   0.773   1.441 -0.2164 -1.7804  0.2536
 1829SOL     OW 5593   3.983   2.795   3.351  0.3356 -0.1414 -0.3668
 1829SOL    HW1 5594   4.047   2.775   3.283 -1.3497 -2.7282 -1.3389
 1829SOL    HW2 5595   3.903   2.751   3.322 -1.4090  1.4822  1.6684
 1830SOL     OW 5596   0.946   5.075   1.473  0.1337 -0.6427 -0.0349
 1830SOL    HW1 5597   0.855   5.055   1.495 -0.9689  2.3975 -1.2930
 1830SOL    HW2 5598   0.966   5.156   1.521  1.8854 -0.7521 -0.4836
 1831SOL     OW 5599   0.590   4.292   2.027  0.3306  0.0894 -0.7301
 1831SOL    HW1 5600   0.514   4.248   2.066  0.7948  1.1975  1.5410
 1831SOL    HW2 5601   0.660   4.227   2.030  0.4775  0.2830  0.7797
 1832SOL     OW 5602   1.724   3.463   2.326 -0.0992 -0.3731  0.3384
 1832SOL    HW1 5603   1.636   3.440   2.295 -0.1714  1.4599 -0.9924
 1832SOL    HW2 5604   1.734   3.414   2.407 -2.0315 -1.2601  0.1098
 1833SOL     OW 5605   3.539   2.447   2.193  0.0775 -0.5888  1.3980
 1833SOL    HW1 5606   3.580   2.471   2.276  0.4686  0.3506  0.9512
 1833SOL    HW2 5607   3.453   2.489   2.197  0.1787 -0.3665  1.2399
 1834SOL     OW 5608   4.629   0.131   1.385  0.2512  0.3616  0.1164
 1834SOL    HW1 5609   4.720   0.137   1.355 -0.1777 -0.1080 -1.3448
 1834SOL    HW2 5610   4.587   0.210   1.351 -0.6875 -1.0500 -2.2690
 1835SOL     OW 5611   1.385   2.928   3.021 -0.2098 -0.2895 -0.2092
 1835SOL    HW1 5612   1.461   2.942   2.965 -0.0757  0.1399  0.0798
 1835SOL    HW2 5613   1.348   3.015   3.034 -2.2711 -0.6936 -2.4403
 1836SOL     OW 5614   3.100   0.600   2.334 -0.0969 -0.0855 -0.0147
 1836SOL    HW1 5615   3.022   0.563   2.375  0.2238 -0.6803  0.0691
 1836SOL    HW2 5616   3.139   0.654   2.402 -2.1261  2.8672 -0.9905
 1837SOL     OW 5617   2.797   0.134   1.177  0.3645  0.0603  0.1271
 1837SOL    HW1 5618   2.839   0.193   1.114  0.0656 -0.4493 -0.5668
 1837SOL    HW2 5619   2.707   0.166   1.182  0.4129  0.1582  0.3700
 1838SOL     OW 5620   3.931   1.630   0.952  0.5505 -0.4644  0.5772
 1838SOL    HW1 5621   3.944   1.724   0.941 -1.4329 -0.1962  0.1151
 1838SOL    HW2 5622   3.905   1.600   0.865  3.1175 -1.8575  0.2032
 1839SOL     OW 5623   4.507   5.222   0.870 -0.0802 -0.0569  0.5233
 1839SOL    HW1 5624   4.475   5.282   0.936  0.0898  1.2735 -0.5594
 1839SOL    HW2 5625   4.436   5.158   0.859 -0.1067 -0.2892  1.9478
 1840SOL     OW 5626   4.185   3.683   2.455 -0.1387 -0.4530  0.2787
 1840SOL    HW1 5627   4.199   3.752   2.390  0.8072  1.0957  2.0106
 1840SOL    HW2 5628   4.194   3.601   2.406 -1.2574  0.6028 -1.8569
 1841SOL     OW 5629   5.085   5.221   2.741  0.0886 -0.4172 -0.0889
 1841SOL    HW1 5630   5.033   5.236   2.663  1.6838  1.4285 -0.8772
 1841SOL    HW2 5631   5.024   5.182   2.804 -1.6251 -0.4495 -1.7047
 1842SOL     OW 5632   2.322   1.302   0.711  0.2456  0.0014 -0.1091
 1842SOL    HW1 5633   2.238   1.275   0.748  1.1248 -1.2402  1.0783
 1842SOL    HW2 5634   2.314   1.284   0.617 -1.1882  0.9622 -0.1967
 1843SOL     OW 5635   1.890   2.944   0.755 -0.1210  0.5105  0.4964
 1843SOL    HW1 5636   1.981   2.913   0.757 -0.4746 -0.5479  1.5901
 1843SOL    HW2 5637   1.840   2.868   0.725 -0.9844  0.0200  2.9859
 1844SOL     OW 5638   1.184   3.827   2.072  0.1113 -0.3214  0.2169
 1844SOL    HW1 5639   1.261   3.813   2.017 -0.6500  0.4408 -1.1094
 1844SOL    HW2 5640   1.177   3.923   2.079 -1.0947 -0.3636 -0.2555
 1845SOL     OW 5641   4.488   1.080   1.962  0.1696 -0.5022 -0.2301
 1845SOL    HW1 5642   4.449   1.129   1.890 -1.4181 -0.7016  0.4515
 1845SOL    HW2 5643   4.503   1.145   2.031  1.2309 -0.3954 -0.5527
 1846SOL     OW 5644   0.199   3.512   0.426 -0.2187 -0.2539 -0.0469
 1846SOL    HW1 5645   0.260   3.585   0.417  0.5391 -0.6769  1.2949
 1846SOL    HW2 5646   0.118   3.551   0.459  0.2658 -0.0270  0.9179
 1847SOL     OW 5647   4.352   1.814   1.250  0.1031  0.0136 -0.3396
 1847SOL    HW1 5648   4.389   1.769   1.325  0.4738 -1.3568 -1.3160
 1847SOL    HW2 5649   4.266   1.775   1.238  0.4543 -0.5282 -1.2341
 1848SOL     OW 5650   3.348   3.518   2.402 -0.3586 -0.4093 -0.0392
 1848SOL    HW1 5651   3.270   3.509   2.349  0.4533 -0.7808 -1.2028
 1848SOL    HW2 5652   3.346   3.610   2.431 -0.9850 -0.2931 -0.4306
 1849SOL     OW 5653   0.165   3.646   0.075  0.2977  0.2662 -0.4935
 1849SOL    HW1 5654   0.081   3.650   0.028 -0.0684  0.0129  0.1234
 1849SOL    HW2 5655   0.204   3.732   0.062 -0.9800  1.1003  0.8650
 1850SOL     OW 5656   4.462   4.597   2.261  0.6544  0.4512  0.1002
 1850SOL    HW1 5657   4.545   4.551   2.249  0.4399  0.4922 -1.8795
 1850SOL    HW2 5658   4.487   4.681   2.300  1.4745  0.2561  0.0213
 1851SOL     OW 5659   5.080   5.549   2.775  0.3613 -0.5012 -0.1176
 1851SOL    HW1 5660   5.042   5.462   2.773 -1.5733  0.1445  2.6151
 1851SOL    HW2 5661   5.062   5.586   2.689  0.3946 -2.4508 -0.9942
 1852SOL     OW 5662   4.498   0.113   2.765  0.2708 -0.2373  0.3371
 1852SOL    HW1 5663   4.479   0.199   2.728  2.1661  0.6331  1.2443
 1852SOL    HW2 5664   4.594   0.110   2.771  0.1963 -1.9546  1.3783
 1853SOL     OW 5665   0.076   1.338   1.553 -0.0459  0.0761 -0.2205
 1853SOL    HW1 5666   0.106   1.250   1.531 -0.5874 -0.2069  0.1300
 1853SOL    HW2 5667   0.016   1.362   1.483  1.1553  0.7417 -1.0518
 1854SOL     OW 5668   0.761   1.034   0.505 -0.3011 -0.0026 -0.1382
 1854SOL    HW1 5669   0.718   0.969   0.450 -0.0632 -1.1834  1.0136
 1854SOL    HW2 5670   0.846   0.995   0.527  1.4533  2.2201 -2.2918
 1855SOL     OW 5671   0.559   4.830   1.088  0.2371 -0.2671  0.3276
 1855SOL    HW1 5672   0.643   4.799   1.123  0.8064  0.1421 -0.6451
 1855SOL    HW2 5673   0.502   4.834   1.165  0.7438 -1.6898  0.8218
 1856SOL     OW 5674   1.492   0.461   1.753  0.5590 -0.4180 -0.2273
 1856SOL    HW1 5675   1.539   0.379   1.739 -1.4766 -1.6221 -0.4825
 1856SOL    HW2 5676   1.506   0.481   1.845  0.3887 -1.5467  0.0604
 1857SOL     OW 5677   0.699   2.863   2.984  0.1512 -0.0618 -0.1927
 1857SOL    HW1 5678   0.606   2.846   3.001  0.0266 -0.9061 -1.4815
 1857SOL    HW2 5679   0.720   2.941   3.035 -0.2512 -1.9857  3.2017
 1858SOL     OW 5680   2.966   3.134   2.146 -0.6624 -0.3091  0.4014
 1858SOL    HW1 5681   2.977   3.039   2.147 -1.1696 -0.3708  2.1417
 1858SOL    HW2 5682   3.055   3.167   2.132 -0.5967 -1.0269 -1.0800
 1859SOL     OW 5683   3.174   1.816   2.830  0.4079 -0.0051  0.1905
 1859SOL    HW1 5684   3.113   1.767   2.885  1.4475 -1.1473  0.3691
 1859SOL    HW2 5685   3.152   1.908   2.847 -0.5088 -0.3663  1.1040
 1860SOL     OW 5686   3.353   3.463   1.793  0.3136 -0.3687 -0.2912
 1860SOL    HW1 5687   3.291   3.536   1.797  0.0677 -0.5830 -0.1200
 1860SOL    HW2 5688   3.427   3.497   1.743  0.2931  0.0653 -0.0330
 1861SOL     OW 5689   0.469   5.076   0.991 -0.3387  0.2913 -0.5118
 1861SOL    HW1 5690   0.401   5.091   1.057 -2.6287 -1.8729 -2.1959
 1861SOL    HW2 5691   0.500   4.987   1.008  0.5297  0.4678 -1.1012
 1862SOL     OW 5692   0.401   4.254   2.725  0.2122 -0.4511  0.0064
 1862SOL    HW1 5693   0.425   4.182   2.666  0.9588  0.7276 -1.2038
 1862SOL    HW2 5694   0.306   4.258   2.720  0.0946 -1.8222  0.6974
 1863SOL     OW 5695   0.089   0.535   2.252  0.3711 -0.3066  0.1362
 1863SOL    HW1 5696   0.087   0.461   2.190  0.1833 -0.2974  0.1319
 1863SOL    HW2 5697   0.048   0.501   2.331 -1.1260  0.2503 -0.3646
 1864SOL     OW 5698   2.346   0.847   0.400  0.1290 -0.8814 -0.0283
 1864SOL    HW1 5699   2.425   0.844   0.453 -0.0945 -2.8551  0.2804
 1864SOL    HW2 5700   2.352   0.769   0.344 -0.8116 -0.1724 -1.1608
 1865SOL     OW 5701   0.624   2.291   1.206 -0.2117 -0.3016 -0.3726
 1865SOL    HW1 5702   0.642   2.240   1.127 -0.3334  0.0542 -0.6338
 1865SOL    HW2 5703   0.631   2.382   1.178 -2.7743 -0.0956 -0.6101
 1866SOL     OW 5704   2.352   2.890   2.874  0.6487  0.2225 -0.2172
 1866SOL    HW1 5705   2.343   2.945   2.796 -2.0519  1.6989  0.9863
 1866SOL    HW2 5706   2.315   2.806   2.848 -0.7651  0.8718 -0.4676
 1867SOL     OW 5707   2.501   5.343   2.126 -0.4043 -0.5319  0.1106
 1867SOL    HW1 5708   2.478   5.318   2.036 -0.5549 -0.3430  0.0964
 1867SOL    HW2 5709   2.456   5.426   2.140 -0.1372 -0.4125  0.2596
 1868SOL     OW 5710   4.121   4.436   2.236  0.7751 -0.4872 -0.0938
 1868SOL    HW1 5711   4.204   4.430   2.283  0.1198  0.1713  1.1901
 1868SOL    HW2 5712   4.071   4.501   2.284 -0.5418 -0.9760 -0.7692
 1869SOL     OW 5713   2.451   1.057   0.743 -0.3122  0.0073 -0.1939
 1869SOL    HW1 5714   2.512   1.044   0.670 -1.0737  0.0791 -0.8615
 1869SOL    HW2 5715   2.432   1.151   0.741 -0.2014  0.0417  0.2219
 1870SOL     OW 5716   4.938   5.349   3.564  0.2113 -0.2568  0.5379
 1870SOL    HW1 5717   4.899   5.436   3.573  0.2650 -0.3361  1.6286
 1870SOL    HW2 5718   4.866   5.293   3.535 -0.0166 -0.0093  0.6263
 1871SOL     OW 5719   1.098   3.233   0.885  0.2517  0.3631  0.0032
 1871SOL    HW1 5720   1.189   3.224   0.915  0.1836 -3.1558 -0.3957
 1871SOL    HW2 5721   1.081   3.327   0.888  4.1747  1.2924 -0.7513
 1872SOL     OW 5722   4.337   3.565   2.887 -0.0273 -0.3720 -0.6770
 1872SOL    HW1 5723   4.291   3.645   2.911 -0.4061 -1.2036  1.5957
 1872SOL    HW2 5724   4.368   3.581   2.798 -1.3673  1.7015 -0.8343
 1873SOL     OW 5725   2.004   3.838   2.744 -0.0836  0.1637 -0.4792
 1873SOL    HW1 5726   1.909   3.852   2.756 -0.2107  1.1312 -2.2801
 1873SOL    HW2 5727   2.044   3.916   2.782  0.3394 -1.7933  3.5669
 1874SOL     OW 5728   0.003   2.570   1.503  0.3875 -0.3851  0.6173
 1874SOL    HW1 5729   0.094   2.567   1.474  0.0781  1.0602 -0.5778
 1874SOL    HW2 5730  -0.048   2.542   1.427 -0.3438  2.0741  0.1257
 1875SOL     OW 5731   3.873   3.874   0.740 -0.0620 -0.6696 -0.5967
 1875SOL    HW1 5732   3.866   3.877   0.644  1.7988  1.9614 -0.7507
 1875SOL    HW2 5733   3.966   3.861   0.757  0.0754  1.5916  0.7633
 1876SOL     OW 5734   5.141   1.123   0.212 -0.1721  0.3869  0.3768
 1876SOL    HW1 5735   5.165   1.071   0.135 -0.3660  1.6609 -0.5594
 1876SOL    HW2 5736   5.099   1.060   0.271  1.0377 -0.8632 -0.0268
 1877SOL     OW 5737   1.451   3.276   3.656  0.4968 -0.0003 -0.4103
 1877SOL    HW1 5738   1.391   3.252   3.727 -0.8869  0.5088 -1.3740
 1877SOL    HW2 5739   1.500   3.351   3.691 -0.8210  0.8376 -0.3017
 1878SOL     OW 5740   3.698   4.518   3.546  0.5542 -0.4902  0.3210
 1878SOL    HW1 5741   3.682   4.443   3.488  0.1125 -0.9141  0.9715
 1878SOL    HW2 5742   3.721   4.590   3.488 -0.6569 -0.6928 -0.4485
 1879SOL     OW 5743   4.337   0.035   3.275 -0.0094  0.2205  0.2944
 1879SOL    HW1 5744   4.261  -0.018   3.251  1.2177 -1.7121  0.4206
 1879SOL    HW2 5745   4.383   0.051   3.192  1.7407 -2.4703  0.5973
 1880SOL     OW 5746   2.949   2.910   1.049  0.2009 -0.2340  0.1367
 1880SOL    HW1 5747   2.903   2.972   1.105  0.4385 -0.4261  0.5571
 1880SOL    HW2 5748   2.889   2.890   0.978 -0.4727 -0.6886  0.8190
 1881SOL     OW 5749   2.954   4.932   0.855  0.4290  0.2450  0.2487
 1881SOL    HW1 5750   2.958   4.870   0.782  1.6904  0.0383  0.4740
 1881SOL    HW2 5751   2.984   4.882   0.931 -0.0792  0.6894  0.7502
 1882SOL     OW 5752   1.527   1.226   1.911 -0.2581  0.3691  0.6212
 1882SOL    HW1 5753   1.613   1.262   1.894 -0.1113 -0.7578 -1.3881
 1882SOL    HW2 5754   1.468   1.273   1.852 -0.9399  0.7192  1.5467
 1883SOL     OW 5755   3.333   2.615   0.174  0.6036  0.0916 -0.1062
 1883SOL    HW1 5756   3.402   2.680   0.170  0.2630  0.4077 -1.0867
 1883SOL    HW2 5757   3.308   2.600   0.083 -0.8125  0.2005  0.2412
 1884SOL     OW 5758   2.478   2.795   0.238  0.3715  0.5854 -0.2756
 1884SOL    HW1 5759   2.497   2.779   0.145  2.2003 -0.1973  0.1827
 1884SOL    HW2 5760   2.410   2.732   0.260  0.5550  0.1662 -0.8743
 1885SOL     OW 5761   4.936   1.000   1.592  0.2784  0.1243  0.9536
 1885SOL    HW1 5762   4.855   1.048   1.609  0.5359  0.5815  0.8922
 1885SOL    HW2 5763   5.001   1.068   1.574  0.8834 -0.1900  1.8842
 1886SOL     OW 5764   0.165   4.672   2.696 -0.5259 -0.2709 -0.3863
 1886SOL    HW1 5765   0.165   4.725   2.616  1.4603  1.9658  0.9437
 1886SOL    HW2 5766   0.105   4.718   2.754 -1.0742 -1.2181 -0.1964
 1887SOL     OW 5767   4.170   5.264   2.667 -0.1143 -0.0956  0.5245
 1887SOL    HW1 5768   4.142   5.183   2.624 -1.5300 -0.6106  2.2872
 1887SOL    HW2 5769   4.261   5.247   2.692 -0.5592 -1.4278  1.3900
 1888SOL     OW 5770   4.219   1.781   0.877 -0.0072 -0.0204  0.3102
 1888SOL    HW1 5771   4.172   1.734   0.808 -0.9096  0.6660  0.4279
 1888SOL    HW2 5772   4.242   1.713   0.940  0.3848 -0.5820 -0.4173
 1889SOL     OW 5773   4.385   2.081   1.165 -0.2836 -0.1316  0.5759
 1889SOL    HW1 5774   4.298   2.086   1.126 -0.6682 -1.1783  1.2303
 1889SOL    HW2 5775   4.383   1.999   1.215  0.4986  0.6672  1.9725
 1890SOL     OW 5776   1.615   5.148   1.627  0.1714  0.2570 -0.4726
 1890SOL    HW1 5777   1.708   5.141   1.646 -0.0844 -0.3394  0.6397
 1890SOL    HW2 5778   1.573   5.155   1.713 -0.6730  2.5091 -1.0004
 1891SOL     OW 5779   3.931   2.063   2.251  0.0741 -0.5501  0.5471
 1891SOL    HW1 5780   3.883   2.133   2.206  0.8176 -0.1925  0.2895
 1891SOL    HW2 5781   3.960   2.103   2.333 -1.4633 -1.2663  1.4813
 1892SOL     OW 5782   5.040   2.008   3.426  0.2027  0.3608  0.4581
 1892SOL    HW1 5783   5.078   1.936   3.374 -0.4878 -0.8652  1.5755
 1892SOL    HW2 5784   4.962   2.034   3.376 -0.8211 -1.2423  1.1057
 1893SOL     OW 5785   5.116   1.312   2.142 -0.2951 -0.1563  0.5271
 1893SOL    HW1 5786   5.021   1.300   2.136 -0.3448  0.0695  0.8100
 1893SOL    HW2 5787   5.127   1.406   2.152  0.0338 -0.0531 -0.7162
 1894SOL     OW 5788   4.339   4.714   3.437  0.7426 -0.9924 -0.1391
 1894SOL    HW1 5789   4.291   4.783   3.483  1.6102 -0.4680  0.0041
 1894SOL    HW2 5790   4.271   4.658   3.399  0.0288  0.1356 -0.5550
 1895SOL     OW 5791   0.718   4.217   2.453 -0.6201 -0.0860  0.0288
 1895SOL    HW1 5792   0.703   4.158   2.528 -1.8947 -0.1590 -0.2627
 1895SOL    HW2 5793   0.813   4.229   2.451 -0.4616 -1.0178  0.9484
 1896SOL     OW 5794   4.834   3.971   2.189 -0.2436 -0.4409  0.2749
 1896SOL    HW1 5795   4.883   3.893   2.163  0.3229 -0.2065  0.6158
 1896SOL    HW2 5796   4.803   4.008   2.106  2.4070  0.8720 -0.2511
 1897SOL     OW 5797   3.538   2.007   1.916  0.0403  0.2834  0.0662
 1897SOL    HW1 5798   3.492   1.972   1.992  0.4403 -0.5076 -0.0468
 1897SOL    HW2 5799   3.546   2.100   1.934 -1.8949  0.5137 -0.0580
 1898SOL     OW 5800   0.716   5.390   0.397  0.1805  0.1736 -0.6166
 1898SOL    HW1 5801   0.749   5.300   0.402  1.0315  0.5168 -0.0014
 1898SOL    HW2 5802   0.783   5.443   0.438 -0.6201  1.0239 -0.3717
 1899SOL     OW 5803   4.563   0.583   2.964 -0.1479  0.1525  0.5538
 1899SOL    HW1 5804   4.485   0.600   3.016 -0.1479  1.7699  0.0913
 1899SOL    HW2 5805   4.634   0.622   3.015  0.2135 -0.4151  0.4913
 1900SOL     OW 5806   3.850   1.809   0.533 -0.1290 -0.2281  0.6157
 1900SOL    HW1 5807   3.786   1.880   0.529  0.2465  0.1061  0.4923
 1900SOL    HW2 5808   3.890   1.807   0.446  1.2819  0.7454  1.2074
 1901SOL     OW 5809   4.037   2.646   0.284  0.7636  0.1716  0.2137
 1901SOL    HW1 5810   4.042   2.566   0.233  0.6855  0.7480 -0.7264
 1901SOL    HW2 5811   3.955   2.688   0.256  1.3506  1.1186 -0.1526
 1902SOL     OW 5812   1.699   2.739   3.089 -0.4393  0.0248  0.0425
 1902SOL    HW1 5813   1.774   2.798   3.076  0.2720 -1.1183 -1.2732
 1902SOL    HW2 5814   1.699   2.721   3.183  0.2771  0.8859  0.2257
 1903SOL     OW 5815   2.434   5.107   1.174 -0.0769  0.2341  0.1438
 1903SOL    HW1 5816   2.423   5.012   1.171  0.8197  0.0814  1.0431
 1903SOL    HW2 5817   2.353   5.139   1.215  0.5405 -0.3848  1.9671
 1904SOL     OW 5818   5.277   0.410   2.730 -0.2597 -0.2417 -0.4216
 1904SOL    HW1 5819   5.366   0.404   2.695 -0.6747 -1.2175 -1.3573
 1904SOL    HW2 5820   5.259   0.323   2.765 -0.0164  0.5948  1.9085
 1905SOL     OW 5821   2.426   2.419   3.045  0.1717 -0.2431  0.6382
 1905SOL    HW1 5822   2.444   2.485   3.112  0.3878 -0.9050  1.2488
 1905SOL    HW2 5823   2.335   2.392   3.062 -0.0490  0.1768  0.1402
 1906SOL     OW 5824   3.778   0.083   1.375  0.7549  0.1134 -0.4183
 1906SOL    HW1 5825   3.764   0.005   1.321  0.4128  1.2510 -2.0438
 1906SOL    HW2 5826   3.787   0.049   1.464  1.3254 -1.8426 -1.1616
 1907SOL     OW 5827   0.273   1.820   1.475  0.8149 -0.1285  0.7345
 1907SOL    HW1 5828   0.272   1.724   1.477  1.5187 -0.1425  0.5614
 1907SOL    HW2 5829   0.182   1.844   1.458  0.7590 -0.7817  0.0452
 1908SOL     OW 5830   1.638   1.414   1.124  0.0029 -0.1567 -0.3959
 1908SOL    HW1 5831   1.569   1.349   1.111  0.2618 -0.6376  0.6067
 1908SOL    HW2 5832   1.695   1.403   1.048 -0.1401 -0.8619 -0.4105
 1909SOL     OW 5833   0.754   3.657   2.281 -1.0486 -0.5158 -0.0499
 1909SOL    HW1 5834   0.801   3.708   2.347 -0.7490  1.2169 -1.5023
 1909SOL    HW2 5835   0.815   3.652   2.207 -2.9560  1.6427 -1.9190
 1910SOL     OW 5836   0.982   0.041   3.268  0.7650 -0.1423 -0.4126
 1910SOL    HW1 5837   1.076   0.021   3.263  1.2094  0.7590  2.3480
 1910SOL    HW2 5838   0.978   0.117   3.326 -1.7661 -0.7924  0.3542
 1911SOL     OW 5839   2.939   1.285   2.435  0.0619 -0.1980  0.0775
 1911SOL    HW1 5840   3.016   1.234   2.408 -0.2385 -0.3576 -0.5160
 1911SOL    HW2 5841   2.910   1.328   2.354 -0.2547  0.1536  0.3747
 1912SOL     OW 5842   1.595   1.990   3.769 -0.0411  0.4708  0.3054
 1912SOL    HW1 5843   1.547   1.944   3.838 -1.0436 -1.1715 -1.3836
 1912SOL    HW2 5844   1.571   2.082   3.780 -3.2617 -0.1824 -0.1057
 1913SOL     OW 5845   3.610   0.615   3.762 -0.4541  0.4526 -0.3362
 1913SOL    HW1 5846   3.516   0.602   3.750 -0.5341 -0.2508  0.8661
 1913SOL    HW2 5847   3.650   0.586   3.680 -1.0920 -1.8026  0.1059
 1914SOL     OW 5848   2.765   2.790   3.730  0.0979 -0.5035 -0.1498
 1914SOL    HW1 5849   2.698   2.725   3.753  2.3175 -2.3173  1.7141
 1914SOL    HW2 5850   2.825   2.744   3.672  1.0543  0.2768  0.1908
 1915SOL     OW 5851   2.902   4.575   2.827  0.3511  0.1709 -0.1640
 1915SOL    HW1 5852   2.928   4.504   2.885  1.9065  0.2783 -0.6657
 1915SOL    HW2 5853   2.944   4.653   2.864  0.6977  0.3772 -0.9668
 1916SOL     OW 5854   3.905   4.969   2.965  0.2642 -0.1489 -0.3545
 1916SOL    HW1 5855   3.915   4.874   2.969 -0.6974 -0.2435  0.1153
 1916SOL    HW2 5856   3.883   4.994   3.055  1.1265  0.5997 -0.3348
 1917SOL     OW 5857   2.419   4.462   2.291  0.0128 -0.0074  0.7328
 1917SOL    HW1 5858   2.473   4.535   2.322 -0.0204  0.4091 -0.1818
 1917SOL    HW2 5859   2.329   4.487   2.316 -0.0591  0.5047 -0.0291
 1918SOL     OW 5860   0.966   2.606   2.333 -0.0990 -0.2546  0.2536
 1918SOL    HW1 5861   1.022   2.635   2.261 -2.0129  0.1379 -1.1681
 1918SOL    HW2 5862   0.931   2.687   2.370 -2.2309 -0.5176 -1.0334
 1919SOL     OW 5863   1.137   5.362   3.838 -0.5531 -0.2205  0.3001
 1919SOL    HW1 5864   1.066   5.383   3.899 -2.3922  1.3484 -2.1978
 1919SOL    HW2 5865   1.206   5.425   3.860 -0.5946 -0.6327  1.6734
 1920SOL     OW 5866   0.075   0.243   3.884  0.2562 -0.4557 -0.0485
 1920SOL    HW1 5867   0.009   0.224   3.950 -0.5461  1.0154 -0.3892
 1920SOL    HW2 5868   0.157   0.210   3.922 -0.4899 -1.3494  0.8341
 1921SOL     OW 5869   4.775   0.790   0.475  0.0363  0.2146 -0.1442
 1921SOL    HW1 5870   4.720   0.767   0.401 -0.6340  0.0634  0.3940
 1921SOL    HW2 5871   4.728   0.859   0.521 -0.4881 -0.9540  1.1869
 1922SOL     OW 5872   1.403   1.679   0.342  0.0529  0.0182 -0.4287
 1922SOL    HW1 5873   1.444   1.727   0.414  0.5647 -0.2853 -0.5157
 1922SOL    HW2 5874   1.312   1.707   0.345 -0.3052 -1.1823  1.3435
 1923SOL     OW 5875   4.318   3.163   1.297  0.0502 -0.5630 -0.5426
 1923SOL    HW1 5876   4.411   3.182   1.308 -0.3356  0.5044  1.4546
 1923SOL    HW2 5877   4.303   3.168   1.203  1.7845  0.4431 -0.8046
 1924SOL     OW 5878   4.942   2.767   2.784  0.4636 -0.1268  0.1683
 1924SOL    HW1 5879   4.903   2.844   2.826  1.7342  0.2602  0.6712
 1924SOL    HW2 5880   5.029   2.760   2.822  1.0705 -0.7072 -1.2636
 1925SOL     OW 5881   5.180   1.830   3.296  0.2794  0.2993 -0.1004
 1925SOL    HW1 5882   5.178   1.767   3.368  3.1560  0.7544  0.4906
 1925SOL    HW2 5883   5.193   1.776   3.217 -2.6397 -0.1780 -0.3713
 1926SOL     OW 5884   2.266   4.350   3.307  0.5456 -0.0252  0.3218
 1926SOL    HW1 5885   2.222   4.365   3.391 -0.9451 -2.1106  0.0025
 1926SOL    HW2 5886   2.207   4.387   3.242  0.5073 -0.5607  0.0457
 1927SOL     OW 5887   3.560   5.276   0.783  0.0794  0.3989 -0.5730
 1927SOL    HW1 5888   3.572   5.334   0.858 -0.8252 -1.7429  1.3770
 1927SOL    HW2 5889   3.486   5.314   0.735  0.2366  1.4524 -0.0148
 1928SOL     OW 5890   5.510   2.849   2.466  0.1118  0.4968  0.2025
 1928SOL    HW1 5891   5.489   2.901   2.388  0.5230 -0.9708 -0.9411
 1928SOL    HW2 5892   5.603   2.830   2.457  0.5229  1.5403  1.8661
 1929SOL     OW 5893   2.864   1.397   2.678  0.2386  0.0692  0.0659
 1929SOL    HW1 5894   2.881   1.358   2.593  0.5598  0.3513 -0.0041
 1929SOL    HW2 5895   2.950   1.403   2.720  0.2715  1.1191 -0.1163
 1930SOL     OW 5896   2.879   5.386   3.321 -0.3877  0.2184  0.0438
 1930SOL    HW1 5897   2.851   5.436   3.397  0.0094  0.0419  0.3147
 1930SOL    HW2 5898   2.897   5.452   3.254  0.3740  0.4642  0.4757
 1931SOL     OW 5899   4.323   2.791   0.552 -0.3306 -0.1603 -0.1761
 1931SOL    HW1 5900   4.378   2.774   0.629 -0.6614 -0.1576  0.0625
 1931SOL    HW2 5901   4.236   2.760   0.577 -1.6406  3.9055  1.2556
 1932SOL     OW 5902   2.537   1.861   1.104 -0.0783 -0.6174 -0.2408
 1932SOL    HW1 5903   2.581   1.919   1.165 -0.3634  0.4145 -0.9843
 1932SOL    HW2 5904   2.569   1.887   1.018  0.4459 -2.1539 -0.5473
 1933SOL     OW 5905   0.941   1.468   1.597  0.1446 -0.1757  0.1856
 1933SOL    HW1 5906   0.880   1.404   1.632  0.0866 -0.0420  0.3289
 1933SOL    HW2 5907   0.973   1.429   1.515 -0.8677  0.1850 -0.3962
 1934SOL     OW 5908   2.689   2.628   1.569 -0.1920 -0.3706 -0.0210
 1934SOL    HW1 5909   2.623   2.686   1.531  0.3784  1.9577  2.2277
 1934SOL    HW2 5910   2.644   2.585   1.642 -0.4295 -2.4009 -1.2846
 1935SOL     OW 5911   2.392   3.488   0.479 -0.1216 -0.4973 -0.1025
 1935SOL    HW1 5912   2.310   3.520   0.516  0.4517  0.1507  0.6441
 1935SOL    HW2 5913   2.457   3.555   0.503  0.5389 -0.7756 -1.0613
 1936SOL     OW 5914   4.718   0.889   0.943  0.7970 -0.3674 -0.1295
 1936SOL    HW1 5915   4.687   0.807   0.905 -0.7206 -0.3848  1.0657
 1936SOL    HW2 5916   4.686   0.957   0.884  0.9149 -0.5596 -0.4141
 1937SOL     OW 5917   5.316   2.699   2.187  0.1359 -0.1364  0.2047
 1937SOL    HW1 5918   5.296   2.689   2.094 -0.5085 -0.8275  0.3999
 1937SOL    HW2 5919   5.411   2.700   2.191  0.1980  1.8070 -0.6286
 1938SOL     OW 5920   1.327   5.500   1.979 -0.1146  0.4788  0.0188
 1938SOL    HW1 5921   1.279   5.424   1.947 -0.0091 -0.0797  1.1254
 1938SOL    HW2 5922   1.267   5.543   2.040 -0.0347  1.0629 -0.3127
 1939SOL     OW 5923   3.184   2.311   1.796  0.1092  0.8460  0.2142
 1939SOL    HW1 5924   3.189   2.278   1.707  1.3735  0.4059  0.4259
 1939SOL    HW2 5925   3.139   2.395   1.789 -0.5638  0.4185 -0.7139
 1940SOL     OW 5926   5.327   5.285   3.731 -0.0249  0.7749 -0.1925
 1940SOL    HW1 5927   5.422   5.285   3.739  0.1725 -2.3971 -1.1217
 1940SOL    HW2 5928   5.296   5.236   3.808 -0.4938 -1.8360 -1.9191
 1941SOL     OW 5929   3.278   0.358   1.985 -0.9899 -0.1906 -0.6835
 1941SOL    HW1 5930   3.257   0.371   2.078 -0.8697  0.7909 -0.7872
 1941SOL    HW2 5931   3.242   0.435   1.941  0.2300  0.0666 -1.2558
 1942SOL     OW 5932   4.520   3.524   3.348 -0.0145  0.3999  0.2413
 1942SOL    HW1 5933   4.497   3.490   3.262  0.6410  1.1896 -0.2681
 1942SOL    HW2 5934   4.460   3.480   3.408  0.5387 -1.3514 -0.4075
 1943SOL     OW 5935   0.996   2.401   1.305 -0.5862 -0.8167  0.3739
 1943SOL    HW1 5936   0.963   2.360   1.225  2.2441 -0.9355 -0.8257
 1943SOL    HW2 5937   1.080   2.359   1.321  0.3620  1.3939  1.6563
 1944SOL     OW 5938   2.863   2.512   2.024 -0.1253 -0.6956  0.5683
 1944SOL    HW1 5939   2.803   2.584   2.004  0.4188 -0.1598  0.8364
 1944SOL    HW2 5940   2.887   2.477   1.938  1.3174  0.8680  0.2781
 1945SOL     OW 5941   0.666   2.446   0.935 -0.1063 -0.4510 -0.4106
 1945SOL    HW1 5942   0.693   2.435   0.844 -1.1238  0.9338 -0.9131
 1945SOL    HW2 5943   0.682   2.360   0.975  3.3104 -0.2555 -1.0457
 1946SOL     OW 5944   3.590   0.840   3.024  0.5257 -0.1606 -0.2014
 1946SOL    HW1 5945   3.524   0.902   3.056  0.5131  1.0982 -2.4865
 1946SOL    HW2 5946   3.581   0.764   3.083  1.6829  2.4992  3.8212
 1947SOL     OW 5947   1.371   0.890   3.228 -0.5561  0.6286  0.1874
 1947SOL    HW1 5948   1.423   0.830   3.281  0.4430 -0.0283 -1.4749
 1947SOL    HW2 5949   1.426   0.967   3.218 -0.7409  0.7539  0.1248
 1948SOL     OW 5950   4.835   4.231   0.842  0.1200  0.0289  0.1152
 1948SOL    HW1 5951   4.829   4.182   0.760  1.8557 -0.0997  0.0349
 1948SOL    HW2 5952   4.760   4.200   0.894  0.0189 -1.2078 -0.7312
 1949SOL     OW 5953   3.390   4.301   3.555  0.4770  0.0823 -0.4332
 1949SOL    HW1 5954   3.352   4.334   3.636  0.0774 -0.0866 -0.5501
 1949SOL    HW2 5955   3.315   4.273   3.503  0.7087  0.4245 -0.9640
 1950SOL     OW 5956   2.364   1.502   0.335  0.2041  0.5014 -0.4654
 1950SOL    HW1 5957   2.382   1.595   0.320  2.0725  0.1012 -1.0464
 1950SOL    HW2 5958   2.426   1.456   0.278  0.3949 -1.0923  0.9176
 1951SOL     OW 5959   0.722   1.132   3.242  0.0798 -1.0017  0.0021
 1951SOL    HW1 5960   0.687   1.221   3.237  0.5945 -0.6036  2.3271
 1951SOL    HW2 5961   0.726   1.102   3.151  1.7463  2.0511 -1.0620
 1952SOL     OW 5962   2.709   1.879   1.873  0.0927  1.0256 -0.2731
 1952SOL    HW1 5963   2.735   1.957   1.923  0.4912  1.5893 -1.3105
 1952SOL    HW2 5964   2.706   1.809   1.937 -0.8203  1.9946  0.8089
 1953SOL     OW 5965   1.342   0.807   0.218  0.6178 -0.1153 -0.1503
 1953SOL    HW1 5966   1.366   0.718   0.243  1.6041  0.6785  2.0223
 1953SOL    HW2 5967   1.420   0.842   0.176  0.0361 -0.4246 -1.5338
 1954SOL     OW 5968   4.870   5.092   1.431 -0.2085 -0.2239 -0.1452
 1954SOL    HW1 5969   4.944   5.059   1.380  0.5620  1.3069 -0.0695
 1954SOL    HW2 5970   4.799   5.101   1.368 -0.5202 -2.1236 -0.1352
 1955SOL     OW 5971   1.073   5.242   0.170  0.1151 -0.2943  0.6158
 1955SOL    HW1 5972   1.073   5.214   0.261  0.9799 -0.1258  0.6735
 1955SOL    HW2 5973   1.126   5.177   0.124  0.2364 -0.0172  0.3569
 1956SOL     OW 5974   5.121   4.015   2.361  0.0842 -0.1900  0.5314
 1956SOL    HW1 5975   5.130   3.923   2.335 -1.5040 -0.6185  1.3467
 1956SOL    HW2 5976   5.197   4.058   2.323 -0.2861 -1.4028 -1.7820
 1957SOL     OW 5977   1.655   4.850   0.526 -0.2645  0.2792 -0.2898
 1957SOL    HW1 5978   1.691   4.936   0.545  0.2509 -0.1133  0.5874
 1957SOL    HW2 5979   1.731   4.794   0.513 -0.5233 -0.5106  1.3385
 1958SOL     OW 5980   2.159   4.279   1.373  0.4003 -0.3739 -0.6179
 1958SOL    HW1 5981   2.253   4.261   1.366  0.1683 -1.1681 -2.2314
 1958SOL    HW2 5982   2.142   4.340   1.301 -0.6057 -1.5807 -1.4365
 1959SOL     OW 5983   2.768   2.662   1.232  0.0922  0.0153 -0.5783
 1959SOL    HW1 5984   2.696   2.710   1.273 -0.0482  1.2079 -2.1185
 1959SOL    HW2 5985   2.738   2.571   1.229 -0.4676  0.1516  0.6489
 1960SOL     OW 5986   1.454   3.893   1.019  0.0676 -0.3001 -0.8134
 1960SOL    HW1 5987   1.525   3.952   0.994 -0.6118  0.9192  0.0660
 1960SOL    HW2 5988   1.408   3.874   0.937 -1.6117  2.9445 -0.7810
 1961SOL     OW 5989   2.529   4.184   2.116  0.1524  0.5543  0.0852
 1961SOL    HW1 5990   2.508   4.108   2.062 -1.1598 -0.8617  2.4572
 1961SOL    HW2 5991   2.471   4.253   2.083  1.4628  0.7107 -2.1846
 1962SOL     OW 5992   0.360   5.501   2.029  0.1919 -0.2509 -0.0553
 1962SOL    HW1 5993   0.319   5.415   2.036 -0.5684 -0.0305 -1.3499
 1962SOL    HW2 5994   0.292   5.562   2.057  0.7206 -0.0537  0.8399
 1963SOL     OW 5995   3.082   3.170   0.991 -0.0084 -0.1945  0.2789
 1963SOL    HW1 5996   3.096   3.076   0.978  0.9115 -0.0503  0.1133
 1963SOL    HW2 5997   3.093   3.184   1.085 -1.5715 -0.4589  0.5222
 1964SOL     OW 5998   0.125   3.666   3.362 -0.5186  0.6511  0.3663
 1964SOL    HW1 5999   0.182   3.590   3.358 -0.2418  0.8910 -0.4958
 1964SOL    HW2 6000   0.171   3.734   3.312 -0.9607  1.2518  0.7507
 1965SOL     OW 6001   4.209   3.319   2.604  0.3981 -0.4720  0.3809
 1965SOL    HW1 6002   4.210   3.321   2.509  1.0005 -1.6015  0.3492
 1965SOL    HW2 6003   4.221   3.411   2.630  0.4863 -0.1860 -0.6185
 1966SOL     OW 6004   1.588   4.041   3.077  0.2847  0.3202 -0.1046
 1966SOL    HW1 6005   1.567   3.973   3.013 -0.8356  1.0501 -0.5544
 1966SOL    HW2 6006   1.536   4.117   3.048 -0.2995  0.6509  1.7076
 1967SOL     OW 6007   0.263   4.346   1.620 -0.6647  0.3188 -0.1056
 1967SOL    HW1 6008   0.304   4.357   1.706 -0.6104  0.6596 -0.1712
 1967SOL    HW2 6009   0.307   4.271   1.582 -0.7403  0.1203  0.1949
 1968SOL     OW 6010   2.764   0.815   1.348  0.4433 -0.2748 -0.0911
 1968SOL    HW1 6011   2.701   0.789   1.415  0.3498  1.9791  0.8008
 1968SOL    HW2 6012   2.840   0.846   1.397  0.8689  0.2687 -1.0560
 1969SOL     OW 6013   0.511   2.067   0.107  0.1806  0.8112 -0.2171
 1969SOL    HW1 6014   0.437   2.018   0.144  0.0428  1.0174 -0.2194
 1969SOL    HW2 6015   0.554   2.107   0.182  2.2941 -1.9658  0.2383
 1970SOL     OW 6016   4.187   1.367   0.767 -0.3435 -0.3122 -0.2060
 1970SOL    HW1 6017   4.123   1.299   0.786  0.8207 -1.5407 -0.5420
 1970SOL    HW2 6018   4.149   1.418   0.695 -2.0865  0.6410  1.2907
 1971SOL     OW 6019   1.248   3.252   0.270  0.0632  0.7735 -0.3840
 1971SOL    HW1 6020   1.322   3.225   0.324  0.1494 -1.3960 -1.4844
 1971SOL    HW2 6021   1.287   3.298   0.196  0.3420 -0.3629 -0.9607
 1972SOL     OW 6022   2.019   1.181   2.894 -0.5586 -0.0516  0.4316
 1972SOL    HW1 6023   2.060   1.260   2.858  1.6182 -0.8035  1.1308
 1972SOL    HW2 6024   1.964   1.149   2.823 -0.9653  1.6934 -0.1095
 1973SOL     OW 6025   2.120   0.874   1.027 -0.0332 -0.0745 -0.3705
 1973SOL    HW1 6026   2.209   0.895   1.001 -0.1401 -1.0571 -1.6640
 1973SOL    HW2 6027   2.073   0.863   0.944 -1.7902  2.0702  0.2413
 1974SOL     OW 6028   3.285   3.309   2.925 -0.0993 -1.0011  0.3634
 1974SOL    HW1 6029   3.379   3.299   2.911  0.1435  2.1867 -1.1830
 1974SOL    HW2 6030   3.278   3.352   3.010 -0.0307 -0.1057 -0.0708
 1975SOL     OW 6031   1.549   4.004   2.218 -0.2006 -0.5562 -0.2356
 1975SOL    HW1 6032   1.528   3.916   2.186  2.8172 -1.5726  0.3107
 1975SOL    HW2 6033   1.604   3.990   2.294  0.3165  1.8200 -0.0918
 1976SOL     OW 6034   1.418   0.081   3.150  0.1778  1.3637 -0.1651
 1976SOL    HW1 6035   1.485   0.147   3.131  0.1356  1.2782 -0.6086
 1976SOL    HW2 6036   1.335   0.124   3.131  0.1220  1.3593  0.0660
 1977SOL     OW 6037   4.926   1.206   2.634 -0.4586 -0.1254 -0.2144
 1977SOL    HW1 6038   4.851   1.155   2.663  0.3046  0.0293  2.3685
 1977SOL    HW2 6039   5.001   1.166   2.679  0.6231  1.2815 -0.6735
 1978SOL     OW 6040   1.676   5.083   2.916 -0.4960 -0.2375 -0.1575
 1978SOL    HW1 6041   1.674   5.094   3.011 -1.4856 -1.0835 -0.0608
 1978SOL    HW2 6042   1.592   5.118   2.886 -0.4796 -0.5989 -0.6397
 1979SOL     OW 6043   2.820   1.255   1.269  0.0840  0.3943  0.0528
 1979SOL    HW1 6044   2.828   1.349   1.251  0.3587  0.2027 -0.8627
 1979SOL    HW2 6045   2.908   1.220   1.254 -0.2483 -0.1758 -0.6355
 1980SOL     OW 6046   4.846   4.499   0.312 -0.5676  0.0807  0.0638
 1980SOL    HW1 6047   4.842   4.501   0.217  2.3127  0.7367 -0.1404
 1980SOL    HW2 6048   4.917   4.437   0.331  1.0119  2.2131  1.6020
 1981SOL     OW 6049   3.554   5.498   1.011  0.6406  0.1847 -0.0986
 1981SOL    HW1 6050   3.629   5.546   0.975 -0.6794  2.0450 -0.5296
 1981SOL    HW2 6051   3.525   5.551   1.085  0.5826 -1.2538  0.9443
 1982SOL     OW 6052   4.604   1.695   0.375  0.2791 -0.0529  0.5217
 1982SOL    HW1 6053   4.520   1.664   0.409  0.1183  1.1383  1.2683
 1982SOL    HW2 6054   4.595   1.691   0.280 -0.7437  0.3502  0.5936
 1983SOL     OW 6055   4.405   2.254   0.932 -0.7944  0.2682  0.0519
 1983SOL    HW1 6056   4.381   2.316   0.863 -0.6913  1.5309  1.1113
 1983SOL    HW2 6057   4.337   2.187   0.928  0.1762 -0.6834 -2.4312
 1984SOL     OW 6058   1.248   0.303   2.169  0.1816  0.0479  0.3584
 1984SOL    HW1 6059   1.320   0.252   2.206  0.5119 -0.1956 -0.5890
 1984SOL    HW2 6060   1.177   0.293   2.232  0.7195 -0.3705  0.9121
 1985SOL     OW 6061   3.988   5.089   0.907  0.5631  0.4674  0.5820
 1985SOL    HW1 6062   4.039   5.170   0.911  1.8712 -0.1631 -1.5309
 1985SOL    HW2 6063   3.926   5.104   0.835  0.8595 -0.3889  0.1290
 1986SOL     OW 6064   4.155   3.090   0.807  0.4685  0.1012  0.6134
 1986SOL    HW1 6065   4.184   3.159   0.867  1.5309  0.2133 -0.0099
 1986SOL    HW2 6066   4.222   3.087   0.739 -0.2600 -0.6327 -0.0997
 1987SOL     OW 6067   4.461   0.673   0.659 -0.4421 -0.3475 -0.4908
 1987SOL    HW1 6068   4.468   0.708   0.570  1.4350  0.5386 -0.0397
 1987SOL    HW2 6069   4.488   0.581   0.650 -1.0977 -0.5038 -0.9608
 1988SOL     OW 6070   4.811   0.009   0.586  0.1475  0.4102  0.2068
 1988SOL    HW1 6071   4.725  -0.030   0.573 -0.3511  1.9821 -1.7718
 1988SOL    HW2 6072   4.829  -0.003   0.679 -2.1384 -0.1035  0.6453
 1989SOL     OW 6073   0.259   4.937   3.338 -0.1244  0.3495 -0.4105
 1989SOL    HW1 6074   0.300   5.003   3.395  1.6232 -1.0068 -0.0223
 1989SOL    HW2 6075   0.201   4.888   3.396  0.2574  0.1481 -0.1920
 1990SOL     OW 6076   1.279   1.792   1.115  0.3116  0.9024 -0.1427
 1990SOL    HW1 6077   1.184   1.803   1.126  0.4232  2.3113 -0.2991
 1990SOL    HW2 6078   1.299   1.709   1.157 -0.9878  0.6119 -0.0442
 1991SOL     OW 6079   2.926   0.328   1.042  0.2749  0.0346 -0.3798
 1991SOL    HW1 6080   2.895   0.403   1.092 -0.4758 -0.9278  0.6362
 1991SOL    HW2 6081   2.894   0.344   0.953  1.1171  1.4708 -0.4564
 1992SOL     OW 6082   1.680   1.776   2.031  0.5010  0.1004 -0.6890
 1992SOL    HW1 6083   1.596   1.732   2.021  0.6519 -0.3335 -0.1113
 1992SOL    HW2 6084   1.732   1.716   2.084  1.5133 -0.1138 -1.8643
 1993SOL     OW 6085   0.075   4.313   3.483  0.0338 -0.2905 -0.5338
 1993SOL    HW1 6086  -0.013   4.322   3.520  0.3003  0.8781 -0.1433
 1993SOL    HW2 6087   0.065   4.342   3.392  0.1968  0.7697 -0.2238
 1994SOL     OW 6088   3.932   5.111   2.516 -0.0230 -0.3785  0.0349
 1994SOL    HW1 6089   3.840   5.124   2.491  0.2152 -0.7338 -1.1056
 1994SOL    HW2 6090   3.931   5.034   2.572 -0.6058  0.5443  1.3472
 1995SOL     OW 6091   4.834   3.794   1.855  0.0772 -0.5103 -0.1013
 1995SOL    HW1 6092   4.898   3.792   1.926 -0.7633 -1.8872  0.6464
 1995SOL    HW2 6093   4.841   3.708   1.814  1.5369  0.7008 -2.6381
 1996SOL     OW 6094   4.137   4.441   0.191  0.1846 -0.2149  0.2747
 1996SOL    HW1 6095   4.170   4.368   0.243 -0.4981 -0.7318 -0.0105
 1996SOL    HW2 6096   4.104   4.504   0.255 -1.6985 -1.3413  0.4655
 1997SOL     OW 6097   0.805   2.373   2.765  0.4178  0.3169  0.0546
 1997SOL    HW1 6098   0.862   2.368   2.689  1.7773 -1.5262  1.1326
 1997SOL    HW2 6099   0.803   2.285   2.801 -3.3122  0.1969  0.0009
 1998SOL     OW 6100   0.994   4.085   3.261 -0.3767 -0.3224  0.0059
 1998SOL    HW1 6101   0.975   4.173   3.230 -1.1930 -0.7168 -0.6568
 1998SOL    HW2 6102   0.989   4.030   3.182  2.4652 -0.6569 -0.0621
 1999SOL     OW 6103   3.555   4.680   1.659  0.0915 -0.0885  0.1472
 1999SOL    HW1 6104   3.645   4.646   1.657  0.0905 -0.1437  0.8368
 1999SOL    HW2 6105   3.560   4.757   1.715  0.0491  0.9608 -1.2535
 2000SOL     OW 6106   1.465   1.565   1.308 -0.1691  0.5403  0.6754
 2000SOL    HW1 6107   1.535   1.524   1.257  0.9307  1.4609  1.3977
 2000SOL    HW2 6108   1.396   1.499   1.311  0.0909  0.1251 -1.2191
 2001SOL     OW 6109   0.211   1.547   3.161 -0.0958 -0.0920  0.6199
 2001SOL    HW1 6110   0.263   1.497   3.098 -0.8308 -0.8655  0.5985
 2001SOL    HW2 6111   0.132   1.494   3.174 -0.6890  0.8446  0.9634
 2002SOL     OW 6112   4.534   1.259   0.163 -0.3731  0.0692  0.0602
 2002SOL    HW1 6113   4.473   1.216   0.102 -0.0506  0.6769 -0.7119
 2002SOL    HW2 6114   4.616   1.211   0.154 -0.3348  0.1384  0.0317
 2003SOL     OW 6115   0.553   1.734   0.911 -0.2693  0.4171  0.0550
 2003SOL    HW1 6116   0.460   1.715   0.914 -0.8348  2.7356 -0.4128
 2003SOL    HW2 6117   0.559   1.813   0.857  2.2047 -0.8884 -1.7849
 2004SOL     OW 6118   1.335   1.500   1.602  0.3944  0.5682 -0.0185
 2004SOL    HW1 6119   1.304   1.503   1.512 -0.6251 -0.3158  0.2913
 2004SOL    HW2 6120   1.294   1.576   1.644 -1.3067 -0.5207  0.3573
 2005SOL     OW 6121   2.450   2.316   1.360 -0.3284  0.8887  0.3698
 2005SOL    HW1 6122   2.372   2.363   1.389 -1.3741 -1.3187  1.4109
 2005SOL    HW2 6123   2.427   2.284   1.273 -0.7602 -0.0370  0.8071
 2006SOL     OW 6124   5.322   2.407   0.851  0.2026  0.6472 -0.6498
 2006SOL    HW1 6125   5.278   2.325   0.829  0.3748  0.7436 -1.3729
 2006SOL    HW2 6126   5.283   2.434   0.934  0.5436 -0.4580 -0.1166
 2007SOL     OW 6127   0.376   5.113   1.826  0.2380  0.0924  0.0216
 2007SOL    HW1 6128   0.344   5.163   1.901 -1.0790  0.4360 -0.7330
 2007SOL    HW2 6129   0.435   5.048   1.863 -0.2888  0.3357  1.3362
 2008SOL     OW 6130   3.024   3.047   0.514 -0.4291  0.3812 -0.1147
 2008SOL    HW1 6131   2.952   3.072   0.573 -1.1273  1.2162 -1.2897
 2008SOL    HW2 6132   3.084   2.998   0.570  0.1286  3.1225  1.9548
 2009SOL     OW 6133   0.975   2.402   0.505 -0.5683 -0.0742 -0.2466
 2009SOL    HW1 6134   0.954   2.469   0.571 -0.5521 -1.2005  0.9503
 2009SOL    HW2 6135   0.988   2.452   0.424  0.1891  1.4586  0.7565
 2010SOL     OW 6136   3.460   1.890   0.191 -0.7765  0.4340 -0.2582
 2010SOL    HW1 6137   3.429   1.838   0.117  0.0292  0.8220 -0.8869
 2010SOL    HW2 6138   3.448   1.981   0.163  0.6851  0.5950 -0.4431
 2011SOL     OW 6139   3.729   3.851   3.574  0.3095  0.3389 -0.4776
 2011SOL    HW1 6140   3.723   3.946   3.567  0.6393  0.5711  1.6589
 2011SOL    HW2 6141   3.820   3.834   3.598  0.1714 -0.5068 -0.5062
 2012SOL     OW 6142   2.314   1.304   3.698  0.1804  0.2209  0.5067
 2012SOL    HW1 6143   2.332   1.353   3.778  1.1282 -0.4570  0.7323
 2012SOL    HW2 6144   2.282   1.219   3.729 -1.8763  0.8071  0.1152
 2013SOL     OW 6145   4.720   5.177   3.736  0.1070  0.0622 -0.1366
 2013SOL    HW1 6146   4.783   5.111   3.766 -1.9007 -1.8209  0.2199
 2013SOL    HW2 6147   4.702   5.154   3.645 -0.4139  0.2828 -0.0926
 2014SOL     OW 6148   2.895   5.064   1.679  0.2360 -0.3457  0.5392
 2014SOL    HW1 6149   2.860   4.977   1.698 -0.4912 -0.4423 -1.0498
 2014SOL    HW2 6150   2.889   5.111   1.761 -1.8737 -0.9756  0.8073
 2015SOL     OW 6151   2.360   0.353   3.363  0.3600  0.2395  0.0823
 2015SOL    HW1 6152   2.270   0.384   3.378 -0.2282 -1.5356  0.5233
 2015SOL    HW2 6153   2.409   0.385   3.439 -0.7058 -1.6052  1.6449
 2016SOL     OW 6154   3.716   1.688   2.034 -0.4647  0.0032 -0.3771
 2016SOL    HW1 6155   3.802   1.714   2.068 -0.0625  0.5753 -1.7318
 2016SOL    HW2 6156   3.657   1.695   2.109  0.5550  0.2150  0.4309
 2017SOL     OW 6157   0.379   3.077   2.289 -0.2864  0.2057  0.4458
 2017SOL    HW1 6158   0.428   3.010   2.241 -0.0820 -0.6737  1.8146
 2017SOL    HW2 6159   0.415   3.160   2.258 -0.4487 -0.2977 -1.1931
 2018SOL     OW 6160   5.496   4.796   0.030 -0.4545 -0.2861 -0.4233
 2018SOL    HW1 6161   5.514   4.853   0.104  0.4633 -0.4901 -0.4743
 2018SOL    HW2 6162   5.401   4.783   0.031 -0.9134  2.4174 -1.2862
 2019SOL     OW 6163   0.856   0.435   1.367  0.4374  0.3750  0.4049
 2019SOL    HW1 6164   0.894   0.523   1.360 -1.4374  1.2812  0.8532
 2019SOL    HW2 6165   0.877   0.393   1.283 -0.1681  1.9232 -0.5629
 2020SOL     OW 6166   5.315   4.015   0.740 -0.0831  0.8108  0.2458
 2020SOL    HW1 6167   5.394   4.037   0.691 -0.7356 -0.7635 -1.6714
 2020SOL    HW2 6168   5.253   4.084   0.718  0.0402  0.8161 -0.0930
 2021SOL     OW 6169   4.877   2.227   2.151 -0.1142 -0.2207  0.2280
 2021SOL    HW1 6170   4.906   2.313   2.181 -0.5114 -0.4253  1.2591
 2021SOL    HW2 6171   4.958   2.178   2.136  0.1324  0.5675 -1.1407
 2022SOL     OW 6172   1.765   3.929   2.804  0.1244 -0.0083  0.0259
 2022SOL    HW1 6173   1.734   4.010   2.763  1.5981  0.9904  0.7693
 2022SOL    HW2 6174   1.689   3.871   2.804 -1.2321  1.6840  0.2160
 2023SOL     OW 6175   0.298   1.675   0.966  0.1318 -0.1572 -0.3194
 2023SOL    HW1 6176   0.341   1.649   1.047 -0.3757  0.3344  0.1066
 2023SOL    HW2 6177   0.210   1.639   0.972  0.1476 -0.2801 -0.7410
 2024SOL     OW 6178   2.507   2.931   0.520  0.2902  0.0395 -0.7367
 2024SOL    HW1 6179   2.554   2.849   0.506  1.4999  0.3900  1.0569
 2024SOL    HW2 6180   2.556   2.977   0.588 -0.8201  1.9028 -1.1130
 2025SOL     OW 6181   4.144   3.476   3.329 -0.2279 -0.3218  0.2778
 2025SOL    HW1 6182   4.215   3.465   3.393  0.3498 -0.6112 -0.3986
 2025SOL    HW2 6183   4.069   3.505   3.381  0.2762 -0.3968  1.0630
 2026SOL     OW 6184   2.630   5.457   0.741  0.0742 -0.0551 -0.1551
 2026SOL    HW1 6185   2.648   5.429   0.831  2.2975 -1.2925 -0.9120
 2026SOL    HW2 6186   2.666   5.388   0.686  0.6102  1.6115 -2.0312
 2027SOL     OW 6187   0.001   0.016   1.871  0.0570  0.5275  0.5257
 2027SOL    HW1 6188  -0.052  -0.053   1.912 -0.5432  0.0447 -1.0079
 2027SOL    HW2 6189   0.052   0.052   1.943 -1.8013  0.5022  1.9321
 2028SOL     OW 6190   0.625   3.063   3.895  0.4887 -0.2150  0.0792
 2028SOL    HW1 6191   0.541   3.044   3.853  0.1369  1.5554 -0.0995
 2028SOL    HW2 6192   0.685   3.076   3.822  0.5422  0.0659  0.1715
 2029SOL     OW 6193   2.034   1.982   1.683  0.0299  0.4227  0.3706
 2029SOL    HW1 6194   1.974   1.922   1.728  1.3468 -1.4832 -0.2590
 2029SOL    HW2 6195   1.977   2.046   1.641 -1.5080 -0.7021  0.6468
 2030SOL     OW 6196   1.071   4.014   2.644  0.4713 -0.1192 -0.3888
 2030SOL    HW1 6197   1.139   4.012   2.712 -0.3597 -0.8785  0.4609
 2030SOL    HW2 6198   1.069   3.924   2.610 -1.0958 -0.5327  0.6630
 2031SOL     OW 6199   5.309   2.317   2.992  0.6119 -0.2591 -0.0101
 2031SOL    HW1 6200   5.227   2.365   2.977  0.7059  0.6534  2.0515
 2031SOL    HW2 6201   5.280   2.231   3.024  0.4607 -0.2330 -0.0737
 2032SOL     OW 6202   3.365   5.013   1.637 -0.3280 -0.1335 -0.4092
 2032SOL    HW1 6203   3.309   5.091   1.638 -1.4797 -0.6770 -4.3367
 2032SOL    HW2 6204   3.331   4.958   1.707 -0.3739  2.2593  1.5541
 2033SOL     OW 6205   0.999   5.531   1.713  0.7396 -0.7392 -0.2899
 2033SOL    HW1 6206   0.979   5.539   1.806  1.2605 -0.3489 -0.2061
 2033SOL    HW2 6207   1.039   5.444   1.703 -0.7082 -1.4158 -0.4143
 2034SOL     OW 6208   5.503   2.378   0.046  0.2426 -0.2103  0.0279
 2034SOL    HW1 6209   5.568   2.354  -0.020  0.9667  0.1919  0.5723
 2034SOL    HW2 6210   5.421   2.338   0.016  0.4764  0.2713 -1.2948
 2035SOL     OW 6211   3.222   2.755   2.955 -0.1574 -0.2616  0.3220
 2035SOL    HW1 6212   3.274   2.830   2.927 -0.3628 -0.3879 -0.4470
 2035SOL    HW2 6213   3.274   2.679   2.931  0.1449 -0.3700  1.2940
 2036SOL     OW 6214   0.174   0.331   1.194  1.1939  0.5375  0.1633
 2036SOL    HW1 6215   0.130   0.296   1.271 -0.3386  0.3058 -0.7782
 2036SOL    HW2 6216   0.241   0.266   1.172  1.4208  0.4456  1.0691
 2037SOL     OW 6217   5.066   1.836   1.269  0.2493 -0.4003 -0.4279
 2037SOL    HW1 6218   5.099   1.807   1.184  0.9938  0.4197 -0.4304
 2037SOL    HW2 6219   4.979   1.872   1.250 -0.3453 -1.8294 -0.5491
 2038SOL     OW 6220   5.189   2.964   3.688 -0.3696 -0.1833  0.0055
 2038SOL    HW1 6221   5.129   2.986   3.616 -0.1836 -0.1573 -0.1427
 2038SOL    HW2 6222   5.231   2.883   3.660  1.1492  0.8281 -0.8302
 2039SOL     OW 6223   4.515   3.662   2.106 -0.1071 -0.0144  0.5675
 2039SOL    HW1 6224   4.528   3.739   2.162  0.1248  0.4642 -0.1253
 2039SOL    HW2 6225   4.570   3.595   2.145  0.2964  0.4049  0.7357
 2040SOL     OW 6226   2.599   3.627   2.965 -0.1370 -0.4617  0.0051
 2040SOL    HW1 6227   2.670   3.565   2.981  1.8019  2.0001  1.8525
 2040SOL    HW2 6228   2.548   3.626   3.046  1.3696  1.9461  1.1018
 2041SOL     OW 6229   1.391   4.218   3.093 -0.1017 -0.2824 -0.5550
 2041SOL    HW1 6230   1.365   4.166   3.169  0.0587 -2.0029 -1.6221
 2041SOL    HW2 6231   1.311   4.264   3.067  0.0518  1.0397  1.1367
 2042SOL     OW 6232   3.597   3.822   1.644  0.7414  0.2598 -0.2404
 2042SOL    HW1 6233   3.646   3.864   1.714 -0.2247  0.7967  0.1374
 2042SOL    HW2 6234   3.538   3.890   1.611  0.4960 -0.2599 -0.9203
 2043SOL     OW 6235   3.546   0.698   2.068  0.4838  0.1888  0.0502
 2043SOL    HW1 6236   3.636   0.712   2.039  0.4538 -0.6117 -0.4596
 2043SOL    HW2 6237   3.526   0.774   2.122  0.7255  1.4864 -1.6018
 2044SOL     OW 6238   0.780   2.526   0.040  0.0464 -0.2900 -0.1484
 2044SOL    HW1 6239   0.699   2.504   0.087 -0.3947  0.2509 -0.6425
 2044SOL    HW2 6240   0.800   2.448  -0.011  1.4436 -1.5426  2.1286
 2045SOL     OW 6241   4.550   3.030   0.862  0.2469 -0.1400  0.4224
 2045SOL    HW1 6242   4.622   3.059   0.806 -0.5513  1.6294  0.2522
 2045SOL    HW2 6243   4.498   2.972   0.806 -0.3650  1.3568 -0.6369
 2046SOL     OW 6244   4.880   2.516   2.183 -0.2721 -0.3423 -0.0907
 2046SOL    HW1 6245   4.883   2.608   2.160  1.6602 -0.6451 -1.2803
 2046SOL    HW2 6246   4.872   2.515   2.278  0.2700  1.0642 -0.0119
 2047SOL     OW 6247   0.042   4.210   0.374 -0.1839 -0.1976  0.1937
 2047SOL    HW1 6248   0.082   4.292   0.402 -0.6451  0.1646 -0.1716
 2047SOL    HW2 6249   0.083   4.191   0.290 -0.4371 -0.0767  0.0430
 2048SOL     OW 6250   4.516   3.604   3.745  0.4501  0.1534 -0.3719
 2048SOL    HW1 6251   4.542   3.616   3.836 -0.7474 -0.8652  0.1300
 2048SOL    HW2 6252   4.553   3.519   3.720  0.9373  0.5134 -0.9145
 2049SOL     OW 6253   5.387   1.196   0.866 -0.2592  0.4755 -0.1842
 2049SOL    HW1 6254   5.448   1.253   0.914 -0.0203  0.7850 -0.8296
 2049SOL    HW2 6255   5.410   1.107   0.894  0.9418  0.5317 -0.8748
 2050SOL     OW 6256   2.063   3.217   1.893 -0.4138 -0.1948  0.5720
 2050SOL    HW1 6257   2.038   3.177   1.810  0.4398 -0.0343  0.2283
 2050SOL    HW2 6258   1.995   3.190   1.955  0.9424 -3.5458  0.7645
 2051SOL     OW 6259   4.980   3.001   2.128  0.5062 -0.2521 -0.1481
 2051SOL    HW1 6260   4.918   3.068   2.154  0.3786  0.2546 -1.6422
 2051SOL    HW2 6261   4.990   3.013   2.033  1.8240 -1.2100 -0.1609
 2052SOL     OW 6262   0.782   4.706   1.254  0.1869 -0.3489 -0.4156
 2052SOL    HW1 6263   0.742   4.642   1.313  0.8486 -1.6580 -1.3734
 2052SOL    HW2 6264   0.835   4.761   1.312  2.0180 -2.5204  0.1153
 2053SOL     OW 6265   5.206   2.041   0.408 -0.1782 -0.4849  0.1446
 2053SOL    HW1 6266   5.251   1.995   0.338 -1.6017 -0.6597 -0.7000
 2053SOL    HW2 6267   5.125   1.992   0.421 -1.5753  1.5136 -0.5183
 2054SOL     OW 6268   2.922   4.850   2.885  0.3776  0.1607  0.3029
 2054SOL    HW1 6269   2.925   4.903   2.965 -0.9601 -0.5243  0.8397
 2054SOL    HW2 6270   2.857   4.894   2.831 -1.4131 -1.3494  1.1162
 2055SOL     OW 6271   0.615   4.972   3.588 -0.1001  0.3317  0.0271
 2055SOL    HW1 6272   0.689   4.937   3.539  0.1308  0.4717  0.2738
 2055SOL    HW2 6273   0.651   5.046   3.636 -0.4772  0.6060 -0.1112
 2056SOL     OW 6274   4.542   4.802   1.583  0.0297  0.0035 -0.3716
 2056SOL    HW1 6275   4.474   4.869   1.588 -0.2113 -0.2937  0.6338
 2056SOL    HW2 6276   4.558   4.778   1.674  1.1097 -0.3085 -0.6300
 2057SOL     OW 6277   0.276   0.923   2.894  0.3540  0.1044  0.2980
 2057SOL    HW1 6278   0.295   0.870   2.817  0.5760 -0.3034  0.6281
 2057SOL    HW2 6279   0.239   0.861   2.957  1.5442  0.1328  1.0476
 2058SOL     OW 6280   4.079   1.894   2.597 -0.2880  0.6265  0.1847
 2058SOL    HW1 6281   3.988   1.869   2.610 -0.1187 -0.6383 -0.7869
 2058SOL    HW2 6282   4.128   1.839   2.658 -0.1288  0.6741  0.1005
 2059SOL     OW 6283   3.746   1.456   3.218  0.2450 -0.2988 -0.3940
 2059SOL    HW1 6284   3.799   1.449   3.139  1.3755  0.8636  0.2219
 2059SOL    HW2 6285   3.669   1.506   3.191  0.3910 -0.3241 -0.8671
 2060SOL     OW 6286   4.850   0.259   0.098 -0.2261  0.1264  0.1516
 2060SOL    HW1 6287   4.778   0.249   0.161 -0.0871  1.1902  0.4991
 2060SOL    HW2 6288   4.928   0.232   0.147  0.0115  1.7984  0.7700
 2061SOL     OW 6289   3.200   0.445   0.115 -0.0579  0.2527 -0.5571
 2061SOL    HW1 6290   3.175   0.516   0.174  0.4309 -0.5910  0.7172
 2061SOL    HW2 6291   3.221   0.488   0.033  0.2364  1.5904  0.1936
 2062SOL     OW 6292   5.553   0.127   0.025  0.0812  0.0584  0.1330
 2062SOL    HW1 6293   5.572   0.074  -0.052 -2.1644 -2.8311  1.3756
 2062SOL    HW2 6294   5.607   0.089   0.094  1.3855  2.0396  0.3116
 2063SOL     OW 6295   0.271   0.438   3.212 -0.0381 -0.0322 -0.2869
 2063SOL    HW1 6296   0.281   0.346   3.187 -1.6270 -0.8898  1.8354
 2063SOL    HW2 6297   0.232   0.434   3.300 -0.1654  2.6851 -0.1432
 2064SOL     OW 6298   2.941   0.058   0.782 -0.0527 -0.2845  0.1454
 2064SOL    HW1 6299   3.024   0.104   0.776 -0.3087  0.2311  0.4739
 2064SOL    HW2 6300   2.962  -0.026   0.823  0.7015 -1.2193 -2.0030
 2065SOL     OW 6301   4.365   0.133   1.093 -0.1880  0.1051  0.0625
 2065SOL    HW1 6302   4.333   0.159   1.179  0.0348 -1.0932  0.5313
 2065SOL    HW2 6303   4.460   0.132   1.102 -0.1279  0.8242 -0.4607
 2066SOL     OW 6304   0.538   2.458   0.141 -0.8116 -0.1678  0.0429
 2066SOL    HW1 6305   0.455   2.504   0.128 -0.1883  0.3649 -2.7123
 2066SOL    HW2 6306   0.532   2.381   0.084  0.1175 -0.8153  0.7855
 2067SOL     OW 6307   3.877   0.187   2.214 -0.1108 -0.2194 -0.7879
 2067SOL    HW1 6308   3.939   0.143   2.156 -0.7051 -0.4845 -1.2411
 2067SOL    HW2 6309   3.810   0.121   2.233 -0.1303 -0.0124 -0.1125
 2068SOL     OW 6310   0.672   4.306   0.689 -0.5853  0.3150  0.1612
 2068SOL    HW1 6311   0.621   4.290   0.768 -2.3337  1.3825 -0.6845
 2068SOL    HW2 6312   0.616   4.275   0.618  1.0246 -0.7913 -0.6881
 2069SOL     OW 6313   2.936   2.420   3.635 -0.3728 -0.6353  0.3911
 2069SOL    HW1 6314   2.922   2.421   3.730  0.0502 -2.4041  0.4985
 2069SOL    HW2 6315   2.955   2.329   3.614  2.1993  0.1224 -1.0273
 2070SOL     OW 6316   5.239   0.147   2.920  0.1129  0.7397 -0.4504
 2070SOL    HW1 6317   5.174   0.201   2.965 -0.5654 -1.6086  1.5985
 2070SOL    HW2 6318   5.187   0.079   2.876  1.0458  0.6135 -1.4000
 2071SOL     OW 6319   5.346   1.023   2.011 -0.1386 -0.2962 -0.1226
 2071SOL    HW1 6320   5.386   0.936   2.018  0.5087  0.0513  0.5259
 2071SOL    HW2 6321   5.360   1.063   2.096 -0.6880  0.3473 -0.3287
 2072SOL     OW 6322   4.155   4.772   1.550  0.1558 -0.2889 -0.2173
 2072SOL    HW1 6323   4.144   4.687   1.593 -2.3900 -0.3975 -0.9155
 2072SOL    HW2 6324   4.151   4.752   1.456 -0.2903  0.5730 -0.3961
 2073SOL     OW 6325   1.469   4.830   0.720 -0.2898 -0.0411 -0.2139
 2073SOL    HW1 6326   1.521   4.847   0.641 -0.6939 -1.5717 -0.8532
 2073SOL    HW2 6327   1.409   4.760   0.694 -0.7789 -0.2181  1.3170
 2074SOL     OW 6328   4.418   0.455   1.975  0.3290 -0.3462 -0.0931
 2074SOL    HW1 6329   4.359   0.412   2.036 -0.5656 -0.3797 -0.9572
 2074SOL    HW2 6330   4.378   0.440   1.889  0.2971  1.7134 -0.4803
 2075SOL     OW 6331   0.389   4.533   0.817 -0.4293  0.0499  0.2893
 2075SOL    HW1 6332   0.335   4.597   0.862 -0.0529 -0.7364  1.9276
 2075SOL    HW2 6333   0.328   4.461   0.797 -0.3874 -0.0280  0.4419
 2076SOL     OW 6334   1.713   1.378   3.266 -0.5835  0.1258  0.2795
 2076SOL    HW1 6335   1.792   1.355   3.218 -1.0522 -0.1906 -0.3662
 2076SOL    HW2 6336   1.736   1.456   3.315 -0.3429  0.9886 -1.1545
 2077SOL     OW 6337   3.895   0.991   3.493  0.3476 -0.5562 -0.6462
 2077SOL    HW1 6338   3.926   1.052   3.561  0.6411  0.9012 -2.0368
 2077SOL    HW2 6339   3.862   1.047   3.424 -1.6936 -2.0405 -0.9579
 2078SOL     OW 6340   5.537   3.904   3.050  0.5362  0.3057  0.0245
 2078SOL    HW1 6341   5.537   3.970   2.980 -0.1784 -0.5325 -0.7892
 2078SOL    HW2 6342   5.446   3.901   3.080  0.0502 -1.8355 -1.4605
 2079SOL     OW 6343   5.330   2.611   3.893  0.1149  0.4548 -0.1913
 2079SOL    HW1 6344   5.294   2.525   3.871 -0.1350  0.1018  1.4920
 2079SOL    HW2 6345   5.318   2.619   3.987  1.0090  1.9434 -0.1723
 2080SOL     OW 6346   4.052   5.278   1.275  0.3625 -0.2202  0.7596
 2080SOL    HW1 6347   4.026   5.193   1.238  2.0494 -0.5329  0.1722
 2080SOL    HW2 6348   4.122   5.256   1.337  0.7415  0.7287  0.6827
 2081SOL     OW 6349   5.515   1.597   0.318  0.0005 -0.0785 -0.5231
 2081SOL    HW1 6350   5.564   1.615   0.399 -1.7630 -1.0222  0.8399
 2081SOL    HW2 6351   5.523   1.678   0.267  1.5683  0.3716  0.3804
 2082SOL     OW 6352   1.152   1.458   2.954 -0.1029 -0.0940 -0.1143
 2082SOL    HW1 6353   1.240   1.433   2.928 -0.3133  0.9857 -2.0699
 2082SOL    HW2 6354   1.096   1.386   2.923 -0.1356  0.2439 -0.8444
 2083SOL     OW 6355   2.341   2.895   2.338 -0.6945  0.0147  0.2473
 2083SOL    HW1 6356   2.353   2.804   2.364  0.2549 -0.0730 -0.4617
 2083SOL    HW2 6357   2.282   2.932   2.404  0.2435 -0.6609  1.4853
 2084SOL     OW 6358   1.316   4.031   1.222 -0.5636  0.4531 -0.0825
 2084SOL    HW1 6359   1.221   4.023   1.233 -0.4654 -0.7781  0.0035
 2084SOL    HW2 6360   1.334   3.992   1.137  0.1094 -1.4448  0.8729
 2085SOL     OW 6361   1.731   2.737   1.120  0.0770 -0.3960 -0.2790
 2085SOL    HW1 6362   1.743   2.658   1.067 -1.0538 -1.4979  1.0451
 2085SOL    HW2 6363   1.819   2.776   1.126  0.6348 -1.4961 -1.0090
 2086SOL     OW 6364   4.009   4.255   2.547  0.0004 -0.1057  0.4695
 2086SOL    HW1 6365   4.047   4.342   2.561 -1.4564  0.6277  0.0375
 2086SOL    HW2 6366   4.085   4.196   2.543  0.9515  0.8842  2.3596
 2087SOL     OW 6367   1.233   4.189   0.269 -0.5223 -0.1462 -0.7024
 2087SOL    HW1 6368   1.171   4.238   0.323  0.0834  1.5366 -1.4612
 2087SOL    HW2 6369   1.197   4.195   0.181  0.5936  0.6849 -1.1206
 2088SOL     OW 6370   1.903   2.918   3.151 -0.1553 -0.1480 -0.0573
 2088SOL    HW1 6371   1.960   2.977   3.100  0.2031 -0.1031  0.3896
 2088SOL    HW2 6372   1.873   2.971   3.225  1.2003 -0.8681  1.0659
 2089SOL     OW 6373   0.790   4.794   1.794 -0.0339  0.4904  0.3212
 2089SOL    HW1 6374   0.797   4.700   1.808 -0.6402  0.3257 -0.3877
 2089SOL    HW2 6375   0.877   4.828   1.814  0.6774 -0.4489 -1.0333
 2090SOL     OW 6376   1.697   0.933   3.351  0.3427  0.4570  0.3345
 2090SOL    HW1 6377   1.715   0.999   3.418  1.6628  0.6577 -0.1825
 2090SOL    HW2 6378   1.755   0.956   3.278  1.9835 -2.0650  0.6732
 2091SOL     OW 6379   4.401   0.039   3.929  0.2038  0.4894 -0.3171
 2091SOL    HW1 6380   4.320   0.080   3.899  0.4745  0.4466 -1.1381
 2091SOL    HW2 6381   4.446   0.107   3.979 -0.0318  0.7232 -0.4224
 2092SOL     OW 6382   2.342   2.004   2.523  0.3314 -0.2151  0.0581
 2092SOL    HW1 6383   2.289   2.080   2.499  0.8853  0.4617  0.9594
 2092SOL    HW2 6384   2.292   1.929   2.490 -0.5420  0.4909 -0.2543
 2093SOL     OW 6385   4.043   4.534   3.722  0.2816 -0.3295 -0.4890
 2093SOL    HW1 6386   3.954   4.570   3.725 -0.1714 -1.2680 -1.6361
 2093SOL    HW2 6387   4.100   4.606   3.749 -0.8906 -0.0143  1.3014
 2094SOL     OW 6388   3.088   1.086   2.614  0.6189  0.4639 -0.8857
 2094SOL    HW1 6389   3.081   1.180   2.601 -0.8225  0.2882 -1.5942
 2094SOL    HW2 6390   3.048   1.071   2.700 -0.6731  0.3352 -1.4913
 2095SOL     OW 6391   4.681   0.453   2.212  0.0389  0.2064 -0.1761
 2095SOL    HW1 6392   4.653   0.524   2.155  1.0599  0.7462 -0.0375
 2095SOL    HW2 6393   4.729   0.497   2.283  0.8491 -0.6307 -0.1917
 2096SOL     OW 6394   0.083   5.510   2.502 -0.1023  0.3576  0.2024
 2096SOL    HW1 6395   0.003   5.520   2.449  1.1211  0.9145 -1.6745
 2096SOL    HW2 6396   0.059   5.450   2.572 -2.4724  1.4063  0.3854
 2097SOL     OW 6397   1.739   5.460   3.119  0.2146  0.0691 -0.6068
 2097SOL    HW1 6398   1.741   5.521   3.193 -2.1668  0.0677 -0.4895
 2097SOL    HW2 6399   1.781   5.508   3.047  2.2865  0.1922  0.5820
 2098SOL     OW 6400   0.021   2.400   2.070 -0.0055  0.4584  0.0525
 2098SOL    HW1 6401   0.006   2.432   2.159 -0.0553  0.9056 -0.1163
 2098SOL    HW2 6402  -0.058   2.351   2.049 -1.4872  3.0949 -0.9619
 2099SOL     OW 6403   0.828   3.130   0.296 -0.2117  0.2628 -0.5886
 2099SOL    HW1 6404   0.886   3.184   0.349  1.6539  0.0870 -2.3318
 2099SOL    HW2 6405   0.806   3.056   0.352 -0.0470  1.1181  0.6445
 2100SOL     OW 6406   5.169   4.173   0.593  0.2128  0.7314 -0.5632
 2100SOL    HW1 6407   5.107   4.141   0.527 -0.8839 -0.4469  0.9450
 2100SOL    HW2 6408   5.133   4.257   0.621 -0.0756  0.5899 -0.5046
 2101SOL     OW 6409   0.178   1.502   3.610 -0.1576  0.5470 -0.0183
 2101SOL    HW1 6410   0.234   1.532   3.682  0.9470 -2.0538  0.2984
 2101SOL    HW2 6411   0.189   1.569   3.542 -0.1093  2.3242  1.6607
 2102SOL     OW 6412   0.943   3.623   2.841  0.5314  0.1236  0.6233
 2102SOL    HW1 6413   1.027   3.606   2.882 -0.3727 -1.2129  2.0139
 2102SOL    HW2 6414   0.939   3.561   2.767  1.2604  1.0605 -0.2324
 2103SOL     OW 6415   3.160   1.992   0.871  0.0021  0.3142 -0.1481
 2103SOL    HW1 6416   3.226   1.946   0.923 -0.3156 -1.1429 -0.9600
 2103SOL    HW2 6417   3.078   1.946   0.891 -0.3351  0.5465 -0.9684
 2104SOL     OW 6418   5.362   2.425   3.401 -0.4466  0.1083  0.1859
 2104SOL    HW1 6419   5.393   2.339   3.427 -0.0059  0.2720  0.2093
 2104SOL    HW2 6420   5.436   2.483   3.417 -0.6650  0.4541 -0.0411
 2105SOL     OW 6421   2.433   0.027   2.073  0.0214  0.3911  0.1212
 2105SOL    HW1 6422   2.492   0.100   2.087  0.5542  0.0796 -0.4214
 2105SOL    HW2 6423   2.436   0.012   1.978 -1.8747  1.1544 -0.1075
 2106SOL     OW 6424   2.828   1.317   2.168  0.1494 -0.0912  0.5198
 2106SOL    HW1 6425   2.761   1.249   2.173  0.3392 -0.4439 -1.2933
 2106SOL    HW2 6426   2.788   1.386   2.115  0.1262  1.0614  1.9630
 2107SOL     OW 6427   4.843   1.257   2.060  0.1070 -0.0487 -0.4308
 2107SOL    HW1 6428   4.876   1.202   1.989  0.9457 -0.3460  0.1724
 2107SOL    HW2 6429   4.755   1.224   2.076 -0.0279 -0.0937 -1.2070
 2108SOL     OW 6430   1.895   3.485   2.593  0.3763  0.0581  0.3618
 2108SOL    HW1 6431   1.912   3.523   2.680 -0.0853 -0.8035  0.8462
 2108SOL    HW2 6432   1.978   3.493   2.547  0.2324  1.8739  0.3448
 2109SOL     OW 6433   1.414   4.521   3.073 -0.1333 -0.0990 -0.4799
 2109SOL    HW1 6434   1.398   4.427   3.083 -2.2491 -0.1060 -2.8554
 2109SOL    HW2 6435   1.407   4.556   3.161  1.1004 -2.1904  0.5294
 2110SOL     OW 6436   4.384   1.415   1.157  0.1911 -0.5460  0.4879
 2110SOL    HW1 6437   4.291   1.441   1.160 -0.3503 -2.4109  1.4854
 2110SOL    HW2 6438   4.423   1.475   1.094 -1.0050  2.3856  2.3035
 2111SOL     OW 6439   3.609   2.193   3.912  0.2339 -0.2984 -0.0071
 2111SOL    HW1 6440   3.565   2.231   3.988 -1.0785 -1.5110 -0.1271
 2111SOL    HW2 6441   3.565   2.109   3.898  1.1998 -0.5973 -1.4327
 2112SOL     OW 6442   3.201   0.344   2.260  0.1093 -0.0705  0.3265
 2112SOL    HW1 6443   3.247   0.319   2.340 -0.4703  0.6597  0.8937
 2112SOL    HW2 6444   3.202   0.439   2.260 -1.4051 -0.0219  0.3718
 2113SOL     OW 6445   1.322   3.846   0.804 -0.1239 -0.3943  0.0357
 2113SOL    HW1 6446   1.381   3.818   0.734  2.4524 -0.5216  2.1119
 2113SOL    HW2 6447   1.309   3.940   0.789  1.1785 -0.2212 -0.0940
 2114SOL     OW 6448   3.792   4.591   1.380  0.6404  0.3034  0.3090
 2114SOL    HW1 6449   3.826   4.627   1.462  0.5609  0.9606  0.0640
 2114SOL    HW2 6450   3.706   4.555   1.403  0.7219  0.2658  0.5614
 2115SOL     OW 6451   0.397   4.680   0.052  0.6434  0.1180 -0.1065
 2115SOL    HW1 6452   0.402   4.738   0.128  1.7328  1.4748 -1.1568
 2115SOL    HW2 6453   0.304   4.655   0.046  0.1280  1.8095  0.3508
 2116SOL     OW 6454   2.959   0.539   2.952 -0.3699  0.1473  0.5391
 2116SOL    HW1 6455   2.898   0.584   3.010 -0.6172 -0.0914  0.4636
 2116SOL    HW2 6456   2.965   0.595   2.874  0.1251  0.5770  0.8737
 2117SOL     OW 6457   4.204   3.325   1.921  0.4488 -0.0940 -0.0631
 2117SOL    HW1 6458   4.296   3.302   1.932  0.3414  0.1246  1.4790
 2117SOL    HW2 6459   4.156   3.257   1.969 -0.0545  1.0775  1.1566
 2118SOL     OW 6460   1.194   0.540   3.236 -0.1374  0.2012 -0.2592
 2118SOL    HW1 6461   1.117   0.536   3.178 -1.2310  0.0217  1.1437
 2118SOL    HW2 6462   1.258   0.592   3.187 -1.8572  2.0183 -0.7193
 2119SOL     OW 6463   4.314   3.223   2.895  0.4116  0.7664 -0.3391
 2119SOL    HW1 6464   4.255   3.197   2.966 -0.2872 -4.6448 -2.4045
 2119SOL    HW2 6465   4.256   3.247   2.823  0.5056 -2.4380 -1.6674
 2120SOL     OW 6466   4.937   2.450   3.518 -0.3430 -0.1931  0.3144
 2120SOL    HW1 6467   4.938   2.513   3.590  0.1551  0.2771 -0.1012
 2120SOL    HW2 6468   4.854   2.466   3.473 -1.3271 -1.4288  1.5898
 2121SOL     OW 6469   2.925   4.272   0.637 -0.6363  0.4049 -0.0735
 2121SOL    HW1 6470   2.934   4.187   0.679 -0.8557  0.7707  0.7425
 2121SOL    HW2 6471   2.876   4.254   0.556 -0.5978 -0.2510  0.0459
 2122SOL     OW 6472   0.166   2.220   1.654 -0.2583 -0.3766 -0.4551
 2122SOL    HW1 6473   0.252   2.179   1.647 -0.5345 -0.8630 -1.0879
 2122SOL    HW2 6474   0.136   2.231   1.563 -0.4740  0.6341 -0.2823
 2123SOL     OW 6475   4.074   5.053   2.177 -0.0234  0.0645  0.0773
 2123SOL    HW1 6476   4.085   5.066   2.083  0.2529 -2.4415 -0.3037
 2123SOL    HW2 6477   4.127   5.122   2.218  0.8495  0.4190 -1.5966
 2124SOL     OW 6478   2.887   1.166   3.654  0.4999 -0.2491  0.1080
 2124SOL    HW1 6479   2.945   1.128   3.588  0.9825  1.4337 -0.4787
 2124SOL    HW2 6480   2.867   1.254   3.622 -0.6651 -0.0166  1.3580
 2125SOL     OW 6481   5.418   2.843   1.415 -0.1449  0.2937  0.0445
 2125SOL    HW1 6482   5.473   2.871   1.489 -0.9356 -0.6171  1.0071
 2125SOL    HW2 6483   5.329   2.865   1.442 -0.3360  1.1527 -1.2199
 2126SOL     OW 6484   2.156   2.217   1.303 -0.3810  0.0102 -0.5266
 2126SOL    HW1 6485   2.062   2.204   1.292 -0.4002 -1.2355  0.8283
 2126SOL    HW2 6486   2.195   2.161   1.235 -0.6155 -0.5492 -0.2143
 2127SOL     OW 6487   3.229   1.676   0.782  0.5003  0.4178 -0.0846
 2127SOL    HW1 6488   3.135   1.688   0.768  0.8035 -0.1840 -3.1767
 2127SOL    HW2 6489   3.246   1.723   0.864 -2.1505  2.1359 -0.3772
 2128SOL     OW 6490   1.396   3.904   1.796  0.1813 -0.3674 -0.0718
 2128SOL    HW1 6491   1.418   3.828   1.849 -0.9247 -0.1912  0.6551
 2128SOL    HW2 6492   1.436   3.885   1.711  1.0751 -1.1297  0.4938
 2129SOL     OW 6493   4.316   1.320   0.333  0.1802 -0.1554  0.6038
 2129SOL    HW1 6494   4.268   1.259   0.277  1.0824 -0.7674  0.4589
 2129SOL    HW2 6495   4.407   1.312   0.303  0.4888  0.4059  1.3643
 2130SOL     OW 6496   2.214   1.082   0.024 -0.2501  0.1988  0.5163
 2130SOL    HW1 6497   2.215   0.991   0.055  0.8421  0.4461  1.2944
 2130SOL    HW2 6498   2.160   1.129   0.087  0.4891  0.3704  1.0322
 2131SOL     OW 6499   2.946   3.005   3.579  0.2159 -1.0045  0.4491
 2131SOL    HW1 6500   2.933   2.911   3.562 -2.2192 -0.8847  1.2632
 2131SOL    HW2 6501   2.958   3.010   3.674 -0.8745 -0.4196  0.5704
 2132SOL     OW 6502   4.258   3.443   0.851 -0.4410  0.0732 -0.5259
 2132SOL    HW1 6503   4.243   3.403   0.937 -0.8235 -1.6292 -1.3415
 2132SOL    HW2 6504   4.179   3.423   0.801 -0.1593  0.9070 -1.3313
 2133SOL     OW 6505   2.543   3.333   0.684 -0.0370 -0.6868  0.0009
 2133SOL    HW1 6506   2.502   3.350   0.598  2.7558 -0.5590 -1.4069
 2133SOL    HW2 6507   2.481   3.369   0.747 -2.1846 -0.7291 -1.9443
 2134SOL     OW 6508   1.269   0.792   2.147 -0.6726 -0.6046 -0.1523
 2134SOL    HW1 6509   1.203   0.834   2.202 -0.2093  1.1040 -0.8341
 2134SOL    HW2 6510   1.280   0.851   2.073  1.5738 -0.8553 -0.0932
 2135SOL     OW 6511   3.623   1.860   0.828 -0.2864 -0.3010  0.0511
 2135SOL    HW1 6512   3.543   1.880   0.779  0.8820  0.8602 -1.4925
 2135SOL    HW2 6513   3.640   1.768   0.808 -0.2395 -0.0475 -1.1954
 2136SOL     OW 6514   2.007   3.288   2.192  0.1582  0.7786 -0.5303
 2136SOL    HW1 6515   1.920   3.278   2.231  0.5562  0.1028  0.1991
 2136SOL    HW2 6516   2.053   3.349   2.250  0.7050 -0.1212 -0.0063
 2137SOL     OW 6517   3.792   2.431   3.300 -0.1617  0.0083 -0.2505
 2137SOL    HW1 6518   3.869   2.386   3.266 -1.2737 -1.1679 -1.3235
 2137SOL    HW2 6519   3.778   2.503   3.239  0.1339  0.2863  0.0049
 2138SOL     OW 6520   5.142   2.232   0.189 -0.0546 -0.1753  0.5879
 2138SOL    HW1 6521   5.202   2.307   0.192 -0.4932  0.1743  0.7848
 2138SOL    HW2 6522   5.158   2.185   0.271  0.1202 -0.2150  0.5305
 2139SOL     OW 6523   3.754   2.266   2.148  0.3153 -0.1654  0.6578
 2139SOL    HW1 6524   3.673   2.314   2.163 -0.2084  0.0653 -2.1907
 2139SOL    HW2 6525   3.809   2.327   2.100  2.3497 -0.2497  2.7348
 2140SOL     OW 6526   5.168   0.635   1.964  0.1478  0.1910  0.0195
 2140SOL    HW1 6527   5.177   0.556   1.910 -0.4564  0.9997 -1.3101
 2140SOL    HW2 6528   5.076   0.636   1.989  0.6520 -0.7993  2.1165
 2141SOL     OW 6529   3.048   5.195   2.510  0.2076 -0.3582 -0.1790
 2141SOL    HW1 6530   3.093   5.273   2.476  1.7893 -0.8786  0.6319
 2141SOL    HW2 6531   2.979   5.230   2.567 -0.1373  0.4542 -1.0610
 2142SOL     OW 6532   4.967   2.617   0.691 -0.2461 -0.3578  0.2643
 2142SOL    HW1 6533   5.024   2.542   0.701 -0.4850 -0.5210  0.4054
 2142SOL    HW2 6534   5.004   2.665   0.617 -1.9837 -2.3771 -2.0902
 2143SOL     OW 6535   5.099   2.409   3.296 -0.2924  0.4919 -0.5018
 2143SOL    HW1 6536   5.045   2.430   3.372  0.8964 -0.7603  0.7372
 2143SOL    HW2 6537   5.186   2.390   3.332 -0.1770 -2.0983 -1.9114
 2144SOL     OW 6538   3.360   3.933   1.523 -0.4100 -0.4512 -0.9154
 2144SOL    HW1 6539   3.364   4.027   1.542  0.1310 -0.2477 -1.9277
 2144SOL    HW2 6540   3.290   3.926   1.457  1.6144 -0.2655 -3.2397
 2145SOL     OW 6541   4.388   0.304   3.155  0.2783 -0.1303 -0.1258
 2145SOL    HW1 6542   4.481   0.298   3.179 -0.4510  0.1777  3.2699
 2145SOL    HW2 6543   4.355   0.378   3.205 -2.1788 -1.3652  0.2290
 2146SOL     OW 6544   1.679   0.841   0.340  0.0609  0.2897  0.1457
 2146SOL    HW1 6545   1.746   0.904   0.370 -0.5185  1.0375 -0.0965
 2146SOL    HW2 6546   1.633   0.887   0.270 -3.6308  1.6278  3.0843
 2147SOL     OW 6547   2.721   5.231   3.577  0.0166  0.1505 -0.3099
 2147SOL    HW1 6548   2.652   5.295   3.591  0.3474 -0.0626  3.1808
 2147SOL    HW2 6549   2.800   5.283   3.561  0.1693  0.6976  1.8992
 2148SOL     OW 6550   3.785   2.681   3.193 -0.0213 -0.0645 -0.9540
 2148SOL    HW1 6551   3.826   2.689   3.107 -0.4612  0.2582 -1.1370
 2148SOL    HW2 6552   3.707   2.736   3.188 -0.0571 -0.0519 -0.3497
 2149SOL     OW 6553   0.197   4.740   0.935  0.3653  0.2623 -0.0073
 2149SOL    HW1 6554   0.134   4.678   0.898  0.7662 -0.4695  0.4966
 2149SOL    HW2 6555   0.164   4.759   1.023  0.4090  0.5202 -0.0464
 2150SOL     OW 6556   4.534   2.260   1.326  0.3291  0.2674  0.1514
 2150SOL    HW1 6557   4.458   2.312   1.353  1.2358  2.1920 -0.7830
 2150SOL    HW2 6558   4.499   2.199   1.262 -0.3972  1.4114 -0.5949
 2151SOL     OW 6559   4.120   5.489   3.163  0.1939  0.3136 -0.5511
 2151SOL    HW1 6560   4.025   5.479   3.168  0.4234 -1.3980  2.5193
 2151SOL    HW2 6561   4.144   5.443   3.082 -1.4272 -1.2950 -0.1994
 2152SOL     OW 6562   0.575   0.758   2.086  0.0636  0.3424 -0.2315
 2152SOL    HW1 6563   0.568   0.836   2.141 -0.1685 -1.0248  1.7878
 2152SOL    HW2 6564   0.656   0.716   2.116  1.6101  1.0239 -3.0557
 2153SOL     OW 6565   1.226   0.857   1.278 -0.3137  0.0856 -0.0993
 2153SOL    HW1 6566   1.303   0.894   1.236 -0.8048  3.0878  1.4108
 2153SOL    HW2 6567   1.261   0.806   1.352  0.2664  1.8691  0.8984
 2154SOL     OW 6568   4.325   4.976   1.636  0.3844 -0.6626  0.2480
 2154SOL    HW1 6569   4.256   4.915   1.611  0.2821 -0.5908  0.3512
 2154SOL    HW2 6570   4.280   5.060   1.648  0.6436 -0.3937 -0.6216
 2155SOL     OW 6571   2.950   2.350   2.234  0.0364  0.4857 -0.3557
 2155SOL    HW1 6572   3.036   2.312   2.217  0.3729  1.0350  0.0806
 2155SOL    HW2 6573   2.929   2.398   2.154  0.1834  0.4374 -0.4231
 2156SOL     OW 6574   0.798   0.134   1.615 -0.4552  0.0039 -0.0463
 2156SOL    HW1 6575   0.787   0.116   1.522  1.3161 -0.4504 -0.1907
 2156SOL    HW2 6576   0.871   0.078   1.642  0.0738  1.2722  1.2661
 2157SOL     OW 6577   3.005   2.319   2.509 -0.1241  0.5594  0.0372
 2157SOL    HW1 6578   2.928   2.329   2.565 -0.6552 -2.1407 -0.0897
 2157SOL    HW2 6579   2.972   2.336   2.421  0.4064  3.4100  0.2881
 2158SOL     OW 6580   4.188   1.207   2.244 -0.4728 -0.5103 -0.6251
 2158SOL    HW1 6581   4.129   1.137   2.273 -0.7037 -0.1108 -0.1226
 2158SOL    HW2 6582   4.132   1.267   2.195 -0.8031  0.5933  1.0133
 2159SOL     OW 6583   3.093   2.083   2.856 -0.1513  0.1638 -0.1003
 2159SOL    HW1 6584   3.001   2.095   2.832 -0.3492 -0.0183  0.5518
 2159SOL    HW2 6585   3.140   2.151   2.808 -0.9317  1.9033  1.5159
 2160SOL     OW 6586   4.320   5.515   2.609  0.3185  0.3593  0.1207
 2160SOL    HW1 6587   4.330   5.433   2.657 -0.8009  0.2882  0.2714
 2160SOL    HW2 6588   4.392   5.570   2.639 -0.5103  0.4183  2.1335
 2161SOL     OW 6589   5.074   0.464   1.168  0.2501 -0.2162  0.4687
 2161SOL    HW1 6590   5.112   0.526   1.231  1.3035 -2.3380  2.0656
 2161SOL    HW2 6591   5.120   0.482   1.086  1.2326  0.5025  1.1546
 2162SOL     OW 6592   0.665   4.619   1.567 -0.0148  0.2303 -0.0526
 2162SOL    HW1 6593   0.710   4.600   1.649  0.3654  0.8643 -0.1062
 2162SOL    HW2 6594   0.733   4.655   1.510 -0.8234  2.5179  0.3173
 2163SOL     OW 6595   5.532   3.944   1.301  0.4107  0.1463  1.0313
 2163SOL    HW1 6596   5.620   3.982   1.298  1.4790 -2.1921 -1.6148
 2163SOL    HW2 6597   5.546   3.854   1.329 -1.0138 -0.5392 -0.3491
 2164SOL     OW 6598   3.314   2.846   0.950 -0.1801  0.3015  0.1863
 2164SOL    HW1 6599   3.329   2.890   0.866 -0.0874 -0.8384 -0.4121
 2164SOL    HW2 6600   3.242   2.786   0.932 -0.5495  0.4733  1.0889
 2165SOL     OW 6601   1.044   5.202   0.436  0.2179 -0.1508 -0.2082
 2165SOL    HW1 6602   1.131   5.191   0.475  0.1487  1.4362  0.4839
 2165SOL    HW2 6603   1.024   5.294   0.450 -1.9338 -0.6581  0.3737
 2166SOL     OW 6604   2.010   4.288   2.841 -0.3845 -0.2206 -0.1343
 2166SOL    HW1 6605   2.080   4.247   2.789  0.6958 -0.9552  1.8254
 2166SOL    HW2 6606   1.974   4.355   2.782  2.2928  0.5300 -1.0669
 2167SOL     OW 6607   1.087   4.912   0.497  0.5080  0.1409  0.8068
 2167SOL    HW1 6608   1.115   4.987   0.444  0.3986  0.1174  0.7125
 2167SOL    HW2 6609   1.027   4.949   0.562  0.1859  0.0885  0.5438
 2168SOL     OW 6610   2.274   0.800   2.777 -0.0155 -0.9900 -0.0754
 2168SOL    HW1 6611   2.363   0.835   2.788 -0.6904  0.9018 -0.1857
 2168SOL    HW2 6612   2.224   0.838   2.849 -0.9895 -1.0617 -0.6894
 2169SOL     OW 6613   1.899   0.128   3.772 -0.7080 -0.4778 -0.2228
 2169SOL    HW1 6614   1.904   0.033   3.760 -1.9418 -0.7507  1.1391
 2169SOL    HW2 6615   1.969   0.148   3.835 -0.5501 -0.5088 -0.3884
 2170SOL     OW 6616   2.134   0.377   3.559 -0.0745 -0.0115 -0.0238
 2170SOL    HW1 6617   2.049   0.339   3.536 -0.0027  0.0773 -0.4516
 2170SOL    HW2 6618   2.194   0.302   3.560 -0.6680 -0.5919  3.1898
 2171SOL     OW 6619   3.742   0.285   3.754  0.8076 -0.3798 -0.0331
 2171SOL    HW1 6620   3.793   0.338   3.816  0.1466  0.6139 -0.3267
 2171SOL    HW2 6621   3.799   0.210   3.736  2.0208  0.5046 -0.0533
 2172SOL     OW 6622   0.576   1.896   1.144 -0.6988 -0.2718 -0.0438
 2172SOL    HW1 6623   0.530   1.832   1.090 -1.5595  1.7058 -1.7854
 2172SOL    HW2 6624   0.508   1.934   1.199 -0.5486  0.3514 -0.2795
 2173SOL     OW 6625   5.577   2.660   0.239  0.6267  0.1460 -0.1252
 2173SOL    HW1 6626   5.625   2.625   0.314 -2.0436 -0.9361  1.1820
 2173SOL    HW2 6627   5.485   2.654   0.264 -0.3497  0.1683 -3.3279
 2174SOL     OW 6628   0.688   5.310   1.265  0.3081 -0.1697  0.5200
 2174SOL    HW1 6629   0.691   5.259   1.184  0.0533  0.7677 -0.0958
 2174SOL    HW2 6630   0.595   5.315   1.287  0.3505 -0.1478  0.6939
 2175SOL     OW 6631   3.667   2.889   2.151  0.3129  0.7234 -0.6169
 2175SOL    HW1 6632   3.583   2.887   2.105 -0.5392 -1.0767  0.8745
 2175SOL    HW2 6633   3.676   2.980   2.178 -0.5430  1.2112 -1.8525
 2176SOL     OW 6634   1.615   1.406   1.703 -0.0254  0.5786 -1.5737
 2176SOL    HW1 6635   1.533   1.413   1.654  0.6307  0.2892 -2.7582
 2176SOL    HW2 6636   1.663   1.336   1.659  0.0256 -0.6795  0.3769
 2177SOL     OW 6637   3.019   1.111   3.898 -1.2375 -0.1260 -0.0617
 2177SOL    HW1 6638   2.970   1.127   3.817 -0.2823  0.8075 -0.4970
 2177SOL    HW2 6639   3.110   1.127   3.873 -0.7799 -1.1699  0.8770
 2178SOL     OW 6640   2.828   5.483   1.737  0.2933  1.0214 -0.0209
 2178SOL    HW1 6641   2.816   5.570   1.776 -0.7177  1.9562 -2.2487
 2178SOL    HW2 6642   2.914   5.488   1.695  0.3906  0.8246  0.1581
 2179SOL     OW 6643   2.282   4.875   1.124 -0.2785 -0.0620 -0.1933
 2179SOL    HW1 6644   2.343   4.813   1.163 -0.1214 -0.5180 -1.1355
 2179SOL    HW2 6645   2.212   4.821   1.087 -0.9788  0.4197  0.3874
 2180SOL     OW 6646   2.081   3.078   2.999  0.2509  0.7633 -0.2473
 2180SOL    HW1 6647   2.053   3.138   2.929 -1.0519 -1.0502 -1.3880
 2180SOL    HW2 6648   2.157   3.033   2.962 -1.6537 -1.6714 -1.4630
 2181SOL     OW 6649   0.590   3.835   2.090  0.4890 -1.0317 -0.1597
 2181SOL    HW1 6650   0.615   3.745   2.110  1.0077 -0.8579 -0.0216
 2181SOL    HW2 6651   0.569   3.873   2.176 -2.8548 -1.9178 -0.4523
 2182SOL     OW 6652   0.224   1.541   1.393  0.1450 -0.3118 -0.2041
 2182SOL    HW1 6653   0.161   1.553   1.321  1.6373  0.2225 -1.4772
 2182SOL    HW2 6654   0.198   1.459   1.434 -0.3704 -0.9909 -1.7860
 2183SOL     OW 6655   1.656   4.782   3.640  0.4564  0.1884 -0.3702
 2183SOL    HW1 6656   1.596   4.799   3.567  1.6372  1.8004 -1.0234
 2183SOL    HW2 6657   1.681   4.690   3.629 -1.5876 -0.4405 -0.2688
 2184SOL     OW 6658   2.781   4.702   2.608  0.0742  0.4920 -0.2450
 2184SOL    HW1 6659   2.820   4.789   2.596 -0.0718  0.8804  1.7247
 2184SOL    HW2 6660   2.807   4.677   2.697  0.1053 -1.5006 -0.7788
 2185SOL     OW 6661   5.057   4.440   1.659 -0.0306  0.0334  0.0247
 2185SOL    HW1 6662   5.077   4.445   1.753 -1.0663 -1.3462  0.3393
 2185SOL    HW2 6663   5.124   4.381   1.624 -1.3989 -1.8681  0.4727
 2186SOL     OW 6664   0.900   1.300   0.589 -0.0622  0.1042 -0.3467
 2186SOL    HW1 6665   0.854   1.248   0.655 -1.6220  1.8103  0.0255
 2186SOL    HW2 6666   0.863   1.271   0.506 -2.0644  1.5350 -0.0453
 2187SOL     OW 6667   3.788   0.662   1.620 -0.2927  0.0810  0.3115
 2187SOL    HW1 6668   3.872   0.671   1.575  0.4227 -0.6095  1.4301
 2187SOL    HW2 6669   3.757   0.574   1.596 -0.7672  0.3881 -0.2086
 2188SOL     OW 6670   3.477   0.101   1.194  0.0417 -0.4406  0.0292
 2188SOL    HW1 6671   3.395   0.086   1.146 -0.2408 -0.4595  0.5073
 2188SOL    HW2 6672   3.449   0.137   1.278  0.5541  0.0123  0.0142
 2189SOL     OW 6673   0.317   2.031   3.435 -0.2880  0.4231 -0.1022
 2189SOL    HW1 6674   0.385   2.001   3.375  0.6689  0.4091  0.9542
 2189SOL    HW2 6675   0.237   1.987   3.405  0.1605  0.4265 -1.3521
 2190SOL     OW 6676   0.014   0.218   1.388  0.2155 -0.6250 -0.3553
 2190SOL    HW1 6677  -0.033   0.234   1.470  1.5383  0.2116  0.2847
 2190SOL    HW2 6678   0.017   0.123   1.380 -0.9151 -0.6981 -0.0318
 2191SOL     OW 6679   1.049   1.556   0.952  0.3099 -0.1550 -0.5177
 2191SOL    HW1 6680   0.975   1.574   0.894  0.4371 -0.5480 -0.8045
 2191SOL    HW2 6681   1.055   1.634   1.007  0.1535  0.1981 -0.9941
 2192SOL     OW 6682   1.371   0.443   1.199  0.6758 -0.3338  0.2744
 2192SOL    HW1 6683   1.386   0.349   1.211  3.5279  0.2064  1.7370
 2192SOL    HW2 6684   1.351   0.476   1.286 -2.1348  0.2557 -0.4797
 2193SOL     OW 6685   0.912   3.456   3.467  0.0698 -0.8917  0.0414
 2193SOL    HW1 6686   0.859   3.535   3.460  0.8072 -0.3867 -0.0106
 2193SOL    HW2 6687   0.914   3.436   3.560  0.5415 -0.3687  0.1522
 2194SOL     OW 6688   0.673   4.487   3.847 -0.0637 -0.4596 -0.1118
 2194SOL    HW1 6689   0.619   4.499   3.770  0.3103 -2.1664 -0.6812
 2194SOL    HW2 6690   0.612   4.459   3.916 -0.1460 -0.7481 -0.3004
 2195SOL     OW 6691   0.396   3.539   1.514 -0.1296  0.1107  0.1904
 2195SOL    HW1 6692   0.472   3.598   1.506 -0.5710  0.7121  0.3477
 2195SOL    HW2 6693   0.322   3.592   1.488 -0.5367 -0.3920  0.3130
 2196SOL     OW 6694   0.026   0.899   2.456  0.0299  0.2628  0.3899
 2196SOL    HW1 6695   0.093   0.832   2.440  0.6803  1.0771 -0.4385
 2196SOL    HW2 6696   0.060   0.977   2.411 -1.3378  0.7737  0.2062
 2197SOL     OW 6697   3.886   3.193   0.905 -0.0905 -0.4246  0.1590
 2197SOL    HW1 6698   3.957   3.140   0.870  1.6635  1.7184  0.3029
 2197SOL    HW2 6699   3.812   3.175   0.847  0.2372 -3.3504  0.4945
 2198SOL     OW 6700   2.954   5.126   2.802 -1.1513 -0.2381 -0.2596
 2198SOL    HW1 6701   2.873   5.087   2.771 -2.5079  3.0801 -1.3881
 2198SOL    HW2 6702   2.927   5.187   2.870  0.1094  1.9133 -1.5579
 2199SOL     OW 6703   4.883   0.728   1.259  0.1143  0.4550  0.4395
 2199SOL    HW1 6704   4.970   0.730   1.298  1.1411  0.2390 -1.7224
 2199SOL    HW2 6705   4.847   0.815   1.277  1.1252  0.8632  0.5674
 2200SOL     OW 6706   3.407   0.123   1.934 -0.1305  0.3648  0.9099
 2200SOL    HW1 6707   3.371   0.211   1.944 -2.9581 -0.5380 -0.3812
 2200SOL    HW2 6708   3.423   0.094   2.024 -0.3257  1.7335  1.4101
 2201SOL     OW 6709   1.541   5.390   0.961 -0.5295  0.0401 -0.5328
 2201SOL    HW1 6710   1.585   5.475   0.968 -1.8161  0.7814 -1.1413
 2201SOL    HW2 6711   1.476   5.391   1.032 -0.3574 -0.5635 -0.3648
 2202SOL     OW 6712   4.742   1.577   2.438 -0.0562 -0.3630  0.6465
 2202SOL    HW1 6713   4.738   1.662   2.394 -1.5549 -0.4666  0.5190
 2202SOL    HW2 6714   4.822   1.537   2.405  0.4306  0.8113  0.3551
 2203SOL     OW 6715   5.326   2.008   2.030 -0.0525  0.2955  0.1820
 2203SOL    HW1 6716   5.353   1.932   1.978 -0.5098  0.6059 -0.5243
 2203SOL    HW2 6717   5.407   2.049   2.058  0.2674  1.1158 -1.7530
 2204SOL     OW 6718   2.910   2.494   1.497 -0.3013 -0.4762 -0.1908
 2204SOL    HW1 6719   2.816   2.510   1.488 -0.4990 -1.2347  0.4733
 2204SOL    HW2 6720   2.950   2.546   1.427 -1.0359  1.5512  0.8193
 2205SOL     OW 6721   4.961   1.827   2.123  0.5020 -0.6691 -0.0321
 2205SOL    HW1 6722   5.030   1.800   2.062 -0.5774  0.3674 -1.7735
 2205SOL    HW2 6723   4.881   1.790   2.087 -0.6586  2.5631 -1.1019
 2206SOL     OW 6724   3.796   2.424   3.018  0.2405 -0.0012 -0.3981
 2206SOL    HW1 6725   3.819   2.517   3.010 -0.1937  0.3315  1.7018
 2206SOL    HW2 6726   3.844   2.382   2.947  1.7860  1.6158 -0.3993
 2207SOL     OW 6727   2.690   4.911   2.128  0.0107  0.7412  0.3119
 2207SOL    HW1 6728   2.702   4.816   2.133 -0.2780  0.7136  5.5846
 2207SOL    HW2 6729   2.774   4.943   2.093  0.6007 -1.3433 -0.3566
 2208SOL     OW 6730   1.060   2.279   3.265  0.1759  0.2302  0.2941
 2208SOL    HW1 6731   1.135   2.248   3.315 -1.3338 -0.4439  2.3069
 2208SOL    HW2 6732   0.988   2.223   3.293 -1.3049  1.4955 -0.7792
 2209SOL     OW 6733   2.208   5.197   2.574  1.0399  0.2701  0.1600
 2209SOL    HW1 6734   2.125   5.237   2.548  1.2180  0.6975  0.2512
 2209SOL    HW2 6735   2.273   5.267   2.566  1.0342  0.5605  2.1715
 2210SOL     OW 6736   2.914   0.530   2.554 -0.1953  0.6512  0.0571
 2210SOL    HW1 6737   2.925   0.456   2.615  0.4428  2.0044  1.6649
 2210SOL    HW2 6738   2.948   0.605   2.602  2.7006  1.4381 -2.8897
 2211SOL     OW 6739   3.538   2.967   1.486 -0.0831 -0.4242 -0.4813
 2211SOL    HW1 6740   3.477   3.037   1.464 -0.0279 -0.0615  0.4736
 2211SOL    HW2 6741   3.529   2.956   1.580  1.2870 -0.3911 -0.3269
 2212SOL     OW 6742   5.077   3.376   1.125 -0.3727  0.3377  0.0790
 2212SOL    HW1 6743   4.981   3.379   1.118 -0.4301 -0.5663  0.4034
 2212SOL    HW2 6744   5.108   3.384   1.035 -0.7779 -0.1285 -0.1030
 2213SOL     OW 6745   2.267   1.760   3.605  0.0251  0.3474  0.0675
 2213SOL    HW1 6746   2.247   1.795   3.691  0.5180  2.2331 -0.5335
 2213SOL    HW2 6747   2.329   1.822   3.568  1.5719 -1.6159 -0.8011
 2214SOL     OW 6748   2.166   0.006   1.488  0.4044  0.0171 -0.6800
 2214SOL    HW1 6749   2.232   0.072   1.508 -0.4484  0.4715  0.8126
 2214SOL    HW2 6750   2.118  -0.005   1.570 -0.7853 -0.9731 -1.4737
 2215SOL     OW 6751   3.190   5.115   0.822  0.2545  0.2275 -0.6548
 2215SOL    HW1 6752   3.255   5.054   0.788 -0.1544 -0.6370  0.0731
 2215SOL    HW2 6753   3.232   5.154   0.899  0.4839  0.7994 -1.0712
 2216SOL     OW 6754   2.407   4.336   3.768  0.1222  0.4122 -0.1907
 2216SOL    HW1 6755   2.442   4.271   3.830 -0.2830  0.2159 -0.1683
 2216SOL    HW2 6756   2.485   4.380   3.734  0.3107  1.6594  1.6694
 2217SOL     OW 6757   3.524   0.386   2.482 -0.3081 -0.0715  0.1922
 2217SOL    HW1 6758   3.532   0.481   2.469 -0.3257 -0.1498 -0.4321
 2217SOL    HW2 6759   3.589   0.349   2.422 -2.0393 -0.5488 -1.4851
 2218SOL     OW 6760   1.504   0.738   1.724 -0.2180  0.3789  0.2257
 2218SOL    HW1 6761   1.594   0.770   1.729  0.0599  0.1589 -2.3531
 2218SOL    HW2 6762   1.512   0.643   1.735  0.2829 -0.0098 -2.8483
 2219SOL     OW 6763   2.314   1.500   1.387 -0.2236 -0.1115 -0.8279
 2219SOL    HW1 6764   2.305   1.536   1.476 -0.1633 -2.1176  0.0479
 2219SOL    HW2 6765   2.327   1.577   1.331 -1.3364  1.3017  0.7415
 2220SOL     OW 6766   3.371   5.418   0.644  0.5755  0.2852 -0.3131
 2220SOL    HW1 6767   3.325   5.501   0.657  0.5605  0.2830 -0.3510
 2220SOL    HW2 6768   3.347   5.391   0.555 -0.0466 -0.1453 -0.0259
 2221SOL     OW 6769   4.569   0.533   0.015 -0.3492  0.4080  0.6408
 2221SOL    HW1 6770   4.640   0.469   0.026 -1.3817 -1.3976 -2.1013
 2221SOL    HW2 6771   4.492   0.488   0.049 -0.5351  1.6366  1.9086
 2222SOL     OW 6772   3.335   3.819   2.219  0.3038 -0.3837 -0.1529
 2222SOL    HW1 6773   3.290   3.871   2.286  2.0011  0.4069  0.4330
 2222SOL    HW2 6774   3.284   3.738   2.213  0.0797 -0.4698  2.0697
 2223SOL     OW 6775   3.041   4.078   2.143  0.4137  0.2433 -0.4171
 2223SOL    HW1 6776   2.954   4.103   2.174  0.4124 -0.3271  0.0379
 2223SOL    HW2 6777   3.028   4.056   2.051  0.6294  3.0808 -1.2078
 2224SOL     OW 6778   3.479   0.950   3.541 -0.3966 -0.0138 -0.2389
 2224SOL    HW1 6779   3.544   0.976   3.474  0.2623 -2.0408 -0.4401
 2224SOL    HW2 6780   3.458   1.032   3.586 -0.1553  1.2649 -2.3064
 2225SOL     OW 6781   2.491   4.024   2.619  0.6112 -0.2816 -0.0931
 2225SOL    HW1 6782   2.437   4.081   2.563  1.2162 -1.5018 -2.0330
 2225SOL    HW2 6783   2.506   4.075   2.698 -3.9199 -0.1370  0.8942
 2226SOL     OW 6784   0.642   3.487   0.493 -0.3755  0.0111 -0.3460
 2226SOL    HW1 6785   0.564   3.434   0.475  0.0323 -0.8742  0.3793
 2226SOL    HW2 6786   0.708   3.422   0.519 -0.2639  0.9891  2.0017
 2227SOL     OW 6787   0.936   1.547   3.075  0.2121 -0.3348 -0.0663
 2227SOL    HW1 6788   1.026   1.540   3.043  0.6909 -0.5128  1.2613
 2227SOL    HW2 6789   0.904   1.630   3.039  0.8780 -0.3058 -0.6076
 2228SOL     OW 6790   2.776   0.780   3.294 -0.0699 -0.6167  0.2785
 2228SOL    HW1 6791   2.800   0.692   3.322 -1.2698 -0.9001  0.4542
 2228SOL    HW2 6792   2.736   0.820   3.372  0.6554  0.1691  0.2674
 2229SOL     OW 6793   2.785   4.053   3.629 -0.1953  0.5208 -0.2169
 2229SOL    HW1 6794   2.820   4.017   3.710 -0.8617 -0.7004 -0.4487
 2229SOL    HW2 6795   2.779   4.147   3.645 -1.7161  0.1543  1.6904
 2230SOL     OW 6796   0.896   0.300   3.839 -0.1694  0.2722 -0.4431
 2230SOL    HW1 6797   0.948   0.220   3.837 -1.8704 -0.8780 -2.6480
 2230SOL    HW2 6798   0.947   0.364   3.788  1.4531  0.8617  1.7835
 2231SOL     OW 6799   1.057   2.167   1.540  0.6684  0.2763  0.1236
 2231SOL    HW1 6800   1.131   2.184   1.481  0.5943 -1.0536 -0.3761
 2231SOL    HW2 6801   1.025   2.081   1.514 -1.1588  0.8917  0.2295
 2232SOL     OW 6802   4.058   0.962   0.204 -0.1198  0.0689  0.5190
 2232SOL    HW1 6803   3.989   0.942   0.267 -0.9382 -4.2619 -1.4172
 2232SOL    HW2 6804   4.126   0.898   0.221  0.3899 -0.1059 -1.8341
 2233SOL     OW 6805   4.754   4.623   0.848 -0.2630 -0.3000 -0.4245
 2233SOL    HW1 6806   4.661   4.642   0.856 -0.0517  0.4204  0.5480
 2233SOL    HW2 6807   4.763   4.583   0.762 -1.2293  1.0948 -1.2184
 2234SOL     OW 6808   1.131   1.062   0.751 -0.1952 -0.8248 -0.1224
 2234SOL    HW1 6809   1.095   1.133   0.698 -0.2121 -1.7326 -1.3666
 2234SOL    HW2 6810   1.211   1.037   0.706  0.6188 -0.6005  1.1520
 2235SOL     OW 6811   4.682   0.547   1.295 -0.1804  0.2830  0.1467
 2235SOL    HW1 6812   4.719   0.466   1.261 -0.4965  0.3782 -0.4527
 2235SOL    HW2 6813   4.739   0.616   1.260  1.1639  0.2360  2.1317
 2236SOL     OW 6814   3.726   3.863   3.204 -0.1944  0.1448 -0.7086
 2236SOL    HW1 6815   3.646   3.812   3.219  0.1744 -0.0219  0.8337
 2236SOL    HW2 6816   3.701   3.953   3.223 -0.0444  0.1105 -0.3524
 2237SOL     OW 6817   5.029   1.514   0.229  0.2271  0.0845  0.3960
 2237SOL    HW1 6818   4.969   1.492   0.300 -0.3681  2.1058  0.5650
 2237SOL    HW2 6819   5.116   1.505   0.268 -0.0566  0.1274  1.0537
 2238SOL     OW 6820   3.072   0.684   0.034  0.0268 -0.3967  0.4771
 2238SOL    HW1 6821   3.072   0.749   0.104  0.1697  2.0000 -1.6031
 2238SOL    HW2 6822   3.005   0.714  -0.027  0.3811 -2.0116 -0.7857
 2239SOL     OW 6823   1.805   3.271   3.045 -0.0408 -0.4323 -0.8647
 2239SOL    HW1 6824   1.749   3.263   3.122  0.9951  0.6203  0.0332
 2239SOL    HW2 6825   1.894   3.274   3.080  0.5883 -1.6869 -2.2321
 2240SOL     OW 6826   1.064   5.351   2.109 -0.3110 -0.2213  0.3080
 2240SOL    HW1 6827   1.062   5.444   2.089  1.7781 -0.1510  0.2162
 2240SOL    HW2 6828   1.109   5.311   2.034  0.2922 -1.0643  1.0979
 2241SOL     OW 6829   5.531   4.687   1.340 -0.2929  0.0818  0.5858
 2241SOL    HW1 6830   5.439   4.714   1.342 -1.1460 -2.5936  1.6363
 2241SOL    HW2 6831   5.540   4.627   1.414  2.0309 -0.5724 -0.1468
 2242SOL     OW 6832   1.397   4.865   0.370  0.3317 -0.0815  0.3245
 2242SOL    HW1 6833   1.488   4.859   0.401  0.8227  2.5660 -0.3591
 2242SOL    HW2 6834   1.360   4.939   0.419 -0.5674  0.6603 -1.4059
 2243SOL     OW 6835   5.486   3.297   2.635  0.3557 -0.2670  0.0556
 2243SOL    HW1 6836   5.407   3.344   2.662  0.0634  0.1407 -1.4330
 2243SOL    HW2 6837   5.453   3.217   2.595  0.7498 -0.5760  0.3489
 2244SOL     OW 6838   2.608   0.525   2.779  0.2819  0.3655  0.6437
 2244SOL    HW1 6839   2.542   0.568   2.833  0.2608  2.3079 -0.8441
 2244SOL    HW2 6840   2.673   0.493   2.843 -1.7481 -1.1388  2.0838
 2245SOL     OW 6841   3.866   2.753   1.983  0.4317  0.0240  0.6147
 2245SOL    HW1 6842   3.794   2.698   1.950  0.4953 -1.4437  2.7163
 2245SOL    HW2 6843   3.825   2.807   2.051  0.7134  1.4656 -0.3323
 2246SOL     OW 6844   5.189   1.220   3.434 -0.1051  0.2593  0.1308
 2246SOL    HW1 6845   5.104   1.263   3.436  0.3185  1.0762  0.9789
 2246SOL    HW2 6846   5.218   1.219   3.525  1.9935  2.4518 -0.4043
 2247SOL     OW 6847   1.232   5.269   3.592 -0.3369  0.0557 -0.5732
 2247SOL    HW1 6848   1.305   5.322   3.562 -1.6242  1.7003 -0.9368
 2247SOL    HW2 6849   1.205   5.308   3.675 -1.4755  0.1760 -0.9761
 2248SOL     OW 6850   0.643   1.358   2.712  0.3393 -0.3813 -0.3185
 2248SOL    HW1 6851   0.686   1.325   2.791 -0.1618  0.2733  0.2433
 2248SOL    HW2 6852   0.715   1.383   2.654  0.7107 -1.1105 -0.1866
 2249SOL     OW 6853   1.602   3.568   3.540  0.2584  0.2137 -0.4516
 2249SOL    HW1 6854   1.527   3.614   3.504  1.2224  0.5099 -2.1944
 2249SOL    HW2 6855   1.676   3.625   3.522  1.1147 -0.8012 -0.2480
 2250SOL     OW 6856   2.775   3.109   1.139  0.3698  0.1219  0.0369
 2250SOL    HW1 6857   2.685   3.081   1.152 -0.1444  1.0884 -1.2389
 2250SOL    HW2 6858   2.778   3.199   1.171  1.1813 -0.2496  1.0836
 2251SOL     OW 6859   1.649   5.370   2.733 -0.1723 -0.0512  0.2467
 2251SOL    HW1 6860   1.635   5.391   2.826  1.8092  0.6979  0.4240
 2251SOL    HW2 6861   1.565   5.387   2.692 -1.9414 -2.9052  2.2653
 2252SOL     OW 6862   2.058   1.795   2.030  0.4899 -0.1246 -0.2535
 2252SOL    HW1 6863   2.029   1.780   1.940  0.4998  2.8063 -0.8192
 2252SOL    HW2 6864   2.135   1.739   2.040  1.4297  0.6387 -2.6083
 2253SOL     OW 6865   3.500   2.104   2.170  0.4416 -0.6212  0.1777
 2253SOL    HW1 6866   3.588   2.122   2.201  1.1188 -2.1084 -0.7508
 2253SOL    HW2 6867   3.465   2.189   2.143  1.9800 -0.1521 -0.3988
 2254SOL     OW 6868   4.159   0.185   3.833  0.6770 -0.1683 -0.9224
 2254SOL    HW1 6869   4.070   0.183   3.800  0.6879  2.0571 -1.2765
 2254SOL    HW2 6870   4.163   0.265   3.886  1.4703 -2.0785  2.1538
 2255SOL     OW 6871   1.695   2.729   0.652  0.0124 -0.3420 -0.2512
 2255SOL    HW1 6872   1.701   2.748   0.558 -1.5431  1.9439  0.0216
 2255SOL    HW2 6873   1.723   2.638   0.660  0.2502 -0.5872 -2.9062
 2256SOL     OW 6874   0.790   5.162   3.817  0.3936 -0.1065 -0.0916
 2256SOL    HW1 6875   0.735   5.210   3.755 -0.3520 -0.4790  0.2725
 2256SOL    HW2 6876   0.850   5.112   3.763 -0.8986 -1.2003 -0.5563
 2257SOL     OW 6877   2.061   5.404   2.773 -0.0021 -0.0028 -0.2013
 2257SOL    HW1 6878   2.001   5.334   2.747  0.8282 -0.4763 -0.8916
 2257SOL    HW2 6879   2.145   5.361   2.787  0.3505  0.7468  0.0700
 2258SOL     OW 6880   2.550   4.551   0.905  0.1547  0.3469 -0.1977
 2258SOL    HW1 6881   2.628   4.539   0.959  1.5574 -1.7345 -2.4757
 2258SOL    HW2 6882   2.559   4.640   0.871  0.3261  0.9331  1.3122
 2259SOL     OW 6883   1.387   5.152   2.104  0.1227  0.6702  0.2486
 2259SOL    HW1 6884   1.405   5.135   2.011 -2.8785 -0.6136 -0.2108
 2259SOL    HW2 6885   1.392   5.065   2.145  1.1740  1.1963  1.2969
 2260SOL     OW 6886   5.540   1.082   3.021  0.2282 -0.2980 -0.3760
 2260SOL    HW1 6887   5.466   1.099   3.080 -0.5505 -2.2032 -0.7342
 2260SOL    HW2 6888   5.600   1.027   3.071  0.9538  0.4296 -0.4224
 2261SOL     OW 6889   2.089   3.642   0.905 -0.4878  0.4144  0.3373
 2261SOL    HW1 6890   2.112   3.735   0.902  0.0067  0.2775 -0.4433
 2261SOL    HW2 6891   2.025   3.636   0.976 -0.7150  1.3906  0.2437
 2262SOL     OW 6892   3.581   1.528   2.269 -0.5767  0.2019  0.1996
 2262SOL    HW1 6893   3.674   1.524   2.249 -0.5944 -1.3035  0.3687
 2262SOL    HW2 6894   3.577   1.557   2.360 -0.4273  4.1311 -0.8605
 2263SOL     OW 6895   1.141   5.219   0.931  0.1448 -0.5371  0.1516
 2263SOL    HW1 6896   1.189   5.257   0.857 -1.4697  1.2593 -0.0491
 2263SOL    HW2 6897   1.049   5.239   0.913 -0.3812 -0.9023  2.1715
 2264SOL     OW 6898   5.176   4.499   2.849 -0.0897 -0.0345  0.6585
 2264SOL    HW1 6899   5.209   4.581   2.812 -0.1541 -0.3021 -0.0176
 2264SOL    HW2 6900   5.089   4.488   2.809  0.0032 -0.5294  0.5899
 2265SOL     OW 6901   0.630   2.815   2.727  0.3052 -0.1992  0.5405
 2265SOL    HW1 6902   0.705   2.756   2.737  0.4202 -0.1018  0.2649
 2265SOL    HW2 6903   0.622   2.859   2.812 -0.1744 -1.0643  0.9652
 2266SOL     OW 6904   2.465   4.864   3.473 -0.0431 -0.3920  0.1813
 2266SOL    HW1 6905   2.527   4.935   3.458 -1.2026  0.5706 -0.1903
 2266SOL    HW2 6906   2.462   4.816   3.390 -1.0615  0.5993 -0.3771
 2267SOL     OW 6907   1.756   3.903   1.950 -0.1629 -0.1464  0.1328
 2267SOL    HW1 6908   1.696   3.975   1.970 -1.1525 -1.1332  0.8651
 2267SOL    HW2 6909   1.710   3.851   1.884 -0.3025 -1.1386  0.9977
 2268SOL     OW 6910   2.754   2.089   2.035  0.1250  0.0517  0.4066
 2268SOL    HW1 6911   2.833   2.143   2.045  1.1355 -1.3591  0.4856
 2268SOL    HW2 6912   2.715   2.089   2.122  0.0618  0.7156  0.3839
 2269SOL     OW 6913   1.343   3.211   2.676  0.3992  0.4238 -0.0430
 2269SOL    HW1 6914   1.385   3.211   2.590  1.8598  1.5683  0.6332
 2269SOL    HW2 6915   1.415   3.212   2.738 -0.6335 -0.7416  1.2335
 2270SOL     OW 6916   3.091   3.786   0.793 -0.4514  0.6528  0.4230
 2270SOL    HW1 6917   3.178   3.794   0.832  0.9369 -1.7015 -1.9168
 2270SOL    HW2 6918   3.056   3.705   0.830 -0.8228  0.5499 -0.1471
 2271SOL     OW 6919   3.734   0.994   3.245  0.9734  0.5306  0.1084
 2271SOL    HW1 6920   3.764   0.905   3.226 -0.7291 -0.0689  0.0445
 2271SOL    HW2 6921   3.759   1.046   3.169  0.5054 -0.2825 -0.6110
 2272SOL     OW 6922   2.229   3.968   2.379  0.5842 -0.2784 -0.2057
 2272SOL    HW1 6923   2.222   3.978   2.284  2.7843 -0.8865 -0.4869
 2272SOL    HW2 6924   2.252   4.055   2.411 -3.6363  0.8685  0.3197
 2273SOL     OW 6925   1.807   3.071   1.146 -0.4267  0.3461 -0.3720
 2273SOL    HW1 6926   1.826   3.109   1.060 -0.4464  0.5038 -0.3062
 2273SOL    HW2 6927   1.864   2.994   1.151  1.3933  1.6800  0.4795
 2274SOL     OW 6928   4.331   5.151   3.606 -0.0593  0.0634 -0.4687
 2274SOL    HW1 6929   4.307   5.185   3.693  1.2335 -1.2710  0.4758
 2274SOL    HW2 6930   4.350   5.229   3.554 -1.6840  0.9238  0.1687
 2275SOL     OW 6931   3.609   1.763   1.259 -0.0292  0.1311 -0.1798
 2275SOL    HW1 6932   3.614   1.691   1.196  0.0634  1.1200 -1.3228
 2275SOL    HW2 6933   3.635   1.840   1.210  0.9421  0.7993  1.3121
 2276SOL     OW 6934   3.085   0.121   2.069  0.3350  0.2940  0.0012
 2276SOL    HW1 6935   3.107   0.202   2.115  1.0650  0.1257 -0.0330
 2276SOL    HW2 6936   3.079   0.146   1.977 -2.4373  0.9019  0.2592
 2277SOL     OW 6937   5.046   3.845   2.013 -0.7127 -0.5576  0.0514
 2277SOL    HW1 6938   5.104   3.769   2.004  0.7265  0.7024 -2.3188
 2277SOL    HW2 6939   5.097   3.918   1.979 -2.8532  1.0603  0.1603
 2278SOL     OW 6940   5.068   5.564   1.719  0.5432 -0.3052  0.1742
 2278SOL    HW1 6941   5.037   5.570   1.810 -0.8199  1.1753 -0.3415
 2278SOL    HW2 6942   4.992   5.533   1.670  1.9385 -3.6317 -0.2066
 2279SOL     OW 6943   4.480   4.959   3.748 -0.3320 -0.2824 -0.2324
 2279SOL    HW1 6944   4.433   5.023   3.693 -1.7427 -0.7059  0.4297
 2279SOL    HW2 6945   4.445   4.973   3.836  1.1518 -0.3129  0.3882
 2280SOL     OW 6946   1.136   4.922   1.026  0.1961  0.2532  0.7524
 2280SOL    HW1 6947   1.227   4.892   1.029  0.4416  0.9595  0.6328
 2280SOL    HW2 6948   1.143   5.017   1.031 -0.5231  0.3274  0.3400
 2281SOL     OW 6949   0.718   1.614   1.742  0.0778  0.3078  0.0956
 2281SOL    HW1 6950   0.656   1.597   1.671 -1.6737 -0.3080  1.6799
 2281SOL    HW2 6951   0.724   1.531   1.789  1.1084  0.7292  0.7398
 2282SOL     OW 6952   4.202   2.468   3.029  0.1301 -0.5412 -0.0795
 2282SOL    HW1 6953   4.290   2.432   3.044  0.2494 -0.6596 -0.9935
 2282SOL    HW2 6954   4.192   2.467   2.934  0.1878  2.0048 -0.1640
 2283SOL     OW 6955   2.346   3.835   3.895 -0.7571  0.3222  0.3818
 2283SOL    HW1 6956   2.285   3.843   3.821  0.8103  1.3850 -0.8788
 2283SOL    HW2 6957   2.430   3.816   3.854  0.4827  2.4431  1.7325
 2284SOL     OW 6958   0.267   4.279   2.330 -0.4809  0.0375  0.4347
 2284SOL    HW1 6959   0.292   4.342   2.398 -2.7005  1.8329 -0.2789
 2284SOL    HW2 6960   0.173   4.267   2.342 -0.2944 -2.6058  0.0007
 2285SOL     OW 6961   1.379   1.101   2.221 -0.0293  0.3836  0.1420
 2285SOL    HW1 6962   1.470   1.084   2.246  0.0427  0.4698 -0.0641
 2285SOL    HW2 6963   1.366   1.050   2.141 -0.3741 -0.2025  0.5602
 2286SOL     OW 6964   1.870   1.159   3.459  0.4544  0.5859 -0.1707
 2286SOL    HW1 6965   1.902   1.226   3.520  0.4790  1.5723 -1.2305
 2286SOL    HW2 6966   1.801   1.203   3.410  1.6669  0.4135 -2.1191
 2287SOL     OW 6967   2.026   0.276   1.220  0.2212  0.1440  0.3969
 2287SOL    HW1 6968   1.984   0.355   1.185  1.6159 -0.1514 -2.2496
 2287SOL    HW2 6969   1.958   0.235   1.274 -1.8672  1.2227 -1.2290
 2288SOL     OW 6970   3.043   3.584   2.937  0.5846 -0.0146  0.2000
 2288SOL    HW1 6971   3.014   3.675   2.940 -2.7091 -0.9444 -0.2206
 2288SOL    HW2 6972   3.026   3.551   3.025 -1.0350 -0.9539 -0.4417
 2289SOL     OW 6973   2.377   4.613   0.224 -0.3015 -0.2263  0.1680
 2289SOL    HW1 6974   2.400   4.568   0.143 -1.2032  1.0346 -0.8309
 2289SOL    HW2 6975   2.408   4.555   0.294  0.5408 -1.3149 -1.0655
 2290SOL     OW 6976   1.998   1.624   1.169 -0.1752 -0.5865 -0.7317
 2290SOL    HW1 6977   1.930   1.598   1.107 -1.9796 -0.9011  1.2421
 2290SOL    HW2 6978   1.951   1.638   1.252  2.2403 -1.3139  0.8811
 2291SOL     OW 6979   3.125   4.992   3.668  0.8376 -0.1742 -1.0475
 2291SOL    HW1 6980   3.058   5.025   3.727  2.2052 -1.1989  1.2275
 2291SOL    HW2 6981   3.078   4.965   3.590 -1.0454  1.3956 -0.5201
 2292SOL     OW 6982   1.772   5.207   2.264 -0.0421 -0.1135  0.3720
 2292SOL    HW1 6983   1.725   5.124   2.266 -1.4238  0.6254  0.0450
 2292SOL    HW2 6984   1.806   5.213   2.175  0.4282 -0.5272  0.5255
 2293SOL     OW 6985   1.651   3.007   2.545 -0.0872  0.1217 -0.5206
 2293SOL    HW1 6986   1.679   2.916   2.530 -0.0440  0.2034 -0.9252
 2293SOL    HW2 6987   1.724   3.060   2.515 -0.7045  0.3369 -1.6716
 2294SOL     OW 6988   1.300   1.658   2.429  0.7144  0.0219  0.6941
 2294SOL    HW1 6989   1.210   1.663   2.398  1.0870 -1.6178 -0.7971
 2294SOL    HW2 6990   1.305   1.722   2.501 -1.1748  1.2711 -0.2350
 2295SOL     OW 6991   1.266   4.083   3.326  0.0488  0.6961  0.1350
 2295SOL    HW1 6992   1.171   4.072   3.318  0.1077 -1.6950  1.6136
 2295SOL    HW2 6993   1.276   4.151   3.392 -0.7089  0.0574  0.9410
 2296SOL     OW 6994   1.818   3.760   0.382  0.0989  0.5107  0.0964
 2296SOL    HW1 6995   1.813   3.675   0.425  0.4263  0.2768 -0.3210
 2296SOL    HW2 6996   1.727   3.790   0.378 -0.2269 -0.5306 -1.1645
 2297SOL     OW 6997   4.475   4.893   0.506  0.1222 -0.0323  0.0878
 2297SOL    HW1 6998   4.566   4.886   0.533  0.0412  0.7523  0.5801
 2297SOL    HW2 6999   4.429   4.828   0.560  0.7451 -2.3760 -2.0258
 2298SOL     OW 7000   2.452   1.302   2.856 -0.1513 -0.0231 -0.2926
 2298SOL    HW1 7001   2.544   1.277   2.862 -0.5080 -1.2343  0.4525
 2298SOL    HW2 7002   2.452   1.383   2.804  1.6873  2.0186  2.5828
 2299SOL     OW 7003   4.863   3.309   3.525  0.4375  0.4560 -0.1555
 2299SOL    HW1 7004   4.873   3.248   3.598  0.6866  0.6260 -0.0457
 2299SOL    HW2 7005   4.772   3.297   3.495  0.8811 -0.9926 -1.0497
 2300SOL     OW 7006   2.547   3.064   2.662 -0.0293 -0.5222  0.4317
 2300SOL    HW1 7007   2.610   3.036   2.595 -0.0491 -1.8219  0.9348
 2300SOL    HW2 7008   2.571   3.014   2.740 -0.1223  0.8438  1.3665
 2301SOL     OW 7009   4.281   3.379   1.652  0.3318 -0.5454  0.4938
 2301SOL    HW1 7010   4.230   3.360   1.731 -0.4158 -1.7135 -0.2255
 2301SOL    HW2 7011   4.339   3.303   1.642  0.7769 -0.1699  0.2074
 2302SOL     OW 7012   2.487   4.797   3.918 -0.3132  0.3014 -0.0931
 2302SOL    HW1 7013   2.537   4.755   3.987 -0.1136  0.2143 -0.2885
 2302SOL    HW2 7014   2.433   4.862   3.963  0.0075  0.4270  0.1141
 2303SOL     OW 7015   2.020   1.617   1.803  0.1410  0.6065 -0.3753
 2303SOL    HW1 7016   1.956   1.611   1.732  1.3149  1.4967 -1.5600
 2303SOL    HW2 7017   2.025   1.528   1.838 -1.5052  0.4617 -0.4454
 2304SOL     OW 7018   4.473   4.584   3.707 -0.4983 -0.3365  0.6261
 2304SOL    HW1 7019   4.555   4.590   3.659 -2.2439 -0.1183 -2.6555
 2304SOL    HW2 7020   4.490   4.521   3.777  2.1786 -1.0435 -0.5517
 2305SOL     OW 7021   4.937   2.143   3.000 -0.1186 -0.0756  0.0627
 2305SOL    HW1 7022   4.936   2.210   2.931  0.6198  0.6591  0.7459
 2305SOL    HW2 7023   4.884   2.072   2.965  0.8289 -0.0147 -1.5514
 2306SOL     OW 7024   1.309   5.476   0.024  0.2354  0.0345  0.0504
 2306SOL    HW1 7025   1.291   5.385   0.000 -0.8388 -0.5145  2.7184
 2306SOL    HW2 7026   1.400   5.474   0.056  0.9830  0.3939 -1.8975
 2307SOL     OW 7027   1.177   3.658   3.245  0.3693 -0.1607  0.0813
 2307SOL    HW1 7028   1.086   3.677   3.266 -0.0392 -1.6240 -0.2469
 2307SOL    HW2 7029   1.196   3.576   3.291  0.0786 -2.3289 -3.3081
 2308SOL     OW 7030   2.125   0.828   0.561  0.6359  0.2434 -0.0304
 2308SOL    HW1 7031   2.210   0.838   0.518  0.0511  1.7749 -0.9198
 2308SOL    HW2 7032   2.110   0.734   0.563  3.8529 -0.4072  3.2806
 2309SOL     OW 7033   3.105   4.479   0.469 -0.2834  0.6851 -0.0741
 2309SOL    HW1 7034   3.090   4.426   0.391  0.9084  1.0898 -0.5907
 2309SOL    HW2 7035   3.028   4.463   0.524 -1.4913  0.9415 -1.6277
 2310SOL     OW 7036   0.488   1.560   1.567 -0.4175 -0.3123 -0.2658
 2310SOL    HW1 7037   0.439   1.545   1.648  0.4195 -0.1956  0.2798
 2310SOL    HW2 7038   0.482   1.478   1.519  0.2889 -0.8944  0.5898
 2311SOL     OW 7039   3.541   0.422   2.138  0.0451  0.3150  0.4918
 2311SOL    HW1 7040   3.589   0.421   2.056  2.2953  1.0444  1.7162
 2311SOL    HW2 7041   3.529   0.515   2.158 -0.4560  0.1511  1.0055
 2312SOL     OW 7042   4.976   3.976   2.632 -0.5308  0.6912 -0.1275
 2312SOL    HW1 7043   5.029   3.915   2.683 -2.5020 -2.2649 -1.3290
 2312SOL    HW2 7044   4.984   3.945   2.542 -1.6355  2.2030 -0.7911
 2313SOL     OW 7045   4.820   5.404   3.847 -0.4518 -0.4750 -0.3357
 2313SOL    HW1 7046   4.872   5.356   3.911 -0.3484  1.4076  1.0674
 2313SOL    HW2 7047   4.809   5.342   3.774  0.2913 -2.3248  1.0361
 2314SOL     OW 7048   4.651   1.281   2.809  0.1656  0.0706 -0.3131
 2314SOL    HW1 7049   4.636   1.358   2.864 -2.3847 -0.1764 -0.5217
 2314SOL    HW2 7050   4.714   1.228   2.859 -0.5287  0.7788  1.4178
 2315SOL     OW 7051   2.940   2.460   0.668 -0.4291  0.1205  0.4235
 2315SOL    HW1 7052   2.997   2.392   0.705 -0.9114  0.5082  1.9816
 2315SOL    HW2 7053   2.996   2.508   0.607 -0.1482 -1.7793 -0.8814
 2316SOL     OW 7054   3.394   4.265   1.116  0.0904 -0.4348  0.3061
 2316SOL    HW1 7055   3.488   4.249   1.112 -0.2991 -3.3689  0.3684
 2316SOL    HW2 7056   3.374   4.313   1.036  1.2352 -2.6650 -1.4237
 2317SOL     OW 7057   4.089   0.954   2.677 -0.1658 -0.6304  0.0252
 2317SOL    HW1 7058   4.176   0.915   2.691  0.1293 -0.3357 -0.9183
 2317SOL    HW2 7059   4.104   1.048   2.683 -0.0222 -0.4703 -2.0349
 2318SOL     OW 7060   1.910   3.208   0.869 -0.3010 -0.2591 -0.2818
 2318SOL    HW1 7061   1.870   3.222   0.784  1.7464  0.3372 -1.2098
 2318SOL    HW2 7062   1.924   3.113   0.874 -1.2191 -0.3970 -0.2070
 2319SOL     OW 7063   1.691   0.795   2.537 -0.2500  0.1230 -0.1775
 2319SOL    HW1 7064   1.617   0.772   2.480  1.5552 -0.8273 -2.3133
 2319SOL    HW2 7065   1.651   0.821   2.620 -2.9886  0.4808 -1.5031
 2320SOL     OW 7066   2.201   5.012   3.121  0.4680  0.1852  0.1524
 2320SOL    HW1 7067   2.278   4.993   3.067  0.2256 -0.7138  0.1046
 2320SOL    HW2 7068   2.146   4.934   3.112 -0.5099  0.8676  0.0866
 2321SOL     OW 7069   0.188   0.395   2.582  0.5723  0.2999 -0.4924
 2321SOL    HW1 7070   0.250   0.370   2.513 -1.8094 -0.9193 -2.3537
 2321SOL    HW2 7071   0.139   0.315   2.600  0.2742  0.9310  1.7607
 2322SOL     OW 7072   3.452   4.860   0.308 -0.5990  0.3812 -0.1528
 2322SOL    HW1 7073   3.466   4.826   0.219 -1.7692 -0.0757 -0.1828
 2322SOL    HW2 7074   3.496   4.798   0.365  0.9955  1.1910 -0.4443
 2323SOL     OW 7075   1.961   0.374   1.849  0.0676  0.2138  0.2268
 2323SOL    HW1 7076   1.927   0.440   1.910  0.6273 -0.0455  0.8228
 2323SOL    HW2 7077   2.049   0.354   1.881  1.1599  1.4640 -1.7530
 2324SOL     OW 7078   0.155   1.409   2.426 -0.0734 -0.1710 -0.3025
 2324SOL    HW1 7079   0.071   1.370   2.405 -0.5646  0.0138  1.1980
 2324SOL    HW2 7080   0.185   1.363   2.504  0.4259  0.8708  0.1544
 2325SOL     OW 7081   1.559   0.098   0.424 -0.5235 -0.8023 -0.5269
 2325SOL    HW1 7082   1.604   0.056   0.497  1.2077 -0.3195 -1.2809
 2325SOL    HW2 7083   1.559   0.191   0.445  0.3675 -0.6097 -1.3185
 2326SOL     OW 7084   1.836   5.552   2.892 -0.1718 -0.4388  0.6337
 2326SOL    HW1 7085   1.908   5.491   2.878 -1.3155 -1.8318  0.5300
 2326SOL    HW2 7086   1.834   5.605   2.811  0.3446 -0.7939  0.3822
 2327SOL     OW 7087   3.219   5.352   0.431  0.1942  0.3761 -0.2093
 2327SOL    HW1 7088   3.127   5.368   0.411 -0.9227 -2.0256  2.3627
 2327SOL    HW2 7089   3.243   5.278   0.375  0.9646  1.6497 -1.6399
 2328SOL     OW 7090   4.382   3.462   0.314 -0.1163  0.0665 -0.4703
 2328SOL    HW1 7091   4.306   3.501   0.269  0.1405  1.6536  0.3722
 2328SOL    HW2 7092   4.456   3.483   0.257 -0.1250 -0.2112 -0.5831
 2329SOL     OW 7093   4.199   4.077   1.417  0.5244  0.7103  0.4861
 2329SOL    HW1 7094   4.271   4.061   1.477  0.9033  1.5871  0.2754
 2329SOL    HW2 7095   4.123   4.092   1.473  0.5402 -0.0094  0.7102
 2330SOL     OW 7096   3.832   3.728   1.143 -0.4499 -0.6508  0.1619
 2330SOL    HW1 7097   3.852   3.821   1.156  1.5544 -0.7469 -1.7186
 2330SOL    HW2 7098   3.776   3.726   1.066  0.6779 -1.0471 -0.6752
 2331SOL     OW 7099   0.772   3.442   1.395 -0.7049  0.1649  0.1648
 2331SOL    HW1 7100   0.799   3.471   1.307  0.8126 -0.8657  0.2635
 2331SOL    HW2 7101   0.785   3.347   1.394 -2.7720 -0.1808  0.8155
 2332SOL     OW 7102   3.218   4.806   0.950 -0.5901 -0.7508 -0.5022
 2332SOL    HW1 7103   3.291   4.809   1.011 -1.9767  2.7354  1.2411
 2332SOL    HW2 7104   3.186   4.716   0.955  0.8458 -1.2058  2.0616
 2333SOL     OW 7105   0.092   5.320   0.184 -0.0860  0.4070  0.1109
 2333SOL    HW1 7106   0.111   5.412   0.164  0.8418  0.1324 -0.2884
 2333SOL    HW2 7107   0.116   5.309   0.276 -1.1615  0.8078  0.4597
 2334SOL     OW 7108   5.321   4.001   0.361 -0.3371 -0.3601 -0.2053
 2334SOL    HW1 7109   5.361   3.921   0.326  1.3866 -0.0542  0.9697
 2334SOL    HW2 7110   5.366   4.017   0.444 -1.5323  1.1457  0.2045
 2335SOL     OW 7111   2.780   0.445   2.315  0.6824  0.2031 -0.0321
 2335SOL    HW1 7112   2.691   0.477   2.298  0.5371 -0.3067 -0.2486
 2335SOL    HW2 7113   2.791   0.454   2.410  0.6983  1.0202 -0.1041
 2336SOL     OW 7114   2.669   0.488   0.226 -0.4661 -0.1718  0.5822
 2336SOL    HW1 7115   2.639   0.406   0.265 -0.1832  0.0605  1.3160
 2336SOL    HW2 7116   2.735   0.461   0.162 -0.3188 -0.5198  0.8751
 2337SOL     OW 7117   5.107   2.534   2.923 -0.1090  0.0225  0.7566
 2337SOL    HW1 7118   5.163   2.610   2.908  0.9531 -0.7390  0.7464
 2337SOL    HW2 7119   5.051   2.559   2.996  0.6391  0.6032  1.1407
 2338SOL     OW 7120   2.282   3.304   1.029  0.0006 -0.5973  0.1725
 2338SOL    HW1 7121   2.274   3.378   0.969 -1.6461  0.1632  1.2467
 2338SOL    HW2 7122   2.260   3.341   1.115 -0.5787 -2.2852  0.7844
 2339SOL     OW 7123   4.516   2.056   0.271 -0.0497 -0.0972  0.6332
 2339SOL    HW1 7124   4.532   1.977   0.218 -1.6834  0.5583 -0.9268
 2339SOL    HW2 7125   4.435   2.037   0.318 -1.5135  1.2792 -1.1843
 2340SOL     OW 7126   0.831   0.944   3.039 -0.1858  0.1267  0.2713
 2340SOL    HW1 7127   0.885   0.946   3.118 -0.0676 -0.4817  0.2139
 2340SOL    HW2 7128   0.798   0.854   3.035  0.7839 -0.2100 -1.0108
 2341SOL     OW 7129   3.565   3.705   3.400 -0.1710 -0.1463 -0.1536
 2341SOL    HW1 7130   3.580   3.770   3.469 -2.2595 -0.4315  0.6376
 2341SOL    HW2 7131   3.607   3.626   3.433  2.6496  0.7448 -1.2501
 2342SOL     OW 7132   1.472   4.283   0.372  0.7895 -0.1368 -0.3097
 2342SOL    HW1 7133   1.459   4.375   0.393  1.0109 -0.3755  0.9376
 2342SOL    HW2 7134   1.391   4.256   0.328  0.1564  0.2933  0.5786
 2343SOL     OW 7135   3.636   3.634   0.317  0.1343  0.0237  0.4312
 2343SOL    HW1 7136   3.562   3.585   0.283 -1.2495  0.4050  2.6663
 2343SOL    HW2 7137   3.599   3.720   0.341  0.9504 -0.1862  2.7061
 2344SOL     OW 7138   2.185   5.152   1.678 -0.1558 -0.0908  0.1830
 2344SOL    HW1 7139   2.202   5.059   1.687  0.7256  0.0828  0.4611
 2344SOL    HW2 7140   2.210   5.172   1.587 -0.2567 -0.1052  0.1517
 2345SOL     OW 7141   4.460   2.311   3.540  0.1946 -0.3263 -0.4236
 2345SOL    HW1 7142   4.536   2.265   3.506  0.5223  0.4326 -0.7440
 2345SOL    HW2 7143   4.394   2.303   3.471  1.2024  2.1102 -1.7941
 2346SOL     OW 7144   5.410   2.701   0.506  0.0694  0.8639 -0.5574
 2346SOL    HW1 7145   5.376   2.618   0.539  0.5817  1.2198  0.9595
 2346SOL    HW2 7146   5.487   2.719   0.561 -0.9644  3.1262  0.3038
 2347SOL     OW 7147   5.380   5.264   3.404 -0.4159  0.0208  0.1684
 2347SOL    HW1 7148   5.340   5.267   3.317 -0.3693 -0.1933  0.1378
 2347SOL    HW2 7149   5.455   5.205   3.394 -0.1999  0.2787  0.2686
 2348SOL     OW 7150   4.199   0.922   3.033  0.4418 -0.0437  0.3153
 2348SOL    HW1 7151   4.245   0.881   3.106 -1.9047 -1.5809  1.0461
 2348SOL    HW2 7152   4.211   0.861   2.960  0.4543  0.0814  0.2136
 2349SOL     OW 7153   3.001   4.453   0.177  0.0670 -0.4327  0.0668
 2349SOL    HW1 7154   2.977   4.529   0.124  3.0420  0.1772 -0.5595
 2349SOL    HW2 7155   2.945   4.382   0.144 -0.9040  0.8465 -1.1372
 2350SOL     OW 7156   4.649   3.907   0.204 -0.0381 -0.2942  0.5061
 2350SOL    HW1 7157   4.666   3.839   0.138  0.9160 -0.9950  1.4425
 2350SOL    HW2 7158   4.650   3.989   0.154 -0.6298 -0.9034 -0.5548
 2351SOL     OW 7159   3.889   0.854   0.397  0.0719 -0.2912  0.5380
 2351SOL    HW1 7160   3.822   0.807   0.346 -0.2504  1.4283 -0.7104
 2351SOL    HW2 7161   3.846   0.874   0.480 -1.7954  2.4237 -0.8930
 2352SOL     OW 7162   1.445   4.914   2.247  0.5522 -0.2543 -0.1019
 2352SOL    HW1 7163   1.506   4.922   2.321  2.1263 -0.3485 -1.3199
 2352SOL    HW2 7164   1.359   4.902   2.287  1.2622  0.3416  1.7018
 2353SOL     OW 7165   0.606   4.332   0.215  0.2421 -0.1278 -0.2965
 2353SOL    HW1 7166   0.586   4.397   0.283 -2.0017 -1.1438  0.1260
 2353SOL    HW2 7167   0.697   4.306   0.233  1.0870  2.5309 -0.2535
 2354SOL     OW 7168   3.981   2.410   0.173  0.1518 -0.8255 -0.1295
 2354SOL    HW1 7169   3.893   2.374   0.163  0.0911 -1.0179  0.9735
 2354SOL    HW2 7170   4.026   2.384   0.093 -0.9282 -0.2939 -0.9451
 2355SOL     OW 7171   4.380   4.632   0.541  0.2608  0.0256 -0.0865
 2355SOL    HW1 7172   4.362   4.538   0.541 -0.0137  0.0795  0.0172
 2355SOL    HW2 7173   4.466   4.639   0.500 -0.4050 -0.1382 -1.5850
 2356SOL     OW 7174   2.683   2.022   1.297  0.1289  0.2395 -0.6817
 2356SOL    HW1 7175   2.764   1.974   1.316 -0.2603 -0.2706 -0.2537
 2356SOL    HW2 7176   2.706   2.114   1.307  0.8485  0.1415 -1.3290
 2357SOL     OW 7177   2.940   4.993   2.034 -0.3234  0.3392  0.1179
 2357SOL    HW1 7178   2.966   4.920   1.980 -0.7267 -1.1643  1.8464
 2357SOL    HW2 7179   3.003   4.995   2.106 -0.6701  1.3020  0.4280
 2358SOL     OW 7180   2.203   4.600   2.466 -0.1553 -0.4089 -0.2136
 2358SOL    HW1 7181   2.124   4.647   2.440 -1.7323 -0.9007  3.1403
 2358SOL    HW2 7182   2.256   4.665   2.512  0.2180 -0.6553 -0.2916
 2359SOL     OW 7183   0.255   2.842   0.437 -0.3168 -0.1615  0.3619
 2359SOL    HW1 7184   0.334   2.833   0.490 -1.0356 -0.7347  1.3667
 2359SOL    HW2 7185   0.244   2.936   0.425 -0.3546  0.0064  1.5875
 2360SOL     OW 7186   1.287   1.008   0.438  0.1786  0.0530  0.3564
 2360SOL    HW1 7187   1.294   0.931   0.382 -1.6992  0.7103 -0.8586
 2360SOL    HW2 7188   1.377   1.042   0.444  0.7042 -1.0926 -0.7030
 2361SOL     OW 7189   1.426   0.713   2.496  0.7178  0.5193 -0.1593
 2361SOL    HW1 7190   1.403   0.784   2.436 -1.5918 -0.4832 -0.5719
 2361SOL    HW2 7191   1.347   0.698   2.548  0.7893 -2.2636 -0.6792
 2362SOL     OW 7192   3.410   0.052   3.703 -0.4518 -0.2702  0.1945
 2362SOL    HW1 7193   3.351   0.113   3.657  0.1079  0.0674 -0.0921
 2362SOL    HW2 7194   3.489   0.051   3.649 -1.1180 -2.7174 -0.8591
 2363SOL     OW 7195   1.230   2.227   3.073  0.0524 -0.5984 -0.0261
 2363SOL    HW1 7196   1.165   2.228   3.143  0.6953 -1.8357  0.6234
 2363SOL    HW2 7197   1.222   2.140   3.034  1.2754 -0.7576  0.0352
 2364SOL     OW 7198   3.535   1.167   2.340  0.4552 -0.1440 -0.0517
 2364SOL    HW1 7199   3.466   1.187   2.277  0.7527  0.6211 -0.1469
 2364SOL    HW2 7200   3.538   1.243   2.398 -0.0855 -1.0042  1.1525
 2365SOL     OW 7201   2.662   0.227   2.185 -0.2648  0.3733 -0.2328
 2365SOL    HW1 7202   2.640   0.291   2.118 -0.5219 -0.0419 -0.5486
 2365SOL    HW2 7203   2.739   0.264   2.229 -1.1285  1.4814  0.3970
 2366SOL     OW 7204   5.309   0.292   0.662 -0.8162 -0.2372 -0.1448
 2366SOL    HW1 7205   5.338   0.281   0.571  0.6598 -1.2862  0.4166
 2366SOL    HW2 7206   5.215   0.272   0.660 -0.8237 -0.1668 -1.4390
 2367SOL     OW 7207   1.030   2.478   0.126 -0.2852  0.2837  0.1221
 2367SOL    HW1 7208   0.949   2.514   0.091 -0.2758 -0.0319 -0.2315
 2367SOL    HW2 7209   1.078   2.554   0.159 -0.2325  0.6094 -0.6825
 2368SOL     OW 7210   3.985   4.752   0.316 -0.3875  0.2952 -0.1174
 2368SOL    HW1 7211   4.037   4.778   0.392  1.6229 -3.3645 -0.0263
 2368SOL    HW2 7212   4.034   4.786   0.241  0.0706  0.1323  0.1040
 2369SOL     OW 7213   1.890   5.577   2.321 -0.3068 -0.2744  0.1570
 2369SOL    HW1 7214   1.950   5.631   2.271  0.7723 -3.0887 -1.8691
 2369SOL    HW2 7215   1.824   5.638   2.354  1.5973  2.4067 -0.6557
 2370SOL     OW 7216   0.086   1.212   0.612 -0.0609 -0.3909  0.1700
 2370SOL    HW1 7217   0.039   1.141   0.656  0.9311 -1.0003  0.2686
 2370SOL    HW2 7218   0.056   1.292   0.656 -0.2989 -0.8494  0.8542
 2371SOL     OW 7219   0.910   0.575   0.109 -0.1781 -0.3862 -0.3505
 2371SOL    HW1 7220   0.897   0.564   0.204 -1.0738 -3.1669 -0.6912
 2371SOL    HW2 7221   0.886   0.666   0.092  2.9172  1.1590  2.4556
 2372SOL     OW 7222   0.019   1.892   0.326 -0.1470 -0.0538  0.8182
 2372SOL    HW1 7223   0.018   1.987   0.339  0.8693  0.0216  0.4226
 2372SOL    HW2 7224   0.008   1.856   0.414  2.2520  0.4478  1.3804
 2373SOL     OW 7225   1.480   5.225   3.240 -0.6297  0.0211 -0.1247
 2373SOL    HW1 7226   1.497   5.281   3.315  0.6044 -0.3519 -0.0934
 2373SOL    HW2 7227   1.564   5.182   3.223 -0.9047  0.0190 -1.6459
 2374SOL     OW 7228   5.293   1.460   0.646 -0.5451  0.3500 -0.4631
 2374SOL    HW1 7229   5.379   1.495   0.668 -0.4557  0.4522 -0.9583
 2374SOL    HW2 7230   5.309   1.368   0.627 -0.8615 -0.1260  1.3557
 2375SOL     OW 7231   1.135   4.019   1.796  0.4063 -0.3357 -0.6949
 2375SOL    HW1 7232   1.217   3.971   1.787  0.2117 -1.0124  0.7640
 2375SOL    HW2 7233   1.138   4.053   1.886 -0.7775 -0.1360 -0.7218
 2376SOL     OW 7234   1.341   4.959   0.082 -0.0918 -0.2973 -0.3495
 2376SOL    HW1 7235   1.437   4.956   0.085 -0.0192  0.9103 -0.7439
 2376SOL    HW2 7236   1.314   4.960   0.174  0.3550  0.9087 -0.2185
 2377SOL     OW 7237   3.456   0.993   3.199 -0.1141  0.4555 -0.4215
 2377SOL    HW1 7238   3.538   0.976   3.246 -0.4187 -0.1165 -0.0988
 2377SOL    HW2 7239   3.447   1.089   3.202 -0.4826  0.3946  1.3059
 2378SOL     OW 7240   0.858   5.216   3.024  0.4522 -0.1386  0.3837
 2378SOL    HW1 7241   0.866   5.311   3.030  1.0373 -0.1343 -0.3767
 2378SOL    HW2 7242   0.824   5.189   3.109  0.9385  0.6854  0.8440
 2379SOL     OW 7243   2.928   2.855   2.246 -0.1242  0.5028  0.1219
 2379SOL    HW1 7244   2.953   2.821   2.160 -0.1625  2.2734 -0.6287
 2379SOL    HW2 7245   2.833   2.844   2.249 -0.2039  0.9846 -0.3410
 2380SOL     OW 7246   1.043   4.815   1.841 -0.4877  0.5378 -0.1523
 2380SOL    HW1 7247   1.036   4.737   1.786 -0.4171  0.2183  0.2946
 2380SOL    HW2 7248   1.117   4.864   1.803 -0.2064  0.1430 -0.1199
 2381SOL     OW 7249   1.555   0.970   0.117  0.8932  0.1669 -0.4530
 2381SOL    HW1 7250   1.506   1.048   0.093 -2.6353 -1.9935 -1.0408
 2381SOL    HW2 7251   1.559   0.919   0.036  1.7788 -0.9311  0.2552
 2382SOL     OW 7252   1.932   5.218   1.974 -0.2602  0.8511 -0.1568
 2382SOL    HW1 7253   1.973   5.279   2.035 -0.4195  0.0899  0.7213
 2382SOL    HW2 7254   2.004   5.185   1.920  0.5177 -1.2072  1.9952
 2383SOL     OW 7255   0.983   4.515   0.055  0.5643  0.2791  0.2135
 2383SOL    HW1 7256   1.072   4.518   0.020  0.3178  0.9882 -0.3672
 2383SOL    HW2 7257   0.978   4.591   0.113 -0.2128  1.3001 -1.1342
 2384SOL     OW 7258   3.963   4.941   3.337  0.2153  0.5833  0.3443
 2384SOL    HW1 7259   3.914   5.023   3.337  1.4716  1.3677 -0.3336
 2384SOL    HW2 7260   4.030   4.953   3.405  1.9653  1.1430 -1.3901
 2385SOL     OW 7261   1.627   3.494   1.073 -0.5302  0.2784 -0.5779
 2385SOL    HW1 7262   1.675   3.413   1.091 -2.3869 -1.0497 -1.3493
 2385SOL    HW2 7263   1.541   3.481   1.111 -0.8675  1.9342 -0.6835
 2386SOL     OW 7264   4.032   1.495   3.928 -0.1244 -1.0165 -0.6213
 2386SOL    HW1 7265   4.076   1.578   3.909 -1.4806  0.0310  0.6071
 2386SOL    HW2 7266   4.087   1.429   3.887  2.1444  0.2873  0.1636
 2387SOL     OW 7267   2.244   1.240   1.358 -0.6065 -0.3244  0.1353
 2387SOL    HW1 7268   2.285   1.325   1.371 -0.4310 -0.3697 -0.0915
 2387SOL    HW2 7269   2.174   1.256   1.295 -0.5086 -0.3638  0.0153
 2388SOL     OW 7270   1.835   3.367   1.573  0.1501 -0.2765  0.0039
 2388SOL    HW1 7271   1.873   3.338   1.490 -0.3828  0.8900 -0.6678
 2388SOL    HW2 7272   1.860   3.459   1.581 -3.0849  0.8167 -0.8721
 2389SOL     OW 7273   2.783   2.201   1.754 -0.1393 -0.4521  0.1779
 2389SOL    HW1 7274   2.738   2.173   1.834  1.0507 -1.1356  0.6321
 2389SOL    HW2 7275   2.741   2.150   1.684  1.3705 -2.8530  0.8744
 2390SOL     OW 7276   1.232   5.026   2.422 -0.0319 -0.3739  0.0220
 2390SOL    HW1 7277   1.138   5.011   2.413 -0.0637  0.6847 -1.7491
 2390SOL    HW2 7278   1.240   5.121   2.432  0.7894 -0.5707  1.5481
 2391SOL     OW 7279   4.775   0.242   0.884  0.0179 -0.2819 -0.4374
 2391SOL    HW1 7280   4.692   0.249   0.836 -1.0107 -0.1579  1.2840
 2391SOL    HW2 7281   4.835   0.299   0.835 -1.6398  1.7300 -0.2699
 2392SOL     OW 7282   3.350   1.837   1.348 -0.1239  0.1264 -0.4259
 2392SOL    HW1 7283   3.331   1.760   1.402  1.0829 -1.0268 -1.5450
 2392SOL    HW2 7284   3.446   1.838   1.341 -0.1553  1.3783 -0.9515
 2393SOL     OW 7285   4.568   5.160   0.419  0.1590 -0.1946 -0.4370
 2393SOL    HW1 7286   4.621   5.198   0.490 -1.3479  0.4926  0.3731
 2393SOL    HW2 7287   4.513   5.095   0.463 -0.0725 -0.4899 -1.1568
 2394SOL     OW 7288   4.031   4.425   3.105  0.6190 -0.0471  0.1203
 2394SOL    HW1 7289   4.114   4.406   3.148  0.2161 -0.3052  0.8045
 2394SOL    HW2 7290   4.001   4.507   3.146 -0.6825 -1.2691  1.7579
 2395SOL     OW 7291   0.638   0.355   1.616 -0.1291  0.5149 -0.2190
 2395SOL    HW1 7292   0.696   0.279   1.601 -1.5107 -0.6382  0.0778
 2395SOL    HW2 7293   0.612   0.382   1.528 -0.9380 -0.4230 -0.2852
 2396SOL     OW 7294   1.036   0.928   0.467  0.3228 -0.1377 -0.4955
 2396SOL    HW1 7295   1.054   0.837   0.442 -0.6568 -0.0787 -1.4800
 2396SOL    HW2 7296   1.121   0.971   0.461  0.9165 -1.1061  0.5649
 2397SOL     OW 7297   0.996   4.709   2.543  0.1763 -0.3091  0.0703
 2397SOL    HW1 7298   0.932   4.675   2.606 -1.3485  0.4153 -1.0016
 2397SOL    HW2 7299   0.950   4.782   2.501  1.3663 -0.3856 -1.4338
 2398SOL     OW 7300   3.848   3.324   3.818  0.0577 -0.0304 -0.0907
 2398SOL    HW1 7301   3.797   3.335   3.899 -0.0997 -0.4980 -0.1248
 2398SOL    HW2 7302   3.861   3.230   3.811 -0.6625 -0.0638 -1.0681
 2399SOL     OW 7303   2.342   4.205   2.443 -0.1477 -0.4254  0.1044
 2399SOL    HW1 7304   2.392   4.251   2.376  0.9663 -0.5230  0.8517
 2399SOL    HW2 7305   2.289   4.273   2.485 -0.4415 -0.2746 -0.5082
 2400SOL     OW 7306   5.465   0.001   2.318  0.6135  0.3637 -0.0145
 2400SOL    HW1 7307   5.451   0.069   2.252 -0.6698 -1.1527 -1.3863
 2400SOL    HW2 7308   5.377  -0.023   2.346  0.8613 -2.1304 -1.1057
 2401SOL     OW 7309   3.412   2.166   0.105 -0.1103  0.3775  0.3747
 2401SOL    HW1 7310   3.331   2.123   0.078  1.0137 -0.7811 -1.3588
 2401SOL    HW2 7311   3.383   2.241   0.157 -2.2617 -0.3352  0.2975
 2402SOL     OW 7312   5.561   2.440   3.094  0.6053  0.5947  0.2616
 2402SOL    HW1 7313   5.628   2.457   3.029 -0.1719 -0.2521 -0.8091
 2402SOL    HW2 7314   5.481   2.427   3.043 -0.1440  0.4844  1.4274
 2403SOL     OW 7315   2.071   5.543   3.130 -0.1278 -0.0418  0.3119
 2403SOL    HW1 7316   2.143   5.595   3.167 -0.6639  1.7527 -1.0525
 2403SOL    HW2 7317   2.038   5.493   3.205  1.0344  0.8424  1.4814
 2404SOL     OW 7318   4.883   4.330   2.981  0.0122  0.0748  0.4816
 2404SOL    HW1 7319   4.921   4.413   3.009 -1.4283  0.7692  0.4678
 2404SOL    HW2 7320   4.841   4.295   3.060 -1.6291  0.6636 -0.0844
 2405SOL     OW 7321   2.234   1.502   3.503  0.8339 -0.8267  0.1518
 2405SOL    HW1 7322   2.202   1.579   3.550  0.0713 -0.8614 -0.3066
 2405SOL    HW2 7323   2.241   1.434   3.570 -0.4366 -0.9325  0.1987
 2406SOL     OW 7324   3.077   4.279   0.920  0.2362 -0.2982 -0.1107
 2406SOL    HW1 7325   3.003   4.262   0.862 -0.9072  1.0166  0.8955
 2406SOL    HW2 7326   3.039   4.281   1.008  1.0433  2.5667  0.2545
 2407SOL     OW 7327   4.111   2.599   1.252 -0.2529  0.5640  0.5765
 2407SOL    HW1 7328   4.118   2.569   1.342  1.4621  0.7599  0.5473
 2407SOL    HW2 7329   4.108   2.519   1.199  2.1973  0.3543  0.6301
 2408SOL     OW 7330   4.025   0.604   1.809 -0.5451 -0.1058 -0.0153
 2408SOL    HW1 7331   4.011   0.620   1.716  2.7392  1.1147 -0.4478
 2408SOL    HW2 7332   4.081   0.527   1.811 -0.4146  0.0059  0.9365
 2409SOL     OW 7333   1.462   2.460   0.646  0.6616  0.0495 -0.7019
 2409SOL    HW1 7334   1.513   2.436   0.723 -1.7117  0.0470  0.9653
 2409SOL    HW2 7335   1.388   2.510   0.680 -1.0308 -0.8110 -2.8651
 2410SOL     OW 7336   0.721   2.043   1.556  0.2178 -0.2861 -0.0832
 2410SOL    HW1 7337   0.696   1.953   1.538 -3.1780 -0.0005  2.2966
 2410SOL    HW2 7338   0.743   2.044   1.649  0.1856  1.3364 -0.0680
 2411SOL     OW 7339   1.911   3.206   2.576 -0.2715  0.0148  0.6535
 2411SOL    HW1 7340   1.986   3.188   2.634 -0.8384 -1.6829  0.9158
 2411SOL    HW2 7341   1.913   3.301   2.564  1.6387  0.0736  1.0338
 2412SOL     OW 7342   2.207   1.057   3.776 -0.1001  0.3583  0.2330
 2412SOL    HW1 7343   2.202   1.032   3.868  1.7057 -0.7004  0.0944
 2412SOL    HW2 7344   2.117   1.058   3.746 -0.6717  0.0817  1.8525
 2413SOL     OW 7345   2.105   1.587   0.225 -0.1096  0.5927  0.2347
 2413SOL    HW1 7346   2.040   1.592   0.296  0.2662  0.5838  0.5859
 2413SOL    HW2 7347   2.164   1.517   0.253  0.2946  0.8898  0.1206
 2414SOL     OW 7348   2.644   3.082   0.682 -0.4311  0.2177  0.3570
 2414SOL    HW1 7349   2.588   3.160   0.676 -0.8992 -0.0536  1.0818
 2414SOL    HW2 7350   2.729   3.116   0.711 -0.1801  0.6370 -0.7900
 2415SOL     OW 7351   4.682   2.499   3.431  0.4539 -0.2009  0.2644
 2415SOL    HW1 7352   4.647   2.575   3.478 -1.1631 -2.2499  2.6576
 2415SOL    HW2 7353   4.616   2.431   3.444  2.2986 -2.3270 -0.8942
 2416SOL     OW 7354   0.384   4.639   0.572 -0.5626  0.6382  0.3931
 2416SOL    HW1 7355   0.398   4.613   0.663  0.6755  0.8322  0.2752
 2416SOL    HW2 7356   0.360   4.731   0.577  2.2317  1.4526  0.4116
 2417SOL     OW 7357   1.064   2.922   2.598 -0.1235  0.0812 -0.2495
 2417SOL    HW1 7358   1.003   2.848   2.594 -0.9231  0.6676  0.6905
 2417SOL    HW2 7359   1.147   2.883   2.624 -0.7738 -0.3970  1.2591
 2418SOL     OW 7360   0.187   1.264   1.312  0.1851 -0.1178  0.3162
 2418SOL    HW1 7361   0.269   1.237   1.270  0.0696 -0.6648  0.4324
 2418SOL    HW2 7362   0.158   1.186   1.359 -0.9528 -0.2720 -0.6072
 2419SOL     OW 7363   4.837   4.236   2.278 -0.2064  0.3860 -0.2765
 2419SOL    HW1 7364   4.840   4.142   2.262  0.1801  0.6553 -2.0960
 2419SOL    HW2 7365   4.902   4.252   2.345 -0.9936 -0.7548  0.7955
 2420SOL     OW 7366   0.507   3.219   2.890  0.0452 -0.4164 -0.8210
 2420SOL    HW1 7367   0.420   3.184   2.907  0.5555 -1.6997 -0.7218
 2420SOL    HW2 7368   0.524   3.197   2.798  0.5866 -0.9255 -0.6058
 2421SOL     OW 7369   1.715   4.209   2.705 -0.6113  0.6490  0.0284
 2421SOL    HW1 7370   1.808   4.208   2.683 -0.3641  1.2318  0.9943
 2421SOL    HW2 7371   1.674   4.256   2.632 -0.3008 -0.4379 -0.8742
 2422SOL     OW 7372   3.478   3.570   1.054  0.3886 -0.5740  0.2600
 2422SOL    HW1 7373   3.540   3.520   1.107 -1.2695 -1.2457  1.6877
 2422SOL    HW2 7374   3.425   3.503   1.010 -0.8474 -0.1025  0.9651
 2423SOL     OW 7375   2.991   5.310   1.293  0.0384 -0.2982 -0.0141
 2423SOL    HW1 7376   2.905   5.336   1.326 -1.0762 -2.1116 -1.3357
 2423SOL    HW2 7377   3.020   5.241   1.352  1.9597  2.1045  2.1098
 2424SOL     OW 7378   3.856   4.077   1.251  0.0107 -0.5634 -0.1131
 2424SOL    HW1 7379   3.777   4.097   1.302 -0.8860 -2.1981 -0.8095
 2424SOL    HW2 7380   3.911   4.155   1.261 -0.0334 -0.8429  3.4643
 2425SOL     OW 7381   3.221   3.595   1.458 -0.4503  0.5168  0.3884
 2425SOL    HW1 7382   3.243   3.655   1.529  1.3700 -0.0764  0.3598
 2425SOL    HW2 7383   3.300   3.590   1.404 -1.1361 -0.5749 -0.5790
 2426SOL     OW 7384   0.344   0.769   2.693  0.0960 -0.3721 -0.0885
 2426SOL    HW1 7385   0.312   0.800   2.608  2.3800  0.1537 -0.8260
 2426SOL    HW2 7386   0.439   0.772   2.685  0.4705  1.8849  3.2775
 2427SOL     OW 7387   2.893   2.743   3.210 -0.1160 -0.1326  0.2205
 2427SOL    HW1 7388   2.927   2.824   3.171  1.2559 -0.3217  0.9491
 2427SOL    HW2 7389   2.966   2.682   3.204 -0.6180 -0.8376  1.1028
 2428SOL     OW 7390   2.231   0.817   0.092  0.0414  0.1614  0.1695
 2428SOL    HW1 7391   2.182   0.754   0.144 -0.2405  0.6854  0.5427
 2428SOL    HW2 7392   2.315   0.826   0.138  0.2634 -0.2789 -0.1373
 2429SOL     OW 7393   0.198   2.850   2.448 -0.2349  0.1346  0.4057
 2429SOL    HW1 7394   0.250   2.771   2.434 -1.8847 -1.2738  1.6644
 2429SOL    HW2 7395   0.238   2.916   2.391  2.1614 -1.1463  0.4703
 2430SOL     OW 7396   5.002   3.259   2.993 -0.0494 -0.1711  0.2522
 2430SOL    HW1 7397   4.966   3.194   3.052 -0.4081  0.7401  1.0667
 2430SOL    HW2 7398   4.935   3.271   2.926  0.4307 -1.3315 -0.4702
 2431SOL     OW 7399   1.196   3.489   2.115  0.1402  0.8607 -0.0417
 2431SOL    HW1 7400   1.282   3.446   2.124 -0.3153  0.3804  2.9335
 2431SOL    HW2 7401   1.217   3.582   2.110  0.8732  0.6703 -1.0765
 2432SOL     OW 7402   1.079   3.127   1.434  0.8284 -0.7426  0.0424
 2432SOL    HW1 7403   1.077   3.117   1.529  0.5222 -1.9468 -0.0816
 2432SOL    HW2 7404   1.136   3.202   1.419  1.2287 -0.8146  1.1540
 2433SOL     OW 7405   0.209   2.572   2.518  0.1775 -0.0701 -0.4305
 2433SOL    HW1 7406   0.291   2.564   2.568 -0.4714 -1.3758  0.4780
 2433SOL    HW2 7407   0.156   2.497   2.546 -0.3887 -0.6594 -2.8205
 2434SOL     OW 7408   4.875   3.130   1.441 -0.0702  0.4252  0.4227
 2434SOL    HW1 7409   4.803   3.133   1.378  0.8184  0.8320 -0.6044
 2434SOL    HW2 7410   4.840   3.174   1.518 -0.9380  0.5845 -0.0450
 2435SOL     OW 7411   4.639   0.977   2.358  0.2012  0.1218  0.1664
 2435SOL    HW1 7412   4.660   1.070   2.356 -0.2117  0.2026 -0.4002
 2435SOL    HW2 7413   4.673   0.947   2.443 -2.0379  1.3331  1.5947
 2436SOL     OW 7414   3.812   4.635   2.677  0.4786  0.2726 -0.3420
 2436SOL    HW1 7415   3.733   4.609   2.630  0.7408  0.1115 -0.7069
 2436SOL    HW2 7416   3.865   4.555   2.680  2.0169  1.0717 -2.9130
 2437SOL     OW 7417   4.787   3.906   0.869 -0.2259  0.2652  0.1396
 2437SOL    HW1 7418   4.864   3.954   0.899 -0.0798  0.3097 -0.3036
 2437SOL    HW2 7419   4.804   3.815   0.894  0.2702  0.1652 -0.5481
 2438SOL     OW 7420   3.304   4.106   3.764 -0.5596 -0.1279  0.1119
 2438SOL    HW1 7421   3.257   4.190   3.766 -1.8667 -0.8059  2.7400
 2438SOL    HW2 7422   3.392   4.126   3.794  0.1688  0.7515 -2.3960
 2439SOL     OW 7423   0.555   3.973   0.704  0.3229 -0.8158  0.0654
 2439SOL    HW1 7424   0.532   4.019   0.623  0.5138 -0.0118  0.4543
 2439SOL    HW2 7425   0.590   3.889   0.675 -2.1262 -1.6932 -0.5910
 2440SOL     OW 7426   3.128   0.195   0.291  0.4223 -0.2312 -0.2068
 2440SOL    HW1 7427   3.140   0.121   0.231 -0.2627 -1.3341  0.9559
 2440SOL    HW2 7428   3.139   0.273   0.236  2.3905 -1.1604 -1.2312
 2441SOL     OW 7429   4.516   1.807   0.910 -0.3262  0.0245 -0.1277
 2441SOL    HW1 7430   4.434   1.843   0.876  0.5724  0.6328 -1.7721
 2441SOL    HW2 7431   4.535   1.860   0.987 -0.9875  0.5188 -0.2959
 2442SOL     OW 7432   4.206   2.067   0.927 -0.4916  0.2848  0.2677
 2442SOL    HW1 7433   4.215   1.992   0.868  0.4259  1.1416 -0.7384
 2442SOL    HW2 7434   4.142   2.123   0.885 -1.3424 -0.0121  1.1312
 2443SOL     OW 7435   3.658   0.065   2.706  0.3703  0.8005 -0.0618
 2443SOL    HW1 7436   3.707   0.003   2.760 -0.1630 -0.1502 -0.6608
 2443SOL    HW2 7437   3.621   0.127   2.769 -0.2233 -0.2758  0.6772
 2444SOL     OW 7438   0.331   2.917   1.666 -0.3133 -0.3105  0.2220
 2444SOL    HW1 7439   0.311   2.989   1.605  0.7171  1.4914  1.9007
 2444SOL    HW2 7440   0.294   2.840   1.624 -2.2947  1.3232 -1.2701
 2445SOL     OW 7441   1.765   1.177   0.131 -0.1671 -0.3201  0.6695
 2445SOL    HW1 7442   1.764   1.215   0.043  1.8034 -0.8550  0.3525
 2445SOL    HW2 7443   1.701   1.107   0.128 -1.3037  0.7081  0.1829
 2446SOL     OW 7444   0.806   0.994   2.763  0.1239 -0.2305 -0.2366
 2446SOL    HW1 7445   0.724   0.969   2.807 -1.2101  0.5304 -2.1553
 2446SOL    HW2 7446   0.853   1.045   2.828 -1.4641  0.2933  0.5609
 2447SOL     OW 7447   0.835   1.985   0.068 -0.2417  0.4897  0.0996
 2447SOL    HW1 7448   0.741   1.995   0.083 -0.3028 -0.0408  0.1037
 2447SOL    HW2 7449   0.842   1.916   0.003  0.2425 -2.8358  3.3349
 2448SOL     OW 7450   0.806   4.597   2.718 -0.2496 -0.2696  0.3749
 2448SOL    HW1 7451   0.869   4.536   2.680  0.9830  1.1856 -0.0194
 2448SOL    HW2 7452   0.815   4.584   2.813  0.4858 -0.2285  0.3134
 2449SOL     OW 7453   1.109   2.638   3.200  0.7155  0.0978  0.0359
 2449SOL    HW1 7454   1.029   2.630   3.149 -0.2249 -1.0332  1.5980
 2449SOL    HW2 7455   1.094   2.714   3.257  0.6666 -0.2279  0.4629
 2450SOL     OW 7456   0.231   4.681   3.474  0.4571  0.3655 -0.4298
 2450SOL    HW1 7457   0.312   4.706   3.518  0.9326  0.7788 -1.5029
 2450SOL    HW2 7458   0.190   4.618   3.533  0.5716  1.6353  1.0608
 2451SOL     OW 7459   0.041   4.845   3.806 -0.4014  0.1059 -0.4048
 2451SOL    HW1 7460   0.128   4.878   3.785 -0.4921  0.2447 -0.5678
 2451SOL    HW2 7461   0.022   4.882   3.893  0.7117 -1.9168  0.7950
 2452SOL     OW 7462   5.373   0.936   1.279 -0.8620  0.1546  0.0685
 2452SOL    HW1 7463   5.351   0.940   1.372  0.2212  1.1843  0.3087
 2452SOL    HW2 7464   5.292   0.959   1.234 -1.7010 -1.4271  0.6921
 2453SOL     OW 7465   2.827   4.282   0.004 -0.8667 -0.2929  0.6985
 2453SOL    HW1 7466   2.749   4.304   0.056 -0.8366 -0.5924  0.8709
 2453SOL    HW2 7467   2.793   4.264  -0.084 -0.7850  1.4807  0.2619
 2454SOL     OW 7468   5.311   3.346   0.502  0.3930  0.1475 -0.0089
 2454SOL    HW1 7469   5.383   3.291   0.534  0.9890  0.1260 -1.3026
 2454SOL    HW2 7470   5.338   3.369   0.413 -0.6997  1.0549 -0.1125
 2455SOL     OW 7471   2.904   0.222   3.271 -0.7417  0.8454 -0.1975
 2455SOL    HW1 7472   2.827   0.182   3.232 -0.5516 -0.0390  0.3033
 2455SOL    HW2 7473   2.874   0.255   3.356 -0.2227 -1.0287  0.7717
 2456SOL     OW 7474   1.303   2.307   1.763  0.3970 -0.0892  0.0981
 2456SOL    HW1 7475   1.329   2.345   1.679  0.9932  1.7188  1.0450
 2456SOL    HW2 7476   1.311   2.379   1.825 -1.4219 -0.9915  1.4690
 2457SOL     OW 7477   5.226   0.684   3.353 -0.1565  0.3131  0.2186
 2457SOL    HW1 7478   5.168   0.759   3.366 -0.5449 -0.0611  0.6616
 2457SOL    HW2 7479   5.261   0.696   3.264 -0.6011  0.7502  0.0974
 2458SOL     OW 7480   2.579   5.095   3.103 -0.2836  0.6465 -0.0476
 2458SOL    HW1 7481   2.556   5.187   3.087 -2.4504  0.2664  0.4405
 2458SOL    HW2 7482   2.515   5.046   3.051  1.2832 -0.6305 -0.8584
 2459SOL     OW 7483   0.329   0.676   1.477  0.3112  0.0080 -0.2599
 2459SOL    HW1 7484   0.298   0.655   1.389 -1.8557 -2.9429  0.9958
 2459SOL    HW2 7485   0.253   0.660   1.533  1.8590  0.8568  2.2546
 2460SOL     OW 7486   5.342   0.654   0.913 -0.0889 -0.5802  0.4500
 2460SOL    HW1 7487   5.257   0.610   0.918 -0.5644  0.2691  0.0501
 2460SOL    HW2 7488   5.389   0.608   0.844 -1.0714  0.3394 -0.8716
 2461SOL     OW 7489   4.555   3.766   1.555 -0.3759 -0.2815  0.2478
 2461SOL    HW1 7490   4.552   3.839   1.493  1.3913 -0.3354  0.0337
 2461SOL    HW2 7491   4.586   3.692   1.503  2.5721  0.0044  1.3803
 2462SOL     OW 7492   5.401   2.190   3.476 -0.5044 -0.4916  0.1180
 2462SOL    HW1 7493   5.412   2.123   3.407 -0.5047 -0.7591  0.3757
 2462SOL    HW2 7494   5.444   2.152   3.552 -3.3801 -1.6964  1.2603
 2463SOL     OW 7495   0.970   4.045   3.911  0.2242 -0.3343  0.5523
 2463SOL    HW1 7496   0.907   4.108   3.877  1.0849  0.9398  1.2557
 2463SOL    HW2 7497   0.917   3.970   3.938 -0.9681  0.6189  0.9244
 2464SOL     OW 7498   0.611   2.831   1.598  0.5248  0.1483 -0.0420
 2464SOL    HW1 7499   0.525   2.841   1.638  0.8014  0.1518  0.5664
 2464SOL    HW2 7500   0.594   2.826   1.505 -0.2450 -1.0590  0.1481
 2465SOL     OW 7501   1.797   0.741   2.905  0.0365  0.2945  0.7670
 2465SOL    HW1 7502   1.745   0.751   2.985 -1.6212 -0.7453 -0.1260
 2465SOL    HW2 7503   1.867   0.681   2.930 -0.5149 -0.0888  1.4308
 2466SOL     OW 7504   4.702   3.586   1.178 -0.0002 -0.8413 -0.2774
 2466SOL    HW1 7505   4.728   3.576   1.270  1.0609  0.3724 -0.4187
 2466SOL    HW2 7506   4.650   3.666   1.177  0.7041 -0.3744 -0.8509
 2467SOL     OW 7507   1.310   5.091   3.898 -0.4746  0.0995 -0.1906
 2467SOL    HW1 7508   1.386   5.141   3.868  0.1128 -0.5713  0.1348
 2467SOL    HW2 7509   1.273   5.052   3.819  0.4445 -0.8163 -0.1833
 2468SOL     OW 7510   0.548   4.608   2.293 -0.7790 -0.3265 -0.3069
 2468SOL    HW1 7511   0.603   4.677   2.331 -2.2820  0.6693  0.1685
 2468SOL    HW2 7512   0.573   4.529   2.341  0.3819  0.0393 -0.2712
 2469SOL     OW 7513   1.228   1.239   0.249 -0.0374 -0.0431 -0.1655
 2469SOL    HW1 7514   1.252   1.152   0.282 -2.4296 -1.2200 -1.2504
 2469SOL    HW2 7515   1.290   1.298   0.291  2.2911 -2.3434 -0.0750
 2470SOL     OW 7516   1.893   4.551   1.237  0.4696 -0.2414 -0.2987
 2470SOL    HW1 7517   1.843   4.550   1.155 -0.5991 -2.0292  0.3096
 2470SOL    HW2 7518   1.980   4.519   1.213  0.7513  1.0048 -1.0274
 2471SOL     OW 7519   4.793   2.902   3.693  0.1482 -0.5531 -0.3918
 2471SOL    HW1 7520   4.851   2.975   3.713  1.2790 -1.3862 -0.5745
 2471SOL    HW2 7521   4.714   2.919   3.745  0.6599  0.4434  0.0739
 2472SOL     OW 7522   1.760   0.388   3.909 -0.1869 -0.1792 -0.4576
 2472SOL    HW1 7523   1.826   0.338   3.957 -0.4501 -0.1300 -0.0359
 2472SOL    HW2 7524   1.706   0.323   3.865 -0.8461 -0.3036  0.5043
 2473SOL     OW 7525   4.870   4.516   2.756 -0.3470  0.6101  0.2845
 2473SOL    HW1 7526   4.874   4.421   2.756  1.9141  0.6467  1.8554
 2473SOL    HW2 7527   4.799   4.537   2.817 -0.9094 -0.0362 -0.1321
 2474SOL     OW 7528   3.380   3.753   0.825  0.2417  0.2286 -0.0988
 2474SOL    HW1 7529   3.415   3.842   0.832  0.2866  0.1510  0.7295
 2474SOL    HW2 7530   3.420   3.706   0.899 -0.7185 -0.1627  0.1824
 2475SOL     OW 7531   4.345   3.366   0.022  0.5431 -0.3209  0.4921
 2475SOL    HW1 7532   4.422   3.309   0.023 -0.0512 -1.2007 -0.8502
 2475SOL    HW2 7533   4.290   3.331   0.092  0.4247 -1.0849  0.0375
 2476SOL     OW 7534   1.946   2.855   0.089  0.6919  0.0034  0.2280
 2476SOL    HW1 7535   1.916   2.914   0.020  1.1215  0.7880  0.7029
 2476SOL    HW2 7536   1.996   2.787   0.042  1.6558  0.9648 -0.1808
 2477SOL     OW 7537   0.479   0.606   3.257  0.2738  0.7829  0.1858
 2477SOL    HW1 7538   0.478   0.637   3.166 -0.9176  1.4050  0.3860
 2477SOL    HW2 7539   0.419   0.531   3.257  2.8644 -1.4549 -0.2195
 2478SOL     OW 7540   4.462   3.774   1.206  0.3131 -0.2662 -0.1728
 2478SOL    HW1 7541   4.428   3.764   1.117  2.1604  1.5067 -1.1731
 2478SOL    HW2 7542   4.430   3.697   1.253 -2.7536 -0.0535 -1.6638
 2479SOL     OW 7543   4.734   2.432   1.932 -0.0801 -0.1581 -0.1478
 2479SOL    HW1 7544   4.767   2.409   2.018 -0.7865 -3.0388 -0.5552
 2479SOL    HW2 7545   4.812   2.457   1.882  0.3338  1.4631  1.2530
 2480SOL     OW 7546   4.507   5.568   1.786 -0.2713  0.3211 -0.0214
 2480SOL    HW1 7547   4.568   5.494   1.792  0.6061  1.0257 -0.1596
 2480SOL    HW2 7548   4.513   5.610   1.872 -1.2927 -0.1609  0.2989
 2481SOL     OW 7549   3.812   0.983   2.034 -0.2038 -0.3445 -0.6105
 2481SOL    HW1 7550   3.807   0.954   2.125 -0.9455 -1.5327 -0.9991
 2481SOL    HW2 7551   3.900   0.959   2.005 -0.8519 -2.4459 -0.9656
 2482SOL     OW 7552   3.628   0.346   0.968  0.0412 -0.6418 -0.0524
 2482SOL    HW1 7553   3.641   0.339   1.063 -1.2271 -0.1204  0.1816
 2482SOL    HW2 7554   3.550   0.401   0.959 -0.1126 -1.0573 -1.3944
 2483SOL     OW 7555   4.406   3.621   2.647  1.1251 -0.4092  0.6708
 2483SOL    HW1 7556   4.488   3.615   2.597  1.4139  1.7967  0.7688
 2483SOL    HW2 7557   4.342   3.651   2.583  0.5755 -1.3140  0.7875
 2484SOL     OW 7558   2.190   1.606   0.526  0.3163 -0.2096  0.2435
 2484SOL    HW1 7559   2.268   1.575   0.480 -0.9137  0.2332 -2.2741
 2484SOL    HW2 7560   2.116   1.575   0.474 -1.1109  2.0651  0.7635
 2485SOL     OW 7561   3.629   1.448   3.667 -0.2176  0.5047  0.4820
 2485SOL    HW1 7562   3.724   1.440   3.680 -0.5567 -1.6621  2.1386
 2485SOL    HW2 7563   3.607   1.533   3.706  0.7925  0.1722  1.8399
 2486SOL     OW 7564   2.041   1.954   0.847 -0.2609  0.1749  0.6108
 2486SOL    HW1 7565   2.092   1.885   0.890  0.3046  0.6532  0.7285
 2486SOL    HW2 7566   2.095   1.981   0.772 -1.1468 -0.5108 -0.3025
 2487SOL     OW 7567   1.332   3.075   0.979 -0.5070  0.5712 -0.1206
 2487SOL    HW1 7568   1.357   2.985   0.998 -0.0617  0.7532  0.1577
 2487SOL    HW2 7569   1.276   3.068   0.902  0.7980  0.2122 -1.0613
 2488SOL     OW 7570   0.526   1.591   2.839  0.3742  0.6136 -0.0360
 2488SOL    HW1 7571   0.548   1.536   2.764  2.0472  1.5039 -0.2474
 2488SOL    HW2 7572   0.537   1.533   2.915  2.7339  0.7220 -0.2038
 2489SOL     OW 7573   0.479   0.564   2.966  0.0202  0.5976 -0.2636
 2489SOL    HW1 7574   0.408   0.532   2.910  0.2567 -3.4405  1.4314
 2489SOL    HW2 7575   0.556   0.516   2.935  1.2021  1.9487  0.4827
 2490SOL     OW 7576   2.892   3.306   2.765 -0.0189 -0.5649  0.1132
 2490SOL    HW1 7577   2.915   3.219   2.796 -0.5346 -0.9879 -0.6484
 2490SOL    HW2 7578   2.866   3.292   2.674 -2.4742 -0.0142  0.6627
 2491SOL     OW 7579   4.868   3.323   2.741  0.0888 -0.1282 -0.1255
 2491SOL    HW1 7580   4.885   3.409   2.704  0.1249 -0.0195  0.1468
 2491SOL    HW2 7581   4.777   3.325   2.768  0.1093 -0.1527 -0.0532
 2492SOL     OW 7582   2.599   3.284   2.234 -0.2013  0.4352  0.5451
 2492SOL    HW1 7583   2.605   3.189   2.249 -0.7765  0.0074 -1.6620
 2492SOL    HW2 7584   2.550   3.317   2.309 -3.0694 -1.5518 -0.3138
 2493SOL     OW 7585   5.363   2.041   2.768  0.3766 -0.1322 -0.2594
 2493SOL    HW1 7586   5.333   2.131   2.751  1.6930  0.1348 -1.4291
 2493SOL    HW2 7587   5.296   1.985   2.728 -0.4784  0.3178  0.5162
 2494SOL     OW 7588   4.786   0.150   2.723  0.4756 -0.5932 -0.5231
 2494SOL    HW1 7589   4.839   0.087   2.772  0.2931  0.0582  0.5448
 2494SOL    HW2 7590   4.765   0.218   2.787 -1.3070 -0.6315 -1.0022
 2495SOL     OW 7591   4.893   0.058   1.150 -0.0508 -0.1703 -0.0746
 2495SOL    HW1 7592   4.971   0.071   1.205 -0.5367 -0.0480  0.5916
 2495SOL    HW2 7593   4.876  -0.036   1.154 -0.5351 -0.0621  0.6186
 2496SOL     OW 7594   4.535   0.174   0.806 -0.0182 -0.3322 -0.0498
 2496SOL    HW1 7595   4.442   0.172   0.827 -0.1001 -0.4418 -0.4184
 2496SOL    HW2 7596   4.540   0.144   0.715  0.2692  0.7126 -0.3936
 2497SOL     OW 7597   3.548   0.796   1.535  0.5153 -0.3774 -0.1183
 2497SOL    HW1 7598   3.632   0.785   1.580 -0.1584 -2.4210  0.7485
 2497SOL    HW2 7599   3.545   0.724   1.472  0.0923  0.6362 -1.2962
 2498SOL     OW 7600   2.565   3.979   0.629  0.0640 -0.1100 -0.0575
 2498SOL    HW1 7601   2.651   3.941   0.645  0.3260  1.0957  1.7323
 2498SOL    HW2 7602   2.530   3.931   0.554  2.5790 -0.1457 -1.2963
 2499SOL     OW 7603   3.498   4.720   2.039  0.2838 -0.1408  0.1565
 2499SOL    HW1 7604   3.490   4.632   2.003 -0.2818 -0.2830  0.6119
 2499SOL    HW2 7605   3.424   4.728   2.099 -0.4355  1.1289 -0.8708
 2500SOL     OW 7606   4.125   3.039   3.507 -0.3516 -0.9975 -0.1435
 2500SOL    HW1 7607   4.063   2.968   3.527 -1.8505  0.0967 -0.7359
 2500SOL    HW2 7608   4.070   3.116   3.494  1.2700  0.4084  0.9159
 2501SOL     OW 7609   0.961   0.045   0.727 -0.2419 -0.4052  0.5725
 2501SOL    HW1 7610   0.965   0.139   0.741 -0.7431 -0.4907  1.3728
 2501SOL    HW2 7611   0.989   0.007   0.811 -0.0684 -0.9709  0.2681
 2502SOL     OW 7612   4.296   3.842   2.243 -0.0271  0.4436  0.5126
 2502SOL    HW1 7613   4.305   3.807   2.155  1.3230 -2.2675  1.6041
 2502SOL    HW2 7614   4.383   3.874   2.266  0.2370 -0.8924  1.5583
 2503SOL     OW 7615   2.648   0.681   3.608 -0.1387  0.2304 -0.5586
 2503SOL    HW1 7616   2.707   0.755   3.600 -0.6685  0.5689 -1.5503
 2503SOL    HW2 7617   2.691   0.622   3.670  1.7456  0.0027 -1.9785
 2504SOL     OW 7618   0.047   2.911   0.124  0.0580  0.4145  0.3713
 2504SOL    HW1 7619   0.014   2.955   0.202  0.7994 -0.1222  0.9978
 2504SOL    HW2 7620   0.031   2.818   0.140  0.9951  0.2273  0.2734
 2505SOL     OW 7621   0.566   0.355   0.420 -0.0676  0.1440  0.0285
 2505SOL    HW1 7622   0.570   0.435   0.472 -0.3165  0.9019 -1.0841
 2505SOL    HW2 7623   0.617   0.291   0.471  0.5952  1.1557  0.6769
 2506SOL     OW 7624   1.828   4.540   0.119 -0.2337  0.3219 -0.1799
 2506SOL    HW1 7625   1.744   4.557   0.163 -0.3119  0.3560 -0.3396
 2506SOL    HW2 7626   1.817   4.579   0.032 -0.5476 -0.8530 -0.6939
 2507SOL     OW 7627   4.560   3.969   0.476 -0.7471 -0.2897 -0.0723
 2507SOL    HW1 7628   4.633   3.986   0.535 -1.2192 -1.6756  0.9538
 2507SOL    HW2 7629   4.601   3.948   0.392 -0.0757  2.0066 -0.3821
 2508SOL     OW 7630   5.474   2.484   1.739 -0.9005  0.3594 -0.5437
 2508SOL    HW1 7631   5.555   2.458   1.783 -1.4778  0.7431  0.8134
 2508SOL    HW2 7632   5.503   2.528   1.659  0.2112  0.0983 -0.3041
 2509SOL     OW 7633   3.305   5.178   1.279 -0.2427  0.3522  0.2994
 2509SOL    HW1 7634   3.272   5.178   1.369 -0.4119 -0.0402  0.2359
 2509SOL    HW2 7635   3.239   5.131   1.229 -1.0869  2.1538 -0.3676
 2510SOL     OW 7636   1.697   2.734   0.355  0.8683  0.2020  0.2636
 2510SOL    HW1 7637   1.675   2.773   0.271  0.1373  1.4581  1.0113
 2510SOL    HW2 7638   1.691   2.639   0.340 -2.5826  0.3817 -0.2601
 2511SOL     OW 7639   3.295   2.528   2.800 -0.3895  0.0981 -0.1996
 2511SOL    HW1 7640   3.278   2.470   2.725 -1.8607  1.4374 -0.9415
 2511SOL    HW2 7641   3.258   2.481   2.875 -0.9197 -0.2462 -0.6660
 2512SOL     OW 7642   0.030   0.979   1.103 -0.0087 -0.1670 -0.6471
 2512SOL    HW1 7643  -0.043   0.986   1.164 -0.2307  1.2799 -1.0521
 2512SOL    HW2 7644   0.051   1.069   1.079  0.4147 -0.6622 -2.3034
 2513SOL     OW 7645   2.387   0.386   0.859  0.2592 -0.1218  0.0296
 2513SOL    HW1 7646   2.425   0.424   0.780  2.0578  0.9469  1.3312
 2513SOL    HW2 7647   2.366   0.462   0.914 -1.3156 -0.8250  0.4446
 2514SOL     OW 7648   2.589   3.306   1.052  0.2782  0.2834 -0.2519
 2514SOL    HW1 7649   2.502   3.269   1.061  0.1336  0.3923 -1.1418
 2514SOL    HW2 7650   2.643   3.233   1.021 -0.0750  0.8379 -2.3268
 2515SOL     OW 7651   4.416   5.378   3.450 -0.0378  0.1362 -0.1187
 2515SOL    HW1 7652   4.413   5.437   3.375 -0.2972  0.8994  0.4910
 2515SOL    HW2 7653   4.420   5.435   3.526 -0.1917 -0.6317  0.4758
 2516SOL     OW 7654   4.301   1.632   3.440 -0.2809  0.7261  0.1327
 2516SOL    HW1 7655   4.382   1.676   3.415  0.4640  0.0765  1.2845
 2516SOL    HW2 7656   4.309   1.620   3.535 -1.1580 -0.4509  0.0788
 2517SOL     OW 7657   4.682   5.003   1.920  0.7766 -0.3009  0.1556
 2517SOL    HW1 7658   4.653   5.083   1.964 -1.1636 -1.1651  0.5601
 2517SOL    HW2 7659   4.741   5.033   1.851 -1.3008  1.6930 -0.8980
 2518SOL     OW 7660   3.821   0.342   0.730 -0.0986  0.4294 -0.6697
 2518SOL    HW1 7661   3.810   0.346   0.825 -3.1756 -2.7398 -0.6852
 2518SOL    HW2 7662   3.804   0.432   0.700  1.1168  1.5272  1.7179
 2519SOL     OW 7663   0.233   4.065   0.566 -0.0592 -0.2347 -0.0444
 2519SOL    HW1 7664   0.219   4.091   0.475 -0.0941 -0.5245 -0.1227
 2519SOL    HW2 7665   0.202   3.974   0.571 -0.7726  0.0253  0.4374
 2520SOL     OW 7666   2.438   0.094   1.799 -0.1634  0.2524  0.0623
 2520SOL    HW1 7667   2.464   0.186   1.795  3.1281 -0.5828 -0.8737
 2520SOL    HW2 7668   2.477   0.054   1.721 -0.9745 -2.0753  0.7472
 2521SOL     OW 7669   0.641   2.748   3.255  0.3136 -0.6905  0.2830
 2521SOL    HW1 7670   0.562   2.694   3.261  0.7529 -1.2936  0.7254
 2521SOL    HW2 7671   0.708   2.688   3.221  0.6946 -0.2972  0.3382
 2522SOL     OW 7672   3.942   0.521   0.204 -0.0941 -0.2716  0.4064
 2522SOL    HW1 7673   4.004   0.449   0.222  0.8123  0.5102  0.5228
 2522SOL    HW2 7674   3.918   0.553   0.291  2.0111  1.6135  0.3771
 2523SOL     OW 7675   3.931   3.339   2.857 -0.0501  0.1876 -0.3195
 2523SOL    HW1 7676   3.857   3.398   2.864  1.0782  1.9561 -2.1849
 2523SOL    HW2 7677   3.981   3.353   2.938  1.1390  3.2827 -1.4332
 2524SOL     OW 7678   4.193   1.187   2.810 -0.1954 -0.2010 -0.4849
 2524SOL    HW1 7679   4.170   1.242   2.735  0.8650 -0.2033 -0.8400
 2524SOL    HW2 7680   4.283   1.160   2.792 -0.9039 -2.6668 -0.6900
 2525SOL     OW 7681   4.353   0.989   3.515  0.4962  0.0022  0.3125
 2525SOL    HW1 7682   4.291   0.919   3.492  0.1087  0.4744 -0.1016
 2525SOL    HW2 7683   4.383   0.965   3.603 -0.3367 -0.1968  0.5592
 2526SOL     OW 7684   4.264   2.062   2.472 -0.3506  0.3630  0.3302
 2526SOL    HW1 7685   4.199   2.009   2.517 -0.0391  1.3427  2.0305
 2526SOL    HW2 7686   4.278   2.137   2.530 -0.1060  1.8448 -1.5351
 2527SOL     OW 7687   4.507   1.500   2.296  0.2529 -0.1735 -0.6582
 2527SOL    HW1 7688   4.447   1.516   2.369  1.1122  0.9041 -0.1535
 2527SOL    HW2 7689   4.591   1.535   2.327  1.2654 -2.0508 -1.1718
 2528SOL     OW 7690   4.124   1.510   1.135 -0.2361  0.1794  0.0059
 2528SOL    HW1 7691   4.079   1.447   1.191  0.2004 -0.7984 -0.7218
 2528SOL    HW2 7692   4.052   1.557   1.091 -0.5698  0.6084  0.9714
 2529SOL     OW 7693   2.298   2.618   0.277  0.0525 -0.4208  0.2936
 2529SOL    HW1 7694   2.250   2.554   0.224  0.1317  0.3431 -0.7394
 2529SOL    HW2 7695   2.299   2.581   0.365  0.4555 -2.0411 -0.3569
 2530SOL     OW 7696   4.257   2.096   0.378  0.0299  0.0022  0.1607
 2530SOL    HW1 7697   4.198   2.074   0.305  0.7336 -0.9374 -0.1413
 2530SOL    HW2 7698   4.244   2.190   0.391  1.3970  0.6956 -2.5776
 2531SOL     OW 7699   2.989   3.520   1.923 -0.0025 -0.0709 -0.0067
 2531SOL    HW1 7700   3.066   3.575   1.910 -0.4948  0.4128 -0.9850
 2531SOL    HW2 7701   2.946   3.519   1.837 -1.7235  0.6538  0.8040
 2532SOL     OW 7702   1.277   3.890   3.141  0.5061  0.0688 -0.1717
 2532SOL    HW1 7703   1.282   3.957   3.209 -1.2350 -0.0659  0.1418
 2532SOL    HW2 7704   1.225   3.820   3.180  0.1255 -0.3431 -1.3692
 2533SOL     OW 7705   1.790   5.306   3.458  0.4497 -0.0800 -0.6274
 2533SOL    HW1 7706   1.815   5.214   3.456  0.0821 -0.2065  0.1246
 2533SOL    HW2 7707   1.868   5.354   3.431  0.6091 -0.6143 -1.1313
 2534SOL     OW 7708   4.394   0.012   3.000 -0.0116  0.2765 -0.5003
 2534SOL    HW1 7709   4.426   0.053   2.920 -0.0039 -0.2544 -0.7673
 2534SOL    HW2 7710   4.462  -0.051   3.024  0.3147  0.9125  0.3071
 2535SOL     OW 7711   4.298   4.545   2.676  0.2821 -0.3327  0.2147
 2535SOL    HW1 7712   4.355   4.472   2.700 -0.1749 -0.7839 -0.0503
 2535SOL    HW2 7713   4.234   4.550   2.748 -0.3562 -0.9123 -0.2982
 2536SOL     OW 7714   5.291   3.825   3.135  0.3141  0.1980  0.0597
 2536SOL    HW1 7715   5.203   3.815   3.099  1.0625 -1.1584 -1.5110
 2536SOL    HW2 7716   5.297   3.755   3.201  0.4624 -0.2213 -0.3892
 2537SOL     OW 7717   0.017   3.441   2.399 -0.2021 -0.3649 -0.4296
 2537SOL    HW1 7718  -0.006   3.409   2.486 -0.5091  0.8223 -0.0667
 2537SOL    HW2 7719   0.054   3.364   2.355  0.3199 -0.8874  0.8673
 2538SOL     OW 7720   2.140   0.836   3.234  0.2373  0.9332  0.0075
 2538SOL    HW1 7721   2.118   0.918   3.278 -0.8700  0.3302  0.6133
 2538SOL    HW2 7722   2.210   0.798   3.288 -2.0174 -0.4661  2.1859
 2539SOL     OW 7723   0.887   0.088   0.111  0.3879 -0.2450 -0.2751
 2539SOL    HW1 7724   0.793   0.094   0.122  0.1759 -1.7511 -0.9488
 2539SOL    HW2 7725   0.924   0.126   0.191 -0.8568 -2.2909  1.3666
 2540SOL     OW 7726   4.981   0.470   3.613  0.1850  0.1312 -0.0408
 2540SOL    HW1 7727   4.959   0.553   3.654 -0.3959 -0.2046  0.3482
 2540SOL    HW2 7728   4.904   0.448   3.560  0.8805  0.5036 -1.2409
 2541SOL     OW 7729   1.889   3.699   1.079  0.1205 -0.1605  0.1532
 2541SOL    HW1 7730   1.819   3.679   1.140 -0.4302 -2.5176 -1.1471
 2541SOL    HW2 7731   1.857   3.775   1.030 -0.9708 -0.4311  0.4299
 2542SOL     OW 7732   1.032   3.394   2.340 -0.1757 -0.3110  0.3620
 2542SOL    HW1 7733   1.098   3.440   2.287 -0.7279  0.7527  0.5662
 2542SOL    HW2 7734   1.083   3.335   2.395  0.6773  0.8559  0.8814
 2543SOL     OW 7735   3.869   0.673   2.024  0.2166  0.1921 -0.4111
 2543SOL    HW1 7736   3.911   0.659   1.938  1.2814  1.5049 -0.1432
 2543SOL    HW2 7737   3.899   0.599   2.077 -1.1736 -1.1343 -1.3891
 2544SOL     OW 7738   2.344   3.569   2.053 -0.1879 -0.6087 -0.2927
 2544SOL    HW1 7739   2.332   3.650   2.104 -1.5141 -0.8924 -0.1263
 2544SOL    HW2 7740   2.439   3.557   2.050 -0.0390 -0.0155  1.2221
 2545SOL     OW 7741   1.817   1.584   2.223 -0.4170 -0.3340  0.3244
 2545SOL    HW1 7742   1.817   1.488   2.222  0.0731 -0.3387 -0.3116
 2545SOL    HW2 7743   1.738   1.608   2.270 -0.8795 -1.0507 -0.0703
 2546SOL     OW 7744   5.395   2.464   2.469 -0.7927 -0.0682 -0.1268
 2546SOL    HW1 7745   5.372   2.372   2.461 -0.5706 -0.2231  0.9242
 2546SOL    HW2 7746   5.463   2.478   2.402 -0.4247 -0.7988  0.0887
 2547SOL     OW 7747   4.453   4.528   1.625  0.0497  0.3975  0.1733
 2547SOL    HW1 7748   4.361   4.539   1.647 -0.5108  0.1622 -1.8651
 2547SOL    HW2 7749   4.475   4.608   1.576  0.7434  0.1549  0.0801
 2548SOL     OW 7750   3.014   2.694   2.603  0.4696 -0.3397 -0.2263
 2548SOL    HW1 7751   2.996   2.629   2.535  1.2475 -1.0961  0.2587
 2548SOL    HW2 7752   3.067   2.761   2.560  1.0736 -0.8847 -0.3517
 2549SOL     OW 7753   4.037   2.905   1.824  0.2765  0.3856 -0.1401
 2549SOL    HW1 7754   3.957   2.863   1.857 -0.0627  0.6511 -0.6275
 2549SOL    HW2 7755   4.108   2.851   1.861 -0.1586 -1.8872 -2.3384
 2550SOL     OW 7756   2.636   2.510   2.425 -0.3149 -0.2779  0.2335
 2550SOL    HW1 7757   2.730   2.511   2.445 -0.0783 -0.0680 -0.7983
 2550SOL    HW2 7758   2.624   2.432   2.370 -0.1412  1.2588 -2.1573
 2551SOL     OW 7759   4.500   1.870   2.483 -0.0830 -0.2258 -0.0338
 2551SOL    HW1 7760   4.483   1.832   2.569 -0.4085  1.5294  0.7283
 2551SOL    HW2 7761   4.438   1.943   2.476  3.0451  2.7099  0.3474
 2552SOL     OW 7762   3.888   2.309   2.464  0.6504 -0.3155  0.7438
 2552SOL    HW1 7763   3.873   2.333   2.555 -0.2313  1.6330  0.1390
 2552SOL    HW2 7764   3.805   2.270   2.435  0.8078 -0.6011  0.6737
 2553SOL     OW 7765   3.228   4.912   2.542 -0.0411 -0.1991  0.4004
 2553SOL    HW1 7766   3.144   4.898   2.499  0.2610 -1.6852  0.2417
 2553SOL    HW2 7767   3.207   4.926   2.634 -0.5175  0.4557  0.1972
 2554SOL     OW 7768   2.195   1.226   0.435  0.1023  0.4822 -0.0714
 2554SOL    HW1 7769   2.136   1.175   0.379  0.0925 -2.6037  2.4983
 2554SOL    HW2 7770   2.282   1.193   0.415  0.0948 -0.6868  1.6395
 2555SOL     OW 7771   2.821   1.948   0.615 -0.4259  0.0251  0.6049
 2555SOL    HW1 7772   2.753   1.880   0.610  0.1461 -0.5201  0.1364
 2555SOL    HW2 7773   2.804   2.005   0.540 -0.4154 -0.0550  0.5424
 2556SOL     OW 7774   3.044   1.156   0.797 -0.3990  0.3000  0.4232
 2556SOL    HW1 7775   3.077   1.245   0.798  3.2076 -0.7898 -1.5270
 2556SOL    HW2 7776   3.103   1.107   0.855  1.2547 -1.6329 -2.5949
 2557SOL     OW 7777   2.403   0.884   2.538  0.0979  0.0478 -0.5510
 2557SOL    HW1 7778   2.462   0.887   2.613  0.6912  1.5763 -1.0278
 2557SOL    HW2 7779   2.339   0.953   2.555  0.7203  0.9879 -1.7657
 2558SOL     OW 7780   2.599   4.480   3.615  0.1213  0.7270 -0.2386
 2558SOL    HW1 7781   2.631   4.498   3.526 -0.0336  0.5747 -0.3253
 2558SOL    HW2 7782   2.514   4.525   3.619 -1.2355 -1.5898 -1.1310
 2559SOL     OW 7783   3.413   4.548   0.137  0.2830 -0.1636  0.4847
 2559SOL    HW1 7784   3.502   4.553   0.102  0.7101 -1.1072  1.3823
 2559SOL    HW2 7785   3.374   4.472   0.093 -0.1839  0.4128 -0.1139
 2560SOL     OW 7786   0.135   0.727   2.018  0.0985  0.1091 -0.2911
 2560SOL    HW1 7787   0.050   0.747   1.980  0.2369 -2.1731 -2.0257
 2560SOL    HW2 7788   0.116   0.675   2.096 -0.1644 -1.3176 -1.2570
 2561SOL     OW 7789   1.222   2.195   1.333  0.3520  0.2188 -0.1571
 2561SOL    HW1 7790   1.281   2.133   1.376  1.4972  0.0205 -1.8920
 2561SOL    HW2 7791   1.209   2.158   1.246 -1.9231  0.5712 -0.0345
 2562SOL     OW 7792   5.037   5.085   0.873  0.3243  0.2892  0.7655
 2562SOL    HW1 7793   5.002   5.163   0.831  2.7811  0.0449 -2.0759
 2562SOL    HW2 7794   4.960   5.030   0.889 -1.0564  1.6528 -0.8209
 2563SOL     OW 7795   4.325   4.416   3.452  0.4629  0.5903  0.1488
 2563SOL    HW1 7796   4.235   4.412   3.419  0.4344  1.0057  0.1626
 2563SOL    HW2 7797   4.339   4.509   3.471  1.6602  0.9198 -1.9797
 2564SOL     OW 7798   4.350   1.271   3.500 -0.2272 -0.0021 -0.1180
 2564SOL    HW1 7799   4.284   1.306   3.440 -1.4759 -0.1302  1.1055
 2564SOL    HW2 7800   4.333   1.177   3.502  1.4752 -0.3879 -1.4648
 2565SOL     OW 7801   3.197   0.377   0.976 -0.5987  0.0440  0.0450
 2565SOL    HW1 7802   3.106   0.395   0.949 -0.8934  0.1969  1.1213
 2565SOL    HW2 7803   3.248   0.447   0.934 -0.6854 -1.0993 -2.1253
 2566SOL     OW 7804   1.301   3.105   2.061  0.2421 -0.0349 -0.0248
 2566SOL    HW1 7805   1.358   3.174   2.095  0.8072 -0.7959  0.6424
 2566SOL    HW2 7806   1.214   3.144   2.058  0.3237  0.3509  1.5088
 2567SOL     OW 7807   5.024   5.032   2.952  0.1254  0.0999 -0.1764
 2567SOL    HW1 7808   5.119   5.024   2.953  0.1606  0.4657 -0.3820
 2567SOL    HW2 7809   4.997   4.997   2.868  0.1575  0.7924 -0.4824
 2568SOL     OW 7810   3.822   0.381   2.417 -0.2839 -0.1533 -0.0412
 2568SOL    HW1 7811   3.850   0.310   2.359  0.3532 -0.0674  0.1482
 2568SOL    HW2 7812   3.831   0.460   2.364  1.2436  0.0373  0.4576
 2569SOL     OW 7813   4.033   4.989   1.233  0.2197 -0.3031  0.0925
 2569SOL    HW1 7814   4.119   4.998   1.276  0.4323 -1.6064 -0.0186
 2569SOL    HW2 7815   3.974   4.961   1.303 -0.3940  1.6915  0.4148
 2570SOL     OW 7816   2.348   4.922   0.875  1.1907  0.4525 -0.4106
 2570SOL    HW1 7817   2.267   4.934   0.826  0.8623  1.3446  0.3269
 2570SOL    HW2 7818   2.320   4.908   0.965  1.7836 -1.2602 -0.4580
 2571SOL     OW 7819   2.146   3.390   0.384  0.0390 -0.2073  0.1202
 2571SOL    HW1 7820   2.233   3.365   0.415  0.2349  1.2394  0.8133
 2571SOL    HW2 7821   2.088   3.372   0.457 -0.1293 -0.4684 -0.0763
 2572SOL     OW 7822   1.385   1.827   2.612  0.1254 -0.0152 -0.8247
 2572SOL    HW1 7823   1.442   1.763   2.654 -1.4428 -1.7019 -1.1697
 2572SOL    HW2 7824   1.349   1.878   2.685 -0.1456 -0.8613 -0.3485
 2573SOL     OW 7825   3.203   2.407   3.858  0.1137  0.4758  0.2294
 2573SOL    HW1 7826   3.214   2.367   3.944  1.4704  0.1565 -0.0602
 2573SOL    HW2 7827   3.204   2.333   3.797  0.1172  0.7683 -0.1285
 2574SOL     OW 7828   4.797   5.061   0.286 -0.0265 -0.5496  0.2030
 2574SOL    HW1 7829   4.820   4.981   0.335 -1.5405 -1.4477 -0.4633
 2574SOL    HW2 7830   4.728   5.102   0.339  1.0129  0.5516  0.7367
 2575SOL     OW 7831   4.744   1.213   1.545  0.5666  0.2737 -0.0248
 2575SOL    HW1 7832   4.676   1.163   1.592  1.6229  0.3220  1.6272
 2575SOL    HW2 7833   4.700   1.243   1.465 -1.3550  0.3114  0.9846
 2576SOL     OW 7834   3.759   1.115   3.759 -0.4368 -0.1926  0.1287
 2576SOL    HW1 7835   3.795   1.041   3.808 -1.3678  0.1543  1.4006
 2576SOL    HW2 7836   3.830   1.143   3.702  0.4966 -1.0031  0.8510
 2577SOL     OW 7837   4.520   3.845   3.060  0.0889  0.0404 -0.3689
 2577SOL    HW1 7838   4.520   3.874   2.969  1.1756  1.6128  0.0872
 2577SOL    HW2 7839   4.428   3.851   3.087  0.0659  1.7727 -0.7238
 2578SOL     OW 7840   1.944   2.360   3.428 -0.2999 -0.6399 -0.6113
 2578SOL    HW1 7841   1.855   2.340   3.399  0.1990 -1.4305 -1.6562
 2578SOL    HW2 7842   2.000   2.299   3.380  0.8598  0.1791 -0.3632
 2579SOL     OW 7843   2.865   1.530   1.260  0.2496  0.2080 -0.3521
 2579SOL    HW1 7844   2.777   1.557   1.288 -0.9113 -0.2050 -3.2668
 2579SOL    HW2 7845   2.919   1.607   1.278 -1.3797  1.6690 -1.3589
 2580SOL     OW 7846   4.497   4.792   0.171  0.2543 -0.2591  0.2775
 2580SOL    HW1 7847   4.571   4.792   0.110  0.3117 -0.9964  0.3419
 2580SOL    HW2 7848   4.428   4.746   0.124 -0.0907  0.2087  0.3173
 2581SOL     OW 7849   2.533   0.034   1.120 -0.6862  0.1295  0.6740
 2581SOL    HW1 7850   2.511  -0.008   1.203 -0.3942  0.1550  0.7651
 2581SOL    HW2 7851   2.598  -0.024   1.080 -1.6099 -0.4444 -0.0348
 2582SOL     OW 7852   2.520   3.424   1.763  0.1841 -0.4853 -0.6936
 2582SOL    HW1 7853   2.546   3.504   1.809 -0.8657 -0.8910  0.6926
 2582SOL    HW2 7854   2.547   3.353   1.821  1.0259 -1.1546 -1.8668
 2583SOL     OW 7855   4.126   3.767   2.833 -0.4544  0.3715  0.2163
 2583SOL    HW1 7856   4.059   3.725   2.888 -0.6082 -1.8397 -1.5046
 2583SOL    HW2 7857   4.080   3.841   2.794 -1.0236  0.5883  1.2300
 2584SOL     OW 7858   0.586   2.393   2.508 -0.3048  0.1776 -0.5531
 2584SOL    HW1 7859   0.540   2.312   2.485  0.3889 -0.6209  0.7712
 2584SOL    HW2 7860   0.660   2.395   2.448 -0.0796 -0.4080 -0.3052
 2585SOL     OW 7861   1.059   5.049   3.232  0.3905  0.6130 -0.0836
 2585SOL    HW1 7862   1.108   5.130   3.214 -0.4536  0.9362 -0.9954
 2585SOL    HW2 7863   0.974   5.079   3.264  0.8927  0.0485  1.8675
 2586SOL     OW 7864   5.364   1.828   3.583  0.1029  0.1026 -0.0118
 2586SOL    HW1 7865   5.417   1.828   3.503 -0.7955  0.5784 -0.6298
 2586SOL    HW2 7866   5.345   1.736   3.599  3.5247 -0.4256  1.9161
 2587SOL     OW 7867   0.871   0.280   0.314  0.9078  0.4417  0.5074
 2587SOL    HW1 7868   0.906   0.256   0.400 -0.8857  3.0288  2.1134
 2587SOL    HW2 7869   0.838   0.369   0.326 -1.1259  0.1940 -2.3519
 2588SOL     OW 7870   1.611   3.464   3.784  0.1966  0.6757 -0.0213
 2588SOL    HW1 7871   1.699   3.428   3.782  0.4436  1.2780 -0.0633
 2588SOL    HW2 7872   1.602   3.512   3.702 -0.5163 -0.1799 -0.4654
 2589SOL     OW 7873   2.387   1.937   2.171 -0.1056  0.5159  0.2026
 2589SOL    HW1 7874   2.301   1.980   2.173  0.4438  1.6206  0.6900
 2589SOL    HW2 7875   2.425   1.955   2.257  0.8069  0.4427 -0.1730
 2590SOL     OW 7876   2.980   0.686   1.003  0.3003 -0.1045 -0.4501
 2590SOL    HW1 7877   2.942   0.771   1.026 -1.2779 -0.7601 -0.5290
 2590SOL    HW2 7878   2.956   0.628   1.075  1.6237 -0.4523 -0.2514
 2591SOL     OW 7879   1.653   4.229   0.577  0.5453  0.9208  0.4516
 2591SOL    HW1 7880   1.642   4.299   0.641 -1.7970  0.7108  0.3677
 2591SOL    HW2 7881   1.599   4.257   0.502  1.1640 -0.0591 -0.3859
 2592SOL     OW 7882   4.174   1.918   3.692 -0.3216  0.0523  0.6955
 2592SOL    HW1 7883   4.263   1.938   3.720 -0.4123  1.3841  0.1036
 2592SOL    HW2 7884   4.146   1.995   3.642 -1.7201 -0.4423  0.6588
 2593SOL     OW 7885   4.691   5.187   0.673 -0.0150 -0.1655  0.5449
 2593SOL    HW1 7886   4.765   5.224   0.721 -0.0486  1.5799 -0.6740
 2593SOL    HW2 7887   4.618   5.191   0.735  0.8331 -1.8254  1.7253
 2594SOL     OW 7888   1.611   4.809   3.943  0.2109  0.1309 -0.8374
 2594SOL    HW1 7889   1.677   4.740   3.953  1.2615  1.3036  0.8314
 2594SOL    HW2 7890   1.638   4.857   3.865  0.8339  0.0545 -0.6739
 2595SOL     OW 7891   0.601   1.928   2.876 -0.1218  0.6768 -0.3935
 2595SOL    HW1 7892   0.527   1.951   2.932  0.5475 -2.2663  1.9540
 2595SOL    HW2 7893   0.591   1.835   2.858  2.0716  0.5730 -1.5108
 2596SOL     OW 7894   4.734   3.035   0.105 -0.2125 -0.0225 -0.5461
 2596SOL    HW1 7895   4.775   3.079   0.179  0.6763 -1.0618 -0.4016
 2596SOL    HW2 7896   4.695   2.956   0.142 -0.0250 -0.3981 -1.1256
 2597SOL     OW 7897   1.017   0.703   1.301  0.2808 -0.0969 -0.1970
 2597SOL    HW1 7898   1.087   0.767   1.308  1.6675 -1.5016 -0.7102
 2597SOL    HW2 7899   0.938   0.750   1.329  1.9098  0.5972  3.9461
 2598SOL     OW 7900   0.201   1.084   1.542  0.0775  0.5700  0.2792
 2598SOL    HW1 7901   0.292   1.085   1.573  0.3140 -0.0109 -0.3772
 2598SOL    HW2 7902   0.168   0.998   1.568 -0.2243  0.7029  0.3381
 2599SOL     OW 7903   5.505   1.263   2.587 -0.1046 -0.1215 -0.4861
 2599SOL    HW1 7904   5.439   1.204   2.551  2.0867 -2.0776 -1.6009
 2599SOL    HW2 7905   5.563   1.206   2.638  0.9585  1.4330  0.1185
 2600SOL     OW 7906   2.800   3.846   0.698  0.1487 -0.3917  0.4885
 2600SOL    HW1 7907   2.754   3.784   0.753  0.2937 -0.1000  0.9416
 2600SOL    HW2 7908   2.893   3.825   0.712  0.2132  0.2104  0.9820
 2601SOL     OW 7909   2.385   0.772   3.775 -0.2685  0.0129  0.7540
 2601SOL    HW1 7910   2.359   0.680   3.780 -1.5885  0.3634  0.6716
 2601SOL    HW2 7911   2.432   0.779   3.692  0.0551 -0.6249  0.8755
 2602SOL     OW 7912   0.510   2.642   3.912 -0.0295 -0.6934 -0.2026
 2602SOL    HW1 7913   0.481   2.589   3.986  0.0643  0.0249  0.3616
 2602SOL    HW2 7914   0.557   2.715   3.952  0.4332 -0.5431 -0.9937
 2603SOL     OW 7915   2.320   4.757   2.653 -0.7640 -0.3563  0.5639
 2603SOL    HW1 7916   2.281   4.835   2.693 -0.2485 -0.0584  0.4936
 2603SOL    HW2 7917   2.405   4.787   2.621  0.3266 -1.4060  2.2921
 2604SOL     OW 7918   2.313   0.628   2.516  0.6075 -0.4007  0.5493
 2604SOL    HW1 7919   2.339   0.714   2.550  1.2522  0.0869 -1.1188
 2604SOL    HW2 7920   2.226   0.642   2.478  0.4534 -0.6379  0.8072
 2605SOL     OW 7921   5.273   0.771   0.593 -0.1672  0.1297  0.6136
 2605SOL    HW1 7922   5.303   0.701   0.651 -0.5225 -0.4111  0.1461
 2605SOL    HW2 7923   5.231   0.834   0.651  1.5215  0.7190  1.2404
 2606SOL     OW 7924   2.855   5.241   1.890  0.9046  0.1930 -0.3339
 2606SOL    HW1 7925   2.826   5.321   1.846 -2.2221 -0.3615  0.4922
 2606SOL    HW2 7926   2.902   5.271   1.967 -0.1419  1.2389 -0.0930
 2607SOL     OW 7927   3.367   3.568   3.883  0.2085 -0.0744  0.6582
 2607SOL    HW1 7928   3.319   3.487   3.898  0.2302 -0.5143 -1.2933
 2607SOL    HW2 7929   3.444   3.561   3.940  1.7348 -2.8658 -1.4283
 2608SOL     OW 7930   4.466   1.443   3.212  0.1544 -0.7725 -0.7194
 2608SOL    HW1 7931   4.396   1.452   3.277  1.9896 -0.9282  1.3925
 2608SOL    HW2 7932   4.420   1.421   3.131 -2.4035  1.2131  0.0386
 2609SOL     OW 7933   5.119   0.644   2.851  0.1526  0.3373 -0.4887
 2609SOL    HW1 7934   5.155   0.563   2.816 -2.1273 -0.2675 -1.5967
 2609SOL    HW2 7935   5.183   0.711   2.827  2.3890 -1.1415  0.9796
 2610SOL     OW 7936   2.818   1.629   1.772 -0.0606 -0.2676 -0.1214
 2610SOL    HW1 7937   2.853   1.570   1.705 -0.5122 -0.5542 -0.1116
 2610SOL    HW2 7938   2.877   1.704   1.771  0.5957 -0.7754 -0.0499
 2611SOL     OW 7939   5.406   3.176   3.720 -0.2657 -0.2312  0.3454
 2611SOL    HW1 7940   5.425   3.234   3.646 -1.6262 -1.6896 -1.2347
 2611SOL    HW2 7941   5.388   3.091   3.680 -0.3064 -1.2753  2.4323
 2612SOL     OW 7942   0.370   2.762   2.961  0.5253 -0.7315  0.2111
 2612SOL    HW1 7943   0.397   2.670   2.973  3.3843 -0.2106 -1.2014
 2612SOL    HW2 7944   0.323   2.762   2.878 -1.1611 -1.1355  1.1112
 2613SOL     OW 7945   0.253   3.815   1.024 -0.4537 -0.4702 -0.2199
 2613SOL    HW1 7946   0.287   3.902   1.045 -0.2708 -0.8115  0.9256
 2613SOL    HW2 7947   0.226   3.778   1.108 -2.7822 -0.6020 -0.9523
 2614SOL     OW 7948   2.404   0.577   2.938  0.2500 -0.9209  0.2803
 2614SOL    HW1 7949   2.385   0.483   2.934  1.3823 -1.1127 -1.6651
 2614SOL    HW2 7950   2.333   0.618   2.890  1.4948 -1.1295 -1.8508
 2615SOL     OW 7951   5.224   1.627   1.372 -0.3417 -0.0753  0.3551
 2615SOL    HW1 7952   5.185   1.713   1.381 -0.7063 -0.3573  1.8578
 2615SOL    HW2 7953   5.205   1.600   1.282  1.3390  2.1132 -0.7614
 2616SOL     OW 7954   1.652   3.098   3.746 -0.2364 -0.2987 -0.0592
 2616SOL    HW1 7955   1.718   3.164   3.725  1.6420 -2.0698 -0.0229
 2616SOL    HW2 7956   1.577   3.122   3.691  1.0225  0.8265 -1.3979
 2617SOL     OW 7957   0.100   3.225   2.228  0.3520  0.1171 -0.1719
 2617SOL    HW1 7958   0.183   3.182   2.249  0.1063 -0.1048  0.3612
 2617SOL    HW2 7959   0.119   3.277   2.150  1.1622  0.5883  0.3246
 2618SOL     OW 7960   2.258   1.206   2.395 -0.0861  0.1570  0.0764
 2618SOL    HW1 7961   2.281   1.181   2.484  0.1534  2.3978  0.7052
 2618SOL    HW2 7962   2.180   1.261   2.405 -0.0886  0.3921 -1.1021
 2619SOL     OW 7963   5.550   5.054   0.479 -0.2237  0.0880  0.1893
 2619SOL    HW1 7964   5.524   5.024   0.566  1.2113  0.5267  0.7914
 2619SOL    HW2 7965   5.575   5.146   0.491 -2.4585  0.9640 -1.2055
 2620SOL     OW 7966   0.083   4.361   1.391  0.4521  0.6501  0.0109
 2620SOL    HW1 7967   0.013   4.296   1.380  0.4035  0.8405 -0.8150
 2620SOL    HW2 7968   0.124   4.337   1.474  0.1584 -0.1816 -0.0723
 2621SOL     OW 7969   1.631   4.789   2.899  0.4192  0.4621 -0.4481
 2621SOL    HW1 7970   1.663   4.873   2.932  2.3190 -0.9331  1.6090
 2621SOL    HW2 7971   1.539   4.787   2.926  0.3524  1.8357 -0.4815
 2622SOL     OW 7972   4.752   5.451   0.318 -0.2164  0.0844  0.3794
 2622SOL    HW1 7973   4.737   5.539   0.354  0.6615  1.1779 -1.7367
 2622SOL    HW2 7974   4.665   5.419   0.295 -0.3842  2.2849 -2.7761
 2623SOL     OW 7975   2.037   5.008   1.393  0.3297 -0.4206 -0.2521
 2623SOL    HW1 7976   1.962   5.004   1.333 -0.3261 -1.0031  0.5769
 2623SOL    HW2 7977   2.104   5.056   1.344 -0.5572  0.0605 -1.0412
 2624SOL     OW 7978   0.892   3.110   0.728 -0.6681  0.1331  0.4498
 2624SOL    HW1 7979   0.876   3.031   0.677 -1.0919  1.8152 -2.2008
 2624SOL    HW2 7980   0.981   3.137   0.707 -0.9160  0.9756  0.4106
 2625SOL     OW 7981   2.130   3.195   2.761 -0.1037  0.3502  0.0556
 2625SOL    HW1 7982   2.208   3.196   2.817  0.4223  0.3405 -0.6584
 2625SOL    HW2 7983   2.163   3.219   2.674 -0.8265 -0.0465 -0.3371
 2626SOL     OW 7984   0.343   2.110   2.677  0.6048 -0.2955  0.0951
 2626SOL    HW1 7985   0.311   2.053   2.607 -0.9500  1.6272 -0.8623
 2626SOL    HW2 7986   0.341   2.055   2.756  0.2782 -1.8659 -0.9617
 2627SOL     OW 7987   1.646   0.082   0.998 -0.2675  0.3016 -0.0553
 2627SOL    HW1 7988   1.709   0.027   1.044 -1.8634 -2.3589 -0.8441
 2627SOL    HW2 7989   1.609   0.139   1.066  0.3068 -0.7102  1.1316
 2628SOL     OW 7990   2.197   0.088   3.580  0.2900 -0.2056  0.1456
 2628SOL    HW1 7991   2.278   0.045   3.555  0.3160 -1.3495  2.0361
 2628SOL    HW2 7992   2.188   0.071   3.674 -1.7856  0.4880  0.1299
 2629SOL     OW 7993   0.815   2.912   3.381 -0.0702 -0.4510 -0.3076
 2629SOL    HW1 7994   0.767   2.841   3.339 -1.2230  0.2134 -0.1612
 2629SOL    HW2 7995   0.775   2.992   3.347  0.0190  0.1113  0.8329
 2630SOL     OW 7996   2.042   0.138   1.752 -0.0703  0.5745  0.2532
 2630SOL    HW1 7997   2.092   0.211   1.717 -1.3431  0.8749 -1.0263
 2630SOL    HW2 7998   1.951   0.164   1.741 -0.6114  0.5169  3.4727
 2631SOL     OW 7999   3.706   2.964   0.736 -0.0175 -0.4425 -0.1614
 2631SOL    HW1 8000   3.687   2.878   0.774 -0.6351 -0.3397 -0.2342
 2631SOL    HW2 8001   3.776   2.947   0.673  1.8908 -0.4277  1.8324
 2632SOL     OW 8002   1.500   4.905   2.528 -0.1361  0.1456 -0.5457
 2632SOL    HW1 8003   1.508   4.995   2.559  1.1424 -0.6123  1.5233
 2632SOL    HW2 8004   1.406   4.889   2.524 -0.3853  0.9247  1.2249
 2633SOL     OW 8005   2.671   5.491   2.818  0.5053 -0.2027  0.2777
 2633SOL    HW1 8006   2.705   5.569   2.861 -0.2974  1.0404 -1.2583
 2633SOL    HW2 8007   2.644   5.434   2.890  0.5640  1.1603  1.4310
 2634SOL     OW 8008   5.282   5.548   1.547 -0.4605  0.1777  0.2275
 2634SOL    HW1 8009   5.289   5.470   1.492  0.5233  0.0792  0.4811
 2634SOL    HW2 8010   5.234   5.518   1.624 -1.3294  0.1763 -0.2990
 2635SOL     OW 8011   2.509   4.476   3.212  0.8160 -0.2611  0.4894
 2635SOL    HW1 8012   2.452   4.414   3.258  0.2429 -0.7073 -0.7906
 2635SOL    HW2 8013   2.563   4.420   3.155 -0.0880  0.4378 -1.0966
 2636SOL     OW 8014   3.866   2.019   0.060 -0.3646 -0.3804 -0.1952
 2636SOL    HW1 8015   3.917   2.029  -0.021  0.7651 -2.2836  0.2322
 2636SOL    HW2 8016   3.776   2.005   0.029 -0.5024  1.8012 -0.9878
 2637SOL     OW 8017   3.131   3.377   3.876 -0.1192  0.4369  0.2692
 2637SOL    HW1 8018   3.139   3.365   3.782  3.1574 -0.4431  0.5611
 2637SOL    HW2 8019   3.167   3.298   3.915 -1.0294  0.9383  2.3100
 2638SOL     OW 8020   4.308   0.675   0.097 -0.6863  0.1543  0.2591
 2638SOL    HW1 8021   4.352   0.685   0.013 -1.6504  1.0912 -0.1599
 2638SOL    HW2 8022   4.256   0.595   0.088 -0.5488  0.0855  0.0792
 2639SOL     OW 8023   3.942   4.068   2.781 -0.8638 -0.5448 -0.1915
 2639SOL    HW1 8024   3.893   3.990   2.806 -0.5590 -0.9083 -0.7185
 2639SOL    HW2 8025   3.891   4.107   2.710 -0.3181 -1.0000 -0.8346
 2640SOL     OW 8026   2.915   2.583   2.379 -0.3403 -0.4469  0.4865
 2640SOL    HW1 8027   2.922   2.663   2.327  0.7139 -0.7658  0.1108
 2640SOL    HW2 8028   2.916   2.512   2.315 -0.4954 -0.7893  0.8582
 2641SOL     OW 8029   1.169   2.217   2.608 -0.5867 -0.2401 -0.1040
 2641SOL    HW1 8030   1.102   2.286   2.603  0.1085  0.3880 -2.9606
 2641SOL    HW2 8031   1.132   2.151   2.666 -1.1457  2.6320  3.0967
 2642SOL     OW 8032   3.776   0.401   1.877 -1.1511 -0.3664  0.2135
 2642SOL    HW1 8033   3.762   0.306   1.887 -0.7189 -0.6758 -1.7131
 2642SOL    HW2 8034   3.842   0.422   1.942 -1.6643 -1.2668  1.0656
 2643SOL     OW 8035   3.171   5.189   3.438 -0.0517 -0.1295  0.3579
 2643SOL    HW1 8036   3.156   5.196   3.532  0.3113  0.0418  0.4017
 2643SOL    HW2 8037   3.243   5.249   3.420  0.7937 -1.1802  0.1891
 2644SOL     OW 8038   1.192   3.525   2.976 -0.2149 -0.4011 -0.5059
 2644SOL    HW1 8039   1.209   3.573   3.058 -0.2207 -0.7886 -0.2782
 2644SOL    HW2 8040   1.128   3.458   3.000 -0.1192 -0.5981 -0.8030
 2645SOL     OW 8041   1.769   1.884   0.792  0.4334  0.2647  0.7752
 2645SOL    HW1 8042   1.750   1.977   0.806  1.3450  0.4166  1.0779
 2645SOL    HW2 8043   1.864   1.879   0.797  0.5199 -0.4193 -0.8444
 2646SOL     OW 8044   2.301   2.515   0.541  0.3871  0.1032  0.0870
 2646SOL    HW1 8045   2.282   2.564   0.621  0.7793 -2.4796  1.8624
 2646SOL    HW2 8046   2.395   2.528   0.527  0.2621  0.7965 -0.1610
 2647SOL     OW 8047   4.861   3.917   3.710 -0.5697 -0.4828  0.6249
 2647SOL    HW1 8048   4.923   3.916   3.782  0.4076 -0.9311 -0.1896
 2647SOL    HW2 8049   4.806   3.840   3.724  0.8898 -1.7252 -0.1358
 2648SOL     OW 8050   4.644   0.289   2.527 -0.5185 -0.1199  0.1233
 2648SOL    HW1 8051   4.697   0.242   2.591  0.9737  1.8630  0.4442
 2648SOL    HW2 8052   4.603   0.220   2.474 -1.3630 -1.8182  2.7985
 2649SOL     OW 8053   4.811   4.418   1.415  0.0548 -0.5210 -0.2416
 2649SOL    HW1 8054   4.816   4.352   1.484 -1.0560 -0.6070 -0.2198
 2649SOL    HW2 8055   4.856   4.495   1.451 -0.7425 -0.4742  0.6954
 2650SOL     OW 8056   0.421   1.238   1.155  0.1554  0.2943  0.1469
 2650SOL    HW1 8057   0.463   1.162   1.115  3.0749  0.5983  2.2894
 2650SOL    HW2 8058   0.423   1.306   1.087  0.8205 -0.5039 -0.6421
 2651SOL     OW 8059   0.043   1.018   0.183 -0.3567  0.9234 -0.5107
 2651SOL    HW1 8060   0.029   1.096   0.236 -1.6929 -0.1281  0.7708
 2651SOL    HW2 8061   0.133   0.992   0.202 -0.3666  1.3570  0.1506
 2652SOL     OW 8062   3.245   4.364   0.005  0.4676  0.0988 -0.3017
 2652SOL    HW1 8063   3.228   4.271  -0.005 -1.5445  0.5556 -1.8289
 2652SOL    HW2 8064   3.166   4.407  -0.028  1.0918  2.3550  0.8759
 2653SOL     OW 8065   3.543   3.277   0.643 -0.0961  0.3524 -0.1080
 2653SOL    HW1 8066   3.510   3.367   0.633  2.3598  1.1276 -2.3094
 2653SOL    HW2 8067   3.567   3.272   0.735  0.5099  2.2849 -0.1033
 2654SOL     OW 8068   0.856   0.523   1.644 -0.6144  0.2962  0.3655
 2654SOL    HW1 8069   0.935   0.524   1.591 -0.9267  0.2373 -0.1030
 2654SOL    HW2 8070   0.786   0.498   1.584 -0.9007 -0.2271  0.9012
 2655SOL     OW 8071   1.711   0.632   1.418  0.0685  0.4383 -0.3074
 2655SOL    HW1 8072   1.699   0.679   1.500  1.6888  0.4784 -0.0649
 2655SOL    HW2 8073   1.774   0.563   1.439  3.9731  3.0386 -2.3685
 2656SOL     OW 8074   2.551   3.440   3.462  0.0535 -0.3631  0.1090
 2656SOL    HW1 8075   2.537   3.529   3.495 -0.2393 -0.1643 -0.5380
 2656SOL    HW2 8076   2.473   3.392   3.488 -0.3967 -0.0816 -0.7098
 2657SOL     OW 8077   1.687   2.535   3.838  0.2418  0.7244  0.0275
 2657SOL    HW1 8078   1.746   2.608   3.859 -1.8558  2.4399  0.3077
 2657SOL    HW2 8079   1.671   2.492   3.922  2.7868 -1.2194 -0.3681
 2658SOL     OW 8080   2.159   0.949   2.983  0.0218  0.5996 -0.3698
 2658SOL    HW1 8081   2.142   1.040   3.005  1.6862  0.3341  2.5236
 2658SOL    HW2 8082   2.164   0.904   3.067  2.5184 -1.5345 -1.5100
 2659SOL     OW 8083   3.942   0.782   2.522 -0.5491  0.1697 -0.6444
 2659SOL    HW1 8084   3.973   0.691   2.525 -0.5796  0.1821  1.0958
 2659SOL    HW2 8085   4.016   0.834   2.554 -1.0895  0.5722 -0.0019
 2660SOL     OW 8086   4.616   3.242   2.466 -0.8754  0.1292  0.3739
 2660SOL    HW1 8087   4.522   3.230   2.483 -1.3382  0.8121 -1.4760
 2660SOL    HW2 8088   4.629   3.337   2.476 -0.2174 -0.0456  1.2835
 2661SOL     OW 8089   0.996   4.283   3.590 -0.0192  0.2858 -0.3070
 2661SOL    HW1 8090   0.930   4.286   3.659  0.4349  1.3976  0.1146
 2661SOL    HW2 8091   1.046   4.203   3.608 -2.0905 -1.3844 -1.4954
 2662SOL     OW 8092   2.733   4.642   0.227  0.0417  0.5356  0.0164
 2662SOL    HW1 8093   2.764   4.562   0.269  0.2259  0.4840 -0.2209
 2662SOL    HW2 8094   2.810   4.679   0.185  0.0599  1.0959  0.5395
 2663SOL     OW 8095   1.106   1.809   3.712  0.0750  0.1380 -0.4959
 2663SOL    HW1 8096   1.132   1.895   3.680  0.4486  0.3592  0.3672
 2663SOL    HW2 8097   1.033   1.784   3.656 -1.4911  1.9849  0.5635
 2664SOL     OW 8098   3.838   2.415   1.219 -0.6864  0.3432  0.2703
 2664SOL    HW1 8099   3.743   2.419   1.227 -0.9905  1.9486 -2.8938
 2664SOL    HW2 8100   3.858   2.465   1.140  2.7401 -0.6600  0.3537
 2665SOL     OW 8101   5.308   1.227   2.834 -0.0750 -0.1951 -0.0513
 2665SOL    HW1 8102   5.356   1.296   2.788 -1.1860  0.2524 -0.5608
 2665SOL    HW2 8103   5.377   1.173   2.874  0.8388  2.1624  1.8232
 2666SOL     OW 8104   0.604   4.223   3.628  0.9464 -0.2545 -0.5253
 2666SOL    HW1 8105   0.552   4.304   3.627 -0.3043 -1.0333  0.0274
 2666SOL    HW2 8106   0.631   4.211   3.537 -0.1822 -0.0380 -0.9027
 2667SOL     OW 8107   3.884   2.473   0.454 -0.4178 -0.2968  0.0447
 2667SOL    HW1 8108   3.906   2.552   0.404 -1.0375 -1.4013 -2.1160
 2667SOL    HW2 8109   3.800   2.445   0.419  0.1086 -2.2980  0.2392
 2668SOL     OW 8110   2.708   4.617   2.102 -0.7187 -0.1677  0.2820
 2668SOL    HW1 8111   2.670   4.597   2.016  0.7028  0.4272 -0.5110
 2668SOL    HW2 8112   2.698   4.536   2.151  2.1398 -2.0452 -1.8489
 2669SOL     OW 8113   0.330   3.743   2.471 -0.4012 -0.3765  0.1154
 2669SOL    HW1 8114   0.339   3.835   2.445  1.2089 -0.3260  0.7504
 2669SOL    HW2 8115   0.236   3.731   2.485 -0.5667  1.3772  0.7244
 2670SOL     OW 8116   4.140   5.313   0.912  0.0911  0.3786  0.1537
 2670SOL    HW1 8117   4.205   5.334   0.980 -0.1686 -0.7624  0.7706
 2670SOL    HW2 8118   4.166   5.367   0.837  0.9172  0.9851  0.8515
 2671SOL     OW 8119   0.281   1.026   0.800 -0.0769 -0.4599 -0.1083
 2671SOL    HW1 8120   0.193   1.039   0.836  0.2936  0.5955  0.4901
 2671SOL    HW2 8121   0.293   1.101   0.741  0.3886 -0.6377 -0.2403
 2672SOL     OW 8122   4.344   3.605   0.551  0.1772  0.1514  0.1919
 2672SOL    HW1 8123   4.412   3.593   0.617 -0.0411  2.2135  0.8475
 2672SOL    HW2 8124   4.385   3.576   0.469  1.1172 -0.5872  0.9046
 2673SOL     OW 8125   4.942   0.663   2.163  0.0741 -0.0717 -0.1872
 2673SOL    HW1 8126   4.971   0.579   2.201 -1.2522  0.6293  2.6022
 2673SOL    HW2 8127   4.848   0.666   2.179  0.0982  1.9855 -0.1961
 2674SOL     OW 8128   1.953   0.230   3.022  0.2420  0.2720  0.1963
 2674SOL    HW1 8129   1.959   0.139   3.052 -0.3813  0.1099 -0.1546
 2674SOL    HW2 8130   1.895   0.226   2.946 -1.6592  1.2689  1.5169
 2675SOL     OW 8131   4.549   4.537   3.223 -0.1913 -0.6923 -0.3518
 2675SOL    HW1 8132   4.592   4.561   3.305  0.8556  0.4086 -1.1873
 2675SOL    HW2 8133   4.462   4.577   3.229  0.1735  0.0910 -0.1047
 2676SOL     OW 8134   3.887   1.364   1.305 -0.1295  0.2301 -0.1840
 2676SOL    HW1 8135   3.894   1.362   1.400  0.5027  1.0756 -0.2128
 2676SOL    HW2 8136   3.811   1.420   1.288  0.1195  0.5576 -0.2011
 2677SOL     OW 8137   4.678   3.638   0.634  0.6803 -0.2171 -0.2572
 2677SOL    HW1 8138   4.747   3.608   0.693  1.1452  1.0946 -0.1112
 2677SOL    HW2 8139   4.719   3.640   0.547  0.5547 -0.3185 -0.3196
 2678SOL     OW 8140   0.242   4.366   3.063  0.0050 -0.1199  0.2579
 2678SOL    HW1 8141   0.170   4.386   3.123  0.5517  1.2294  0.4842
 2678SOL    HW2 8142   0.302   4.440   3.071  0.8681 -0.6788 -0.7802
 2679SOL     OW 8143   3.830   5.168   0.708  0.0040  0.4792  0.1375
 2679SOL    HW1 8144   3.746   5.189   0.748 -1.2272 -1.7545 -1.0839
 2679SOL    HW2 8145   3.822   5.200   0.618 -0.1156 -0.9314 -0.3798
 2680SOL     OW 8146   3.164   0.145   3.245  0.3231  0.1367 -0.1926
 2680SOL    HW1 8147   3.212   0.224   3.270  1.4795 -0.5006 -0.2950
 2680SOL    HW2 8148   3.072   0.171   3.245  0.7103  1.6133 -0.7274
 2681SOL     OW 8149   2.719   4.189   1.802 -0.2225 -0.0492 -0.0331
 2681SOL    HW1 8150   2.696   4.280   1.788 -0.1099 -0.0435 -0.1805
 2681SOL    HW2 8151   2.798   4.192   1.857 -0.1967 -0.0582 -0.0698
 2682SOL     OW 8152   3.825   3.090   2.501 -0.0063  0.2564  0.2751
 2682SOL    HW1 8153   3.888   3.066   2.433 -0.1813  1.2516 -0.2668
 2682SOL    HW2 8154   3.857   3.048   2.580  0.1489 -1.0183 -0.4316
 2683SOL     OW 8155   2.268   3.267   2.101  0.4743  0.5821  0.2128
 2683SOL    HW1 8156   2.291   3.349   2.143  0.4166  0.8789 -0.3278
 2683SOL    HW2 8157   2.173   3.258   2.115  0.4818  0.6039  0.2757
 2684SOL     OW 8158   0.493   1.718   2.255  0.5076 -0.0583  0.2089
 2684SOL    HW1 8159   0.540   1.801   2.244 -0.3054  0.4796  0.6760
 2684SOL    HW2 8160   0.447   1.705   2.172 -1.0579  1.0703  0.8505
 2685SOL     OW 8161   0.394   5.151   2.920  0.1399  0.4514  0.7690
 2685SOL    HW1 8162   0.379   5.246   2.921 -0.5777  0.3598  0.0489
 2685SOL    HW2 8163   0.391   5.128   2.827  1.0940 -0.1672  0.8817
 2686SOL     OW 8164   2.667   2.061   3.507  0.0800  0.2168  0.2535
 2686SOL    HW1 8165   2.630   2.122   3.443 -1.9533  0.6889  1.7487
 2686SOL    HW2 8166   2.596   1.999   3.524  0.6895 -0.1204  1.7515
 2687SOL     OW 8167   5.392   2.041   1.210  0.0698 -0.0324  0.3053
 2687SOL    HW1 8168   5.320   2.080   1.161  0.3288 -0.1608 -0.1817
 2687SOL    HW2 8169   5.353   2.015   1.293 -0.6588 -0.9017 -0.2896
 2688SOL     OW 8170   2.622   0.578   1.001  0.0299  0.0796 -0.2610
 2688SOL    HW1 8171   2.533   0.609   1.017 -0.2179 -0.1500 -1.1573
 2688SOL    HW2 8172   2.620   0.545   0.912  1.0301  0.1229 -0.3059
 2689SOL     OW 8173   5.318   0.841   2.706  1.0539 -0.2586  0.0719
 2689SOL    HW1 8174   5.351   0.900   2.638  1.6701 -1.9070 -1.1177
 2689SOL    HW2 8175   5.397   0.809   2.750  0.6692  0.7168  1.5733
 2690SOL     OW 8176   2.880   1.957   0.960 -0.2448  0.6629 -0.1532
 2690SOL    HW1 8177   2.805   2.006   0.925 -0.3003  0.6191 -0.0961
 2690SOL    HW2 8178   2.843   1.873   0.988 -0.3204  0.9588  0.6344
 2691SOL     OW 8179   4.873   4.571   3.302 -0.2238  0.1496 -0.1321
 2691SOL    HW1 8180   4.865   4.478   3.281  0.6440  0.3191 -1.3110
 2691SOL    HW2 8181   4.895   4.613   3.219 -1.8602  1.6019  0.1002
 2692SOL     OW 8182   1.932   3.617   1.545  0.0118  0.7412  0.7471
 2692SOL    HW1 8183   1.984   3.638   1.467  0.0746 -1.0545  0.2664
 2692SOL    HW2 8184   1.996   3.615   1.616  0.0198  1.9568  0.8074
 2693SOL     OW 8185   5.338   5.064   2.729  0.1227 -1.1037  0.0393
 2693SOL    HW1 8186   5.376   4.999   2.670  2.1771  1.4228 -1.6540
 2693SOL    HW2 8187   5.248   5.076   2.699  0.3154 -1.8067 -0.8318
 2694SOL     OW 8188   3.392   1.393   2.520 -0.4707 -0.0319 -0.3005
 2694SOL    HW1 8189   3.434   1.479   2.521  2.7659 -1.4720  0.0953
 2694SOL    HW2 8190   3.392   1.365   2.612  0.9243 -1.4806 -0.7122
 2695SOL     OW 8191   4.769   4.004   3.158 -0.8249  0.3311  0.3326
 2695SOL    HW1 8192   4.692   4.060   3.150 -1.2625 -0.3833 -0.6995
 2695SOL    HW2 8193   4.734   3.915   3.156 -0.0379  0.0071  0.6678
 2696SOL     OW 8194   5.492   3.549   0.802 -0.0090 -0.2978 -0.6723
 2696SOL    HW1 8195   5.464   3.529   0.891 -0.5457 -0.6712 -0.9208
 2696SOL    HW2 8196   5.571   3.603   0.813  0.5645 -1.2518  0.0084
 2697SOL     OW 8197   1.946   0.506   1.569 -0.2318  0.1115  1.0037
 2697SOL    HW1 8198   2.024   0.555   1.544  0.5582 -1.3995  0.3158
 2697SOL    HW2 8199   1.967   0.469   1.655 -1.5919  2.4639  2.4760
 2698SOL     OW 8200   2.746   3.994   2.189 -0.2629  0.0307  0.0423
 2698SOL    HW1 8201   2.702   4.077   2.208 -0.1415 -0.0733  0.8139
 2698SOL    HW2 8202   2.749   3.949   2.273 -0.8816 -1.0320 -0.4808
 2699SOL     OW 8203   3.469   4.035   3.215 -0.3810  0.2091 -0.2576
 2699SOL    HW1 8204   3.413   3.957   3.208 -0.1449  0.0215 -0.1027
 2699SOL    HW2 8205   3.454   4.082   3.133 -1.2401  0.4870  0.0485
 2700SOL     OW 8206   3.918   0.824   3.112  0.5124  0.3862  0.4851
 2700SOL    HW1 8207   3.854   0.753   3.111  0.2669  0.5898  1.1704
 2700SOL    HW2 8208   3.967   0.814   3.031 -1.8126  1.5555 -1.1468
 2701SOL     OW 8209   2.775   2.877   0.836 -0.0592 -0.0085  0.1262
 2701SOL    HW1 8210   2.761   2.968   0.809 -0.2536  0.4682  1.7271
 2701SOL    HW2 8211   2.717   2.826   0.779 -1.0603  1.0128  0.1840
 2702SOL     OW 8212   5.261   1.707   3.929 -0.2849  0.2643  0.0643
 2702SOL    HW1 8213   5.238   1.674   3.842 -0.8676  1.4140 -0.2388
 2702SOL    HW2 8214   5.323   1.643   3.963  0.8631  0.3633 -1.6791
 2703SOL     OW 8215   4.681   0.464   1.900  0.1897 -0.0982  0.7559
 2703SOL    HW1 8216   4.598   0.478   1.947 -0.5551  2.4949 -1.0968
 2703SOL    HW2 8217   4.661   0.396   1.836 -0.3779  0.1574  0.6543
 2704SOL     OW 8218   4.914   0.873   0.121  0.2441  0.1246 -0.5170
 2704SOL    HW1 8219   4.831   0.872   0.169  1.0180 -1.1057  0.8996
 2704SOL    HW2 8220   4.916   0.789   0.074  0.0563  0.7813 -1.7387
 2705SOL     OW 8221   0.116   0.893   3.187  0.5547 -0.0383 -0.2047
 2705SOL    HW1 8222   0.201   0.894   3.232  0.5275  0.8733 -0.1545
 2705SOL    HW2 8223   0.104   0.802   3.160  0.0867 -0.8910  2.5734
 2706SOL     OW 8224   2.245   1.501   1.037 -0.3465  0.5581 -0.1075
 2706SOL    HW1 8225   2.170   1.546   1.076  0.0044  0.4548  0.7197
 2706SOL    HW2 8226   2.208   1.421   1.000 -0.4865 -0.1040  1.3817
 2707SOL     OW 8227   4.334   3.832   3.410 -0.2948  0.7011 -0.6355
 2707SOL    HW1 8228   4.310   3.847   3.319  0.9943  0.6684 -0.9870
 2707SOL    HW2 8229   4.388   3.753   3.408 -0.4437  0.5677  0.1916
 2708SOL     OW 8230   5.095   3.274   0.330  0.0127  0.9389  0.6635
 2708SOL    HW1 8231   5.137   3.208   0.275 -1.5605  0.2493  0.2364
 2708SOL    HW2 8232   5.152   3.281   0.407  0.4099 -0.6565  0.5542
 2709SOL     OW 8233   3.342   4.198   1.563  0.2536 -0.2985 -0.0189
 2709SOL    HW1 8234   3.251   4.179   1.587  0.4858  0.1393  1.3060
 2709SOL    HW2 8235   3.346   4.294   1.559  0.0198 -0.3248 -2.8153
 2710SOL     OW 8236   3.034   4.499   1.262 -0.5657  0.4412  0.0278
 2710SOL    HW1 8237   3.021   4.478   1.354 -0.2743 -0.4000 -0.1116
 2710SOL    HW2 8238   3.122   4.468   1.243 -0.8699 -0.0127 -0.6978
 2711SOL     OW 8239   5.245   2.574   1.943 -0.1264 -0.4081  0.1758
 2711SOL    HW1 8240   5.314   2.508   1.937 -0.5553 -1.2853  3.1140
 2711SOL    HW2 8241   5.165   2.526   1.924 -0.2208 -0.0877 -0.2596
 2712SOL     OW 8242   2.859   0.772   2.171 -0.0270 -0.0019  0.1904
 2712SOL    HW1 8243   2.769   0.801   2.188  0.1162  0.1090  0.7833
 2712SOL    HW2 8244   2.891   0.742   2.256  0.4472 -0.1843 -0.0484
 2713SOL     OW 8245   4.981   2.833   3.098  0.4429 -0.1848 -0.3601
 2713SOL    HW1 8246   5.074   2.852   3.094  0.4268  0.0728  0.3795
 2713SOL    HW2 8247   4.941   2.914   3.129  0.2062 -0.8894  1.2901
 2714SOL     OW 8248   0.616   4.469   2.520  0.1690  0.3965 -0.3740
 2714SOL    HW1 8249   0.672   4.503   2.590 -0.0994  0.0299  0.0222
 2714SOL    HW2 8250   0.644   4.378   2.508 -1.5586 -0.3970  1.1253
 2715SOL     OW 8251   2.666   3.969   0.945 -0.3111 -0.3015  0.3911
 2715SOL    HW1 8252   2.571   3.972   0.952 -0.3004  0.7925  0.2184
 2715SOL    HW2 8253   2.688   4.032   0.877  0.4957 -1.0982 -0.1206
 2716SOL     OW 8254   4.329   5.567   3.649  0.1429 -0.1476  0.1729
 2716SOL    HW1 8255   4.423   5.582   3.662  0.0620  1.4034 -0.7243
 2716SOL    HW2 8256   4.291   5.655   3.653 -1.2702 -0.7487  0.4492
 2717SOL     OW 8257   4.667   2.688   3.042 -0.4429  0.1348 -0.3812
 2717SOL    HW1 8258   4.604   2.694   3.114 -0.3072 -0.0376 -0.2448
 2717SOL    HW2 8259   4.752   2.674   3.086 -0.3269  0.2458 -0.5670
 2718SOL     OW 8260   1.675   4.795   1.230 -0.0850 -0.1213  0.1628
 2718SOL    HW1 8261   1.703   4.704   1.230 -0.7882 -0.3836  2.2550
 2718SOL    HW2 8262   1.581   4.791   1.210 -0.3717  0.0195  1.4247
 2719SOL     OW 8263   0.992   0.839   1.029 -0.4451 -0.2481  0.2666
 2719SOL    HW1 8264   0.967   0.790   1.107 -0.3887 -0.3721  0.2071
 2719SOL    HW2 8265   0.945   0.922   1.037 -2.6460 -1.2918 -0.9354
 2720SOL     OW 8266   4.794   4.740   2.189 -0.2502  0.2430 -0.7355
 2720SOL    HW1 8267   4.868   4.745   2.250 -1.8470  1.3174  1.2309
 2720SOL    HW2 8268   4.757   4.653   2.204 -1.5388  1.0395  1.0361
 2721SOL     OW 8269   0.253   4.228   1.092  0.3297  0.0439 -0.1060
 2721SOL    HW1 8270   0.185   4.294   1.075 -0.0016 -0.1005  0.6093
 2721SOL    HW2 8271   0.268   4.187   1.007  1.8431  2.2217 -1.0055
 2722SOL     OW 8272   3.557   4.329   0.609 -0.2332  0.3517 -0.0918
 2722SOL    HW1 8273   3.505   4.389   0.555 -1.1030 -0.3827 -0.0943
 2722SOL    HW2 8274   3.494   4.294   0.673  0.4223 -0.0168  0.3634
 2723SOL     OW 8275   0.256   0.539   2.820 -0.0254 -0.3093  0.0316
 2723SOL    HW1 8276   0.292   0.611   2.768  1.8738 -1.0008  0.3169
 2723SOL    HW2 8277   0.234   0.472   2.755 -0.4484 -0.0344 -0.1143
 2724SOL     OW 8278   3.615   3.263   1.869  0.2473  0.0908  0.1268
 2724SOL    HW1 8279   3.627   3.344   1.820 -0.0723  0.3461  0.4670
 2724SOL    HW2 8280   3.542   3.219   1.825 -0.1722  0.4146  0.4904
 2725SOL     OW 8281   5.232   0.816   0.088 -1.0030 -0.5077  0.0798
 2725SOL    HW1 8282   5.158   0.857   0.044 -0.3882 -0.1265 -0.6273
 2725SOL    HW2 8283   5.254   0.741   0.034 -0.7058 -0.4651  0.1397
 2726SOL     OW 8284   1.751   1.561   3.774 -0.3534 -0.1016 -0.0067
 2726SOL    HW1 8285   1.720   1.642   3.734 -0.7841  0.1233  0.7482
 2726SOL    HW2 8286   1.676   1.502   3.772 -0.2170 -0.2763 -0.0198
 2727SOL     OW 8287   2.455   0.346   3.819  0.0131 -0.2974  0.0183
 2727SOL    HW1 8288   2.408   0.340   3.902 -0.6577  1.2147 -0.2104
 2727SOL    HW2 8289   2.490   0.258   3.804 -2.5447 -1.4563  0.3205
 2728SOL     OW 8290   2.181   0.191   0.683 -0.5355 -0.2589  0.0603
 2728SOL    HW1 8291   2.086   0.185   0.685 -0.6340  1.0572 -0.1551
 2728SOL    HW2 8292   2.208   0.173   0.773 -0.8048 -2.7865 -0.2905
 2729SOL     OW 8293   0.838   0.552   3.464  0.2210 -0.0197  0.3253
 2729SOL    HW1 8294   0.841   0.585   3.374  0.0332 -0.6931  0.0666
 2729SOL    HW2 8295   0.755   0.505   3.469  0.9473 -1.3385  0.3630
 2730SOL     OW 8296   3.209   4.894   1.835 -0.3739 -0.9655 -0.2489
 2730SOL    HW1 8297   3.244   4.890   1.924  0.4702  0.9146 -0.4275
 2730SOL    HW2 8298   3.115   4.878   1.845 -0.5176  0.4934  1.1890
 2731SOL     OW 8299   2.296   4.095   3.148  0.0699 -0.4954  0.1229
 2731SOL    HW1 8300   2.260   4.171   3.194  1.5365  0.0404  0.4450
 2731SOL    HW2 8301   2.375   4.129   3.105  0.9057 -1.8942  0.5007
 2732SOL     OW 8302   0.572   0.497   3.489 -0.7708  0.6749  0.0362
 2732SOL    HW1 8303   0.498   0.515   3.548 -0.2257 -0.0153  0.9552
 2732SOL    HW2 8304   0.551   0.547   3.410 -2.1308  0.6469  0.3411
 2733SOL     OW 8305   3.174   4.257   3.400  0.2215 -0.1090 -0.4025
 2733SOL    HW1 8306   3.129   4.341   3.390  0.5238 -0.0056 -0.9486
 2733SOL    HW2 8307   3.137   4.202   3.330 -0.1018 -0.4922  0.0595
 2734SOL     OW 8308   0.058   5.278   0.976 -0.4500 -0.1879  0.0289
 2734SOL    HW1 8309   0.004   5.353   0.954 -1.2197 -0.4170  1.0510
 2734SOL    HW2 8310   0.130   5.280   0.913 -0.9958  0.8243 -0.5757
 2735SOL     OW 8311   2.010   1.509   2.570 -0.3233 -0.4441 -0.2078
 2735SOL    HW1 8312   1.996   1.454   2.493 -0.8000  0.4280 -0.7548
 2735SOL    HW2 8313   2.044   1.591   2.535 -0.3095 -0.1243  0.5374
 2736SOL     OW 8314   4.848   0.316   1.176  0.1669 -0.1815  0.4660
 2736SOL    HW1 8315   4.920   0.380   1.173  0.6921 -0.7841 -1.3617
 2736SOL    HW2 8316   4.875   0.248   1.114 -1.3513 -1.1180  0.8027
 2737SOL     OW 8317   1.278   0.533   2.014 -0.2140  0.1331 -0.1251
 2737SOL    HW1 8318   1.259   0.458   2.070  0.1452  1.2841  1.6294
 2737SOL    HW2 8319   1.256   0.609   2.068 -0.9980  1.3084 -2.0014
 2738SOL     OW 8320   2.458   3.973   1.951 -0.0119 -0.1293 -0.2674
 2738SOL    HW1 8321   2.429   3.909   2.017  1.0481 -0.8543 -0.4855
 2738SOL    HW2 8322   2.407   3.951   1.873  0.5472 -0.8953 -0.4228
 2739SOL     OW 8323   5.477   1.662   3.380  0.0687  0.1210  0.2718
 2739SOL    HW1 8324   5.448   1.675   3.290  0.8893 -1.2389 -0.2081
 2739SOL    HW2 8325   5.503   1.570   3.384  1.1763  0.4674  1.5805
 2740SOL     OW 8326   2.802   3.460   0.670 -0.7721  0.3119  0.2045
 2740SOL    HW1 8327   2.730   3.458   0.734 -1.1852 -0.7883 -0.2716
 2740SOL    HW2 8328   2.760   3.481   0.587 -1.1216 -3.2704 -0.6924
 2741SOL     OW 8329   5.375   1.786   2.598 -0.4896  0.0375  0.1111
 2741SOL    HW1 8330   5.451   1.826   2.640 -1.1362  0.5347  0.8584
 2741SOL    HW2 8331   5.397   1.693   2.590  0.2134  0.1886  0.2597
 2742SOL     OW 8332   4.454   5.109   0.122 -0.3216 -0.3928  0.2718
 2742SOL    HW1 8333   4.475   5.144   0.209  2.3840 -1.7206  0.2722
 2742SOL    HW2 8334   4.442   5.015   0.137 -0.4969 -0.5351 -0.6900
 2743SOL     OW 8335   4.663   1.550   3.025 -0.3336 -0.2667 -0.1516
 2743SOL    HW1 8336   4.590   1.501   3.062  0.4648  0.1052  2.0723
 2743SOL    HW2 8337   4.627   1.637   3.006 -0.4931 -0.0494  1.0346
 2744SOL     OW 8338   0.541   2.921   1.338  0.2203  0.1514 -0.1279
 2744SOL    HW1 8339   0.635   2.918   1.353  0.2709 -3.3489 -0.3727
 2744SOL    HW2 8340   0.532   2.930   1.243  0.3687 -0.8245 -0.2440
 2745SOL     OW 8341   5.172   3.759   3.765  0.3650 -0.6824 -0.1207
 2745SOL    HW1 8342   5.143   3.830   3.822 -0.1043 -1.4707  0.6430
 2745SOL    HW2 8343   5.091   3.724   3.728  0.3226 -2.3861  1.4168
 2746SOL     OW 8344   4.325   4.335   3.868 -0.1248  0.2424  0.3491
 2746SOL    HW1 8345   4.293   4.255   3.825 -0.6497 -0.3026  1.6912
 2746SOL    HW2 8346   4.270   4.405   3.831 -1.4990 -0.4017  1.0966
 2747SOL     OW 8347   3.130   3.540   0.598  0.8982 -0.8087  0.1569
 2747SOL    HW1 8348   3.043   3.532   0.638  0.4828  0.5910 -0.4103
 2747SOL    HW2 8349   3.167   3.619   0.637  0.6933  0.2976 -1.7833
 2748SOL     OW 8350   2.045   5.556   1.127 -0.0074  0.6539 -0.2511
 2748SOL    HW1 8351   2.051   5.635   1.180  1.4968 -0.1784  0.8913
 2748SOL    HW2 8352   2.037   5.484   1.190 -1.0008 -0.1631 -1.2537
 2749SOL     OW 8353   4.161   2.055   0.133  0.1155 -0.1696 -0.9273
 2749SOL    HW1 8354   4.095   2.113   0.093 -0.1052  1.2978  1.3856
 2749SOL    HW2 8355   4.235   2.058   0.072 -0.5698  1.1510 -1.7522
 2750SOL     OW 8356   1.822   0.157   2.682 -0.4424  0.0488  0.2874
 2750SOL    HW1 8357   1.821   0.253   2.687 -0.3390  0.0462  0.3536
 2750SOL    HW2 8358   1.782   0.137   2.597 -1.1044  0.1300  0.5777
 2751SOL     OW 8359   0.806   0.938   1.671  0.2607  0.0607 -0.1316
 2751SOL    HW1 8360   0.762   0.972   1.749  0.1761 -2.5754  1.0667
 2751SOL    HW2 8361   0.746   0.871   1.637  1.2507 -0.2877 -1.2596
 2752SOL     OW 8362   3.511   5.361   3.242  0.2125 -0.3976  0.4109
 2752SOL    HW1 8363   3.451   5.430   3.214  0.6662  0.7476  2.1101
 2752SOL    HW2 8364   3.496   5.353   3.337  2.8635  0.1044  0.9494
 2753SOL     OW 8365   2.486   3.541   0.201 -0.3153  0.2377 -0.1602
 2753SOL    HW1 8366   2.458   3.531   0.292 -2.8525  0.9742 -0.7828
 2753SOL    HW2 8367   2.431   3.612   0.166  0.2811 -0.3103 -2.3830
 2754SOL     OW 8368   0.668   0.798   0.775 -0.0688 -0.2626  0.3791
 2754SOL    HW1 8369   0.760   0.819   0.764 -0.0494  0.3757  1.5879
 2754SOL    HW2 8370   0.621   0.874   0.741 -0.1592 -0.5818 -0.2248
 2755SOL     OW 8371   2.006   1.304   2.371  0.1548 -0.1773  0.3450
 2755SOL    HW1 8372   1.959   1.332   2.293 -2.8122 -0.9143  1.7001
 2755SOL    HW2 8373   1.959   1.226   2.400  1.1139  0.0835  2.8539
 2756SOL     OW 8374   4.680   4.344   3.774 -0.0995  0.5899  0.4876
 2756SOL    HW1 8375   4.645   4.305   3.854  0.0291  1.0639  0.7807
 2756SOL    HW2 8376   4.612   4.330   3.708 -0.3883  0.5692  0.7878
 2757SOL     OW 8377   3.518   3.763   0.011 -0.7727  0.2570 -0.2783
 2757SOL    HW1 8378   3.466   3.725  -0.060 -1.1444  1.4552 -0.6778
 2757SOL    HW2 8379   3.456   3.818   0.059 -0.1800  0.6181  0.0807
 2758SOL     OW 8380   4.372   0.888   0.903 -0.0548 -0.5250  0.0040
 2758SOL    HW1 8381   4.409   0.976   0.894 -2.5754  0.4626 -1.8709
 2758SOL    HW2 8382   4.433   0.831   0.855  0.8196  0.4285 -0.0468
 2759SOL     OW 8383   5.289   3.242   2.992 -0.4982  0.2555  0.5580
 2759SOL    HW1 8384   5.194   3.237   2.981 -0.3929  2.3791 -2.3923
 2759SOL    HW2 8385   5.315   3.319   2.942  2.8144 -0.2146  1.3372
 2760SOL     OW 8386   4.083   1.696   3.017  0.4052 -0.1329 -0.0221
 2760SOL    HW1 8387   4.063   1.648   3.097  1.5282  1.6058  1.3571
 2760SOL    HW2 8388   4.008   1.678   2.960  0.0558 -2.2360  0.9861
 2761SOL     OW 8389   0.898   0.027   2.658 -0.0699 -0.3849  0.0778
 2761SOL    HW1 8390   0.851   0.055   2.579  0.1802 -1.6377 -0.5491
 2761SOL    HW2 8391   0.840  -0.037   2.699  0.3335 -0.6499  0.2452
 2762SOL     OW 8392   2.838   1.841   3.651 -0.2744  0.4935  0.4574
 2762SOL    HW1 8393   2.784   1.810   3.724 -1.6783  0.1596 -0.6737
 2762SOL    HW2 8394   2.789   1.916   3.615 -0.6112 -0.5003 -1.2832
 2763SOL     OW 8395   2.485   5.340   2.667 -1.0307 -0.3375  0.0089
 2763SOL    HW1 8396   2.552   5.391   2.713 -1.1706  0.0685 -0.2419
 2763SOL    HW2 8397   2.429   5.405   2.625 -0.3691 -0.7134 -1.5195
 2764SOL     OW 8398   0.714   4.533   2.077  0.3162  0.2491 -0.0846
 2764SOL    HW1 8399   0.659   4.455   2.072  1.2889 -0.4572 -0.0799
 2764SOL    HW2 8400   0.705   4.563   2.168  0.6693 -0.4241  0.1831
 2765SOL     OW 8401   4.738   5.092   0.003  0.3444  0.0986 -0.0758
 2765SOL    HW1 8402   4.754   5.084   0.098 -3.1941  0.7786  0.7059
 2765SOL    HW2 8403   4.652   5.132  -0.003  0.0861 -0.7333 -3.6472
 2766SOL     OW 8404   3.132   3.268   1.271 -0.3218  0.3523  0.6445
 2766SOL    HW1 8405   3.095   3.340   1.322 -0.3137  0.2661  0.7738
 2766SOL    HW2 8406   3.124   3.192   1.329 -2.4143 -0.2384 -0.3157
 2767SOL     OW 8407   0.653   2.731   1.941 -0.1986 -0.2919 -0.1927
 2767SOL    HW1 8408   0.561   2.744   1.920 -0.1233  0.2547 -0.2159
 2767SOL    HW2 8409   0.659   2.640   1.971 -0.3694 -0.9969 -2.1637
 2768SOL     OW 8410   3.083   2.740   1.245  0.0478  0.6230  0.0922
 2768SOL    HW1 8411   3.081   2.807   1.176  0.1790 -1.3794 -1.9971
 2768SOL    HW2 8412   3.003   2.689   1.231  0.0654  0.1708  1.4846
 2769SOL     OW 8413   3.542   2.232   1.043  0.6601  0.3586 -0.3450
 2769SOL    HW1 8414   3.577   2.281   1.118  0.5809  0.1345 -0.1626
 2769SOL    HW2 8415   3.589   2.268   0.967  0.1426  1.1681 -0.2930
 2770SOL     OW 8416   2.308   0.386   0.475 -0.1617 -0.1257  0.0708
 2770SOL    HW1 8417   2.291   0.375   0.568  0.4099  1.9339  0.4692
 2770SOL    HW2 8418   2.395   0.348   0.462  0.4207  0.9444  0.7193
 2771SOL     OW 8419   3.021   2.113   1.901  0.1149 -0.2365  0.5186
 2771SOL    HW1 8420   2.961   2.138   1.830 -1.5642 -0.7202  1.7159
 2771SOL    HW2 8421   3.104   2.155   1.878 -0.1913 -0.8773 -2.0414
 2772SOL     OW 8422   2.136   5.541   0.516 -0.1593 -0.1054 -0.0877
 2772SOL    HW1 8423   2.161   5.626   0.552  0.3269 -0.4670  0.4458
 2772SOL    HW2 8424   2.163   5.478   0.583 -1.2215 -0.6224 -0.1261
 2773SOL     OW 8425   1.079   0.647   2.487 -0.3484  0.3576  0.3629
 2773SOL    HW1 8426   0.992   0.687   2.490  0.1899  1.6839 -0.4748
 2773SOL    HW2 8427   1.131   0.698   2.550 -0.0649 -0.1133  0.5112
 2774SOL     OW 8428   5.431   2.712   3.205 -0.6847  0.2161 -0.6926
 2774SOL    HW1 8429   5.491   2.705   3.131  2.1704  0.0413  1.4757
 2774SOL    HW2 8430   5.415   2.621   3.231 -0.9027  0.3065 -0.5141
 2775SOL     OW 8431   0.103   5.029   1.891 -0.1413  0.2821 -0.0254
 2775SOL    HW1 8432   0.125   5.033   1.984  0.8332  1.2098 -0.2792
 2775SOL    HW2 8433   0.172   5.078   1.847 -1.2977  0.9958 -1.1270
 2776SOL     OW 8434   1.122   1.836   0.046 -0.3851  0.3138  0.1997
 2776SOL    HW1 8435   1.098   1.890  -0.029 -0.4289 -0.1156 -0.0986
 2776SOL    HW2 8436   1.087   1.883   0.121 -0.5989  0.5983 -0.0761
 2777SOL     OW 8437   4.554   1.914   2.058 -0.4256  0.3229  0.0248
 2777SOL    HW1 8438   4.487   1.973   2.094 -0.7761  1.0765 -1.7475
 2777SOL    HW2 8439   4.503   1.845   2.016 -0.0193 -0.5501  0.9150
 2778SOL     OW 8440   4.093   2.763   0.740 -0.3394 -0.1598  0.1011
 2778SOL    HW1 8441   4.130   2.790   0.824 -1.0286  0.8730  0.0791
 2778SOL    HW2 8442   4.043   2.838   0.709 -0.4751 -0.6809 -1.0270
 2779SOL     OW 8443   1.484   3.125   1.549 -0.4380  0.4680 -0.0548
 2779SOL    HW1 8444   1.535   3.172   1.615 -0.9829  0.4723  0.3661
 2779SOL    HW2 8445   1.462   3.192   1.484  0.8647  0.2801 -0.7178
 2780SOL     OW 8446   1.940   0.620   3.228 -0.0479 -0.3204 -0.1469
 2780SOL    HW1 8447   1.961   0.585   3.141  3.0032 -1.0097  0.7549
 2780SOL    HW2 8448   2.002   0.692   3.241 -1.3277  0.6262  0.9624
 2781SOL     OW 8449   3.962   2.151   0.393 -0.1726  0.8111  0.2449
 2781SOL    HW1 8450   4.015   2.214   0.344 -0.0501  1.9649  1.7881
 2781SOL    HW2 8451   3.932   2.089   0.327  1.5404  1.2055 -0.9793
 2782SOL     OW 8452   5.204   1.097   2.289 -0.0005 -0.1649  0.0190
 2782SOL    HW1 8453   5.191   1.188   2.263 -1.9127 -0.7231 -1.1927
 2782SOL    HW2 8454   5.128   1.051   2.254  1.9125 -2.6070 -1.2672
 2783SOL     OW 8455   0.066   4.662   3.021 -0.0226 -0.0710  0.2810
 2783SOL    HW1 8456   0.084   4.582   2.971  0.3314 -0.0312  0.3415
 2783SOL    HW2 8457   0.030   4.630   3.104  1.3349 -0.2438  0.8393
 2784SOL     OW 8458   1.770   1.982   3.249  0.0568 -0.1966  0.7046
 2784SOL    HW1 8459   1.764   2.068   3.206 -1.2566 -1.0096 -0.8572
 2784SOL    HW2 8460   1.815   1.999   3.331 -2.7699  2.5597  1.9046
 2785SOL     OW 8461   3.500   4.661   0.656  0.6031 -0.4346  0.0052
 2785SOL    HW1 8462   3.453   4.611   0.590  0.4869  0.1538 -0.3704
 2785SOL    HW2 8463   3.443   4.736   0.675  1.7123  0.7364 -1.0588
 2786SOL     OW 8464   4.100   3.665   0.693 -0.4846  0.2818 -0.3285
 2786SOL    HW1 8465   4.073   3.642   0.782 -2.2558  0.5895 -0.7583
 2786SOL    HW2 8466   4.179   3.613   0.678 -0.7054 -0.4990  1.0743
 2787SOL     OW 8467   4.410   2.219   3.935  0.3116 -0.2834  0.1860
 2787SOL    HW1 8468   4.405   2.238   4.029  1.5632 -1.5402  0.5395
 2787SOL    HW2 8469   4.468   2.286   3.900  1.8668 -1.2787  0.7854
 2788SOL     OW 8470   3.385   5.069   2.037 -0.1854  0.4182  0.0316
 2788SOL    HW1 8471   3.386   5.050   2.131  1.0565 -0.7254 -0.1772
 2788SOL    HW2 8472   3.458   5.018   2.002 -1.0747  0.2739 -1.6747
 2789SOL     OW 8473   1.254   0.988   2.434  0.0867  0.9103 -0.1213
 2789SOL    HW1 8474   1.168   0.968   2.399 -0.4676  0.2004  1.5369
 2789SOL    HW2 8475   1.299   1.034   2.363 -1.5698  1.1196 -1.0866
 2790SOL     OW 8476   0.923   0.785   3.896  0.8672  0.1435 -0.0386
 2790SOL    HW1 8477   0.980   0.761   3.969  0.5298 -0.6184 -0.0133
 2790SOL    HW2 8478   0.859   0.845   3.933  1.3787  0.6478  0.0348
 2791SOL     OW 8479   2.479   2.908   1.693  0.3605  0.0372 -0.3811
 2791SOL    HW1 8480   2.400   2.946   1.732  0.0781 -0.2664 -0.6401
 2791SOL    HW2 8481   2.545   2.913   1.762  0.1115  0.2858 -0.1572
 2792SOL     OW 8482   0.077   2.178   0.329 -0.0226  0.1566  0.1659
 2792SOL    HW1 8483   0.135   2.247   0.298  1.0563 -0.5430  0.5918
 2792SOL    HW2 8484   0.062   2.200   0.421  1.1893 -0.7408  0.5955
 2793SOL     OW 8485   1.807   1.245   0.477  0.1732  0.6145  0.6889
 2793SOL    HW1 8486   1.866   1.296   0.533 -0.5289  0.3821  1.6817
 2793SOL    HW2 8487   1.773   1.309   0.414 -0.2849  1.2927  1.5837
 2794SOL     OW 8488   1.111   1.686   1.496 -0.2492 -0.3789  0.0137
 2794SOL    HW1 8489   1.174   1.739   1.546 -1.0625  0.0333  0.6367
 2794SOL    HW2 8490   1.070   1.629   1.562 -0.9420 -0.2188 -0.2631
 2795SOL     OW 8491   1.531   0.475   2.456  0.5460 -0.8754 -0.0527
 2795SOL    HW1 8492   1.533   0.436   2.544  2.4161  0.1833  0.4425
 2795SOL    HW2 8493   1.504   0.566   2.471 -0.0781 -0.9523 -0.7022
 2796SOL     OW 8494   0.764   1.295   1.728 -0.3688  0.1428 -0.1594
 2796SOL    HW1 8495   0.671   1.275   1.741  0.0695 -0.6054  2.5337
 2796SOL    HW2 8496   0.804   1.274   1.812  2.1904  0.8687 -1.1202
 2797SOL     OW 8497   0.852   4.220   0.265  0.0599 -0.2998  0.3695
 2797SOL    HW1 8498   0.888   4.224   0.177 -0.3825  0.3654  0.2096
 2797SOL    HW2 8499   0.926   4.242   0.322 -0.1200  1.3264  0.0294
 2798SOL     OW 8500   3.387   1.426   1.004  0.0762 -0.8618  0.1819
 2798SOL    HW1 8501   3.341   1.426   0.920  1.0705  0.4850 -0.4004
 2798SOL    HW2 8502   3.479   1.410   0.981 -0.0795 -4.2709  1.3832
 2799SOL     OW 8503   3.546   5.347   1.782 -0.1921 -0.1120 -0.6837
 2799SOL    HW1 8504   3.521   5.377   1.870  1.0681  0.4314 -0.4846
 2799SOL    HW2 8505   3.479   5.383   1.724 -1.2062 -0.7313  0.0781
 2800SOL     OW 8506   4.365   1.117   0.576  0.3415  0.1885 -0.1185
 2800SOL    HW1 8507   4.273   1.091   0.586  0.7322 -1.0723  0.3753
 2800SOL    HW2 8508   4.361   1.207   0.542 -1.0691  0.7959  1.4953
 2801SOL     OW 8509   1.580   3.718   1.278  0.0903 -0.5752 -0.3487
 2801SOL    HW1 8510   1.522   3.768   1.221 -0.9599 -0.0426  1.1422
 2801SOL    HW2 8511   1.570   3.627   1.248 -1.6550 -0.5233 -0.0384
 2802SOL     OW 8512   0.514   2.265   0.739 -0.6228  0.3105  0.0007
 2802SOL    HW1 8513   0.477   2.293   0.656 -0.7376  1.9703  0.5558
 2802SOL    HW2 8514   0.593   2.319   0.748  1.2933 -2.2306 -0.5666
 2803SOL     OW 8515   1.863   1.044   3.167 -0.1434  0.2175 -0.4480
 2803SOL    HW1 8516   1.913   1.018   3.089  0.8842 -1.0870  0.5889
 2803SOL    HW2 8517   1.924   1.098   3.217 -0.8107  1.0772 -0.5399
 2804SOL     OW 8518   4.580   5.511   3.735 -0.3892 -0.5189  0.1720
 2804SOL    HW1 8519   4.660   5.484   3.781  0.1315  0.3579 -0.2059
 2804SOL    HW2 8520   4.518   5.530   3.806 -0.0957 -0.6875  0.4795
 2805SOL     OW 8521   1.858   2.823   3.481 -0.6228  0.1747 -0.3069
 2805SOL    HW1 8522   1.772   2.786   3.501 -0.3846  0.2584  1.0162
 2805SOL    HW2 8523   1.838   2.912   3.451 -1.1578 -0.7731 -3.0174
 2806SOL     OW 8524   0.834   0.291   2.757  0.4959 -0.0103  0.0938
 2806SOL    HW1 8525   0.861   0.203   2.731 -4.1544 -1.6079 -0.3063
 2806SOL    HW2 8526   0.836   0.341   2.675  0.7987 -0.4649 -0.1828
 2807SOL     OW 8527   3.116   3.735   3.581 -0.0853  0.3723  0.0377
 2807SOL    HW1 8528   3.117   3.689   3.497 -0.8211  0.3087  0.0547
 2807SOL    HW2 8529   3.194   3.791   3.579  0.2584 -0.1157 -0.4091
 2808SOL     OW 8530   3.401   5.463   2.829 -0.6077 -0.1056  0.1167
 2808SOL    HW1 8531   3.354   5.539   2.794  0.8273  0.0605 -1.5985
 2808SOL    HW2 8532   3.351   5.388   2.798 -0.7860  0.1037 -0.1136
 2809SOL     OW 8533   4.568   1.282   2.121  0.4111 -0.3539  0.4825
 2809SOL    HW1 8534   4.569   1.337   2.042  2.3328 -0.0681  0.6526
 2809SOL    HW2 8535   4.551   1.344   2.192 -0.1493 -0.4284  0.4189
 2810SOL     OW 8536   3.845   5.210   1.621 -0.0705 -0.0291 -0.3570
 2810SOL    HW1 8537   3.794   5.185   1.544 -0.2533  0.4606 -0.4001
 2810SOL    HW2 8538   3.805   5.162   1.694 -0.2652 -0.0456 -0.4762
 2811SOL     OW 8539   2.368   0.963   1.282  0.1236 -0.2593  0.6263
 2811SOL    HW1 8540   2.345   0.977   1.373 -3.8075  1.0382 -0.3566
 2811SOL    HW2 8541   2.455   1.002   1.273 -0.3391  1.6779  3.3538
 2812SOL     OW 8542   0.441   1.146   2.031 -0.2108 -0.9475 -0.4218
 2812SOL    HW1 8543   0.432   1.203   2.107  1.0880  0.1624 -1.0525
 2812SOL    HW2 8544   0.393   1.067   2.054 -0.2315 -0.4537  1.3614
 2813SOL     OW 8545   3.271   0.405   1.287 -0.5516  0.4003  0.5477
 2813SOL    HW1 8546   3.305   0.473   1.229  0.5733  0.3510  1.1044
 2813SOL    HW2 8547   3.191   0.375   1.246  0.1883  0.3917 -0.9560
 2814SOL     OW 8548   0.407   2.559   1.189  0.6022 -0.0355 -0.0302
 2814SOL    HW1 8549   0.397   2.631   1.127  0.7785  0.5725  0.6360
 2814SOL    HW2 8550   0.490   2.575   1.232 -0.2202  0.4385  1.4609
 2815SOL     OW 8551   2.620   2.245   3.758  0.6414  0.3592 -0.1267
 2815SOL    HW1 8552   2.692   2.220   3.701  0.1339 -0.7665 -0.2990
 2815SOL    HW2 8553   2.547   2.261   3.699  0.1645 -0.6256  0.1755
 2816SOL     OW 8554   0.435   4.829   0.301 -0.0030 -0.0864 -0.1981
 2816SOL    HW1 8555   0.504   4.768   0.276  0.1443  0.3247 -0.8285
 2816SOL    HW2 8556   0.455   4.853   0.391  0.0680 -0.7877 -0.0256
 2817SOL     OW 8557   0.218   1.470   2.000  0.4114 -0.2442  0.2912
 2817SOL    HW1 8558   0.284   1.532   1.972 -0.2058  0.3569  0.1257
 2817SOL    HW2 8559   0.263   1.412   2.063  1.5634 -1.0399 -1.2118
 2818SOL     OW 8560   2.714   5.522   1.352 -0.2958 -0.0678 -0.3151
 2818SOL    HW1 8561   2.760   5.580   1.412 -0.8819  0.3690 -0.2770
 2818SOL    HW2 8562   2.736   5.556   1.265  2.0401 -1.8075 -0.4683
 2819SOL     OW 8563   3.535   0.557   2.776 -0.4288  0.5089 -0.0184
 2819SOL    HW1 8564   3.602   0.623   2.757 -1.7078  2.0191  0.4864
 2819SOL    HW2 8565   3.470   0.568   2.706 -0.7636 -0.0806  0.1960
 2820SOL     OW 8566   1.291   2.523   3.351  0.0730  0.7356  0.0704
 2820SOL    HW1 8567   1.355   2.475   3.299  0.4039 -1.5827  2.3751
 2820SOL    HW2 8568   1.234   2.565   3.287  0.6494 -1.6359 -2.1512
 2821SOL     OW 8569   1.130   1.129   1.312 -0.0896 -0.6481  0.3118
 2821SOL    HW1 8570   1.142   1.067   1.240 -1.7336  1.3788 -1.8837
 2821SOL    HW2 8571   1.051   1.101   1.357 -1.1777  0.1264 -1.0582
 2822SOL     OW 8572   3.016   3.293   3.557  0.0241 -0.1196  0.0039
 2822SOL    HW1 8573   2.984   3.203   3.557  0.1580 -0.2029  1.9436
 2822SOL    HW2 8574   2.937   3.347   3.568  0.0913 -0.0904  0.3595
 2823SOL     OW 8575   3.862   5.448   3.205 -0.0108  0.0238  0.5637
 2823SOL    HW1 8576   3.781   5.479   3.246  0.7653 -1.2068  3.3117
 2823SOL    HW2 8577   3.859   5.353   3.213  1.6833 -0.0556  0.7799
 2824SOL     OW 8578   2.498   1.649   3.387  0.2418  0.0723 -0.2700
 2824SOL    HW1 8579   2.422   1.643   3.444  0.7102  1.4526  0.5363
 2824SOL    HW2 8580   2.474   1.715   3.322  0.3808 -0.2178 -0.6216
 2825SOL     OW 8581   4.436   0.901   3.252 -0.8204  0.4634 -0.1909
 2825SOL    HW1 8582   4.405   0.971   3.311 -0.1452  1.4434 -0.9636
 2825SOL    HW2 8583   4.531   0.909   3.255 -0.7767  0.3454 -1.2007
 2826SOL     OW 8584   0.137   3.449   3.592 -0.1906  0.1296 -0.5979
 2826SOL    HW1 8585   0.181   3.496   3.663  0.4796 -0.4432 -0.6176
 2826SOL    HW2 8586   0.194   3.373   3.575 -0.6691 -0.0774 -1.3203
 2827SOL     OW 8587   2.274   3.156   0.703  0.3814 -0.1782  0.2625
 2827SOL    HW1 8588   2.273   3.091   0.632  0.5646 -0.0733  0.1631
 2827SOL    HW2 8589   2.209   3.221   0.676  0.1359 -0.3619  0.4034
 2828SOL     OW 8590   2.648   2.571   3.162  0.3449  0.2930  0.3134
 2828SOL    HW1 8591   2.736   2.604   3.183  0.7582  1.4946 -2.8587
 2828SOL    HW2 8592   2.641   2.489   3.211  3.2439  0.1422  0.6405
 2829SOL     OW 8593   0.772   5.147   0.532  0.0559  0.5844 -0.0845
 2829SOL    HW1 8594   0.859   5.157   0.492 -0.2480  0.6928 -0.7392
 2829SOL    HW2 8595   0.785   5.171   0.624  0.7891  0.2567 -0.0956
 2830SOL     OW 8596   5.308   3.114   0.216  0.0401  0.0367  0.1871
 2830SOL    HW1 8597   5.318   3.043   0.279  0.8664 -1.2776 -1.3348
 2830SOL    HW2 8598   5.263   3.073   0.141  0.8587  1.0043 -0.8720
 2831SOL     OW 8599   2.707   1.365   1.010 -0.2502  0.1526  0.1233
 2831SOL    HW1 8600   2.694   1.325   1.096 -0.9455  1.2618  0.5531
 2831SOL    HW2 8601   2.638   1.431   1.003  1.7642  2.4335  0.1467
 2832SOL     OW 8602   2.176   3.920   3.699  0.1810 -0.0102  0.0010
 2832SOL    HW1 8603   2.090   3.962   3.709  0.5590  0.5263  1.2202
 2832SOL    HW2 8604   2.236   3.993   3.683  0.7812 -0.0886  1.7134
 2833SOL     OW 8605   1.678   4.927   3.276  0.2081  0.0296  0.4406
 2833SOL    HW1 8606   1.729   5.004   3.248 -0.1064  0.0295 -0.1394
 2833SOL    HW2 8607   1.714   4.854   3.226 -2.1081  0.4622 -2.0814
 2834SOL     OW 8608   4.878   1.032   1.302 -0.1185  0.3585  0.7133
 2834SOL    HW1 8609   4.876   1.008   1.394 -4.0784  1.7608  1.2042
 2834SOL    HW2 8610   4.788   1.017   1.271  1.0060  0.0265 -2.9379
 2835SOL     OW 8611   0.635   0.010   1.993  0.4782  0.1604 -0.2502
 2835SOL    HW1 8612   0.541  -0.004   2.004  0.5722 -0.2220  0.0843
 2835SOL    HW2 8613   0.654  -0.019   1.904  0.3970 -0.4107 -0.0841
 2836SOL     OW 8614   4.719   4.810   3.706 -0.0323 -0.2148  0.2451
 2836SOL    HW1 8615   4.729   4.758   3.626 -1.0926 -0.5221  0.2933
 2836SOL    HW2 8616   4.626   4.833   3.708 -0.1283 -0.6531  1.6539
 2837SOL     OW 8617   4.595   4.293   0.608 -0.0559  0.1716 -0.2258
 2837SOL    HW1 8618   4.528   4.266   0.671  0.2642  0.7718  0.3894
 2837SOL    HW2 8619   4.660   4.223   0.609 -0.0944  0.1412  0.0495
 2838SOL     OW 8620   0.507   1.131   0.007 -0.3431  0.8055 -0.2446
 2838SOL    HW1 8621   0.516   1.195  -0.063 -1.2883  0.8270 -0.3544
 2838SOL    HW2 8622   0.466   1.055  -0.034 -0.5356  0.6680  0.1925
 2839SOL     OW 8623   0.271   5.163   1.154  0.2455 -0.7026  0.1832
 2839SOL    HW1 8624   0.237   5.132   1.237 -0.5525  1.4864  0.7529
 2839SOL    HW2 8625   0.194   5.170   1.097  0.2920  0.5544  0.2304
 2840SOL     OW 8626   4.213   2.634   2.259  0.3647 -0.1766 -0.0253
 2840SOL    HW1 8627   4.293   2.602   2.299  0.1855 -1.3121 -0.5514
 2840SOL    HW2 8628   4.148   2.565   2.274 -0.2183  0.2340 -0.5739
 2841SOL     OW 8629   2.400   0.434   2.053 -0.0646 -0.2975  0.0896
 2841SOL    HW1 8630   2.430   0.471   2.136 -1.0746  0.4552  0.1329
 2841SOL    HW2 8631   2.479   0.425   2.000  0.3032  1.3315  0.3137
 2842SOL     OW 8632   0.289   0.728   0.861 -0.7237  0.1696  0.5157
 2842SOL    HW1 8633   0.316   0.682   0.940 -0.1909 -0.9821 -0.3164
 2842SOL    HW2 8634   0.282   0.820   0.888  1.9201  0.2097  1.3108
 2843SOL     OW 8635   2.296   2.523   1.464  0.6306 -0.2184 -0.0087
 2843SOL    HW1 8636   2.253   2.563   1.390  0.2994 -1.8688 -0.7633
 2843SOL    HW2 8637   2.376   2.574   1.477 -0.1981  1.2024 -0.3074
 2844SOL     OW 8638   2.488   0.135   2.818 -0.4735 -0.1172 -0.2947
 2844SOL    HW1 8639   2.469   0.042   2.812  0.3936 -0.4299  1.1691
 2844SOL    HW2 8640   2.434   0.166   2.890 -1.2218  0.6692 -1.1665
 2845SOL     OW 8641   3.385   3.100   1.711  0.0778 -0.4256 -0.9412
 2845SOL    HW1 8642   3.290   3.100   1.719 -0.1873 -2.8011 -2.9529
 2845SOL    HW2 8643   3.403   3.156   1.635  0.4294  0.9715  0.1354
 2846SOL     OW 8644   4.527   4.927   3.460 -0.0208 -0.1618  0.6413
 2846SOL    HW1 8645   4.477   4.848   3.437 -1.3842  0.7519  0.3261
 2846SOL    HW2 8646   4.543   4.918   3.554  2.0255 -1.9670  0.2034
 2847SOL     OW 8647   2.495   2.751   2.030 -0.1478 -0.0356 -0.1478
 2847SOL    HW1 8648   2.452   2.832   2.000  0.2048  0.1453 -0.1656
 2847SOL    HW2 8649   2.448   2.728   2.110 -0.2316  0.2046 -0.1264
 2848SOL     OW 8650   4.155   4.744   0.683 -0.5553  0.1552 -0.1120
 2848SOL    HW1 8651   4.217   4.689   0.636 -1.0406  0.0150 -0.5947
 2848SOL    HW2 8652   4.092   4.682   0.720  0.6601  0.1153  2.0378
 2849SOL     OW 8653   2.425   3.901   2.909 -0.1087  0.3777 -0.0464
 2849SOL    HW1 8654   2.478   3.951   2.971  0.0195 -0.1100  0.2410
 2849SOL    HW2 8655   2.385   3.832   2.962 -0.1902  0.1056 -0.4603
 2850SOL     OW 8656   1.896   4.260   1.010 -0.2967 -0.7959  0.2463
 2850SOL    HW1 8657   1.873   4.187   1.066 -1.0855 -2.1590 -1.7588
 2850SOL    HW2 8658   1.835   4.330   1.034 -1.9035 -2.0038 -0.1937
 2851SOL     OW 8659   1.624   5.493   3.852  0.2665  0.3397 -0.1203
 2851SOL    HW1 8660   1.588   5.409   3.880  1.1283 -1.0675 -2.8635
 2851SOL    HW2 8661   1.569   5.519   3.778  1.2579  1.1568 -0.5974
 2852SOL     OW 8662   5.252   5.031   0.710 -0.4009 -0.1904  1.0247
 2852SOL    HW1 8663   5.186   5.024   0.779 -1.4353  0.8895  0.2074
 2852SOL    HW2 8664   5.200   5.038   0.629  0.7717 -1.9782  0.0642
 2853SOL     OW 8665   3.173   4.743   2.981  0.0912 -0.3060  0.0708
 2853SOL    HW1 8666   3.118   4.797   2.924  0.5899 -1.5241 -1.6190
 2853SOL    HW2 8667   3.238   4.804   3.015 -1.2279  0.7913  0.7282
 2854SOL     OW 8668   5.054   1.630   3.470 -0.4498 -0.0174  0.5647
 2854SOL    HW1 8669   4.973   1.656   3.514 -0.5067 -0.9693  1.0383
 2854SOL    HW2 8670   5.110   1.597   3.540  1.1374  2.3732  0.5759
 2855SOL     OW 8671   0.655   5.498   0.842  0.3670 -0.1025 -0.0803
 2855SOL    HW1 8672   0.728   5.556   0.863  1.0248 -1.1127  0.5694
 2855SOL    HW2 8673   0.623   5.469   0.928 -1.5091  1.1405 -0.3106
 2856SOL     OW 8674   4.398   1.182   1.361  0.5165  0.2723  0.0346
 2856SOL    HW1 8675   4.360   1.258   1.316  2.2512  0.5081 -1.1283
 2856SOL    HW2 8676   4.462   1.147   1.299  0.2984 -1.6943  0.8664
 2857SOL     OW 8677   0.840   3.873   1.785  0.6150 -0.6875  0.3918
 2857SOL    HW1 8678   0.933   3.891   1.771  0.2997  0.6089 -0.2529
 2857SOL    HW2 8679   0.813   3.938   1.850 -0.2210  0.2065 -0.8011
 2858SOL     OW 8680   2.971   5.431   0.385 -0.0044  0.0990  0.4451
 2858SOL    HW1 8681   2.911   5.366   0.348  1.2395 -1.3083  0.7829
 2858SOL    HW2 8682   2.927   5.515   0.371 -1.1131 -0.6872 -1.1245
 2859SOL     OW 8683   2.355   0.076   3.248  0.0650 -0.5185  0.3101
 2859SOL    HW1 8684   2.329   0.164   3.276 -0.9885 -0.8531  0.4203
 2859SOL    HW2 8685   2.446   0.086   3.218 -0.2467  0.7315 -0.2742
 2860SOL     OW 8686   2.822   0.485   3.282  0.3122  0.1916 -0.1878
 2860SOL    HW1 8687   2.864   0.429   3.217 -0.0902  1.8051 -1.9114
 2860SOL    HW2 8688   2.728   0.469   3.271  0.1499  1.5802 -1.1346
 2861SOL     OW 8689   1.463   0.142   2.560 -0.2330  0.2152  0.6812
 2861SOL    HW1 8690   1.376   0.173   2.534  0.4347  1.1256 -0.5159
 2861SOL    HW2 8691   1.501   0.216   2.608  0.7160  0.6530 -0.7146
 2862SOL     OW 8692   2.813   4.371   2.649 -0.5273 -0.1588 -0.4721
 2862SOL    HW1 8693   2.852   4.456   2.669 -1.2059 -0.0200  0.2762
 2862SOL    HW2 8694   2.723   4.391   2.623 -1.1424 -0.7528  1.1078
 2863SOL     OW 8695   3.508   1.055   1.934 -0.4249 -0.0658  0.2305
 2863SOL    HW1 8696   3.579   0.996   1.907  0.8887  1.6090 -0.0961
 2863SOL    HW2 8697   3.487   1.028   2.023 -1.4812 -2.5110 -0.6611
 2864SOL     OW 8698   5.438   3.345   0.101  0.0026 -0.2010 -0.1700
 2864SOL    HW1 8699   5.398   3.313   0.021  0.6147 -1.7424  0.1163
 2864SOL    HW2 8700   5.466   3.267   0.148  1.0703  0.7264  0.8220
 2865SOL     OW 8701   3.543   4.358   2.959  0.1628  0.0249  0.3202
 2865SOL    HW1 8702   3.525   4.385   3.049 -1.6799 -0.8296  0.2671
 2865SOL    HW2 8703   3.489   4.416   2.905 -1.2961 -1.5423  0.0121
 2866SOL     OW 8704   2.323   0.778   2.080  0.1629  0.3850  0.3350
 2866SOL    HW1 8705   2.371   0.703   2.114  0.6611  1.2042  1.5023
 2866SOL    HW2 8706   2.333   0.846   2.147 -2.0759  0.8074  0.3263
 2867SOL     OW 8707   3.633   4.273   2.641 -0.1998 -0.0314  0.1609
 2867SOL    HW1 8708   3.652   4.349   2.585 -2.4026  0.9873  0.6901
 2867SOL    HW2 8709   3.553   4.236   2.605  1.0807 -2.5072 -0.3858
 2868SOL     OW 8710   4.904   2.001   0.604 -0.3916 -0.4132 -0.5807
 2868SOL    HW1 8711   4.870   1.920   0.643 -2.0190  1.3082  1.9221
 2868SOL    HW2 8712   4.861   2.006   0.519 -0.1329 -2.2121 -0.8668
 2869SOL     OW 8713   0.040   1.996   1.473  0.3637 -0.2297  0.2547
 2869SOL    HW1 8714   0.055   2.086   1.442 -0.1072  0.0170  0.7137
 2869SOL    HW2 8715  -0.045   1.972   1.435 -0.1409  0.0172  1.1986
 2870SOL     OW 8716   0.165   3.326   0.911  0.5888  0.1840 -0.0730
 2870SOL    HW1 8717   0.168   3.380   0.832  1.7400  1.6135  0.8926
 2870SOL    HW2 8718   0.250   3.339   0.953  1.1963 -2.9415 -0.0928
 2871SOL     OW 8719   4.786   0.018   3.591  0.3391 -0.1814 -0.4204
 2871SOL    HW1 8720   4.702  -0.009   3.628  1.9228 -3.2532  1.4087
 2871SOL    HW2 8721   4.809   0.097   3.638 -0.5993 -0.4638  0.5456
 2872SOL     OW 8722   5.307   1.197   0.571  0.4026 -0.0919  0.3560
 2872SOL    HW1 8723   5.339   1.136   0.505 -0.6868 -1.5780  1.1606
 2872SOL    HW2 8724   5.348   1.168   0.653 -1.3348 -0.7590  1.0308
 2873SOL     OW 8725   2.918   4.132   2.780 -0.3890 -0.3420 -0.1727
 2873SOL    HW1 8726   2.996   4.186   2.766  0.6361 -1.6744  0.1865
 2873SOL    HW2 8727   2.844   4.193   2.770  0.7060  1.0748  0.0756
 2874SOL     OW 8728   3.982   0.616   1.052 -0.3245 -0.3911 -0.6827
 2874SOL    HW1 8729   4.022   0.529   1.043 -0.2020 -0.2766 -1.2603
 2874SOL    HW2 8730   4.055   0.677   1.051 -0.5473 -0.0564 -3.3036
 2875SOL     OW 8731   3.755   5.488   0.674 -0.1705 -0.2455 -0.4273
 2875SOL    HW1 8732   3.759   5.404   0.628  0.0149 -0.3026 -0.3066
 2875SOL    HW2 8733   3.788   5.469   0.762  1.4067  0.2966 -0.8739
 2876SOL     OW 8734   0.456   2.127   1.691 -0.2037 -0.4294  0.3120
 2876SOL    HW1 8735   0.467   2.189   1.763 -1.1545  1.0403 -0.7382
 2876SOL    HW2 8736   0.513   2.161   1.622 -1.9656  0.3210 -0.8653
 2877SOL     OW 8737   4.274   0.712   1.862 -0.0365 -0.1283 -0.3417
 2877SOL    HW1 8738   4.304   0.638   1.915  1.0103  0.3998 -0.1690
 2877SOL    HW2 8739   4.192   0.683   1.824 -0.4848 -0.7664  1.0587
 2878SOL     OW 8740   5.136   5.351   1.013 -0.1289  0.0273  0.5275
 2878SOL    HW1 8741   5.118   5.282   0.949 -0.6279  0.9775 -0.3923
 2878SOL    HW2 8742   5.157   5.428   0.960  0.5119  0.5676  1.5330
 2879SOL     OW 8743   0.066   3.707   2.463 -0.3497  0.0972 -0.0585
 2879SOL    HW1 8744   0.085   3.745   2.378 -1.2740 -0.3300 -0.4648
 2879SOL    HW2 8745   0.025   3.623   2.444 -0.1770 -0.2051  0.8132
 2880SOL     OW 8746   0.382   3.077   3.230 -0.0783  0.0583  0.7191
 2880SOL    HW1 8747   0.314   3.141   3.253  0.2240  0.8250 -0.4757
 2880SOL    HW2 8748   0.463   3.127   3.230  0.4930 -0.8014  1.8826
 2881SOL     OW 8749   2.837   2.373   3.872 -0.4471 -0.7333  0.1498
 2881SOL    HW1 8750   2.742   2.363   3.859 -0.7535  2.6066 -1.2047
 2881SOL    HW2 8751   2.846   2.404   3.962 -0.7507 -0.2597  0.0220
 2882SOL     OW 8752   0.519   0.519   2.608  0.3247  0.0033  0.2163
 2882SOL    HW1 8753   0.486   0.605   2.582  0.0647 -0.2610 -0.3603
 2882SOL    HW2 8754   0.466   0.457   2.557  0.4235 -0.5004  0.7195
 2883SOL     OW 8755   2.335   2.528   1.084 -0.4609  0.8579 -0.4415
 2883SOL    HW1 8756   2.245   2.518   1.114  0.0071 -1.5185  0.3519
 2883SOL    HW2 8757   2.374   2.441   1.093  2.8570  2.3689  2.3308
 2884SOL     OW 8758   2.727   4.984   2.732  0.1985  0.3948  0.2779
 2884SOL    HW1 8759   2.642   4.994   2.776  0.0484 -1.7129  0.5826
 2884SOL    HW2 8760   2.709   5.004   2.640 -1.2871 -2.3718 -0.1386
 2885SOL     OW 8761   3.084   2.941   3.099  0.4254  0.2009  0.3877
 2885SOL    HW1 8762   3.138   2.978   3.169  0.3800 -0.0913  0.5798
 2885SOL    HW2 8763   3.134   2.866   3.067  1.2477  1.3188 -1.0479
 2886SOL     OW 8764   4.579   1.002   0.436  0.6470 -0.8863  0.3401
 2886SOL    HW1 8765   4.511   1.025   0.499 -0.0855  0.7928 -0.9831
 2886SOL    HW2 8766   4.532   0.958   0.365  1.2434 -1.4204  0.2624
 2887SOL     OW 8767   4.094   0.138   2.022  0.3512 -0.2745 -0.4554
 2887SOL    HW1 8768   4.171   0.087   2.049 -0.5219 -1.2123  0.3214
 2887SOL    HW2 8769   4.044   0.079   1.966  1.0319  0.9220 -2.4556
 2888SOL     OW 8770   4.893   3.088   3.193  0.5509 -0.3991  0.1324
 2888SOL    HW1 8771   4.964   3.099   3.255 -0.4708  0.5263  1.1774
 2888SOL    HW2 8772   4.864   3.177   3.174  0.9588 -0.6329 -1.8570
 2889SOL     OW 8773   1.383   1.918   0.120 -0.2367  0.1187  0.0932
 2889SOL    HW1 8774   1.407   1.921   0.028 -0.6828 -0.7167 -0.0560
 2889SOL    HW2 8775   1.312   1.854   0.125  1.4689 -1.7810  1.3817
 2890SOL     OW 8776   2.461   4.197   0.508 -0.0637  0.4232  0.1950
 2890SOL    HW1 8777   2.505   4.122   0.547  1.7803  0.5003 -1.5541
 2890SOL    HW2 8778   2.384   4.161   0.465  1.4703 -0.7723 -1.7248
 2891SOL     OW 8779   0.979   2.725   1.488 -0.0094 -0.0012  0.2912
 2891SOL    HW1 8780   0.931   2.662   1.435  0.5459 -0.9387  0.8826
 2891SOL    HW2 8781   0.972   2.693   1.577  1.4485 -0.0020  0.4289
 2892SOL     OW 8782   3.407   4.064   0.291 -0.0493  0.1440  0.8230
 2892SOL    HW1 8783   3.487   4.109   0.267 -1.3485  2.6769  0.9407
 2892SOL    HW2 8784   3.349   4.132   0.324 -1.9810 -1.7046  1.5144
 2893SOL     OW 8785   4.932   5.332   0.160  0.5519  0.1184  0.2361
 2893SOL    HW1 8786   4.872   5.258   0.153 -0.0093  0.6181 -0.4342
 2893SOL    HW2 8787   4.888   5.395   0.217  0.8226  0.1315  0.4359
 2894SOL     OW 8788   2.705   2.994   1.846 -1.0307  0.2029 -0.2223
 2894SOL    HW1 8789   2.656   3.065   1.888  3.1072  1.8177  2.5295
 2894SOL    HW2 8790   2.762   3.039   1.783  0.3037 -0.8502  0.1844
 2895SOL     OW 8791   2.609   0.835   2.327 -0.8007  0.0070 -0.1320
 2895SOL    HW1 8792   2.564   0.861   2.407 -1.3703 -1.5859  0.1037
 2895SOL    HW2 8793   2.604   0.912   2.270 -1.5989  0.6957  0.8380
 2896SOL     OW 8794   4.253   4.889   0.302  0.6428 -0.6745  0.4907
 2896SOL    HW1 8795   4.215   4.927   0.381  2.1056 -0.4820  1.1337
 2896SOL    HW2 8796   4.343   4.869   0.326  0.8281 -1.5695 -0.8294
 2897SOL     OW 8797   1.685   2.746   2.483 -0.0854  0.0785 -0.0584
 2897SOL    HW1 8798   1.600   2.701   2.488  0.6726 -1.3167  1.4598
 2897SOL    HW2 8799   1.748   2.675   2.469  0.8318  1.1216 -1.3932
 2898SOL     OW 8800   4.431   5.311   2.748  0.4515 -0.2391  0.2414
 2898SOL    HW1 8801   4.521   5.292   2.720  0.3074 -2.5895  1.1187
 2898SOL    HW2 8802   4.437   5.317   2.844  0.2151  3.2917  0.1687
 2899SOL     OW 8803   3.474   0.571   3.063 -0.0290 -0.0123 -0.1265
 2899SOL    HW1 8804   3.505   0.572   2.973 -0.7312  1.6385 -0.3808
 2899SOL    HW2 8805   3.389   0.528   3.059  0.5073 -1.1205 -0.0200
 2900SOL     OW 8806   1.015   3.425   2.679  0.5231  0.3145 -0.2962
 2900SOL    HW1 8807   0.974   3.375   2.608  1.2588  0.2860 -0.7085
 2900SOL    HW2 8808   1.056   3.358   2.734  0.8347  0.4067 -0.4140
 2901SOL     OW 8809   0.559   3.712   2.659 -0.4053 -1.3111  0.2889
 2901SOL    HW1 8810   0.465   3.720   2.645 -0.3322 -1.5462 -0.3340
 2901SOL    HW2 8811   0.592   3.664   2.583  0.0322 -2.3818  1.1277
 2902SOL     OW 8812   1.090   1.899   2.196 -0.0759  0.0619 -0.3761
 2902SOL    HW1 8813   1.078   1.804   2.188  1.3968 -0.0964 -1.0586
 2902SOL    HW2 8814   1.072   1.933   2.108  1.5202  0.1232 -0.7176
 2903SOL     OW 8815   1.327   1.961   2.852 -0.4040  0.0597 -0.2521
 2903SOL    HW1 8816   1.361   1.921   2.932 -0.3321  1.3286  0.3837
 2903SOL    HW2 8817   1.236   1.981   2.871 -0.2668  0.7789 -0.3052
 2904SOL     OW 8818   0.508   2.430   3.621 -0.3137  0.1696 -0.2066
 2904SOL    HW1 8819   0.423   2.394   3.599 -0.6046  0.5558  0.2571
 2904SOL    HW2 8820   0.565   2.405   3.548 -0.7921 -0.1949 -0.4573
 2905SOL     OW 8821   3.206   4.315   2.815  0.2711 -0.2256 -0.0244
 2905SOL    HW1 8822   3.280   4.372   2.796  1.5327 -2.1155 -1.1026
 2905SOL    HW2 8823   3.231   4.268   2.895  0.8504 -1.7514 -1.0516
 2906SOL     OW 8824   0.798   4.657   0.933 -0.2995 -0.1658  0.2782
 2906SOL    HW1 8825   0.742   4.720   0.888  0.5221 -0.5542 -1.3981
 2906SOL    HW2 8826   0.743   4.579   0.945 -0.3485 -0.3094 -0.7496
 2907SOL     OW 8827   5.360   3.793   3.414 -0.4498  0.1326  0.4345
 2907SOL    HW1 8828   5.290   3.844   3.454 -0.1198  0.3212  0.7738
 2907SOL    HW2 8829   5.419   3.858   3.376 -0.4029 -0.0229  0.2360
 2908SOL     OW 8830   4.073   3.661   1.279 -0.3386 -0.0518 -0.0975
 2908SOL    HW1 8831   4.109   3.732   1.225  0.7379 -0.7050 -0.2501
 2908SOL    HW2 8832   3.984   3.650   1.246 -0.0256  0.2309 -1.0743
 2909SOL     OW 8833   0.395   1.413   0.442 -0.4328  0.4834 -0.1979
 2909SOL    HW1 8834   0.412   1.404   0.349  0.2764 -0.2645 -0.0055
 2909SOL    HW2 8835   0.400   1.324   0.476  1.2768  0.9422  0.8746
 2910SOL     OW 8836   3.379   4.786   1.455 -0.1896 -0.0646 -0.1130
 2910SOL    HW1 8837   3.432   4.712   1.483 -0.9768 -0.0223  1.5882
 2910SOL    HW2 8838   3.385   4.849   1.526 -2.1576  0.1080 -0.0267
 2911SOL     OW 8839   1.167   3.467   0.512  0.0083 -0.1183  0.1816
 2911SOL    HW1 8840   1.246   3.441   0.561 -1.7461 -0.4766  3.0223
 2911SOL    HW2 8841   1.164   3.406   0.438  1.0353 -1.7713  1.4373
 2912SOL     OW 8842   4.209   0.315   0.000  0.1829  0.1897  0.0537
 2912SOL    HW1 8843   4.286   0.286  -0.050  2.1098  1.6170  1.9897
 2912SOL    HW2 8844   4.134   0.290  -0.054  2.0090 -0.9231 -2.1288
 2913SOL     OW 8845   0.681   3.095   3.170 -0.6371  0.0303  0.0728
 2913SOL    HW1 8846   0.698   3.164   3.234 -0.5970 -0.3452  0.4716
 2913SOL    HW2 8847   0.630   3.138   3.101 -0.2779  0.5476  0.1257
 2914SOL     OW 8848   5.542   4.707   2.133  0.5749 -0.5818 -0.0605
 2914SOL    HW1 8849   5.525   4.791   2.175  0.8219  0.0514 -1.1725
 2914SOL    HW2 8850   5.523   4.723   2.040  3.8331 -0.7661 -0.8844
 2915SOL     OW 8851   4.228   5.461   0.708 -0.4470 -0.2916  0.7652
 2915SOL    HW1 8852   4.266   5.385   0.664 -0.8317 -0.6401  1.0313
 2915SOL    HW2 8853   4.179   5.506   0.639  0.2462  0.0326  0.4756
 2916SOL     OW 8854   4.692   4.583   3.544 -0.5782  0.8619 -0.1184
 2916SOL    HW1 8855   4.738   4.523   3.603 -1.3257  0.0524 -0.3298
 2916SOL    HW2 8856   4.753   4.599   3.473 -0.8508 -0.7630 -0.7593
 2917SOL     OW 8857   2.880   0.113   0.349  0.1927 -0.3047  0.6498
 2917SOL    HW1 8858   2.808   0.155   0.302 -1.0578 -1.9091  1.0543
 2917SOL    HW2 8859   2.958   0.160   0.319 -0.6095 -0.7405 -2.4699
 2918SOL     OW 8860   5.034   0.397   1.775  0.2288 -0.1985 -0.1585
 2918SOL    HW1 8861   4.989   0.341   1.838  0.0651 -0.6356 -0.6629
 2918SOL    HW2 8862   4.970   0.464   1.753  0.2112 -0.1732 -0.0357
 2919SOL     OW 8863   3.783   4.770   0.642 -0.2245 -0.4951  0.3539
 2919SOL    HW1 8864   3.713   4.705   0.641  0.1549 -0.9340  0.9187
 2919SOL    HW2 8865   3.772   4.820   0.562 -0.3441 -1.4643 -0.2526
 2920SOL     OW 8866   2.846   0.820   2.902  0.1001 -0.2384 -0.2358
 2920SOL    HW1 8867   2.774   0.788   2.957  0.5994 -0.4588  0.3083
 2920SOL    HW2 8868   2.841   0.916   2.908  0.0068 -0.2586  0.0149
 2921SOL     OW 8869   3.211   0.733   0.833  0.2865 -0.1532  0.3811
 2921SOL    HW1 8870   3.230   0.820   0.869 -2.6444  0.5652  0.5082
 2921SOL    HW2 8871   3.151   0.694   0.897 -0.0673 -1.4236 -0.6822
 2922SOL     OW 8872   3.942   2.823   3.614 -0.3177  0.2502 -0.1359
 2922SOL    HW1 8873   3.928   2.814   3.519  1.4364  1.6467 -0.5922
 2922SOL    HW2 8874   3.928   2.735   3.648 -1.2681 -0.2350 -1.6439
 2923SOL     OW 8875   3.843   1.691   2.389 -0.0513 -0.7652  0.2495
 2923SOL    HW1 8876   3.886   1.648   2.463 -0.0269 -0.2158  0.5592
 2923SOL    HW2 8877   3.790   1.761   2.429  0.9172  0.3372 -0.3183
 2924SOL     OW 8878   0.305   3.139   1.867  0.2797 -0.0146  0.1363
 2924SOL    HW1 8879   0.389   3.157   1.909 -0.1465  0.0228  0.9891
 2924SOL    HW2 8880   0.320   3.059   1.816  1.5059  1.3075 -1.7182
 2925SOL     OW 8881   2.158   2.891   0.820 -0.8908  0.1758  0.3364
 2925SOL    HW1 8882   2.201   2.909   0.736 -0.8737 -1.5432 -0.0579
 2925SOL    HW2 8883   2.205   2.945   0.883  1.6017 -1.2600 -0.1522
 2926SOL     OW 8884   3.205   3.236   1.901  0.3845  0.3801  0.0934
 2926SOL    HW1 8885   3.272   3.295   1.868 -1.4610  2.4902 -0.1334
 2926SOL    HW2 8886   3.205   3.250   1.996 -0.3679  1.1845 -0.0044
 2927SOL     OW 8887   5.057   4.253   2.470  0.2630  0.1502 -0.4241
 2927SOL    HW1 8888   5.049   4.158   2.479 -0.5545  0.1729 -0.8339
 2927SOL    HW2 8889   5.023   4.287   2.553 -0.8253  0.1312 -0.8584
 2928SOL     OW 8890   1.548   1.113   0.441 -0.0434  0.1285  0.3195
 2928SOL    HW1 8891   1.534   1.188   0.384 -0.0838  0.3578  0.6256
 2928SOL    HW2 8892   1.643   1.113   0.457  0.0524 -0.2943 -0.2291
 2929SOL     OW 8893   1.046   1.001   2.265  0.2049 -0.0595 -0.3164
 2929SOL    HW1 8894   1.021   0.983   2.174  0.5040 -1.8523 -0.0682
 2929SOL    HW2 8895   1.018   1.092   2.279 -1.3955 -0.2930 -1.6570
 2930SOL     OW 8896   4.114   0.017   0.437 -0.1830 -0.1397 -0.0272
 2930SOL    HW1 8897   4.137   0.025   0.345  2.9510  0.2920  0.6677
 2930SOL    HW2 8898   4.094   0.107   0.464 -2.2849 -0.4336 -0.5047
 2931SOL     OW 8899   3.277   3.398   0.933 -0.8195 -0.2045  0.3948
 2931SOL    HW1 8900   3.192   3.360   0.957 -0.7601 -1.2814 -0.9866
 2931SOL    HW2 8901   3.297   3.359   0.848  1.1039 -0.0194  0.7273
 2932SOL     OW 8902   2.751   5.293   0.206  0.2659  0.3718  0.4822
 2932SOL    HW1 8903   2.789   5.319   0.122  0.1318  1.8018  0.8495
 2932SOL    HW2 8904   2.673   5.348   0.215 -1.2998 -1.6468  0.3039
 2933SOL     OW 8905   5.348   0.283   0.401 -0.3376  0.4030 -1.1016
 2933SOL    HW1 8906   5.362   0.259   0.309 -1.1666  2.2840 -1.7906
 2933SOL    HW2 8907   5.352   0.379   0.401  0.3788  0.4251  0.9821
 2934SOL     OW 8908   4.003   2.397   1.767  0.1337 -0.1150 -0.2502
 2934SOL    HW1 8909   4.069   2.339   1.730  0.3889  0.4489 -0.7021
 2934SOL    HW2 8910   3.920   2.353   1.751  0.2178  0.2393 -1.7358
 2935SOL     OW 8911   4.711   2.627   0.770 -0.0746 -0.0700 -0.0145
 2935SOL    HW1 8912   4.805   2.631   0.753  0.1036 -0.0190  0.9463
 2935SOL    HW2 8913   4.691   2.533   0.770 -0.1411 -0.0592 -0.8164
 2936SOL     OW 8914   4.631   2.079   1.033 -0.1797  0.1907 -0.8455
 2936SOL    HW1 8915   4.636   2.098   0.939 -1.2390 -1.4970 -1.2953
 2936SOL    HW2 8916   4.543   2.107   1.058  0.5123  1.7546 -0.0447
 2937SOL     OW 8917   0.399   3.146   2.552  0.3237 -0.1151  0.0268
 2937SOL    HW1 8918   0.408   3.240   2.568  0.5945  0.0612 -1.0948
 2937SOL    HW2 8919   0.381   3.139   2.458  0.9500 -1.2153 -0.0314
 2938SOL     OW 8920   5.393   4.536   1.562 -0.4625 -0.3199 -0.3891
 2938SOL    HW1 8921   5.456   4.467   1.584 -1.2861 -0.9408  0.0505
 2938SOL    HW2 8922   5.309   4.491   1.553 -0.5527  0.1827 -2.8818
 2939SOL     OW 8923   1.767   3.396   3.322 -0.9217 -0.5453  0.4959
 2939SOL    HW1 8924   1.768   3.427   3.412 -0.1003  0.7382  0.0713
 2939SOL    HW2 8925   1.858   3.373   3.303 -0.7063  1.0321 -0.5821
 2940SOL     OW 8926   1.203   5.424   2.955  0.1117  0.0744 -0.1893
 2940SOL    HW1 8927   1.270   5.466   2.901 -0.6934  0.8238 -0.6113
 2940SOL    HW2 8928   1.156   5.366   2.895 -0.7195  0.8332 -0.2936
 2941SOL     OW 8929   5.156   3.985   1.631  0.1339  0.5903  0.5012
 2941SOL    HW1 8930   5.079   3.962   1.684 -0.6732 -1.2035 -1.3097
 2941SOL    HW2 8931   5.134   4.070   1.594 -0.8538  0.2757  0.3131
 2942SOL     OW 8932   1.804   2.298   0.032  0.0903  0.1396  0.2160
 2942SOL    HW1 8933   1.846   2.324  -0.050 -0.6156  2.1509  0.4247
 2942SOL    HW2 8934   1.875   2.270   0.089  0.5364 -1.8176 -1.2376
 2943SOL     OW 8935   0.671   2.369   3.852  0.3885 -0.1650 -0.0325
 2943SOL    HW1 8936   0.618   2.421   3.790  1.9573  0.7861 -0.6249
 2943SOL    HW2 8937   0.619   2.368   3.932 -1.1263 -0.3683 -0.9719
 2944SOL     OW 8938   2.856   1.345   0.398  0.3158  0.5274 -0.5321
 2944SOL    HW1 8939   2.771   1.319   0.434  0.1611  0.7587 -0.7300
 2944SOL    HW2 8940   2.873   1.430   0.437  0.9750  0.0021  0.3745
 2945SOL     OW 8941   3.199   0.457   3.341  0.2544  0.1847  0.3190
 2945SOL    HW1 8942   3.113   0.486   3.372 -0.1578  0.0728 -0.6804
 2945SOL    HW2 8943   3.258   0.528   3.364 -0.3001  0.7258  0.1038
 2946SOL     OW 8944   4.421   4.146   0.732  0.5266  0.2303 -0.4096
 2946SOL    HW1 8945   4.450   4.064   0.693 -0.6138  0.0695 -0.9783
 2946SOL    HW2 8946   4.430   4.133   0.826  0.5372 -0.4737 -0.5035
 2947SOL     OW 8947   4.687   5.358   1.789 -0.3704 -0.5546 -0.1383
 2947SOL    HW1 8948   4.696   5.263   1.784 -0.9493 -0.5513 -2.7558
 2947SOL    HW2 8949   4.760   5.392   1.737 -1.3627  0.3219 -1.0224
 2948SOL     OW 8950   4.495   2.329   0.164  0.3770  0.1422  0.5087
 2948SOL    HW1 8951   4.500   2.379   0.245 -1.6610  1.1213  0.0873
 2948SOL    HW2 8952   4.476   2.239   0.193  0.5106  0.3092  1.1359
 2949SOL     OW 8953   1.884   5.122   1.609  0.2852 -0.3862 -0.2178
 2949SOL    HW1 8954   1.929   5.052   1.561  0.7271 -0.8764  0.8765
 2949SOL    HW2 8955   1.953   5.162   1.662  0.3263  1.7733 -1.7999
 2950SOL     OW 8956   3.244   4.381   3.786 -0.1796  0.2378  0.0436
 2950SOL    HW1 8957   3.173   4.364   3.848  0.0341 -2.8779 -0.3824
 2950SOL    HW2 8958   3.269   4.472   3.801 -2.2094  0.5080  2.3158
 2951SOL     OW 8959   2.489   1.789   2.660  0.6442 -0.6303  0.3743
 2951SOL    HW1 8960   2.453   1.801   2.572 -1.2658  1.4374  1.3436
 2951SOL    HW2 8961   2.584   1.787   2.646  0.4761  1.1627 -1.6254
 2952SOL     OW 8962   1.119   4.110   2.062 -0.3322  0.1370  0.6556
 2952SOL    HW1 8963   1.046   4.085   2.119 -0.2682  0.0547  0.7005
 2952SOL    HW2 8964   1.181   4.154   2.120  0.4846 -1.3666  0.9752
 2953SOL     OW 8965   0.810   5.542   3.719  0.0272 -0.1910 -0.3876
 2953SOL    HW1 8966   0.869   5.506   3.653  0.4225 -0.1616 -0.0567
 2953SOL    HW2 8967   0.725   5.546   3.676  0.2324 -0.3912 -0.8170
 2954SOL     OW 8968   5.570   2.794   2.119 -0.8559  0.9229 -0.1493
 2954SOL    HW1 8969   5.577   2.885   2.090  1.5137  0.2575 -1.9800
 2954SOL    HW2 8970   5.575   2.743   2.039 -1.8430 -0.8836  0.8763
 2955SOL     OW 8971   4.866   3.680   0.979  0.0597 -0.2088  0.2505
 2955SOL    HW1 8972   4.807   3.655   1.050 -0.1339 -0.0765  0.1356
 2955SOL    HW2 8973   4.936   3.729   1.023 -0.5661  0.7273  0.2337
 2956SOL     OW 8974   3.708   0.151   0.542  0.2069 -0.2608 -0.1848
 2956SOL    HW1 8975   3.768   0.207   0.590  1.1900 -0.9909 -0.5368
 2956SOL    HW2 8976   3.744   0.063   0.551 -0.0722 -0.5322 -1.5014
 2957SOL     OW 8977   3.470   2.996   1.987 -0.5851 -0.3092  0.4885
 2957SOL    HW1 8978   3.505   3.080   2.016 -0.8598 -0.2385  0.6261
 2957SOL    HW2 8979   3.493   2.990   1.895  0.4707 -0.6273  0.7632
 2958SOL     OW 8980   0.343   4.444   2.522 -0.2177  0.2693 -0.0211
 2958SOL    HW1 8981   0.437   4.436   2.539 -0.0894  0.7718 -0.4803
 2958SOL    HW2 8982   0.315   4.518   2.576 -0.8070 -1.2636  1.8679
 2959SOL     OW 8983   2.457   3.153   0.366 -0.0662  0.1238 -0.6568
 2959SOL    HW1 8984   2.486   3.088   0.430  0.2650  0.5701 -0.3405
 2959SOL    HW2 8985   2.371   3.123   0.337 -0.4343  0.1595  0.3544
 2960SOL     OW 8986   2.033   0.592   0.439 -0.2852  0.3784 -0.0455
 2960SOL    HW1 8987   1.963   0.558   0.496 -1.3752  0.4751 -1.2761
 2960SOL    HW2 8988   2.076   0.514   0.405 -1.5063  0.2072 -1.3099
 2961SOL     OW 8989   1.147   4.620   3.287  0.1013  0.4720 -0.4266
 2961SOL    HW1 8990   1.211   4.589   3.351 -0.1837  1.1741  0.2204
 2961SOL    HW2 8991   1.065   4.580   3.314 -0.4213  2.2478  0.8511
 2962SOL     OW 8992   1.734   0.364   1.498 -0.2877  0.6380 -0.7108
 2962SOL    HW1 8993   1.707   0.306   1.569 -3.3333  1.7149 -0.8336
 2962SOL    HW2 8994   1.816   0.402   1.528 -0.3431 -0.6271  1.2146
 2963SOL     OW 8995   2.013   4.774   3.198 -0.0157 -0.0613  0.2169
 2963SOL    HW1 8996   2.046   4.760   3.287 -2.1747 -2.1889  0.7909
 2963SOL    HW2 8997   1.919   4.759   3.205 -0.8575  3.2518 -1.7975
 2964SOL     OW 8998   0.631   0.611   3.867 -0.4734 -0.3613 -0.0553
 2964SOL    HW1 8999   0.720   0.646   3.856  0.0411 -1.7227 -0.3715
 2964SOL    HW2 9000   0.637   0.521   3.835 -1.8990 -0.5656  0.2213
 2965SOL     OW 9001   2.567   2.947   1.087 -0.3931  0.3067 -0.2894
 2965SOL    HW1 9002   2.491   2.973   1.035 -1.3042 -0.8846  0.4106
 2965SOL    HW2 9003   2.606   2.874   1.039  0.1997  0.7688 -0.5297
 2966SOL     OW 9004   2.937   2.740   1.695  0.7507 -0.4260  0.3702
 2966SOL    HW1 9005   2.889   2.685   1.632  0.7111 -1.8572  1.6007
 2966SOL    HW2 9006   2.948   2.823   1.649 -1.6642 -0.4949 -0.5197
 2967SOL     OW 9007   3.925   0.623   0.755  0.5746 -0.0129 -0.0375
 2967SOL    HW1 9008   3.995   0.686   0.739  0.7280 -0.0011  0.6277
 2967SOL    HW2 9009   3.936   0.599   0.847 -0.1206 -0.2307 -0.0070
 2968SOL     OW 9010   5.031   0.254   0.716  0.2014 -0.1885 -0.0251
 2968SOL    HW1 9011   4.963   0.265   0.650 -0.5786  0.5735  0.8686
 2968SOL    HW2 9012   5.035   0.160   0.732  0.1323 -0.3375 -0.8651
 2969SOL     OW 9013   2.544   4.723   0.549  0.5271  0.6563  0.4385
 2969SOL    HW1 9014   2.595   4.757   0.623  1.7585  0.3585 -0.2381
 2969SOL    HW2 9015   2.544   4.794   0.485  0.9645  0.2962  0.0301
 2970SOL     OW 9016   0.908   1.816   1.669 -0.7407 -0.1374  0.2254
 2970SOL    HW1 9017   0.845   1.750   1.641 -0.7087 -0.8167  1.6938
 2970SOL    HW2 9018   0.929   1.864   1.589 -0.0417 -2.5012 -1.0768
 2971SOL     OW 9019   0.384   1.308   2.606  0.5011 -0.8069 -0.1877
 2971SOL    HW1 9020   0.460   1.270   2.650  1.7375  1.1085 -0.5280
 2971SOL    HW2 9021   0.419   1.385   2.560 -1.2960 -1.0056 -2.0216
 2972SOL     OW 9022   2.939   3.552   0.868  0.1224  0.0153 -0.2543
 2972SOL    HW1 9023   2.872   3.524   0.807 -0.9463  1.2818  0.2859
 2972SOL    HW2 9024   2.907   3.524   0.954 -0.5945  2.0742  0.2013
 2973SOL     OW 9025   0.716   0.434   2.944  0.4696  0.2514 -0.3936
 2973SOL    HW1 9026   0.738   0.376   2.871 -1.5892 -1.2564  0.1311
 2973SOL    HW2 9027   0.756   0.393   3.020  0.3641  0.3900 -0.2639
 2974SOL     OW 9028   3.065   5.517   1.597 -0.1886  0.3916  0.0698
 2974SOL    HW1 9029   3.047   5.611   1.598 -1.9718  0.1347 -1.5294
 2974SOL    HW2 9030   3.097   5.500   1.508  1.9451 -0.2647  0.9061
 2975SOL     OW 9031   0.888   3.701   3.274  0.2405 -0.1866 -0.5081
 2975SOL    HW1 9032   0.872   3.779   3.222 -1.8260 -0.5925 -0.5737
 2975SOL    HW2 9033   0.851   3.629   3.222  0.1599 -0.9059  0.5066
 2976SOL     OW 9034   0.284   2.303   2.161  0.3445  0.0456  0.3975
 2976SOL    HW1 9035   0.205   2.356   2.155  0.9112  1.0072  1.0871
 2976SOL    HW2 9036   0.255   2.214   2.141 -0.7655  0.4915 -0.0741
 2977SOL     OW 9037   4.234   4.148   2.412 -0.1935 -0.0512  0.6884
 2977SOL    HW1 9038   4.314   4.109   2.447  0.2655  1.8439  1.8511
 2977SOL    HW2 9039   4.260   4.234   2.380 -1.5876  0.2232  0.2160
 2978SOL     OW 9040   5.020   1.794   0.113  0.4633  0.2642 -0.0969
 2978SOL    HW1 9041   5.041   1.792   0.206  1.3789  0.8141 -0.2843
 2978SOL    HW2 9042   5.049   1.710   0.079 -2.1639 -1.0275  0.5533
 2979SOL     OW 9043   4.519   0.015   0.581  0.4786  0.0105  0.0113
 2979SOL    HW1 9044   4.438   0.027   0.532 -0.3015  2.9296  1.7519
 2979SOL    HW2 9045   4.495  -0.042   0.654 -0.1186  1.0538  0.6525
 2980SOL     OW 9046   3.245   4.476   3.122 -0.6915  0.3435  0.3097
 2980SOL    HW1 9047   3.254   4.570   3.136  0.1730  0.2310  0.5387
 2980SOL    HW2 9048   3.311   4.437   3.178 -0.1456 -0.3337 -0.7801
 2981SOL     OW 9049   0.969   5.512   0.961  0.5064  0.8851  0.0160
 2981SOL    HW1 9050   0.915   5.581   0.999 -0.3653  0.5556 -0.6055
 2981SOL    HW2 9051   1.000   5.462   1.037 -0.3805  0.8424  0.3601
 2982SOL     OW 9052   4.952   5.498   2.002 -0.6637  0.5046  0.4964
 2982SOL    HW1 9053   4.967   5.417   2.050  0.7454 -0.4156 -1.3747
 2982SOL    HW2 9054   4.865   5.487   1.962 -0.1132 -0.4930 -0.4585
 2983SOL     OW 9055   0.113   4.832   1.190  0.6133  0.7132  0.1917
 2983SOL    HW1 9056   0.053   4.775   1.237  2.1194 -0.1700  1.1258
 2983SOL    HW2 9057   0.072   4.918   1.193 -0.5036  0.1788  0.9699
 2984SOL     OW 9058   4.337   4.158   0.207 -0.4958  0.3457 -0.2889
 2984SOL    HW1 9059   4.253   4.113   0.195  0.4208 -1.7135  0.4917
 2984SOL    HW2 9060   4.375   4.159   0.119  0.4469 -2.6460 -0.0435
 2985SOL     OW 9061   2.947   3.226   1.782  0.0648  0.5311  0.0534
 2985SOL    HW1 9062   2.871   3.231   1.840  0.8193  0.7464  1.0450
 2985SOL    HW2 9063   3.016   3.271   1.830  0.6615  0.8692 -1.1008
 2986SOL     OW 9064   4.872   2.175   3.668 -0.2068  0.0422  0.2607
 2986SOL    HW1 9065   4.894   2.256   3.622 -2.1711 -0.2287 -1.3086
 2986SOL    HW2 9066   4.947   2.118   3.652  0.0740  0.6885 -0.8505
 2987SOL     OW 9067   1.690   4.936   2.067 -0.3328 -0.4788  0.3885
 2987SOL    HW1 9068   1.614   4.957   2.120  0.0322  2.2114 -0.0210
 2987SOL    HW2 9069   1.718   5.020   2.030  1.5090 -1.7141 -1.2505
 2988SOL     OW 9070   2.015   5.400   1.689  1.0984  0.5328 -0.0962
 2988SOL    HW1 9071   2.084   5.336   1.672 -0.4475 -1.7106  1.5004
 2988SOL    HW2 9072   2.042   5.443   1.770 -0.0742 -1.5485  1.4863
 2989SOL     OW 9073   2.331   1.173   2.010  0.0919 -0.3926 -0.3149
 2989SOL    HW1 9074   2.314   1.124   2.091 -1.4138  0.3680 -0.1364
 2989SOL    HW2 9075   2.361   1.259   2.040 -2.1318  0.5107 -0.4400
 2990SOL     OW 9076   0.810   4.455   1.327 -0.0090 -0.2957 -0.4179
 2990SOL    HW1 9077   0.749   4.445   1.254 -1.1514  1.0684  0.3034
 2990SOL    HW2 9078   0.800   4.374   1.378  0.8748 -1.3083 -1.7745
 2991SOL     OW 9079   2.966   1.168   3.287  0.5364  0.0464  0.0612
 2991SOL    HW1 9080   2.982   1.095   3.347 -0.1196  0.2181  0.4579
 2991SOL    HW2 9081   2.984   1.246   3.339 -2.0504  0.2859  0.7599
 2992SOL     OW 9082   2.663   0.933   1.782 -0.0934 -0.5955  0.1550
 2992SOL    HW1 9083   2.650   1.021   1.745  0.0403  0.0504  1.5825
 2992SOL    HW2 9084   2.740   0.943   1.838 -0.7053 -1.3591  1.1479
 2993SOL     OW 9085   0.140   2.965   3.848  0.3725 -0.1340  0.2116
 2993SOL    HW1 9086   0.118   3.007   3.765  2.7204  0.5873 -0.1005
 2993SOL    HW2 9087   0.191   2.888   3.823 -1.2946 -1.5527  0.9260
 2994SOL     OW 9088   2.398   3.892   1.671 -0.3869  0.2281 -0.1748
 2994SOL    HW1 9089   2.375   3.807   1.635 -0.2493  0.8115 -1.7099
 2994SOL    HW2 9090   2.485   3.911   1.635 -0.6254  1.2373 -0.2642
 2995SOL     OW 9091   3.819   1.966   3.373 -0.2277 -0.1154 -0.3307
 2995SOL    HW1 9092   3.755   2.037   3.378  0.9415  0.9130  0.8544
 2995SOL    HW2 9093   3.768   1.889   3.348 -1.5201  1.1366 -1.7164
 2996SOL     OW 9094   1.070   1.602   2.089 -0.1195 -0.2225 -0.3021
 2996SOL    HW1 9095   1.099   1.514   2.114  1.2974 -0.5083 -2.7006
 2996SOL    HW2 9096   1.051   1.595   1.996  0.7212  2.1946 -0.7064
 2997SOL     OW 9097   0.430   5.294   1.366  0.1166 -0.2840  0.5842
 2997SOL    HW1 9098   0.346   5.287   1.321 -0.6630  1.9601  1.5493
 2997SOL    HW2 9099   0.410   5.270   1.457  1.0214 -1.8333  0.4088
 2998SOL     OW 9100   3.095   5.525   0.151 -0.5639  0.2617 -0.2652
 2998SOL    HW1 9101   3.015   5.512   0.100 -0.5367 -1.3540  0.0530
 2998SOL    HW2 9102   3.073   5.495   0.239  0.1291  0.6927  0.0663
 2999SOL     OW 9103   3.915   0.128   1.135  0.3379 -0.0411  0.8848
 2999SOL    HW1 9104   3.855   0.120   1.061  1.3517 -0.6615  0.1125
 2999SOL    HW2 9105   3.858   0.120   1.212 -0.4606 -1.5788  0.1861
 3000SOL     OW 9106   3.217   3.459   0.356  0.1555  0.0856 -0.0486
 3000SOL    HW1 9107   3.285   3.395   0.377  0.6213  0.3898 -0.5762
 3000SOL    HW2 9108   3.201   3.505   0.438  2.7942  2.0780 -0.4930
 3001SOL     OW 9109   0.606   0.151   1.213  0.9215  0.5211 -0.6920
 3001SOL    HW1 9110   0.613   0.230   1.267  0.6247  1.0232 -1.3746
 3001SOL    HW2 9111   0.535   0.101   1.252  0.5558  0.9929 -0.7436
 3002SOL     OW 9112   2.688   0.199   2.599  0.1169 -0.0042  0.0338
 3002SOL    HW1 9113   2.630   0.254   2.652 -0.2299  0.0491 -0.3887
 3002SOL    HW2 9114   2.629   0.153   2.539  0.5303  0.2865 -0.6186
 3003SOL     OW 9115   1.589   1.727   3.636  0.5622  0.1913  0.2971
 3003SOL    HW1 9116   1.609   1.819   3.656  2.2611  0.0732 -0.6776
 3003SOL    HW2 9117   1.496   1.718   3.657  0.5086  1.9569  1.0292
 3004SOL     OW 9118   3.572   5.041   2.740 -0.2846  0.0750 -0.1035
 3004SOL    HW1 9119   3.486   5.011   2.770 -0.5292 -0.1246 -0.9816
 3004SOL    HW2 9120   3.614   5.076   2.819 -1.5026  0.9820  0.1750
 3005SOL     OW 9121   3.697   3.814   0.926 -0.2112 -0.0852 -0.2318
 3005SOL    HW1 9122   3.781   3.848   0.896 -0.0585 -1.8214 -2.0041
 3005SOL    HW2 9123   3.634   3.848   0.862 -0.4503 -0.9000 -0.4326
 3006SOL     OW 9124   2.661   0.406   1.990 -0.4542 -0.3400  0.5650
 3006SOL    HW1 9125   2.731   0.471   1.992 -1.3915  0.6757  1.7797
 3006SOL    HW2 9126   2.627   0.411   1.900  0.9068 -0.7432  0.0074
 3007SOL     OW 9127   4.667   2.160   2.553 -0.0324  0.1392 -0.0712
 3007SOL    HW1 9128   4.715   2.237   2.523 -0.1246  0.3248  0.2438
 3007SOL    HW2 9129   4.578   2.193   2.568 -0.4913 -0.3859 -1.4757
 3008SOL     OW 9130   4.214   4.718   1.977  0.0717  0.0607 -0.1255
 3008SOL    HW1 9131   4.287   4.656   1.978  0.5904  0.5961 -1.5232
 3008SOL    HW2 9132   4.255   4.802   1.956 -0.9570  0.3408 -1.0964
 3009SOL     OW 9133   5.194   4.248   1.188  0.0277  0.1469  0.3348
 3009SOL    HW1 9134   5.101   4.241   1.209 -0.2019  1.7679 -0.0311
 3009SOL    HW2 9135   5.204   4.336   1.153  1.3045 -0.7257 -1.6871
 3010SOL     OW 9136   5.033   4.397   0.685 -0.0107 -0.8797  0.0245
 3010SOL    HW1 9137   4.945   4.413   0.650  0.0215 -1.2777 -0.2404
 3010SOL    HW2 9138   5.019   4.378   0.778 -0.2054 -0.9289 -0.0143
 3011SOL     OW 9139   0.462   3.279   1.434 -0.1108 -0.6368 -0.1319
 3011SOL    HW1 9140   0.546   3.237   1.451 -0.3153 -1.7363 -1.5882
 3011SOL    HW2 9141   0.474   3.370   1.459  1.1218 -1.0448  0.8359
 3012SOL     OW 9142   2.264   2.638   0.778 -0.3202  0.4847  0.2909
 3012SOL    HW1 9143   2.243   2.602   0.864 -2.0205  0.6146 -0.0386
 3012SOL    HW2 9144   2.237   2.729   0.783  0.1824  0.6650 -0.1811
 3013SOL     OW 9145   5.369   3.592   1.278  0.2475 -0.1374  0.4730
 3013SOL    HW1 9146   5.347   3.581   1.186 -3.4666  2.9809  0.7760
 3013SOL    HW2 9147   5.339   3.511   1.319  3.1892 -2.1771 -1.0209
 3014SOL     OW 9148   0.008   0.912   3.811 -0.3883  0.1811 -0.4203
 3014SOL    HW1 9149   0.095   0.898   3.774 -0.1688  1.0616 -0.2711
 3014SOL    HW2 9150   0.012   0.871   3.897  0.1393  0.8692 -0.1053
 3015SOL     OW 9151   1.085   4.385   0.400  0.6849  0.2095  0.7006
 3015SOL    HW1 9152   1.090   4.477   0.374 -0.8114  0.0393 -0.3213
 3015SOL    HW2 9153   1.093   4.386   0.495  1.5378  1.3105  0.6283
 3016SOL     OW 9154   0.828   3.240   2.138  0.1976  0.0139  0.5059
 3016SOL    HW1 9155   0.775   3.297   2.082 -3.3974 -1.9535  1.6179
 3016SOL    HW2 9156   0.851   3.294   2.213 -3.6661  0.1117  1.8429
 3017SOL     OW 9157   5.033   4.012   3.046 -0.0599  0.3399 -0.2797
 3017SOL    HW1 9158   5.080   4.054   3.118 -0.6394 -0.3143  0.5044
 3017SOL    HW2 9159   4.941   4.014   3.072 -0.3389  0.5261 -1.2352
 3018SOL     OW 9160   2.590   1.391   0.508  0.6047  0.0044 -0.3369
 3018SOL    HW1 9161   2.536   1.416   0.433 -0.5034 -1.3428 -0.0113
 3018SOL    HW2 9162   2.566   1.453   0.576  0.8905  0.6141 -0.7813
 3019SOL     OW 9163   1.283   5.546   1.067 -0.6752  0.2381 -0.1267
 3019SOL    HW1 9164   1.290   5.462   1.112  0.0295  0.0293 -0.6219
 3019SOL    HW2 9165   1.204   5.586   1.104  0.3874  0.5035  2.0022
 3020SOL     OW 9166   0.714   2.364   3.465 -0.3372  0.3845  0.3501
 3020SOL    HW1 9167   0.795   2.366   3.515 -0.5117 -0.7726  0.7238
 3020SOL    HW2 9168   0.740   2.386   3.375  0.7696 -1.8805  0.0345
 3021SOL     OW 9169   2.096   3.162   3.447  0.0624 -0.5945 -0.8341
 3021SOL    HW1 9170   2.079   3.109   3.525 -0.1086 -0.2166 -0.6104
 3021SOL    HW2 9171   2.158   3.110   3.396  1.9957  0.1720  0.6304
 3022SOL     OW 9172   2.715   0.753   2.616  0.0963  0.1235  0.3237
 3022SOL    HW1 9173   2.674   0.729   2.699  1.6130 -1.7987  0.5888
 3022SOL    HW2 9174   2.768   0.677   2.592  0.1504  0.8326 -2.1402
 3023SOL     OW 9175   1.910   4.890   0.031 -0.3913  0.0889 -0.0800
 3023SOL    HW1 9176   1.980   4.956   0.026 -0.1505 -0.1199  0.4365
 3023SOL    HW2 9177   1.833   4.934  -0.005  0.2546 -0.0317 -1.6476
 3024SOL     OW 9178   0.133   2.624   1.922 -0.6011  0.0008 -0.7158
 3024SOL    HW1 9179   0.167   2.557   1.863 -0.8442 -0.3191 -0.4957
 3024SOL    HW2 9180   0.121   2.579   2.006 -2.7021 -0.2227 -1.0815
 3025SOL     OW 9181   4.288   2.226   3.298  0.3805  0.0318 -0.0002
 3025SOL    HW1 9182   4.308   2.135   3.318 -0.3415  0.4238  2.9253
 3025SOL    HW2 9183   4.199   2.223   3.261  0.7412 -0.4982 -0.8613
 3026SOL     OW 9184   3.918   2.680   1.051 -0.2481  0.0657  0.3881
 3026SOL    HW1 9185   3.950   2.770   1.044 -1.1773  0.4423  0.8583
 3026SOL    HW2 9186   3.976   2.639   1.115 -0.5219  0.6641  1.0272
 3027SOL     OW 9187   1.105   2.164   1.849  0.1073  0.1235 -0.0532
 3027SOL    HW1 9188   1.068   2.161   1.760  1.2958 -1.9804 -0.5439
 3027SOL    HW2 9189   1.179   2.224   1.842 -0.3235  0.6358 -0.2698
 3028SOL     OW 9190   2.510   2.204   2.480 -0.6644  0.3570  0.1758
 3028SOL    HW1 9191   2.465   2.284   2.506  0.0290  1.5150 -1.9840
 3028SOL    HW2 9192   2.451   2.134   2.506 -2.0347  1.6323  0.6498
 3029SOL     OW 9193   4.823   5.244   3.010 -0.1353 -0.7554 -0.2530
 3029SOL    HW1 9194   4.875   5.215   3.085  0.0119 -0.2308 -0.1481
 3029SOL    HW2 9195   4.823   5.169   2.950 -0.1803 -1.1432  0.2327
 3030SOL     OW 9196   0.272   4.894   0.553  0.2230 -0.2249 -0.1143
 3030SOL    HW1 9197   0.221   4.857   0.625  0.2688 -0.4697 -0.2068
 3030SOL    HW2 9198   0.233   4.980   0.538  0.7828  0.2136  0.7971
 3031SOL     OW 9199   3.560   2.450   1.219  0.2023 -0.1443  0.3706
 3031SOL    HW1 9200   3.485   2.457   1.159  0.1830 -0.1825  0.3905
 3031SOL    HW2 9201   3.562   2.534   1.265 -0.2327 -0.3905  0.8488
 3032SOL     OW 9202   2.060   3.740   3.379 -0.7658  0.2221  0.3025
 3032SOL    HW1 9203   2.127   3.772   3.439 -0.7149  0.1915  0.2622
 3032SOL    HW2 9204   2.089   3.768   3.293 -0.3166 -0.5953  0.1770
 3033SOL     OW 9205   2.827   4.588   1.025 -0.2705  0.2114 -0.7626
 3033SOL    HW1 9206   2.814   4.513   1.083 -0.5731 -0.7600 -2.0298
 3033SOL    HW2 9207   2.815   4.665   1.081  0.5628 -0.6632  0.6921
 3034SOL     OW 9208   2.319   0.675   1.799 -0.3450 -0.1823  0.2484
 3034SOL    HW1 9209   2.384   0.605   1.789  1.2434  1.3310 -0.8357
 3034SOL    HW2 9210   2.320   0.696   1.893 -0.2609 -1.0949  0.4541
 3035SOL     OW 9211   4.438   5.347   1.537  0.1518  0.0746 -0.0463
 3035SOL    HW1 9212   4.386   5.426   1.521  1.5054  1.0409  0.1145
 3035SOL    HW2 9213   4.515   5.358   1.481  0.4641 -1.0402  0.1424
 3036SOL     OW 9214   4.001   4.309   1.584  0.4757  0.2416  0.3741
 3036SOL    HW1 9215   3.921   4.328   1.632 -1.2583 -1.9259 -1.4747
 3036SOL    HW2 9216   4.015   4.215   1.596  1.2890  0.0883 -1.4358
 3037SOL     OW 9217   1.450   3.322   0.886  0.4635 -0.2500 -0.2745
 3037SOL    HW1 9218   1.421   3.238   0.922 -2.0818 -0.2680 -2.0534
 3037SOL    HW2 9219   1.545   3.315   0.880  0.6482 -1.6395  2.7780
 3038SOL     OW 9220   2.959   2.660   2.866 -0.4311 -0.1607 -0.0201
 3038SOL    HW1 9221   2.999   2.649   2.780 -0.0465 -2.6602  0.3960
 3038SOL    HW2 9222   3.030   2.693   2.921  0.5614 -2.5660  0.2353
 3039SOL     OW 9223   0.377   1.367   3.027  0.2050 -0.4321 -0.2331
 3039SOL    HW1 9224   0.396   1.273   3.028  1.0762 -0.3358 -2.3083
 3039SOL    HW2 9225   0.322   1.379   2.950 -1.8335  0.4901  1.2791
 3040SOL     OW 9226   3.153   5.432   2.443 -0.3225 -0.5839 -0.1967
 3040SOL    HW1 9227   3.213   5.445   2.370 -1.2498 -1.4100 -1.1364
 3040SOL    HW2 9228   3.083   5.495   2.429  0.7897  1.1527  1.5006
 3041SOL     OW 9229   2.883   2.805   1.966  1.0371  1.0986 -0.6436
 3041SOL    HW1 9230   2.891   2.751   1.888  0.9047  0.1312 -0.0166
 3041SOL    HW2 9231   2.794   2.839   1.964  0.9036  0.7492 -0.7207
 3042SOL     OW 9232   3.852   2.981   0.481  0.0454 -0.3825 -0.0146
 3042SOL    HW1 9233   3.834   3.071   0.455 -1.4078 -0.5655  0.2406
 3042SOL    HW2 9234   3.896   2.943   0.405 -0.3442  0.2418 -0.5671
 3043SOL     OW 9235   2.671   3.294   3.910 -0.0676  0.1172  0.6594
 3043SOL    HW1 9236   2.643   3.221   3.855 -0.2310  1.8894 -1.8003
 3043SOL    HW2 9237   2.595   3.352   3.913  0.5486  0.9209  1.2167
 3044SOL     OW 9238   2.511   4.716   2.357 -0.7872  0.0785  0.2526
 3044SOL    HW1 9239   2.457   4.765   2.294  0.4247  1.3592  0.1407
 3044SOL    HW2 9240   2.580   4.778   2.381  1.2699 -1.8412 -0.4495
 3045SOL     OW 9241   2.035   2.144   3.266  0.1759 -0.0957 -0.1365
 3045SOL    HW1 9242   1.991   2.160   3.183  1.7503  1.2909 -0.7646
 3045SOL    HW2 9243   2.092   2.069   3.249 -0.5651 -0.7224  0.1278
 3046SOL     OW 9244   4.067   0.519   3.154  0.1464 -0.0053  0.1652
 3046SOL    HW1 9245   4.104   0.439   3.115 -0.7655 -1.1220  1.4774
 3046SOL    HW2 9246   4.117   0.590   3.115  3.4780 -1.3632  1.5468
 3047SOL     OW 9247   1.216   4.355   1.796 -0.2892 -0.7141 -0.9062
 3047SOL    HW1 9248   1.279   4.347   1.723 -0.7712  0.1428 -1.4356
 3047SOL    HW2 9249   1.270   4.351   1.875 -0.0190 -4.9810 -1.0808
 3048SOL     OW 9250   2.391   5.366   3.936  0.1756 -0.0885  0.0520
 3048SOL    HW1 9251   2.416   5.279   3.906 -0.8511 -0.7667  1.0404
 3048SOL    HW2 9252   2.405   5.363   4.031  0.3249  0.8918  0.0641
 3049SOL     OW 9253   1.447   0.179   1.192 -0.0595 -0.4885  0.1672
 3049SOL    HW1 9254   1.392   0.118   1.143  0.5929 -0.4623 -0.6222
 3049SOL    HW2 9255   1.465   0.134   1.275  0.6229 -1.4852 -0.5033
 3050SOL     OW 9256   3.729   3.000   3.296 -0.1766  0.5328  0.4636
 3050SOL    HW1 9257   3.808   3.029   3.342 -1.3943  1.6042  1.9313
 3050SOL    HW2 9258   3.669   2.973   3.365 -0.6734 -1.5284 -0.6868
 3051SOL     OW 9259   2.623   0.737   1.568 -0.5861 -0.4101 -0.0096
 3051SOL    HW1 9260   2.628   0.652   1.611  1.8097 -1.1034 -1.4818
 3051SOL    HW2 9261   2.652   0.799   1.634 -3.6272 -0.4185  1.5291
 3052SOL     OW 9262   5.324   0.798   3.090  0.0322 -0.3242 -0.3629
 3052SOL    HW1 9263   5.392   0.737   3.062 -1.2872 -1.9931 -0.0729
 3052SOL    HW2 9264   5.311   0.855   3.014  1.7615  0.0884 -0.4008
 3053SOL     OW 9265   3.490   1.094   0.763 -0.2807  0.9088 -0.1381
 3053SOL    HW1 9266   3.571   1.120   0.807  0.2560 -1.6424  0.5529
 3053SOL    HW2 9267   3.516   1.025   0.703 -2.0484 -0.9182  1.0344
 3054SOL     OW 9268   3.201   1.505   3.734 -0.2577 -0.3145 -0.0510
 3054SOL    HW1 9269   3.258   1.564   3.685 -1.1905  1.7935  1.2794
 3054SOL    HW2 9270   3.241   1.498   3.820 -1.0345 -0.2915  0.3212
 3055SOL     OW 9271   1.380   0.556   0.309 -0.9304  0.1619 -0.0650
 3055SOL    HW1 9272   1.370   0.467   0.274 -1.6152  0.6553 -1.1708
 3055SOL    HW2 9273   1.453   0.549   0.371 -1.4402 -1.3238  0.4232
 3056SOL     OW 9274   3.875   3.891   0.170 -0.6119 -0.2000  0.0747
 3056SOL    HW1 9275   3.796   3.927   0.130 -0.6227 -0.1375  0.1519
 3056SOL    HW2 9276   3.903   3.821   0.111 -0.4012  0.1533 -0.2500
 3057SOL     OW 9277   0.572   0.385   1.311  0.6512  0.2370 -0.1741
 3057SOL    HW1 9278   0.541   0.445   1.243  0.5180 -0.4688 -0.7575
 3057SOL    HW2 9279   0.656   0.420   1.338 -0.0073  1.4128  0.4347
 3058SOL     OW 9280   2.235   0.156   2.241 -0.6916 -0.0196 -0.1464
 3058SOL    HW1 9281   2.304   0.109   2.194 -1.3163 -0.4811 -0.6326
 3058SOL    HW2 9282   2.156   0.138   2.190 -0.9017  1.8696 -0.5507
 3059SOL     OW 9283   4.442   3.169   1.585  0.3355  0.0056 -0.0104
 3059SOL    HW1 9284   4.423   3.098   1.524 -1.5720  0.3464  0.1277
 3059SOL    HW2 9285   4.472   3.124   1.665  0.6106 -0.5493 -0.4147
 3060SOL     OW 9286   0.088   1.938   3.331  0.4121 -0.1287  0.1170
 3060SOL    HW1 9287   0.066   1.869   3.269 -0.8620 -0.0173  0.4056
 3060SOL    HW2 9288   0.003   1.975   3.355  1.0325  1.1528  0.4034
 3061SOL     OW 9289   3.940   3.549   3.486 -0.1625  0.0659 -0.3555
 3061SOL    HW1 9290   3.949   3.629   3.435 -0.4557  0.3842  0.0852
 3061SOL    HW2 9291   3.868   3.501   3.444 -1.5668  1.1184  0.7545
 3062SOL     OW 9292   5.067   3.536   0.278  0.1194 -0.1193  0.5128
 3062SOL    HW1 9293   5.104   3.450   0.298 -0.0530 -0.9020 -2.0796
 3062SOL    HW2 9294   4.972   3.521   0.279  0.0771 -0.6565 -2.0740
 3063SOL     OW 9295   5.302   4.633   3.247  0.0080  0.1362  0.1572
 3063SOL    HW1 9296   5.393   4.603   3.239  0.0741  0.3708  0.0029
 3063SOL    HW2 9297   5.309   4.723   3.279 -0.1783  0.0798  0.3564
 3064SOL     OW 9298   3.858   3.518   0.205 -0.1184 -0.2156  0.5138
 3064SOL    HW1 9299   3.895   3.470   0.278 -0.8596 -0.1382  0.9571
 3064SOL    HW2 9300   3.783   3.565   0.243 -2.6426 -2.7649 -0.8745
 3065SOL     OW 9301   2.542   2.703   0.980 -1.0167 -0.0520  0.0916
 3065SOL    HW1 9302   2.551   2.649   0.902 -0.0340 -0.1320  0.2444
 3065SOL    HW2 9303   2.490   2.649   1.040  0.1743 -0.9764  0.3451
 3066SOL     OW 9304   3.382   2.209   2.502 -0.1388  0.4701  0.2902
 3066SOL    HW1 9305   3.373   2.164   2.418 -0.7574 -0.5926  0.8978
 3066SOL    HW2 9306   3.366   2.301   2.482  1.1928  0.4659 -1.0034
 3067SOL     OW 9307   0.001   2.435   0.744  0.5755 -0.6078  0.3319
 3067SOL    HW1 9308  -0.070   2.427   0.807  0.6249 -0.7558  0.3696
 3067SOL    HW2 9309   0.042   2.519   0.764  1.1205 -1.0394  1.0434
 3068SOL     OW 9310   2.800   4.252   3.880 -0.0203 -0.2417 -0.4637
 3068SOL    HW1 9311   2.841   4.166   3.872 -1.7433 -1.2036  0.4724
 3068SOL    HW2 9312   2.836   4.303   3.807 -0.4956 -2.4004 -2.3055
 3069SOL     OW 9313   4.234   3.444   2.347 -0.9705 -0.4655  0.2607
 3069SOL    HW1 9314   4.172   3.471   2.278 -0.9247 -0.2132  0.3179
 3069SOL    HW2 9315   4.281   3.371   2.308 -0.2074  0.3490 -0.3860
 3070SOL     OW 9316   3.556   2.893   0.464 -0.3049  0.2883  0.5259
 3070SOL    HW1 9317   3.645   2.925   0.450 -0.2051 -0.3585 -0.4320
 3070SOL    HW2 9318   3.518   2.954   0.527  0.1180  1.8603 -0.6813
 3071SOL     OW 9319   2.176   4.753   1.389  0.0005 -0.1881 -0.3217
 3071SOL    HW1 9320   2.246   4.797   1.437 -0.3485  0.2381 -0.2096
 3071SOL    HW2 9321   2.105   4.816   1.384 -0.6295 -0.8438  0.1252
 3072SOL     OW 9322   4.847   3.015   2.865  0.8742  0.5460  0.4421
 3072SOL    HW1 9323   4.810   3.083   2.808  1.4797  0.0888 -0.5227
 3072SOL    HW2 9324   4.796   3.021   2.946 -0.2527  0.9725 -0.2744
 3073SOL     OW 9325   4.405   1.308   1.809  0.3956  0.1693 -0.0707
 3073SOL    HW1 9326   4.312   1.323   1.793  0.2251  0.3115  0.9344
 3073SOL    HW2 9327   4.450   1.359   1.742 -0.2513  1.4337  0.4188
 3074SOL     OW 9328   2.763   4.978   1.432 -0.1044 -0.0475 -0.4418
 3074SOL    HW1 9329   2.801   5.018   1.510 -0.5382 -3.1457  1.5825
 3074SOL    HW2 9330   2.668   4.983   1.447 -0.2663  1.0300 -1.7487
 3075SOL     OW 9331   1.390   4.119   1.473 -0.7132  0.7060  0.0910
 3075SOL    HW1 9332   1.445   4.043   1.495 -0.2058  1.3814  1.2426
 3075SOL    HW2 9333   1.344   4.093   1.393  0.4350 -0.3121 -0.2688
 3076SOL     OW 9334   5.516   1.234   2.192  0.2011 -0.4367 -0.0828
 3076SOL    HW1 9335   5.536   1.296   2.123 -0.1735 -1.0804 -0.7830
 3076SOL    HW2 9336   5.452   1.279   2.247 -1.2784 -0.7634 -1.4723
 3077SOL     OW 9337   4.975   3.409   0.837  0.1844 -0.9460 -0.0141
 3077SOL    HW1 9338   4.995   3.490   0.883  0.2381 -0.1340 -1.4121
 3077SOL    HW2 9339   5.043   3.401   0.771 -1.2059 -0.7979 -1.5310
 3078SOL     OW 9340   4.805   0.712   1.897  0.0946  0.1464 -0.5160
 3078SOL    HW1 9341   4.783   0.625   1.930  0.3294  0.3151  0.1026
 3078SOL    HW2 9342   4.736   0.769   1.933  0.7485  0.4498  0.2877
 3079SOL     OW 9343   1.493   1.461   0.862 -0.0123  0.1167 -0.0666
 3079SOL    HW1 9344   1.438   1.511   0.922 -0.9589  2.0120 -2.3379
 3079SOL    HW2 9345   1.574   1.512   0.855 -0.7113  1.0801 -1.8712
 3080SOL     OW 9346   3.271   5.505   3.453  0.3472  0.3622  0.2124
 3080SOL    HW1 9347   3.241   5.521   3.364  1.3275 -0.3585 -0.2774
 3080SOL    HW2 9348   3.306   5.589   3.482 -1.2535  0.9741  0.4699
 3081SOL     OW 9349   1.456   1.211   0.041  0.4798  0.3846  0.1381
 3081SOL    HW1 9350   1.515   1.222  -0.034 -1.8007  0.3360 -1.7653
 3081SOL    HW2 9351   1.423   1.299   0.059 -0.5568  0.0991 -0.3014
 3082SOL     OW 9352   4.743   3.988   2.818  0.5062 -0.4396 -0.1399
 3082SOL    HW1 9353   4.785   3.923   2.875  0.0070 -1.2501 -0.6718
 3082SOL    HW2 9354   4.813   4.021   2.762  0.9965  0.3373  0.8998
 3083SOL     OW 9355   1.873   1.073   2.478 -0.2382 -0.9119 -0.3433
 3083SOL    HW1 9356   1.802   1.100   2.535  0.0012 -0.7942 -0.1042
 3083SOL    HW2 9357   1.920   1.005   2.527 -0.5675 -1.4520 -0.7561
 3084SOL     OW 9358   0.921   1.593   3.358 -0.5811  0.5014 -0.5931
 3084SOL    HW1 9359   0.925   1.590   3.263  0.0622  0.9140 -0.5897
 3084SOL    HW2 9360   1.012   1.589   3.386 -0.7267  0.9398 -0.0223
 3085SOL     OW 9361   2.016   0.105   2.074 -0.1567 -0.6649 -0.4896
 3085SOL    HW1 9362   2.063   0.135   1.996  0.0965  0.2589  0.0071
 3085SOL    HW2 9363   1.933   0.152   2.072 -0.3126 -0.9362 -0.4083
 3086SOL     OW 9364   4.840   5.124   1.735 -0.5433  0.0353 -0.1313
 3086SOL    HW1 9365   4.817   5.096   1.647 -0.9644  1.9445 -0.6835
 3086SOL    HW2 9366   4.930   5.158   1.726 -0.2705 -0.5257  0.3758
 3087SOL     OW 9367   0.937   4.518   3.834 -0.2178 -0.1102 -0.1455
 3087SOL    HW1 9368   0.936   4.515   3.929 -3.2916  0.7821 -0.0130
 3087SOL    HW2 9369   0.852   4.481   3.808 -0.3861  1.5813 -2.3737
 3088SOL     OW 9370   2.791   0.702   0.798  0.1760 -0.2509 -0.0077
 3088SOL    HW1 9371   2.862   0.686   0.736  1.7152  0.9449  1.3493
 3088SOL    HW2 9372   2.834   0.706   0.884 -1.6164 -0.0508  0.9294
 3089SOL     OW 9373   5.359   3.822   0.912 -0.0054 -0.0444 -0.2336
 3089SOL    HW1 9374   5.361   3.875   0.992  1.0808 -1.2571  0.5990
 3089SOL    HW2 9375   5.334   3.883   0.843 -1.7157  0.8912  1.1268
 3090SOL     OW 9376   3.185   3.092   2.743  0.6330  0.1895 -0.1401
 3090SOL    HW1 9377   3.107   3.123   2.788  0.3686 -1.9533  1.0003
 3090SOL    HW2 9378   3.253   3.094   2.810  0.6393 -1.4492 -0.0650
 3091SOL     OW 9379   5.493   1.847   3.831  0.5974 -0.3193 -0.4803
 3091SOL    HW1 9380   5.420   1.886   3.784 -0.1535 -2.4631 -1.2188
 3091SOL    HW2 9381   5.455   1.819   3.915  1.1100  0.4606  0.0225
 3092SOL     OW 9382   3.356   3.598   3.612 -0.3768  0.6384 -0.3122
 3092SOL    HW1 9383   3.369   3.588   3.706  0.5319 -0.1883 -0.5029
 3092SOL    HW2 9384   3.265   3.626   3.603  0.0884  2.7380  0.9035
 3093SOL     OW 9385   0.270   2.292   3.537 -0.0574  0.1176  0.2264
 3093SOL    HW1 9386   0.218   2.295   3.457  1.2083  1.0091 -0.5825
 3093SOL    HW2 9387   0.300   2.201   3.543 -0.3905 -0.0166 -0.1430
 3094SOL     OW 9388   3.761   3.898   2.890  0.2562 -0.0114 -0.1482
 3094SOL    HW1 9389   3.712   3.979   2.903 -0.9670 -0.6824 -0.4389
 3094SOL    HW2 9390   3.776   3.864   2.978  1.3174  0.8233  0.0129
 3095SOL     OW 9391   5.088   0.771   1.588  0.1410 -0.1547  0.3376
 3095SOL    HW1 9392   5.154   0.792   1.653  1.3816  0.7676 -1.1506
 3095SOL    HW2 9393   5.030   0.847   1.585 -0.3836 -0.5222  0.8909
 3096SOL     OW 9394   1.904   3.490   2.028 -0.5556 -0.5878  0.1919
 3096SOL    HW1 9395   1.931   3.406   2.066  0.7591 -0.1327  0.2810
 3096SOL    HW2 9396   1.920   3.554   2.097  2.0187  0.2878 -1.1118
 3097SOL     OW 9397   1.316   5.129   0.516 -0.6589 -0.3869  0.1204
 3097SOL    HW1 9398   1.371   5.192   0.468 -2.3264  1.1793  0.1790
 3097SOL    HW2 9399   1.342   5.141   0.608 -0.5353 -0.2307  0.0665
 3098SOL     OW 9400   1.376   2.354   1.499 -0.1192  0.0523 -0.5799
 3098SOL    HW1 9401   1.370   2.446   1.473  1.7888  0.1139 -1.0018
 3098SOL    HW2 9402   1.308   2.310   1.449 -1.9119  1.3790  0.5566
 3099SOL     OW 9403   0.098   0.326   1.835  0.1568  0.0609  0.1082
 3099SOL    HW1 9404   0.170   0.354   1.778 -0.4978  0.8682 -0.3468
 3099SOL    HW2 9405   0.056   0.255   1.788 -0.4673  0.8167 -0.5105
 3100SOL     OW 9406   0.983   0.650   1.928 -0.0389 -0.2547  0.0404
 3100SOL    HW1 9407   0.932   0.575   1.897 -1.5766 -0.0841  1.9745
 3100SOL    HW2 9408   1.037   0.616   1.999  0.2213  0.2055  0.0689
 3101SOL     OW 9409   3.818   0.632   2.322  0.2334 -0.3234 -0.3239
 3101SOL    HW1 9410   3.825   0.646   2.227 -2.3556  0.3328 -0.4994
 3101SOL    HW2 9411   3.893   0.679   2.359  0.8289  0.0998 -1.9884
 3102SOL     OW 9412   3.070   1.715   0.048  0.4006  0.3864  0.4685
 3102SOL    HW1 9413   3.015   1.639   0.031 -1.6985  1.7167  0.9276
 3102SOL    HW2 9414   3.023   1.763   0.116  2.4563  1.3227  1.3055
 3103SOL     OW 9415   4.438   3.899   2.800  0.1012 -0.2160 -0.4969
 3103SOL    HW1 9416   4.487   3.872   2.723 -1.5639 -2.4816 -0.8771
 3103SOL    HW2 9417   4.366   3.836   2.805 -1.6118  1.7409  1.1447
 3104SOL     OW 9418   0.305   2.143   3.940 -0.4811 -0.5871 -0.9461
 3104SOL    HW1 9419   0.396   2.142   3.912 -0.6495 -2.9952 -1.6383
 3104SOL    HW2 9420   0.309   2.156   4.035  0.5142  0.2065 -1.0814
 3105SOL     OW 9421   2.151   4.350   2.590  0.2434 -0.2173 -0.3559
 3105SOL    HW1 9422   2.160   4.443   2.566 -0.8425  0.1972  0.7399
 3105SOL    HW2 9423   2.065   4.325   2.556  0.3709 -0.7135 -0.3110
 3106SOL     OW 9424   0.113   1.051   1.953  0.1738  0.1701 -0.0338
 3106SOL    HW1 9425   0.190   1.019   2.001 -0.3091 -0.3993  0.3676
 3106SOL    HW2 9426   0.046   1.063   2.020  0.2302  1.7384 -0.2153
 3107SOL     OW 9427   1.461   2.006   2.381 -0.0543 -0.0354  0.5579
 3107SOL    HW1 9428   1.442   1.953   2.458 -1.7200 -1.4304 -0.7393
 3107SOL    HW2 9429   1.428   2.093   2.402 -1.9660 -0.7970  0.8633
 3108SOL     OW 9430   2.748   5.405   2.285  0.2781  0.2580  0.1658
 3108SOL    HW1 9431   2.718   5.349   2.357  0.4690  0.8378  0.7064
 3108SOL    HW2 9432   2.698   5.375   2.209 -1.2187  0.7682  0.9059
 3109SOL     OW 9433   4.048   3.116   2.732 -0.1141 -0.5068  0.2177
 3109SOL    HW1 9434   3.997   3.184   2.776 -1.0197 -0.7841 -0.3730
 3109SOL    HW2 9435   4.101   3.163   2.668 -1.3675 -0.3958 -0.7862
 3110SOL     OW 9436   0.723   4.766   2.394 -0.1950 -0.3166  0.0374
 3110SOL    HW1 9437   0.754   4.842   2.345 -2.8894  0.4424 -0.6531
 3110SOL    HW2 9438   0.732   4.791   2.486 -1.2431  0.9616 -0.1794
 3111SOL     OW 9439   5.548   3.020   0.366  0.1977  0.4461  0.7912
 3111SOL    HW1 9440   5.616   3.054   0.423  0.1449 -0.8417  1.6714
 3111SOL    HW2 9441   5.469   3.019   0.420 -0.3840  1.3381 -0.0239
 3112SOL     OW 9442   5.100   4.893   2.080 -0.8701  0.6478  0.0995
 3112SOL    HW1 9443   5.149   4.822   2.121  0.1104  1.3358  0.1587
 3112SOL    HW2 9444   5.111   4.878   1.986 -2.0134 -0.1818  0.0893
 3113SOL     OW 9445   2.601   0.325   1.158  0.0196 -0.5650  0.1184
 3113SOL    HW1 9446   2.626   0.336   1.250  1.7594 -0.0393 -0.3983
 3113SOL    HW2 9447   2.597   0.414   1.123 -3.5039 -0.4853  0.3251
 3114SOL     OW 9448   0.780   5.028   2.862  0.4576 -0.0482  0.1669
 3114SOL    HW1 9449   0.848   5.038   2.795 -0.9535  0.2854 -1.2756
 3114SOL    HW2 9450   0.798   5.098   2.925  2.7275 -1.3007  1.0583
 3115SOL     OW 9451   1.081   3.495   0.926  0.8685 -0.4512  0.1278
 3115SOL    HW1 9452   1.030   3.518   1.004  1.3293  1.8522 -0.1733
 3115SOL    HW2 9453   1.170   3.525   0.946  1.5511 -2.0309 -0.3775
 3116SOL     OW 9454   4.108   2.787   2.503 -0.9361 -0.5806  0.4104
 3116SOL    HW1 9455   4.079   2.716   2.445 -0.6070  0.1802 -0.7144
 3116SOL    HW2 9456   4.203   2.790   2.492 -1.1600  1.6476 -1.5232
 3117SOL     OW 9457   1.780   3.835   3.158 -0.1206 -0.2580 -0.1883
 3117SOL    HW1 9458   1.744   3.763   3.106  0.2940  0.8733 -2.1380
 3117SOL    HW2 9459   1.732   3.912   3.128  0.6995  0.5685  0.5617
 3118SOL     OW 9460   5.185   2.375   3.912  0.1362 -0.0221 -0.2033
 3118SOL    HW1 9461   5.101   2.418   3.928 -0.4947 -1.3416  0.1622
 3118SOL    HW2 9462   5.168   2.315   3.840  0.8100 -0.1854 -0.2357
 3119SOL     OW 9463   5.408   2.024   3.263  0.6878 -0.1119 -0.0554
 3119SOL    HW1 9464   5.322   1.984   3.273  0.6070  0.3037  1.1011
 3119SOL    HW2 9465   5.428   2.017   3.170 -1.3781  1.3718 -0.6750
 3120SOL     OW 9466   4.345   2.730   1.552  0.1739  0.3593  0.1320
 3120SOL    HW1 9467   4.407   2.798   1.525  0.3271 -0.8051 -2.7136
 3120SOL    HW2 9468   4.395   2.674   1.612  1.2174  0.6419 -0.4585
 3121SOL     OW 9469   0.735   4.060   2.004 -0.1085  0.5559  0.5339
 3121SOL    HW1 9470   0.691   3.978   2.030  0.3077  0.2716  0.3553
 3121SOL    HW2 9471   0.816   4.060   2.055 -0.0736  0.8230  0.4783
 3122SOL     OW 9472   5.479   3.322   1.010 -0.4433 -0.7996  0.1579
 3122SOL    HW1 9473   5.567   3.304   0.977 -0.4304 -0.5454  0.0547
 3122SOL    HW2 9474   5.492   3.345   1.102 -0.2341  0.7468 -0.2350
 3123SOL     OW 9475   0.720   5.135   1.032 -0.7175 -0.1337  0.0283
 3123SOL    HW1 9476   0.631   5.116   1.001 -1.0063  0.1173  0.6918
 3123SOL    HW2 9477   0.756   5.050   1.055 -0.9732 -0.1849  0.2455
 3124SOL     OW 9478   4.363   2.487   3.276  0.3733 -0.4592  0.2979
 3124SOL    HW1 9479   4.319   2.526   3.351 -0.3535 -0.7874  0.0528
 3124SOL    HW2 9480   4.321   2.401   3.265  1.5763 -1.0955  0.4974
 3125SOL     OW 9481   3.155   3.656   0.066  0.5715  0.1668  0.0194
 3125SOL    HW1 9482   3.175   3.667  -0.027  0.9525  1.4816  0.2437
 3125SOL    HW2 9483   3.115   3.569   0.071  1.7612 -0.4981 -1.1779
 3126SOL     OW 9484   3.088   2.583   0.469 -0.8561  0.0194 -0.3092
 3126SOL    HW1 9485   3.157   2.596   0.535 -0.4313 -0.8847 -0.5552
 3126SOL    HW2 9486   3.083   2.667   0.424 -0.0978  0.1884 -0.1041
 3127SOL     OW 9487   3.921   4.428   2.857 -0.0361 -0.4279 -0.3266
 3127SOL    HW1 9488   3.830   4.401   2.847 -0.9376  1.8633  0.8783
 3127SOL    HW2 9489   3.922   4.478   2.939  1.4260  2.8815 -2.1733
 3128SOL     OW 9490   4.057   2.061   3.507  0.0208 -0.1865  0.7062
 3128SOL    HW1 9491   3.967   2.029   3.498 -0.5733  0.7434  2.8462
 3128SOL    HW2 9492   4.050   2.156   3.500  0.6522 -0.0192  2.0409
 3129SOL     OW 9493   1.446   0.432   3.404 -0.0639 -0.6520  0.1222
 3129SOL    HW1 9494   1.489   0.518   3.400  1.2953 -1.3073  0.1493
 3129SOL    HW2 9495   1.363   0.449   3.449  0.0195  0.6981 -0.1798
 3130SOL     OW 9496   2.776   4.521   0.484  0.5263  0.0623 -0.7305
 3130SOL    HW1 9497   2.683   4.542   0.486  0.5871  0.3277 -0.6525
 3130SOL    HW2 9498   2.779   4.430   0.455  0.2888  0.3747 -1.7944
 3131SOL     OW 9499   3.597   1.696   3.787  0.2933  0.0969  0.1569
 3131SOL    HW1 9500   3.596   1.691   3.882  1.5032 -0.7486  0.1418
 3131SOL    HW2 9501   3.664   1.762   3.766  1.3684 -1.0555 -0.1245
 3132SOL     OW 9502   3.057   5.102   1.441 -0.3436  0.4671 -0.0473
 3132SOL    HW1 9503   3.018   5.089   1.527  1.9257  0.3495  1.0385
 3132SOL    HW2 9504   3.071   5.013   1.408  0.5838  0.4589  0.3474
 3133SOL     OW 9505   3.630   3.267   0.963  0.0754  0.7612 -0.3007
 3133SOL    HW1 9506   3.719   3.303   0.964  0.2500  0.3573 -1.0820
 3133SOL    HW2 9507   3.604   3.266   1.055  0.8736  0.9000 -0.0672
 3134SOL     OW 9508   0.901   0.349   1.090  0.3517 -0.1164  0.3218
 3134SOL    HW1 9509   0.964   0.416   1.064  0.0581 -0.1070 -0.3952
 3134SOL    HW2 9510   0.824   0.367   1.036  0.0189 -0.6054  0.6279
 3135SOL     OW 9511   2.292   5.277   0.944  0.0738 -0.3485 -0.7659
 3135SOL    HW1 9512   2.207   5.244   0.973 -0.6907  2.0584 -0.0037
 3135SOL    HW2 9513   2.345   5.279   1.024 -0.2086  1.0541 -0.5881
 3136SOL     OW 9514   5.144   5.382   3.258  0.0490 -0.2456 -0.1702
 3136SOL    HW1 9515   5.195   5.435   3.197  2.5005 -3.0169 -0.7421
 3136SOL    HW2 9516   5.107   5.312   3.204  0.4787 -1.5519  1.1690
 3137SOL     OW 9517   2.903   1.468   1.566  0.0280 -0.7621  0.6478
 3137SOL    HW1 9518   2.961   1.415   1.513 -0.4642 -0.0832 -0.6040
 3137SOL    HW2 9519   2.815   1.443   1.539 -0.3269 -1.9193  2.6566
 3138SOL     OW 9520   1.789   3.748   3.750  0.1140 -0.5416 -0.0872
 3138SOL    HW1 9521   1.791   3.759   3.655  0.3172 -0.1179 -0.0380
 3138SOL    HW2 9522   1.879   3.767   3.778  0.2271 -1.3250  0.1240
 3139SOL     OW 9523   3.424   3.240   0.408 -0.0033 -0.4506  0.0588
 3139SOL    HW1 9524   3.475   3.237   0.489  1.1467  1.6920 -0.4999
 3139SOL    HW2 9525   3.490   3.236   0.338 -0.6500  1.3372 -0.6996
 3140SOL     OW 9526   4.792   4.483   0.584 -0.2595 -0.2779 -0.0265
 3140SOL    HW1 9527   4.796   4.487   0.488 -0.1698 -1.4766 -0.0853
 3140SOL    HW2 9528   4.709   4.439   0.603  1.0477 -2.7612  0.3288
 3141SOL     OW 9529   3.529   1.800   3.244 -0.2698 -0.4531  0.2216
 3141SOL    HW1 9530   3.539   1.767   3.333 -0.4609 -0.4349  0.2492
 3141SOL    HW2 9531   3.484   1.884   3.254  1.0230  0.2832  0.2316
 3142SOL     OW 9532   3.680   0.134   1.877 -0.0029  0.2362 -0.0531
 3142SOL    HW1 9533   3.708   0.104   1.790 -0.9228 -0.6666 -0.0474
 3142SOL    HW2 9534   3.585   0.124   1.877 -0.1840  1.6513  0.5389
 3143SOL     OW 9535   0.985   0.113   2.953 -0.0050  0.3436  0.1509
 3143SOL    HW1 9536   0.903   0.162   2.951  0.2005  0.7807  1.4432
 3143SOL    HW2 9537   0.962   0.027   2.918 -1.0449  0.4234  0.6094
 3144SOL     OW 9538   2.177   4.471   0.767 -0.4577  0.1450 -0.0743
 3144SOL    HW1 9539   2.122   4.432   0.698  1.3110 -1.1052 -0.8553
 3144SOL    HW2 9540   2.220   4.545   0.724  2.9957 -2.3783 -1.4631
 3145SOL     OW 9541   1.148   0.910   3.539 -0.5328  0.8673 -0.2413
 3145SOL    HW1 9542   1.064   0.882   3.504  0.0798  0.3128 -1.3111
 3145SOL    HW2 9543   1.149   1.005   3.526 -0.9418  0.8612 -0.3304
 3146SOL     OW 9544   3.343   3.763   3.277  0.0638  0.2233  0.2298
 3146SOL    HW1 9545   3.418   3.718   3.316  0.3979  1.0162  0.5190
 3146SOL    HW2 9546   3.305   3.813   3.349 -0.9756 -0.4626  0.1766
 3147SOL     OW 9547   0.342   4.157   3.192  0.0379 -0.4051 -0.1741
 3147SOL    HW1 9548   0.288   4.210   3.133  0.3083 -0.0623 -0.1149
 3147SOL    HW2 9549   0.409   4.119   3.135 -0.5875 -1.2714 -0.3430
 3148SOL     OW 9550   4.859   1.794   1.778 -0.5689 -0.3434 -0.6776
 3148SOL    HW1 9551   4.946   1.815   1.814 -1.1041  0.5839  0.1438
 3148SOL    HW2 9552   4.812   1.878   1.779 -1.7769 -1.0010 -0.2445
 3149SOL     OW 9553   3.521   1.786   3.522 -0.0787 -0.0355 -0.1240
 3149SOL    HW1 9554   3.430   1.773   3.497  0.2308 -0.6903 -0.9598
 3149SOL    HW2 9555   3.520   1.784   3.618 -0.8288 -0.8064 -0.1405
 3150SOL     OW 9556   2.416   3.852   0.437  0.4064  0.0506  0.2806
 3150SOL    HW1 9557   2.362   3.800   0.497  0.4404 -0.4598 -0.1221
 3150SOL    HW2 9558   2.390   3.821   0.350  1.0045  0.1505  0.0672
 3151SOL     OW 9559   3.342   2.955   2.301  0.7945 -0.0040  0.1311
 3151SOL    HW1 9560   3.333   3.015   2.376 -2.5258 -1.4876  1.0972
 3151SOL    HW2 9561   3.310   3.005   2.227 -0.3565  0.0188  0.6202
 3152SOL     OW 9562   0.833   0.314   3.165 -0.1427 -0.2733  0.5208
 3152SOL    HW1 9563   0.900   0.308   3.234  1.2613  0.2597 -0.7349
 3152SOL    HW2 9564   0.755   0.274   3.204  0.9066 -0.9716  2.0268
 3153SOL     OW 9565   3.013   5.313   2.089  0.0232 -0.1821 -0.0127
 3153SOL    HW1 9566   3.083   5.356   2.138 -0.7489 -0.8847  1.7561
 3153SOL    HW2 9567   3.020   5.220   2.112 -0.6992 -0.4618 -0.8410
 3154SOL     OW 9568   3.381   4.951   3.530  0.5975  0.1347  0.1207
 3154SOL    HW1 9569   3.320   5.015   3.493 -0.1057 -1.5762 -1.8937
 3154SOL    HW2 9570   3.337   4.917   3.607  0.2527  0.8950  0.2648
 3155SOL     OW 9571   3.451   4.390   2.250  0.8772  0.2354  0.1815
 3155SOL    HW1 9572   3.538   4.422   2.226  1.0992  0.0327  0.7027
 3155SOL    HW2 9573   3.447   4.400   2.345  0.8506 -1.0421  0.3332
 3156SOL     OW 9574   0.097   3.799   0.803 -0.3675  0.2109  0.2789
 3156SOL    HW1 9575   0.173   3.801   0.861 -0.8262  0.7308  0.8638
 3156SOL    HW2 9576   0.033   3.856   0.845 -0.2070  1.7422 -1.4322
 3157SOL     OW 9577   4.485   5.393   0.289 -0.0950 -0.3748 -0.1359
 3157SOL    HW1 9578   4.394   5.371   0.271  0.0565 -0.1046 -1.2635
 3157SOL    HW2 9579   4.523   5.312   0.325 -0.7127 -0.5519  0.1294
 3158SOL     OW 9580   0.068   2.341   3.323 -0.3500 -0.0952  0.5098
 3158SOL    HW1 9581  -0.012   2.372   3.365 -0.6318 -0.1671  0.0282
 3158SOL    HW2 9582   0.053   2.354   3.230  0.1567 -0.2135  0.4083
 3159SOL     OW 9583   3.696   3.598   3.693  0.2298 -0.4297  0.5151
 3159SOL    HW1 9584   3.715   3.678   3.644 -0.6487 -0.0088  0.8559
 3159SOL    HW2 9585   3.603   3.583   3.681  0.1473 -0.7356  1.4298
 3160SOL     OW 9586   0.668   4.883   2.642 -0.4259  0.3530  0.3482
 3160SOL    HW1 9587   0.689   4.972   2.672  1.3974  0.7247 -1.7508
 3160SOL    HW2 9588   0.662   4.832   2.722  0.1604  2.0360  1.5375
 3161SOL     OW 9589   4.747   2.046   1.438 -0.0044  0.0813  0.0714
 3161SOL    HW1 9590   4.709   2.081   1.358 -1.6214 -1.6992 -0.0075
 3161SOL    HW2 9591   4.841   2.057   1.427 -0.2661  1.0881 -1.4550
 3162SOL     OW 9592   0.476   1.251   1.769  0.1311 -0.4778  0.5907
 3162SOL    HW1 9593   0.445   1.216   1.853 -0.7753 -0.5128  0.2474
 3162SOL    HW2 9594   0.424   1.330   1.755  0.3104 -0.4461  0.0768
 3163SOL     OW 9595   1.029   4.028   1.075 -0.0870  0.1377  0.1464
 3163SOL    HW1 9596   0.990   4.097   1.020 -1.4486 -1.4574 -1.0091
 3163SOL    HW2 9597   0.973   4.025   1.153 -0.2772  0.0763  0.0096
 3164SOL     OW 9598   3.812   4.256   2.361  0.7414  0.0577  0.3420
 3164SOL    HW1 9599   3.876   4.232   2.293  1.7558 -0.2437  1.3587
 3164SOL    HW2 9600   3.863   4.256   2.442 -0.3827  0.6694  1.0730
 3165SOL     OW 9601   2.951   0.402   2.111 -0.5258  0.3817  0.1363
 3165SOL    HW1 9602   2.868   0.403   2.159 -0.4686 -0.0513  0.2564
 3165SOL    HW2 9603   3.018   0.408   2.180 -0.4081 -1.6134  0.2480
 3166SOL     OW 9604   3.773   2.271   1.743  0.4768  0.1550  0.1538
 3166SOL    HW1 9605   3.730   2.202   1.693 -1.8532 -0.4709  2.7989
 3166SOL    HW2 9606   3.713   2.345   1.740  1.0777  0.6821  0.6548
 3167SOL     OW 9607   0.735   2.472   2.300  0.1391  0.1303 -0.8256
 3167SOL    HW1 9608   0.670   2.536   2.271  0.6022  0.7101 -0.6184
 3167SOL    HW2 9609   0.815   2.524   2.312  1.1935 -0.8571 -2.9726
 3168SOL     OW 9610   3.969   5.400   2.208 -0.4824  0.5186  0.0532
 3168SOL    HW1 9611   3.981   5.495   2.214 -1.2434  0.5154  2.6794
 3168SOL    HW2 9612   4.017   5.365   2.283 -1.8973 -0.9876  0.3025
 3169SOL     OW 9613   1.073   1.151   2.944 -0.3685 -0.2318  0.2831
 3169SOL    HW1 9614   1.077   1.072   2.891 -0.1628 -0.5688  0.7945
 3169SOL    HW2 9615   1.161   1.161   2.980 -0.1955  0.6308 -0.3440
 3170SOL     OW 9616   5.127   0.940   0.731  0.1835  0.2515  0.5654
 3170SOL    HW1 9617   5.089   0.921   0.817  0.1731  0.8987  0.7105
 3170SOL    HW2 9618   5.110   1.034   0.718  2.4680  0.7870  1.0091
 3171SOL     OW 9619   0.506   2.690   2.333 -0.0446 -0.2544  0.0055
 3171SOL    HW1 9620   0.536   2.780   2.342  2.1441 -0.8458 -0.7836
 3171SOL    HW2 9621   0.512   2.653   2.422  0.6146 -0.0578  0.0467
 3172SOL     OW 9622   5.375   0.783   2.371 -0.6665 -0.3227  0.4640
 3172SOL    HW1 9623   5.439   0.836   2.417 -1.3594  0.7545  0.2166
 3172SOL    HW2 9624   5.290   0.811   2.407 -0.9643 -4.0122  3.2612
 3173SOL     OW 9625   2.806   0.275   3.590  0.0433  0.1016 -0.6188
 3173SOL    HW1 9626   2.720   0.235   3.605 -0.7142  1.9721  0.4146
 3173SOL    HW2 9627   2.842   0.288   3.678  0.4887  1.1510 -0.9443
 3174SOL     OW 9628   1.360   2.767   1.215 -0.0352 -0.3167  0.3212
 3174SOL    HW1 9629   1.291   2.821   1.252 -1.3137 -1.2414 -0.6165
 3174SOL    HW2 9630   1.394   2.818   1.141  0.0545 -0.0054  0.5756
 3175SOL     OW 9631   1.316   3.180   1.238  0.0192  0.2970 -0.0796
 3175SOL    HW1 9632   1.402   3.215   1.214 -0.8909  1.8368 -1.2415
 3175SOL    HW2 9633   1.286   3.134   1.160  0.2054 -1.1557  0.6728
 3176SOL     OW 9634   0.498   3.835   0.155  0.4870  0.2206  0.7771
 3176SOL    HW1 9635   0.549   3.888   0.217 -1.7625  3.5030  0.1175
 3176SOL    HW2 9636   0.497   3.887   0.075 -0.6097 -1.6307 -0.4765
 3177SOL     OW 9637   1.771   0.386   0.031  0.2083 -0.0521  0.6972
 3177SOL    HW1 9638   1.776   0.455   0.098  0.3318 -0.6413  1.2960
 3177SOL    HW2 9639   1.702   0.328   0.062 -0.4045  0.1816 -0.1781
 3178SOL     OW 9640   0.866   3.480   0.695 -0.0284  0.0018  0.3271
 3178SOL    HW1 9641   0.918   3.513   0.768  1.9943 -0.0591 -1.0134
 3178SOL    HW2 9642   0.781   3.458   0.734  1.1798 -0.6521  2.7990
 3179SOL     OW 9643   3.646   1.021   0.071 -0.5932 -0.0789 -0.5975
 3179SOL    HW1 9644   3.715   0.956   0.085 -0.4376 -0.0944 -1.3661
 3179SOL    HW2 9645   3.575   0.973   0.030 -0.2651  0.3226 -1.6777
 3180SOL     OW 9646   2.937   1.471   0.067 -0.2807 -0.3802  0.5461
 3180SOL    HW1 9647   2.906   1.444   0.154 -0.8612 -0.2514  0.3862
 3180SOL    HW2 9648   2.915   1.398   0.010 -1.0532  0.0479  0.2784
 3181SOL     OW 9649   3.856   5.518   0.097  0.3969 -0.5633  0.0845
 3181SOL    HW1 9650   3.838   5.471   0.016 -1.3729  0.1212  0.0206
 3181SOL    HW2 9651   3.781   5.577   0.107  0.0247 -1.3509  2.7523
 3182SOL     OW 9652   1.470   5.571   3.617  0.7883 -0.0990  0.4121
 3182SOL    HW1 9653   1.533   5.624   3.567  1.4828 -1.1709  0.0992
 3182SOL    HW2 9654   1.393   5.626   3.625  0.8153  0.2744 -1.4838
 3183SOL     OW 9655   2.878   0.279   3.848 -0.2851  0.3293  0.1893
 3183SOL    HW1 9656   2.950   0.332   3.882  0.4123 -0.0871 -0.5996
 3183SOL    HW2 9657   2.863   0.213   3.915  0.0986  0.3950  0.3448
 3184SOL     OW 9658   5.490   4.274   0.765 -1.3368 -0.4150 -0.4919
 3184SOL    HW1 9659   5.515   4.212   0.834 -0.1489 -0.8137 -1.2422
 3184SOL    HW2 9660   5.423   4.329   0.805  0.8739  0.8420  1.7681
 3185SOL     OW 9661   4.310   3.860   0.469  0.0865  0.2003  0.4955
 3185SOL    HW1 9662   4.383   3.922   0.466 -0.1633  0.5363  1.1237
 3185SOL    HW2 9663   4.343   3.787   0.521  0.0773  0.2186  0.5272
 3186SOL     OW 9664   0.943   2.292   2.079 -0.5911  0.2222 -0.3375
 3186SOL    HW1 9665   0.992   2.247   2.010 -0.9397 -0.4933 -0.1161
 3186SOL    HW2 9666   0.886   2.353   2.032 -0.7838 -0.2206 -0.6733
 3187SOL     OW 9667   0.350   4.066   3.448 -0.0746  0.0195 -0.2912
 3187SOL    HW1 9668   0.371   3.974   3.435  0.8577  0.0861  0.6541
 3187SOL    HW2 9669   0.314   4.095   3.364 -0.5063 -1.2285 -0.5503
 3188SOL     OW 9670   1.456   1.611   3.323 -0.5565  0.5324 -0.1734
 3188SOL    HW1 9671   1.519   1.679   3.344 -0.2917  0.0723  0.5671
 3188SOL    HW2 9672   1.504   1.551   3.264 -0.1136 -0.1006  0.8104
 3189SOL     OW 9673   1.397   3.880   3.703 -0.1071 -0.8444 -0.3371
 3189SOL    HW1 9674   1.327   3.887   3.768  1.5676  0.5894  1.4227
 3189SOL    HW2 9675   1.450   3.959   3.716  1.6319 -1.6783 -1.8750
 3190SOL     OW 9676   5.089   4.983   3.717  0.0030  0.6767  0.4492
 3190SOL    HW1 9677   5.143   4.966   3.794 -1.4347 -0.2285  1.3200
 3190SOL    HW2 9678   5.009   5.022   3.753  0.5687  3.3658 -0.9210
 3191SOL     OW 9679   1.747   1.681   2.571 -0.5339 -1.0581 -0.4073
 3191SOL    HW1 9680   1.745   1.697   2.665  0.8847 -1.3451 -0.3173
 3191SOL    HW2 9681   1.795   1.599   2.561  0.0694 -0.5956 -1.4347
 3192SOL     OW 9682   1.389   3.359   0.618 -0.4011  0.3891 -0.0321
 3192SOL    HW1 9683   1.403   3.334   0.709  1.0513  2.2667  0.3010
 3192SOL    HW2 9684   1.463   3.322   0.571 -0.9874 -0.3144 -0.4257
 3193SOL     OW 9685   0.581   3.184   1.847  0.1177  0.1669  0.8197
 3193SOL    HW1 9686   0.634   3.105   1.860  1.7472  0.6726 -1.9608
 3193SOL    HW2 9687   0.629   3.253   1.892  1.0975  0.3313 -0.4138
 3194SOL     OW 9688   3.484   2.709   3.744 -0.1325  0.0054  0.1325
 3194SOL    HW1 9689   3.451   2.622   3.722  0.4881 -0.0950 -0.4434
 3194SOL    HW2 9690   3.525   2.697   3.830 -0.4314 -0.1715  0.2501
 3195SOL     OW 9691   3.028   5.418   0.965 -0.4778  0.3454 -0.5589
 3195SOL    HW1 9692   3.123   5.422   0.958 -0.1810 -0.1318  2.1658
 3195SOL    HW2 9693   3.012   5.378   1.051 -3.1401  0.0530 -1.1101
 3196SOL     OW 9694   1.575   2.636   2.881  0.2567 -0.4376  0.1684
 3196SOL    HW1 9695   1.483   2.644   2.906 -0.0325  1.9512 -1.3672
 3196SOL    HW2 9696   1.623   2.676   2.953 -0.2861  2.4741 -0.9654
 3197SOL     OW 9697   4.906   4.059   3.484  0.4308  0.2659  0.0125
 3197SOL    HW1 9698   4.939   4.134   3.533  1.4054  0.2968 -0.6614
 3197SOL    HW2 9699   4.895   3.990   3.551  1.3130  0.4409  0.3624
 3198SOL     OW 9700   0.185   4.077   1.294  0.2503 -0.1919 -0.5264
 3198SOL    HW1 9701   0.255   4.080   1.359 -0.3291  0.1787  0.0902
 3198SOL    HW2 9702   0.202   4.152   1.237 -0.2359  0.5149  0.2474
 3199SOL     OW 9703   4.094   1.406   0.504  0.2118 -0.8076 -0.5081
 3199SOL    HW1 9704   4.174   1.371   0.465  1.5069 -1.4572  2.4548
 3199SOL    HW2 9705   4.025   1.347   0.474  0.9447 -0.7501 -2.4283
 3200SOL     OW 9706   2.302   4.141   3.609 -0.4532  0.6032 -0.4528
 3200SOL    HW1 9707   2.345   4.194   3.676 -0.6560 -0.7947  0.8464
 3200SOL    HW2 9708   2.230   4.195   3.578 -0.5082  1.1820  0.6510
 3201SOL     OW 9709   0.566   2.925   2.156  0.3643 -0.0741  0.0385
 3201SOL    HW1 9710   0.591   2.852   2.100 -0.1107  0.2259 -0.5666
 3201SOL    HW2 9711   0.638   2.988   2.147  1.0736 -0.7193  1.0405
 3202SOL     OW 9712   3.679   5.019   1.185 -0.2602 -0.3805  0.7053
 3202SOL    HW1 9713   3.646   5.108   1.202  1.3180 -0.2101  3.5938
 3202SOL    HW2 9714   3.601   4.964   1.187 -1.2350  0.8647 -0.8614
 3203SOL     OW 9715   0.357   0.378   2.063  0.0908 -0.3607  0.3735
 3203SOL    HW1 9716   0.298   0.305   2.046  1.2955 -1.6827  1.6353
 3203SOL    HW2 9717   0.430   0.365   2.003  0.7083 -0.6928  1.1804
 3204SOL     OW 9718   3.356   2.645   2.024 -0.1462  0.2180  0.2726
 3204SOL    HW1 9719   3.336   2.673   2.114 -1.4012 -0.8282  0.3466
 3204SOL    HW2 9720   3.282   2.677   1.972 -0.8489 -1.6052  0.1108
 3205SOL     OW 9721   1.946   0.615   1.176  0.7395  0.5921 -0.6246
 3205SOL    HW1 9722   1.886   0.653   1.239  1.4197 -0.8093  0.9368
 3205SOL    HW2 9723   2.033   0.646   1.203  1.1640 -0.9635 -0.1098
 3206SOL     OW 9724   1.469   0.485   0.640 -0.7865  0.3415 -0.2777
 3206SOL    HW1 9725   1.432   0.461   0.725  0.4982 -0.0835  0.1909
 3206SOL    HW2 9726   1.510   0.570   0.655  0.7304 -0.4008 -0.0448
 3207SOL     OW 9727   2.300   4.288   1.623 -0.1206  0.6021  0.2961
 3207SOL    HW1 9728   2.284   4.382   1.612 -2.1185  0.2847  0.0509
 3207SOL    HW2 9729   2.232   4.246   1.570  0.6862 -0.9918  0.4637
 3208SOL     OW 9730   1.215   1.201   3.479 -0.0192 -0.5431  0.4496
 3208SOL    HW1 9731   1.288   1.262   3.490  0.5463 -1.0919 -0.1475
 3208SOL    HW2 9732   1.217   1.179   3.386 -2.1581  0.9098 -0.0065
 3209SOL     OW 9733   0.538   2.967   0.628 -0.0766  0.1923 -0.4007
 3209SOL    HW1 9734   0.498   3.049   0.658 -2.3431 -0.2426 -1.9950
 3209SOL    HW2 9735   0.551   2.979   0.534  1.1612 -0.6980 -0.3705
 3210SOL     OW 9736   2.953   0.006   2.287 -0.0904 -0.2501  0.1778
 3210SOL    HW1 9737   2.880  -0.052   2.265  0.0192 -0.0353 -0.7654
 3210SOL    HW2 9738   2.996   0.024   2.204  0.7839 -0.0190  0.6687
 3211SOL     OW 9739   4.652   4.439   1.813  0.3993  0.0827 -0.2746
 3211SOL    HW1 9740   4.604   4.389   1.879  1.0976 -0.0623  0.1209
 3211SOL    HW2 9741   4.583   4.486   1.765 -0.0307  1.8293  1.8675
 3212SOL     OW 9742   4.422   5.254   1.817 -0.3331 -0.6923  0.1137
 3212SOL    HW1 9743   4.494   5.284   1.762  0.0839 -0.8548  0.5655
 3212SOL    HW2 9744   4.344   5.269   1.764 -0.0503  0.2861 -0.0526
 3213SOL     OW 9745   2.515   0.865   3.256 -0.2399  0.4852 -0.0330
 3213SOL    HW1 9746   2.503   0.960   3.261  0.8832  0.6025  0.6857
 3213SOL    HW2 9747   2.426   0.830   3.264 -0.8958  1.4982 -2.0744
 3214SOL     OW 9748   5.132   4.920   1.083 -0.0988 -0.4309  0.6150
 3214SOL    HW1 9749   5.116   4.996   1.026 -0.6833  0.4874  1.9545
 3214SOL    HW2 9750   5.074   4.852   1.049 -1.8461  0.6963  1.2112
 3215SOL     OW 9751   3.705   5.511   3.850  0.6681 -0.3471 -0.1739
 3215SOL    HW1 9752   3.725   5.597   3.886 -2.7002  0.3530  0.4253
 3215SOL    HW2 9753   3.680   5.458   3.926  2.4201 -1.8327 -0.5634
 3216SOL     OW 9754   2.952   4.036   0.888 -0.3632 -0.0405 -0.2000
 3216SOL    HW1 9755   2.985   3.946   0.888 -0.0882  0.0440  1.1141
 3216SOL    HW2 9756   2.860   4.027   0.910 -0.3258 -0.0017 -0.0263
 3217SOL     OW 9757   0.171   0.253   2.327 -0.3133 -0.1343 -0.4494
 3217SOL    HW1 9758   0.153   0.240   2.234 -0.5478 -0.8580 -0.3093
 3217SOL    HW2 9759   0.086   0.274   2.366  0.0877  2.2632 -0.7122
 3218SOL     OW 9760   2.327   3.000   2.084  0.2060 -0.3232 -0.0729
 3218SOL    HW1 9761   2.332   2.970   2.174 -4.9917 -1.4917  0.1339
 3218SOL    HW2 9762   2.303   3.093   2.090  1.8032  0.1437 -0.3966
 3219SOL     OW 9763   1.238   4.046   2.847 -0.0042 -0.1001  0.0319
 3219SOL    HW1 9764   1.259   3.998   2.927 -1.5423 -3.3528 -1.3124
 3219SOL    HW2 9765   1.323   4.069   2.809  0.7784  2.3167  2.8559
 3220SOL     OW 9766   2.502   3.228   3.214  0.3333  0.0361 -0.2338
 3220SOL    HW1 9767   2.591   3.193   3.208  0.8240  1.4903 -2.4618
 3220SOL    HW2 9768   2.507   3.295   3.282  0.3704 -1.3401  1.1717
 3221SOL     OW 9769   2.835   3.268   3.221 -0.1022  0.0908 -0.0026
 3221SOL    HW1 9770   2.808   3.244   3.309 -0.8423  0.8843 -0.0064
 3221SOL    HW2 9771   2.857   3.184   3.179  1.3254 -0.2108  1.2506
 3222SOL     OW 9772   3.505   3.570   3.044 -0.0608 -0.2690  0.2089
 3222SOL    HW1 9773   3.485   3.616   2.963  1.3203 -0.9501 -0.5622
 3222SOL    HW2 9774   3.465   3.623   3.113 -0.4668  0.8159 -0.8395
 3223SOL     OW 9775   3.062   3.363   2.520  0.1676 -0.7044  0.4629
 3223SOL    HW1 9776   3.090   3.445   2.561  0.8970 -1.3132  1.2147
 3223SOL    HW2 9777   2.967   3.367   2.522  0.1943 -0.0630  0.8927
 3224SOL     OW 9778   3.295   1.573   0.070 -0.2363  0.6206  0.1074
 3224SOL    HW1 9779   3.214   1.599   0.026  0.2061 -0.3969 -1.4040
 3224SOL    HW2 9780   3.278   1.485   0.102 -0.0780  0.8269  0.7859
 3225SOL     OW 9781   1.704   0.175   2.378 -0.2127  0.2124 -0.2943
 3225SOL    HW1 9782   1.622   0.175   2.427 -0.2605 -0.2277 -0.3761
 3225SOL    HW2 9783   1.697   0.251   2.320  0.6453  1.9619  1.6986
 3226SOL     OW 9784   5.500   4.973   0.213 -0.5421  0.3865 -0.4014
 3226SOL    HW1 9785   5.474   5.058   0.178 -1.2331  0.3129 -0.0932
 3226SOL    HW2 9786   5.533   4.992   0.301  1.1581  0.5663 -1.0321
 3227SOL     OW 9787   4.307   0.253   0.600 -0.1231  0.4770  0.6575
 3227SOL    HW1 9788   4.233   0.273   0.542 -0.4459 -0.5644  0.6859
 3227SOL    HW2 9789   4.266   0.228   0.683  0.1733 -1.1993  0.3427
 3228SOL     OW 9790   2.639   1.519   3.683 -0.4960 -0.2312 -0.1657
 3228SOL    HW1 9791   2.579   1.561   3.622  0.5446  0.2912 -0.8400
 3228SOL    HW2 9792   2.711   1.488   3.629 -1.4143 -3.3909  0.1830
 3229SOL     OW 9793   0.991   2.567   1.815 -0.2654  0.2857 -0.0459
 3229SOL    HW1 9794   0.916   2.627   1.819 -0.0010  0.8436 -2.2997
 3229SOL    HW2 9795   0.953   2.484   1.787 -0.0994  0.4651 -0.8072
 3230SOL     OW 9796   0.285   3.816   1.461 -0.7148  0.2851 -0.3907
 3230SOL    HW1 9797   0.198   3.780   1.442 -0.2482 -1.3007  0.3016
 3230SOL    HW2 9798   0.339   3.789   1.387 -0.0591 -1.6698  0.7150
 3231SOL     OW 9799   0.852   2.645   2.769  0.0735 -0.1715 -0.0614
 3231SOL    HW1 9800   0.825   2.553   2.779  0.7402 -0.3543  0.1226
 3231SOL    HW2 9801   0.942   2.639   2.737  0.6564  0.4104  1.3916
 3232SOL     OW 9802   4.787   1.642   1.023 -0.1156  0.3691 -0.3316
 3232SOL    HW1 9803   4.812   1.728   1.057 -0.1556  0.0045  0.6665
 3232SOL    HW2 9804   4.852   1.582   1.060 -2.2016 -0.5637  2.1582
 3233SOL     OW 9805   1.710   4.701   3.149 -0.3720  0.2114 -0.4268
 3233SOL    HW1 9806   1.747   4.614   3.163 -0.1524  0.2850 -0.5411
 3233SOL    HW2 9807   1.691   4.704   3.055  1.8355  1.1250 -0.9236
 3234SOL     OW 9808   3.791   0.373   1.616 -0.0440 -0.3170  0.2779
 3234SOL    HW1 9809   3.869   0.332   1.580 -1.4023 -1.4767 -1.5691
 3234SOL    HW2 9810   3.806   0.377   1.710  2.0587 -0.8250 -0.0068
 3235SOL     OW 9811   4.263   2.693   1.010  0.4941 -0.0665  0.9733
 3235SOL    HW1 9812   4.301   2.749   1.078 -0.3334 -1.2739  2.5032
 3235SOL    HW2 9813   4.251   2.608   1.053  0.9096 -1.1937 -1.0104
 3236SOL     OW 9814   1.428   5.204   2.871  0.2211 -0.1939  0.3439
 3236SOL    HW1 9815   1.371   5.218   2.796 -0.7267  0.6003  1.1689
 3236SOL    HW2 9816   1.444   5.292   2.906 -1.9110 -0.6755  2.8446
 3237SOL     OW 9817   2.957   1.960   1.352 -0.2455 -0.4996 -0.0743
 3237SOL    HW1 9818   2.967   1.876   1.397 -1.6097 -2.5530 -3.1739
 3237SOL    HW2 9819   3.045   1.995   1.345  0.3693 -1.7084  1.2530
 3238SOL     OW 9820   3.414   4.839   1.154  0.1836 -0.3682 -0.4932
 3238SOL    HW1 9821   3.432   4.747   1.134  2.1658 -0.0975 -0.1819
 3238SOL    HW2 9822   3.397   4.840   1.248 -1.2372 -0.5794 -0.7301
 3239SOL     OW 9823   0.907   4.257   0.973  0.5105 -0.0624  0.0636
 3239SOL    HW1 9824   0.848   4.219   1.038  1.4671  0.9063  1.5614
 3239SOL    HW2 9825   0.859   4.251   0.891 -1.1465 -0.4480  1.0129
 3240SOL     OW 9826   1.905   4.525   2.666  0.4412 -0.0563 -0.2257
 3240SOL    HW1 9827   1.838   4.562   2.724  0.3156 -1.2803  0.4412
 3240SOL    HW2 9828   1.911   4.587   2.593 -0.6439  0.6137  0.2361
 3241SOL     OW 9829   3.076   2.686   0.912 -0.2224 -0.1280 -0.3797
 3241SOL    HW1 9830   3.025   2.614   0.873 -0.7572  0.4689 -0.8057
 3241SOL    HW2 9831   3.011   2.740   0.956  0.2145 -0.0363  0.1611
 3242SOL     OW 9832   3.022   1.761   3.479 -0.3783 -0.1564  0.3918
 3242SOL    HW1 9833   2.965   1.811   3.537  0.5927 -1.1140  2.2719
 3242SOL    HW2 9834   3.018   1.672   3.514 -0.5107 -1.0047 -1.6535
 3243SOL     OW 9835   3.678   1.917   3.020  0.2214  0.3281 -0.3778
 3243SOL    HW1 9836   3.590   1.954   3.022 -1.0205 -2.3901 -0.6271
 3243SOL    HW2 9837   3.679   1.854   3.093  1.8252  0.0071 -0.6351
 3244SOL     OW 9838   0.832   1.013   2.485 -0.0935 -0.3912 -0.0868
 3244SOL    HW1 9839   0.866   1.100   2.466 -0.0245 -0.2338  0.7285
 3244SOL    HW2 9840   0.840   1.004   2.580  0.5688 -1.5691 -0.2427
 3245SOL     OW 9841   4.578   3.531   1.851  0.4933 -0.1436  0.7356
 3245SOL    HW1 9842   4.673   3.528   1.862  0.5799  0.6480  0.2369
 3245SOL    HW2 9843   4.544   3.537   1.940  0.8296 -1.9711  1.0280
 3246SOL     OW 9844   4.020   2.821   1.557  0.3808  0.0081 -0.0980
 3246SOL    HW1 9845   4.055   2.825   1.646  0.6453  0.4408 -0.2207
 3246SOL    HW2 9846   4.077   2.879   1.506  0.6521 -0.7724 -0.6939
 3247SOL     OW 9847   0.544   2.687   0.891  0.5583  0.0267 -0.0443
 3247SOL    HW1 9848   0.540   2.727   0.978 -0.8840  0.0564 -0.0998
 3247SOL    HW2 9849   0.570   2.596   0.907  1.4783  0.3349  0.2940
 3248SOL     OW 9850   0.026   4.372   1.117  0.3642 -0.7696  0.2775
 3248SOL    HW1 9851  -0.025   4.447   1.085 -0.7821 -1.5760  0.1219
 3248SOL    HW2 9852   0.031   4.385   1.212  0.7108 -0.1734  0.1767
 3249SOL     OW 9853   5.531   3.819   1.697  0.5593 -0.0437 -0.2167
 3249SOL    HW1 9854   5.459   3.773   1.740 -1.0267  1.4694 -1.1114
 3249SOL    HW2 9855   5.553   3.765   1.621  0.8322 -0.8399  0.4208
 3250SOL     OW 9856   2.212   0.590   1.543 -0.4793  0.5369  0.1506
 3250SOL    HW1 9857   2.267   0.631   1.609  0.9544 -1.5899  0.4009
 3250SOL    HW2 9858   2.260   0.602   1.461  1.6989 -3.1903  0.6687
 3251SOL     OW 9859   0.030   0.612   3.675  0.1591  0.4632 -0.4882
 3251SOL    HW1 9860  -0.055   0.590   3.636  0.9584 -1.4960 -1.2986
 3251SOL    HW2 9861   0.027   0.572   3.762  0.0194  0.9758 -0.2537
 3252SOL     OW 9862   0.564   1.054   0.693 -0.0736 -0.3921  0.2029
 3252SOL    HW1 9863   0.474   1.059   0.660 -0.9959 -0.0087  2.5588
 3252SOL    HW2 9864   0.618   1.084   0.620 -1.9277  0.2482 -0.9880
 3253SOL     OW 9865   2.561   3.345   2.742 -0.6087  0.3352 -0.2669
 3253SOL    HW1 9866   2.639   3.384   2.781 -1.0921  0.6195  0.4351
 3253SOL    HW2 9867   2.594   3.273   2.688  0.0805 -0.0261  0.6180
 3254SOL     OW 9868   4.621   2.055   0.713 -0.4498 -0.4821 -0.0446
 3254SOL    HW1 9869   4.543   2.006   0.686 -0.0727 -0.3440 -1.4928
 3254SOL    HW2 9870   4.691   1.989   0.713 -0.6833 -0.7896  2.0744
 3255SOL     OW 9871   0.401   2.712   1.857 -0.3208 -0.0514  0.1759
 3255SOL    HW1 9872   0.383   2.781   1.792 -1.4846 -0.9126 -0.4725
 3255SOL    HW2 9873   0.318   2.703   1.904 -0.2845 -1.2068  0.0346
 3256SOL     OW 9874   2.370   3.539   2.676 -0.0710 -0.2313  0.1900
 3256SOL    HW1 9875   2.304   3.567   2.740 -1.4688  1.1667 -1.7316
 3256SOL    HW2 9876   2.453   3.554   2.720 -0.9634  1.0251  1.5750
 3257SOL     OW 9877   4.782   1.644   2.004  0.0592  0.2793 -0.4582
 3257SOL    HW1 9878   4.819   1.663   1.918 -0.5133  0.6416 -0.6316
 3257SOL    HW2 9879   4.688   1.656   1.993 -0.1972 -1.2946 -0.2027
 3258SOL     OW 9880   1.090   1.432   2.638 -0.0212 -0.1913 -0.4186
 3258SOL    HW1 9881   1.006   1.435   2.591 -0.3763 -2.1589  0.0046
 3258SOL    HW2 9882   1.079   1.494   2.710 -1.1269 -0.4407 -0.3486
 3259SOL     OW 9883   0.423   4.093   1.786 -0.0509  1.2887  0.3770
 3259SOL    HW1 9884   0.345   4.046   1.756  0.7462  0.2866 -0.1827
 3259SOL    HW2 9885   0.388   4.169   1.832 -1.3588  1.8810 -1.4556
 3260SOL     OW 9886   0.085   4.899   1.588 -0.1478  0.0850 -0.0590
 3260SOL    HW1 9887   0.071   4.937   1.675 -1.5338  0.3389 -0.3667
 3260SOL    HW2 9888   0.097   4.806   1.604 -0.7999  0.0725  0.3827
 3261SOL     OW 9889   3.235   4.052   2.980 -0.2739 -0.1990  0.2487
 3261SOL    HW1 9890   3.271   3.975   2.936 -2.1215 -0.7598 -0.3463
 3261SOL    HW2 9891   3.148   4.026   3.009 -1.4208  1.9731 -0.9523
 3262SOL     OW 9892   0.025   0.812   2.745  0.2611  0.0270  0.4077
 3262SOL    HW1 9893   0.052   0.840   2.657  1.4674 -0.8516  0.4896
 3262SOL    HW2 9894   0.040   0.889   2.800 -0.2754  0.5037 -0.0952
 3263SOL     OW 9895   5.555   4.667   1.858  0.8241 -0.2451  0.0644
 3263SOL    HW1 9896   5.629   4.642   1.802  0.7277  1.3081 -0.8192
 3263SOL    HW2 9897   5.502   4.588   1.864  2.7517 -1.5349  1.0682
 3264SOL     OW 9898   0.220   5.069   1.419 -0.4402  0.7159  0.4137
 3264SOL    HW1 9899   0.176   5.004   1.472 -1.3235  1.0149  0.0660
 3264SOL    HW2 9900   0.238   5.141   1.479 -2.7327  1.6706  0.0555
 3265SOL     OW 9901   4.204   0.705   3.525 -0.9287  0.6747  0.0260
 3265SOL    HW1 9902   4.168   0.758   3.453 -2.1922 -1.7615 -1.2517
 3265SOL    HW2 9903   4.130   0.693   3.585 -0.6076  0.4806  0.3866
 3266SOL     OW 9904   3.661   4.457   0.017  0.1412  0.2622 -0.2044
 3266SOL    HW1 9905   3.629   4.391  -0.044  0.7335  0.1495 -0.3927
 3266SOL    HW2 9906   3.730   4.413   0.068 -0.6926  0.1937  0.9143
 3267SOL     OW 9907   2.458   2.874   3.654  0.2318 -0.1978  0.3268
 3267SOL    HW1 9908   2.550   2.851   3.665 -0.3900 -2.4008  1.3352
 3267SOL    HW2 9909   2.410   2.794   3.675 -1.9110  0.7391 -0.6837
 3268SOL     OW 9910   0.044   0.905   1.708  0.4704 -0.5407  0.0586
 3268SOL    HW1 9911   0.069   0.816   1.731 -2.5588 -1.9282 -1.4814
 3268SOL    HW2 9912   0.045   0.953   1.791  0.5965 -2.4145  1.1830
 3269SOL     OW 9913   3.600   3.411   1.635 -0.3770 -0.2236 -0.1745
 3269SOL    HW1 9914   3.663   3.341   1.620  1.2629  0.7466  1.7292
 3269SOL    HW2 9915   3.613   3.471   1.562 -0.0306 -0.6904 -0.5021
 3270SOL     OW 9916   3.487   0.598   0.072 -0.6243 -0.0382  0.7562
 3270SOL    HW1 9917   3.507   0.515   0.028  0.6360  0.4964  0.2865
 3270SOL    HW2 9918   3.413   0.634   0.023  0.8492  0.6283 -1.1017
 3271SOL     OW 9919   5.180   2.943   1.516  0.4958 -0.1427 -0.1837
 3271SOL    HW1 9920   5.134   2.922   1.598  2.8468 -0.4258  1.1419
 3271SOL    HW2 9921   5.121   2.912   1.447 -0.8537 -1.3754  1.4454
 3272SOL     OW 9922   1.128   1.924   0.757  0.1937  0.5718 -0.1528
 3272SOL    HW1 9923   1.070   1.916   0.833  1.3977 -0.7614  0.6918
 3272SOL    HW2 9924   1.111   2.012   0.723 -1.5708  0.5842  0.6596
 3273SOL     OW 9925   0.750   3.806   2.854 -0.1057 -0.0933 -0.5261
 3273SOL    HW1 9926   0.690   3.751   2.804  0.3704 -0.5741 -0.5871
 3273SOL    HW2 9927   0.834   3.760   2.848  0.0287  0.0140  0.4473
 3274SOL     OW 9928   4.733   1.223   2.398  0.4971  0.7619 -0.3584
 3274SOL    HW1 9929   4.820   1.237   2.435  0.1997  0.6996  0.3730
 3274SOL    HW2 9930   4.679   1.293   2.435 -0.0705  0.0311  0.2268
 3275SOL     OW 9931   2.399   4.909   2.952 -0.2550  0.3370  0.5546
 3275SOL    HW1 9932   2.344   4.930   2.876 -0.2233  0.3898  0.5459
 3275SOL    HW2 9933   2.400   4.814   2.956 -1.0131  0.3423  1.0398
 3276SOL     OW 9934   0.398   5.414   3.865 -0.2882  0.0614  0.7114
 3276SOL    HW1 9935   0.332   5.393   3.931 -0.0815 -0.7394  0.6750
 3276SOL    HW2 9936   0.354   5.476   3.807 -1.1316 -0.6811  0.5165
 3277SOL     OW 9937   3.227   3.161   2.460  0.1425  0.0319 -0.7996
 3277SOL    HW1 9938   3.228   3.131   2.551  1.9958 -1.9200 -1.3753
 3277SOL    HW2 9939   3.154   3.223   2.456 -0.5462 -0.4850  1.7847
 3278SOL     OW 9940   3.240   0.881   3.333 -0.0453 -0.2796  0.4679
 3278SOL    HW1 9941   3.182   0.834   3.273  0.6907 -0.5241 -0.0729
 3278SOL    HW2 9942   3.320   0.896   3.282 -0.4544  2.0919  0.3906
 3279SOL     OW 9943   3.842   5.381   2.597 -0.4004  0.3366 -0.5637
 3279SOL    HW1 9944   3.839   5.361   2.691  1.4291  1.2993 -0.2670
 3279SOL    HW2 9945   3.894   5.311   2.559 -0.6135  0.2886 -0.7707
 3280SOL     OW 9946   1.380   3.597   1.523 -0.1859  0.0152  0.5771
 3280SOL    HW1 9947   1.440   3.668   1.545  0.0252 -0.5557  1.9345
 3280SOL    HW2 9948   1.317   3.636   1.462  0.0121  1.3221  1.1891
 3281SOL     OW 9949   4.877   0.936   3.190 -0.2503 -0.6357 -0.0643
 3281SOL    HW1 9950   4.968   0.967   3.189 -0.0871 -1.1127 -0.5142
 3281SOL    HW2 9951   4.833   0.992   3.254  0.5081 -0.7966  0.6136
 3282SOL     OW 9952   3.701   2.261   0.136 -0.1743 -0.5936  0.4362
 3282SOL    HW1 9953   3.619   2.242   0.091 -0.3184 -0.6146  0.7054
 3282SOL    HW2 9954   3.759   2.189   0.111 -0.0745 -0.3165 -0.1514
 3283SOL     OW 9955   0.374   3.172   0.003  0.3038  0.0126 -0.1565
 3283SOL    HW1 9956   0.416   3.111  -0.057  1.9671  0.1407  0.8094
 3283SOL    HW2 9957   0.433   3.248   0.005 -1.0310  1.0993 -0.2986
 3284SOL     OW 9958   0.243   1.940   0.926 -0.3116  0.3543 -0.7585
 3284SOL    HW1 9959   0.253   1.976   0.837  0.5844 -1.0905 -1.2804
 3284SOL    HW2 9960   0.250   1.846   0.914 -2.3599 -0.0140  0.6026
 3285SOL     OW 9961   1.704   5.480   0.264 -0.1007  0.1411  0.2729
 3285SOL    HW1 9962   1.785   5.515   0.302  0.0970  0.9289 -0.8158
 3285SOL    HW2 9963   1.634   5.523   0.313  0.1231  2.5490 -1.3290
 3286SOL     OW 9964   1.121   4.486   3.023  0.6445  0.7581 -0.4374
 3286SOL    HW1 9965   1.031   4.517   3.020  0.7967  1.1952 -0.6439
 3286SOL    HW2 9966   1.170   4.557   3.066  0.9896  0.7983 -0.8782
 3287SOL     OW 9967   2.468   1.366   2.466 -0.9313 -0.1787  0.0704
 3287SOL    HW1 9968   2.401   1.318   2.418  0.1721 -1.1238 -0.5624
 3287SOL    HW2 9969   2.548   1.316   2.453  0.6336  2.5183 -1.8300
 3288SOL     OW 9970   3.259   2.891   3.786  0.3453  0.4722  0.1519
 3288SOL    HW1 9971   3.196   2.820   3.793 -1.3783  1.9713  0.6663
 3288SOL    HW2 9972   3.345   2.847   3.786 -0.6253 -1.5536  0.7904
 3289SOL     OW 9973   4.004   3.584   2.647 -0.0305 -0.3816 -0.1329
 3289SOL    HW1 9974   4.038   3.563   2.734  0.3423 -0.5819 -0.3250
 3289SOL    HW2 9975   4.077   3.624   2.601 -0.2485 -0.2091 -0.3341
 3290SOL     OW 9976   1.434   4.979   3.076  0.3471 -0.0115 -0.1350
 3290SOL    HW1 9977   1.382   4.921   3.019 -0.7216  1.1268 -0.3676
 3290SOL    HW2 9978   1.439   5.061   3.027  3.5956 -0.4477 -0.7657
 3291SOL     OW 9979   2.183   3.422   3.927  0.1700 -0.6767 -0.4102
 3291SOL    HW1 9980   2.194   3.469   3.844 -2.2159  0.9102  0.0600
 3291SOL    HW2 9981   2.111   3.361   3.911 -0.0334 -0.6526  0.3787
 3292SOL     OW 9982   3.830   3.432   2.213 -0.4079  0.3856  0.2800
 3292SOL    HW1 9983   3.825   3.421   2.308 -0.4270  2.4972  0.5545
 3292SOL    HW2 9984   3.909   3.483   2.198 -0.0936 -0.3982 -0.9164
 3293SOL     OW 9985   3.130   2.577   3.213  0.1337  0.4392 -0.1713
 3293SOL    HW1 9986   3.137   2.563   3.307  0.9863  1.9134  0.0237
 3293SOL    HW2 9987   3.211   2.540   3.177  1.5681  3.0257  0.1498
 3294SOL     OW 9988   3.513   1.191   3.666  0.7365 -0.2319 -0.8215
 3294SOL    HW1 9989   3.594   1.148   3.693 -0.1507 -0.6655  1.4117
 3294SOL    HW2 9990   3.533   1.285   3.669  1.1424 -0.3308 -0.1399
 3295SOL     OW 9991   5.133   5.074   1.317  0.6032  0.5104 -0.7026
 3295SOL    HW1 9992   5.200   5.142   1.312  0.5600  0.5226 -1.1432
 3295SOL    HW2 9993   5.146   5.021   1.237  1.8447 -1.1235  0.5085
 3296SOL     OW 9994   0.669   3.587   3.591 -0.4182  0.6184 -0.7216
 3296SOL    HW1 9995   0.738   3.595   3.656  0.0934 -2.2320 -0.8255
 3296SOL    HW2 9996   0.673   3.670   3.542  1.6520  1.2743  0.4466
 3297SOL     OW 9997   1.935   3.124   1.668  0.3096 -0.2148  0.1067
 3297SOL    HW1 9998   1.964   3.066   1.598  1.5411  1.7396 -1.1129
 3297SOL    HW2 9999   1.900   3.200   1.622  2.4295  1.7537  1.5356
 3298SOL     OW10000   0.733   1.026   0.219  0.5126  0.1267  0.1132
 3298SOL    HW110001   0.685   0.972   0.282 -0.1847 -0.5218 -0.9473
 3298SOL    HW210002   0.665   1.076   0.173  1.0620  1.1054  0.3230
 3299SOL     OW10003   0.805   3.929   3.116 -0.0569 -0.2078 -0.1486
 3299SOL    HW110004   0.763   3.905   3.033 -1.7159  0.1330  0.5595
 3299SOL    HW210005   0.760   4.010   3.143  0.8350 -0.0181  0.8209
 3300SOL     OW10006   0.415   4.623   3.042  0.5311  0.0890 -0.3554
 3300SOL    HW110007   0.447   4.674   2.968  0.6290 -0.0863 -0.4353
 3300SOL    HW210008   0.363   4.684   3.093  2.7393  1.0124  0.9515
 3301SOL     OW10009   1.075   3.241   2.012 -0.0701 -0.2390 -0.2619
 3301SOL    HW110010   0.985   3.244   2.046  0.9382  0.9352  2.5425
 3301SOL    HW210011   1.115   3.322   2.043  2.7608 -1.9989  1.0397
 3302SOL     OW10012   3.548   2.329   3.128  0.2019  0.3665 -0.2375
 3302SOL    HW110013   3.626   2.351   3.077  0.2496 -0.4888 -0.5438
 3302SOL    HW210014   3.530   2.408   3.179  2.1106  0.1149  0.9222
 3303SOL     OW10015   2.786   4.210   1.101  0.3894  0.8767  0.0597
 3303SOL    HW110016   2.729   4.282   1.128 -2.1572 -0.9531  0.0159
 3303SOL    HW210017   2.774   4.206   1.006  1.1149  0.8457 -0.0340
 3304SOL     OW10018   4.644   3.438   2.224 -0.1610 -0.8763 -0.0748
 3304SOL    HW110019   4.736   3.436   2.251 -0.0554 -0.6655 -0.4174
 3304SOL    HW210020   4.634   3.360   2.169  0.3480  0.1913 -1.7466
 3305SOL     OW10021   0.343   3.231   3.655 -0.1932  0.1144  0.5791
 3305SOL    HW110022   0.262   3.181   3.651 -0.1012 -0.0968  1.1373
 3305SOL    HW210023   0.411   3.165   3.668  0.2098  0.1879 -0.9601
 3306SOL     OW10024   3.242   3.982   1.018 -0.1227 -0.0849  0.1324
 3306SOL    HW110025   3.195   4.027   0.948 -0.5405  0.9925  1.0766
 3306SOL    HW210026   3.184   3.910   1.043  0.2155 -0.7396 -0.8800
 3307SOL     OW10027   2.573   5.385   3.055 -0.8736 -0.0950 -0.1178
 3307SOL    HW110028   2.491   5.423   3.021 -0.2258  1.4024 -0.0836
 3307SOL    HW210029   2.602   5.448   3.122 -0.3942 -1.3096  0.8616
 3308SOL     OW10030   4.139   1.819   1.560  0.4302 -0.4147  0.1973
 3308SOL    HW110031   4.097   1.854   1.639 -0.1190 -0.1764 -0.1939
 3308SOL    HW210032   4.188   1.893   1.525 -0.0545 -0.2611 -0.1712
 3309SOL     OW10033   1.798   1.345   1.897  0.7428  0.3452 -0.0176
 3309SOL    HW110034   1.882   1.328   1.853  0.4614  0.9198 -0.7817
 3309SOL    HW210035   1.756   1.413   1.844 -1.1950 -1.4531 -0.9156
 3310SOL     OW10036   0.857   1.793   2.936 -0.2390 -0.7622  0.4432
 3310SOL    HW110037   0.855   1.728   2.867 -1.2592 -1.6675  1.2916
 3310SOL    HW210038   0.766   1.822   2.945 -0.1272 -0.6558  1.3902
 3311SOL     OW10039   4.304   0.694   3.784 -0.9797  0.3213  0.4923
 3311SOL    HW110040   4.348   0.779   3.791  0.6226 -0.4737  0.6489
 3311SOL    HW210041   4.294   0.679   3.690 -1.6051  0.8279  0.4696
 3312SOL     OW10042   0.105   3.826   0.420  0.3472 -0.1487  0.1457
 3312SOL    HW110043   0.065   3.834   0.334  0.5943  0.4979  0.0859
 3312SOL    HW210044   0.055   3.757   0.464  0.8965 -1.2617 -0.9016
 3313SOL     OW10045   2.022   4.404   1.753 -0.0269 -0.3089  0.5130
 3313SOL    HW110046   2.020   4.311   1.776 -2.4491  0.0025  1.8862
 3313SOL    HW210047   1.987   4.407   1.664 -0.6409 -0.6595  0.7389
 3314SOL     OW10048   3.258   1.235   1.207 -0.2177  0.1116 -0.7089
 3314SOL    HW110049   3.279   1.259   1.116 -0.2529  2.0321 -0.2545
 3314SOL    HW210050   3.193   1.165   1.199  0.3495 -0.2958 -2.1536
 3315SOL     OW10051   3.297   2.290   1.147  0.7193  0.1318 -0.2145
 3315SOL    HW110052   3.344   2.240   1.081  3.5590  1.3057  0.7863
 3315SOL    HW210053   3.295   2.380   1.113 -0.0314  0.2798  0.1884
 3316SOL     OW10054   2.816   0.576   1.223  0.1456  0.3274 -0.1056
 3316SOL    HW110055   2.751   0.579   1.153 -2.1097 -1.1416  1.7823
 3316SOL    HW210056   2.797   0.652   1.277  0.9004  0.6219 -0.2404
 3317SOL     OW10057   0.441   3.322   0.443  0.5275 -0.7381  0.0004
 3317SOL    HW110058   0.431   3.257   0.373 -0.0646 -0.8797  0.2163
 3317SOL    HW210059   0.381   3.393   0.419 -2.4768 -2.3374  2.1716
 3318SOL     OW10060   1.979   5.504   3.403 -0.6391 -0.2868  0.3230
 3318SOL    HW110061   1.902   5.558   3.387  0.3540  0.8156 -0.9604
 3318SOL    HW210062   2.035   5.556   3.460  0.5460  0.3082 -1.3226
 3319SOL     OW10063   2.286   4.848   0.039 -0.7178  0.8391  0.1337
 3319SOL    HW110064   2.365   4.812   0.079 -1.2484  0.9612  1.3079
 3319SOL    HW210065   2.271   4.792  -0.038  1.7150  2.1222 -1.4082
 3320SOL     OW10066   4.272   5.158   1.389  0.7877 -0.3452  0.6495
 3320SOL    HW110067   4.297   5.226   1.451  0.3874 -0.4260  0.9055
 3320SOL    HW210068   4.355   5.127   1.352  1.1496 -1.1447  2.0383
 3321SOL     OW10069   2.783   0.174   0.610 -0.4112 -0.6055 -0.0742
 3321SOL    HW110070   2.831   0.157   0.529  1.0648  0.5013  0.5177
 3321SOL    HW210071   2.820   0.112   0.673  2.6223  2.1899  1.2036
 3322SOL     OW10072   4.993   0.169   3.053  0.1605  0.5405  0.2172
 3322SOL    HW110073   4.908   0.143   3.017  0.5317  0.0781 -0.3299
 3322SOL    HW210074   4.981   0.161   3.148 -0.2850  0.0916  0.1294
 3323SOL     OW10075   4.545   4.372   2.607 -0.0154 -0.4001 -0.2762
 3323SOL    HW110076   4.554   4.331   2.693  0.3396 -1.0511 -0.6147
 3323SOL    HW210077   4.636   4.384   2.577 -0.1332 -0.0457 -0.4998
 3324SOL     OW10078   2.147   5.305   0.021  0.0992 -0.1341  0.1809
 3324SOL    HW110079   2.063   5.337   0.052 -1.1802  0.4653 -3.4196
 3324SOL    HW210080   2.210   5.371   0.048 -0.9642  0.5965  0.9565
 3325SOL     OW10081   1.677   2.146   0.679  0.1194  0.3181  0.3568
 3325SOL    HW110082   1.652   2.142   0.771 -1.7136  0.4439 -0.1048
 3325SOL    HW210083   1.603   2.108   0.632  1.2136 -0.1601 -1.0562
 3326SOL     OW10084   4.339   1.620   3.703 -0.2677 -0.0404 -0.6198
 3326SOL    HW110085   4.352   1.713   3.687 -2.2713 -0.0549 -2.7750
 3326SOL    HW210086   4.375   1.606   3.791 -0.3919  2.8532 -0.0074
 3327SOL     OW10087   1.991   2.150   2.589 -0.5940  0.4694 -0.2894
 3327SOL    HW110088   2.026   2.165   2.501 -0.5980  0.4880 -0.2878
 3327SOL    HW210089   1.937   2.071   2.580 -1.5153  1.1057 -0.5629
 3328SOL     OW10090   2.708   4.336   3.049  0.5695 -0.2630 -0.1277
 3328SOL    HW110091   2.798   4.325   3.079  0.4581 -0.5658  0.0977
 3328SOL    HW210092   2.715   4.394   2.973  0.9126  0.0358  0.1283
 3329SOL     OW10093   3.155   5.513   3.815 -0.2846  0.3717  0.1934
 3329SOL    HW110094   3.240   5.547   3.788  1.0486 -2.0116  1.0536
 3329SOL    HW210095   3.144   5.544   3.905  1.1747 -1.6765  1.1679
 3330SOL     OW10096   1.552   5.373   0.004 -0.6353  0.7050 -0.1847
 3330SOL    HW110097   1.553   5.409  -0.085 -2.0933  0.0471 -0.4841
 3330SOL    HW210098   1.645   5.355   0.022 -0.3516  0.3597 -1.7739
 3331SOL     OW10099   5.114   1.764   1.876 -0.2878 -0.0062 -0.1655
 3331SOL    HW110100   5.201   1.780   1.912 -0.9734 -0.1676  1.6385
 3331SOL    HW210101   5.119   1.677   1.837 -0.0452 -0.6485  1.2661
 3332SOL     OW10102   1.312   2.628   3.002  0.1535 -0.3349  0.4226
 3332SOL    HW110103   1.314   2.722   3.015 -0.8666 -0.0096 -1.3736
 3332SOL    HW210104   1.250   2.596   3.067  0.7633  0.1581  1.2701
 3333SOL     OW10105   2.715   3.854   0.161 -0.1419 -0.6817 -0.5732
 3333SOL    HW110106   2.797   3.861   0.112 -1.2112 -2.2021 -2.7001
 3333SOL    HW210107   2.687   3.763   0.151 -1.0591 -0.7747  1.9259
 3334SOL     OW10108   1.127   5.462   2.632 -0.0637 -0.2347  0.4258
 3334SOL    HW110109   1.133   5.521   2.557  0.5595  0.5705  1.0943
 3334SOL    HW210110   1.044   5.483   2.673 -0.3058 -0.5266  0.0915
 3335SOL     OW10111   3.221   3.774   2.499  0.0645 -0.4083 -0.7269
 3335SOL    HW110112   3.286   3.844   2.495 -0.7997  0.4202 -0.5553
 3335SOL    HW210113   3.137   3.819   2.511 -0.5019 -1.4721 -0.5460
 3336SOL     OW10114   3.815   2.786   0.178  0.4778 -0.4110  0.1986
 3336SOL    HW110115   3.856   2.872   0.168  0.5931 -0.3858  0.8884
 3336SOL    HW210116   3.778   2.768   0.092 -0.1319  0.6246  0.2305
 3337SOL     OW10117   0.839   3.307   3.761  0.0003  0.1641 -0.4641
 3337SOL    HW110118   0.917   3.282   3.810 -0.5346 -2.0941 -0.6619
 3337SOL    HW210119   0.801   3.224   3.732 -1.0710  1.3215 -2.5873
 3338SOL     OW10120   4.009   0.480   2.852 -0.5136  0.3375  0.3874
 3338SOL    HW110121   3.936   0.429   2.818  0.1113 -0.5953  0.4159
 3338SOL    HW210122   4.082   0.419   2.854  0.0846  1.0577  1.0572
 3339SOL     OW10123   5.014   2.421   1.814  0.0495  0.4746 -0.4563
 3339SOL    HW110124   5.011   2.456   1.725  0.3129  0.8064 -0.3351
 3339SOL    HW210125   4.968   2.337   1.808 -0.1558  0.6117 -0.8512
 3340SOL     OW10126   2.579   0.068   2.399  0.7367 -0.2592  0.4408
 3340SOL    HW110127   2.603  -0.021   2.374  3.0672 -0.0004  1.4648
 3340SOL    HW210128   2.588   0.119   2.318 -2.4056 -1.1640 -0.6049
 3341SOL     OW10129   1.890   0.103   1.370  0.3305 -0.2452 -0.4310
 3341SOL    HW110130   1.834   0.132   1.442  0.0130 -1.7017 -0.0676
 3341SOL    HW210131   1.834   0.046   1.317 -0.1680  2.4904 -3.1817
 3342SOL     OW10132   4.910   1.432   0.457  0.0396  0.0218  0.2168
 3342SOL    HW110133   4.977   1.400   0.517 -0.9576 -0.5789  1.0404
 3342SOL    HW210134   4.850   1.358   0.445  0.1881  0.1428 -1.5058
 3343SOL     OW10135   0.463   5.406   0.568 -0.1496 -0.0878 -0.4561
 3343SOL    HW110136   0.545   5.390   0.521  0.2323 -0.3145  0.2794
 3343SOL    HW210137   0.472   5.495   0.602 -0.2854 -0.0510 -0.5145
 3344SOL     OW10138   5.370   0.296   3.596 -0.6824  0.9374  0.0850
 3344SOL    HW110139   5.329   0.317   3.513 -0.7191  1.7274  0.3001
 3344SOL    HW210140   5.408   0.378   3.626  3.0979 -0.1485 -1.2021
 3345SOL     OW10141   2.988   3.869   0.047 -0.2339 -0.7013 -0.4228
 3345SOL    HW110142   2.981   3.854  -0.047 -0.9361  0.4388 -0.5611
 3345SOL    HW210143   3.042   3.796   0.079  1.0928 -0.3925 -1.8875
 3346SOL     OW10144   4.061   3.609   3.104  0.3182  0.2591  0.1202
 3346SOL    HW110145   3.968   3.600   3.082  0.5142  0.3673 -0.7910
 3346SOL    HW210146   4.067   3.577   3.194 -0.5413 -0.0907  0.0683
 3347SOL     OW10147   4.583   1.837   0.074  0.1634  0.4714 -0.1132
 3347SOL    HW110148   4.676   1.856   0.059  0.8161 -1.0625  1.6709
 3347SOL    HW210149   4.572   1.748   0.042 -0.2408  0.0066  1.2550
 3348SOL     OW10150   2.946   0.926   0.668 -0.1143 -0.3505 -0.6996
 3348SOL    HW110151   2.851   0.914   0.679  0.1381 -1.4627  0.4007
 3348SOL    HW210152   2.964   1.009   0.712 -0.5319 -0.2905 -0.6337
 3349SOL     OW10153   1.126   4.381   0.673  0.0230  0.2826 -0.2574
 3349SOL    HW110154   1.071   4.303   0.680  1.4099 -0.6501  0.9605
 3349SOL    HW210155   1.095   4.438   0.744 -2.1060  1.6635 -2.1662
 3350SOL     OW10156   0.029   0.174   2.645  0.1688  0.1722  0.3705
 3350SOL    HW110157  -0.062   0.145   2.640  0.3249 -0.3351  0.4328
 3350SOL    HW210158   0.078   0.108   2.594  0.4097  0.8490 -0.2944
 3351SOL     OW10159   4.037   4.092   3.310 -0.1883  0.1320 -0.3237
 3351SOL    HW110160   3.960   4.131   3.270  0.2532  0.0184 -1.3092
 3351SOL    HW210161   4.111   4.129   3.261  0.2478 -2.1653 -1.5351
 3352SOL     OW10162   1.784   1.375   2.723  0.8037 -0.2125 -0.2313
 3352SOL    HW110163   1.856   1.436   2.707  0.8609 -0.0204  0.6801
 3352SOL    HW210164   1.761   1.389   2.815 -1.2912  0.6670 -0.8396
 3353SOL     OW10165   1.620   5.441   2.366  0.4767  0.0383  0.1970
 3353SOL    HW110166   1.622   5.425   2.460  1.6321  2.4082  0.6255
 3353SOL    HW210167   1.673   5.371   2.329 -0.0876 -0.9947  1.2596
 3354SOL     OW10168   4.669   2.612   2.761 -0.1318  0.2321  0.7843
 3354SOL    HW110169   4.757   2.639   2.738 -0.4061  0.7438  0.3054
 3354SOL    HW210170   4.667   2.616   2.857  0.3556  0.2390  0.7947
 3355SOL     OW10171   1.307   0.153   0.625 -0.3561 -0.1757 -0.4935
 3355SOL    HW110172   1.333   0.061   0.618 -1.1815 -0.4898  0.3648
 3355SOL    HW210173   1.348   0.183   0.706  0.3756  0.3771 -1.0670
 3356SOL     OW10174   2.335   3.292   3.552  0.2468  0.1313  0.2934
 3356SOL    HW110175   2.250   3.334   3.539 -0.8398 -1.1108  2.7843
 3356SOL    HW210176   2.319   3.224   3.617  3.1691 -0.1514  0.8614
 3357SOL     OW10177   1.046   2.769   2.105  0.7704 -0.0211  0.6004
 3357SOL    HW110178   1.127   2.765   2.157  0.9498 -0.3549  0.3063
 3357SOL    HW210179   0.995   2.838   2.145  1.7428  1.0759  0.0152
 3358SOL     OW10180   3.807   3.100   3.530  0.5046 -0.5252 -0.0787
 3358SOL    HW110181   3.741   3.170   3.531  1.0791  0.0251 -0.3306
 3358SOL    HW210182   3.806   3.066   3.620  0.1230 -0.2940  0.0098
 3359SOL     OW10183   3.363   1.486   3.483 -0.1718  0.3029 -0.0873
 3359SOL    HW110184   3.346   1.424   3.412  1.1165  0.7312 -0.7948
 3359SOL    HW210185   3.450   1.463   3.514 -0.5066  0.4736  1.0102
 3360SOL     OW10186   3.486   2.309   1.455 -0.0858 -0.0352 -0.1477
 3360SOL    HW110187   3.393   2.327   1.440 -0.5811 -1.3567  1.1041
 3360SOL    HW210188   3.526   2.316   1.368 -1.2157  1.2147 -0.5983
 3361SOL     OW10189   4.654   0.777   0.145  0.4073 -0.8832 -0.3699
 3361SOL    HW110190   4.622   0.711   0.083  1.0076 -0.8060 -0.7716
 3361SOL    HW210191   4.579   0.834   0.162 -0.1492 -1.7325  0.0702
 3362SOL     OW10192   1.169   3.165   2.427  0.6872 -0.3451 -0.2657
 3362SOL    HW110193   1.265   3.158   2.435  0.8303 -0.8486 -2.0636
 3362SOL    HW210194   1.136   3.103   2.492  1.6627 -2.0011 -1.2767
 3363SOL     OW10195   4.144   1.997   1.783  0.0574 -0.0399 -0.7541
 3363SOL    HW110196   4.051   2.013   1.803  0.3003 -0.0118  0.4347
 3363SOL    HW210197   4.191   2.053   1.845  0.8822  0.9659 -2.2248
 3364SOL     OW10198   4.074   0.360   1.113 -0.5153 -0.2409  0.3908
 3364SOL    HW110199   4.146   0.353   1.176 -0.4796 -1.4100  0.2511
 3364SOL    HW210200   4.027   0.278   1.121 -1.4735  0.2600  0.0269
 3365SOL     OW10201   2.797   3.269   2.529  0.3848  0.8186  0.2679
 3365SOL    HW110202   2.809   3.174   2.518 -0.2392  0.7802 -0.1589
 3365SOL    HW210203   2.714   3.287   2.485 -0.7100  1.1888  2.3448
 3366SOL     OW10204   3.880   4.892   1.467 -0.2795  0.3174  0.0543
 3366SOL    HW110205   3.817   4.964   1.470  0.0254  0.5602  0.6474
 3366SOL    HW210206   3.901   4.874   1.558 -0.0606 -0.2737 -0.1062
 3367SOL     OW10207   3.860   4.661   2.386 -0.3273 -0.1318 -0.6142
 3367SOL    HW110208   3.919   4.700   2.322  0.5334  0.4654  0.5205
 3367SOL    HW210209   3.918   4.624   2.453 -1.1935 -1.2378 -0.4372
 3368SOL     OW10210   2.441   2.541   3.927 -0.2593  0.1978 -0.6960
 3368SOL    HW110211   2.351   2.564   3.949 -0.4612 -0.7811 -0.4479
 3368SOL    HW210212   2.456   2.582   3.842 -0.9726  0.2798 -0.7892
 3369SOL     OW10213   3.210   2.259   2.204  0.5565  0.1706  0.6074
 3369SOL    HW110214   3.222   2.171   2.241  2.4076  0.4635  0.7573
 3369SOL    HW210215   3.276   2.266   2.135 -0.4261  0.9914 -0.2842
 3370SOL     OW10216   1.216   1.412   2.305 -0.1517 -0.3735  0.0771
 3370SOL    HW110217   1.303   1.436   2.337 -0.6678  3.4759 -0.8904
 3370SOL    HW210218   1.233   1.372   2.219  0.7141 -0.4389  0.2677
 3371SOL     OW10219   2.712   0.255   2.893  0.0984 -0.1471  0.1044
 3371SOL    HW110220   2.688   0.281   2.981  1.2021  0.5149  0.2280
 3371SOL    HW210221   2.632   0.217   2.856 -0.0235 -1.6708  1.8226
 3372SOL     OW10222   5.352   0.188   0.927 -0.8202 -0.2989 -0.2645
 3372SOL    HW110223   5.358   0.234   0.844  0.3452  0.4921  0.2245
 3372SOL    HW210224   5.360   0.256   0.994 -0.1201 -1.0721  0.4833
 3373SOL     OW10225   5.383   5.272   1.475  0.1516 -0.6125 -0.2276
 3373SOL    HW110226   5.396   5.185   1.436  1.9883 -0.0460 -1.0127
 3373SOL    HW210227   5.408   5.261   1.566 -0.2828 -1.0582 -0.1574
 3374SOL     OW10228   0.973   1.760   1.106 -0.1830 -0.3251  0.2693
 3374SOL    HW110229   0.933   1.844   1.082  0.2839  0.6519  2.5857
 3374SOL    HW210230   0.902   1.709   1.145 -0.2685 -0.6606 -0.3167
 3375SOL     OW10231   2.905   1.578   0.524  0.4631  0.0093 -0.6913
 3375SOL    HW110232   2.957   1.546   0.598 -0.3620  1.1465  0.4285
 3375SOL    HW210233   2.854   1.651   0.561  0.5290  1.0472 -2.5421
 3376SOL     OW10234   0.293   0.559   0.616 -0.0550 -0.7441 -0.0837
 3376SOL    HW110235   0.278   0.632   0.676  0.4211 -0.6301 -0.0976
 3376SOL    HW210236   0.208   0.514   0.611 -0.1117 -0.7257  0.6284
 3377SOL     OW10237   1.940   0.247   0.875  0.5876 -0.0441  0.3326
 3377SOL    HW110238   1.916   0.340   0.876  1.1885  0.1545 -1.0263
 3377SOL    HW210239   1.987   0.233   0.957 -1.8661  0.1557  1.8852
 3378SOL     OW10240   2.866   4.832   3.504  0.0715  0.3550  0.3612
 3378SOL    HW110241   2.783   4.880   3.503 -1.1874 -1.7018 -0.7326
 3378SOL    HW210242   2.860   4.776   3.581  1.1821  1.2959  1.1754
 3379SOL     OW10243   2.553   2.577   1.814 -0.1144  0.0985  0.0417
 3379SOL    HW110244   2.474   2.524   1.801  0.0631  0.0236 -0.7792
 3379SOL    HW210245   2.525   2.647   1.873 -0.3003 -0.9984  1.3161
 3380SOL     OW10246   2.035   1.288   0.651  0.5953  0.3090 -0.3797
 3380SOL    HW110247   2.095   1.272   0.579  2.4677  0.8441  0.9745
 3380SOL    HW210248   2.041   1.209   0.705 -0.1449  0.2564 -0.3626
 3381SOL     OW10249   5.181   2.353   3.650  0.3946  0.9396 -0.3498
 3381SOL    HW110250   5.249   2.365   3.585  0.1962 -1.8816 -1.2052
 3381SOL    HW210251   5.099   2.363   3.602  0.2363  0.5485 -0.1722
 3382SOL     OW10252   0.734   4.205   1.233  0.3192 -0.1401  1.0155
 3382SOL    HW110253   0.764   4.177   1.319 -0.8627 -2.1874  0.8339
 3382SOL    HW210254   0.643   4.232   1.247 -0.0825 -1.0716  0.3445
 3383SOL     OW10255   2.045   2.859   3.700  0.4812 -0.0697 -0.1839
 3383SOL    HW110256   1.985   2.855   3.626  0.1747 -0.0095  0.0596
 3383SOL    HW210257   1.994   2.829   3.775  0.9458 -0.6423 -0.0907
 3384SOL     OW10258   1.558   4.155   3.656 -0.6992  0.2818  0.1930
 3384SOL    HW110259   1.508   4.219   3.706  2.1167  1.4187  1.8030
 3384SOL    HW210260   1.597   4.098   3.722 -0.4190 -1.0175 -1.0263
 3385SOL     OW10261   3.623   3.597   1.434  0.5221  0.3584  0.0138
 3385SOL    HW110262   3.547   3.626   1.383 -1.1608 -0.7781  1.7506
 3385SOL    HW210263   3.659   3.677   1.470 -0.1397  0.8933 -0.4782
 3386SOL     OW10264   2.769   1.666   2.705  0.3142  0.1375  0.5525
 3386SOL    HW110265   2.801   1.578   2.726 -0.8856 -0.7943 -1.2378
 3386SOL    HW210266   2.809   1.723   2.771  0.0872 -1.9180  2.5834
 3387SOL     OW10267   3.896   0.983   1.356 -0.2807 -0.1726  0.3875
 3387SOL    HW110268   3.986   0.960   1.332 -0.0767  0.8804  0.0835
 3387SOL    HW210269   3.904   1.019   1.445 -0.3717  0.1150  0.2794
 3388SOL     OW10270   5.553   5.076   1.122  0.2114 -0.0855  0.4791
 3388SOL    HW110271   5.499   5.127   1.182  0.1986 -0.6988  1.0052
 3388SOL    HW210272   5.569   5.134   1.048 -1.4505 -0.0113  0.1515
 3389SOL     OW10273   3.850   3.800   2.070  0.0138 -0.4511 -0.1845
 3389SOL    HW110274   3.877   3.831   2.157  3.3429 -3.1243 -0.0429
 3389SOL    HW210275   3.928   3.756   2.036 -2.1425 -2.2372 -3.2437
 3390SOL     OW10276   2.802   1.377   3.477 -0.8087 -0.0202  0.1835
 3390SOL    HW110277   2.734   1.349   3.416 -1.2879  0.4846  0.4852
 3390SOL    HW210278   2.839   1.456   3.437 -0.8225  0.0601  0.3295
 3391SOL     OW10279   3.156   2.013   3.723  0.2800 -0.0138 -0.6877
 3391SOL    HW110280   3.072   2.057   3.736  0.8230  0.5264  1.3698
 3391SOL    HW210281   3.168   1.961   3.802  0.3101 -2.8896 -2.4677
 3392SOL     OW10282   4.892   3.762   2.910 -0.0595 -0.2187 -0.3255
 3392SOL    HW110283   4.976   3.805   2.925 -0.0520 -0.1734 -0.5010
 3392SOL    HW210284   4.908   3.701   2.838 -0.6190  1.0793 -1.6107
 3393SOL     OW10285   1.790   1.986   3.553 -0.0300  0.6671 -0.7658
 3393SOL    HW110286   1.865   1.930   3.572  1.0369  2.4134  0.4747
 3393SOL    HW210287   1.737   1.982   3.633 -0.3458  0.8426 -0.9665
 3394SOL     OW10288   1.333   3.604   0.921  0.6977  0.1921 -0.4341
 3394SOL    HW110289   1.390   3.534   0.890 -0.2414 -0.2567 -1.1689
 3394SOL    HW210290   1.330   3.667   0.849 -0.8624 -0.4731 -0.9799
 3395SOL     OW10291   5.419   4.925   1.854  0.0089 -0.3514 -0.0296
 3395SOL    HW110292   5.427   4.955   1.944 -1.0449 -2.6861  0.9129
 3395SOL    HW210293   5.501   4.879   1.836  0.6046  0.9065 -0.6143
 3396SOL     OW10294   0.309   5.185   0.442 -0.2093 -0.0167 -0.5410
 3396SOL    HW110295   0.242   5.250   0.464 -2.1898 -2.6895  2.2836
 3396SOL    HW210296   0.388   5.216   0.486 -1.1891  0.3726  1.0198
 3397SOL     OW10297   5.573   4.971   3.547  0.4709  0.4554 -0.4592
 3397SOL    HW110298   5.612   5.054   3.574 -0.9292  0.6564  1.1136
 3397SOL    HW210299   5.604   4.908   3.612 -0.4023  0.2755 -0.1992
 3398SOL     OW10300   1.950   4.022   2.402  0.5180 -0.0157  0.0134
 3398SOL    HW110301   1.936   3.969   2.324 -2.8052  0.6054  0.0369
 3398SOL    HW210302   2.035   3.993   2.436  0.4585 -2.7849 -1.8738
 3399SOL     OW10303   0.773   1.474   2.015 -0.2819 -0.0039 -0.4987
 3399SOL    HW110304   0.788   1.565   2.038 -0.2202 -0.2349  0.4379
 3399SOL    HW210305   0.856   1.443   1.979 -0.8437  0.8090 -2.6653
 3400SOL     OW10306   0.274   3.807   2.010 -0.2880 -0.3935 -0.6159
 3400SOL    HW110307   0.298   3.819   1.919  1.9579 -1.1307 -0.1747
 3400SOL    HW210308   0.348   3.842   2.059 -0.6042 -1.7221  0.8915
 3401SOL     OW10309   1.759   1.963   2.504  0.3070  0.3077  0.3200
 3401SOL    HW110310   1.721   1.994   2.422  0.7701  1.6855  0.6107
 3401SOL    HW210311   1.754   1.867   2.498 -1.7215  0.4095 -0.3274
 3402SOL     OW10312   4.049   1.674   3.637 -0.4666 -0.6956 -0.4464
 3402SOL    HW110313   4.123   1.713   3.683 -2.0682 -0.9333  2.6052
 3402SOL    HW210314   3.980   1.740   3.641 -1.5272 -1.7933 -0.0041
 3403SOL     OW10315   1.025   0.276   2.332 -0.1162 -0.1157  0.0796
 3403SOL    HW110316   1.021   0.189   2.372 -1.9097  0.4847  1.3525
 3403SOL    HW210317   0.978   0.332   2.393 -1.0168  1.2993 -1.8109
 3404SOL     OW10318   3.966   1.836   2.101 -0.3670  0.6542  0.0594
 3404SOL    HW110319   3.941   1.903   2.038 -1.1627  0.6453  0.3604
 3404SOL    HW210320   3.963   1.881   2.186 -3.3921 -0.3420  0.5893
 3405SOL     OW10321   3.625   4.200   0.214  0.0815 -0.2587 -0.2571
 3405SOL    HW110322   3.704   4.253   0.212  0.8990 -1.4333 -0.5318
 3405SOL    HW210323   3.571   4.234   0.143 -1.2695  2.8181  2.0312
 3406SOL     OW10324   5.044   5.149   2.024 -0.0197  0.3447 -0.1047
 3406SOL    HW110325   5.057   5.064   2.066 -0.0788  0.4209  0.0650
 3406SOL    HW210326   4.962   5.181   2.061  0.0082  0.4807 -0.1627
 3407SOL     OW10327   4.656   2.176   3.379 -0.3662  0.4849  0.0465
 3407SOL    HW110328   4.751   2.178   3.363 -0.6134 -0.5015 -1.8627
 3407SOL    HW210329   4.620   2.134   3.301 -2.4491  1.3699  0.4742
 3408SOL     OW10330   4.694   3.025   2.284 -1.0684  0.1375 -0.2860
 3408SOL    HW110331   4.714   3.076   2.205  0.0441  1.0797  0.5587
 3408SOL    HW210332   4.665   3.090   2.348 -0.2852 -0.3515  0.6010
 3409SOL     OW10333   1.825   3.739   0.043 -0.1022 -0.4093 -0.4849
 3409SOL    HW110334   1.911   3.761   0.078  0.4345  1.4641 -2.6977
 3409SOL    HW210335   1.764   3.793   0.093  0.0354 -1.2445  0.6355
 3410SOL     OW10336   0.134   3.226   0.570 -0.7301 -0.6255  0.5161
 3410SOL    HW110337   0.126   3.314   0.532  0.8525 -1.0690 -0.9740
 3410SOL    HW210338   0.044   3.199   0.588 -1.2680  1.1935  0.8019
 3411SOL     OW10339   1.894   1.844   0.473  0.2390  0.1981  0.9845
 3411SOL    HW110340   1.928   1.756   0.490 -0.4575 -0.0413  1.1553
 3411SOL    HW210341   1.799   1.834   0.477  0.1263  0.7524 -0.0557
 3412SOL     OW10342   5.219   5.506   2.417 -0.4136  0.3102 -0.2324
 3412SOL    HW110343   5.131   5.542   2.428  0.3953  2.0325  1.2377
 3412SOL    HW210344   5.246   5.483   2.506  0.2406 -1.1867 -0.8036
 3413SOL     OW10345   1.386   0.624   2.837  0.6360 -0.0462 -0.1735
 3413SOL    HW110346   1.365   0.534   2.814  1.9719 -0.3426 -0.3278
 3413SOL    HW210347   1.319   0.676   2.794 -0.5050 -0.9882  0.4020
 3414SOL     OW10348   0.690   2.087   3.464  0.3586 -0.4745  0.3226
 3414SOL    HW110349   0.674   2.178   3.491  0.1721 -0.0517 -1.1219
 3414SOL    HW210350   0.615   2.038   3.496 -1.0573  0.4460 -1.4263
 3415SOL     OW10351   2.035   3.439   3.493 -0.5508  0.3582  0.1975
 3415SOL    HW110352   2.055   3.511   3.432 -1.1774  0.5204  0.1778
 3415SOL    HW210353   2.066   3.361   3.449  1.5871  0.7515  0.8798
 3416SOL     OW10354   4.822   1.137   3.779  0.4492 -0.3560 -0.1190
 3416SOL    HW110355   4.902   1.113   3.826  1.4548  2.1531 -0.3606
 3416SOL    HW210356   4.779   1.200   3.837 -2.4167 -2.9621  0.8403
 3417SOL     OW10357   5.185   0.328   2.278 -0.8699  0.8176 -0.0275
 3417SOL    HW110358   5.202   0.402   2.336 -0.6351  0.3814  0.4781
 3417SOL    HW210359   5.095   0.339   2.250 -1.0236  0.9855  0.5108
 3418SOL     OW10360   2.055   0.423   2.562 -0.7807 -0.0005  0.0628
 3418SOL    HW110361   2.108   0.348   2.590 -0.4174 -0.1817 -1.0531
 3418SOL    HW210362   2.039   0.408   2.468 -0.8213  1.2438 -0.1536
 3419SOL     OW10363   4.383   2.925   3.630 -0.0575 -0.1664 -0.1834
 3419SOL    HW110364   4.400   3.003   3.578 -1.5706 -0.8801 -1.9020
 3419SOL    HW210365   4.289   2.928   3.648  0.2767 -0.3798  1.8872
 3420SOL     OW10366   0.001   5.339   1.990  0.5394  0.2680  0.1388
 3420SOL    HW110367  -0.049   5.269   2.031  0.9730  0.2922  0.7409
 3420SOL    HW210368   0.093   5.313   2.002  0.6995  0.8220  0.1770
 3421SOL     OW10369   2.057   5.155   2.298 -0.2772 -0.1897 -0.2073
 3421SOL    HW110370   1.985   5.091   2.301 -0.2512 -0.1981  0.4159
 3421SOL    HW210371   2.012   5.240   2.300 -0.2689 -0.1448  2.6770
 3422SOL     OW10372   3.815   0.338   0.014  0.3870 -0.0216 -0.0490
 3422SOL    HW110373   3.796   0.255   0.058  2.1817 -0.3586  0.1655
 3422SOL    HW210374   3.848   0.396   0.083  0.9626  0.2301 -0.5195
 3423SOL     OW10375   4.920   0.681   0.673  0.1391  0.7906 -0.1305
 3423SOL    HW110376   4.876   0.728   0.602  0.1824  0.8295 -0.1321
 3423SOL    HW210377   5.010   0.714   0.671 -0.0021  1.2072  0.3025
 3424SOL     OW10378   1.024   1.295   1.062 -0.1662  0.2103 -0.7354
 3424SOL    HW110379   1.090   1.226   1.059 -1.1611 -0.7650 -0.7859
 3424SOL    HW210380   1.074   1.377   1.056  1.1667 -0.4317  0.8887
 3425SOL     OW10381   3.228   0.312   0.526 -0.2191  0.0871 -0.1396
 3425SOL    HW110382   3.298   0.270   0.576 -1.0689 -0.8150  0.3430
 3425SOL    HW210383   3.175   0.239   0.493 -0.2263  0.6941 -1.5720
 3426SOL     OW10384   3.556   5.013   0.691 -0.0252 -0.1723  0.3634
 3426SOL    HW110385   3.554   5.104   0.720  0.2157  0.6765 -2.0404
 3426SOL    HW210386   3.464   4.987   0.685 -0.1227  0.1679  0.3667
 3427SOL     OW10387   4.033   1.811   3.944  0.0713 -0.6467 -0.3122
 3427SOL    HW110388   4.076   1.881   3.894  1.9970 -1.7230 -0.2836
 3427SOL    HW210389   4.062   1.825   4.034 -1.4779 -0.1076  0.1235
 3428SOL     OW10390   2.467   3.732   2.486  0.3118  0.0346  0.0888
 3428SOL    HW110391   2.468   3.778   2.570  1.2971  2.1542 -1.0072
 3428SOL    HW210392   2.400   3.665   2.497 -1.6135  2.0487  1.6498
 3429SOL     OW10393   1.322   4.144   0.798  0.8705  0.8474 -0.0453
 3429SOL    HW110394   1.278   4.191   0.868  1.1528  0.4200  0.4228
 3429SOL    HW210395   1.291   4.187   0.718  0.3881  1.2043  0.3226
 3430SOL     OW10396   5.531   4.926   0.721 -0.1900 -0.1114 -0.3717
 3430SOL    HW110397   5.446   4.970   0.729 -0.7820 -1.3726  0.7417
 3430SOL    HW210398   5.556   4.905   0.811  0.2760 -1.5874 -0.8176
 3431SOL     OW10399   2.447   4.282   1.355 -0.2213 -0.5000 -0.4633
 3431SOL    HW110400   2.496   4.200   1.340 -0.9222 -0.9548 -0.3271
 3431SOL    HW210401   2.444   4.290   1.450  0.5940  0.1544 -0.4820
 3432SOL     OW10402   0.557   3.357   3.229 -0.1878  0.2445  0.6005
 3432SOL    HW110403   0.497   3.423   3.194  1.2134  2.2267  1.7149
 3432SOL    HW210404   0.545   3.363   3.324  0.0959 -1.0082  0.7257
 3433SOL     OW10405   0.732   4.157   3.356  0.4096  0.4545 -0.5290
 3433SOL    HW110406   0.752   4.180   3.265  1.6120 -1.4392 -0.7975
 3433SOL    HW210407   0.812   4.115   3.388 -1.4771 -3.1300 -0.0744
 3434SOL     OW10408   4.117   2.735   0.020  0.1727  0.2878 -0.2087
 3434SOL    HW110409   4.179   2.807   0.007 -0.0348  0.5950  0.4832
 3434SOL    HW210410   4.103   2.731   0.114  0.7415 -1.1514 -0.1577
 3435SOL     OW10411   3.758   4.329   1.751 -0.2134 -0.4360 -0.9450
 3435SOL    HW110412   3.678   4.276   1.757 -0.9358  0.7459  0.9518
 3435SOL    HW210413   3.761   4.376   1.834  1.5286  0.8933 -1.7057
 3436SOL     OW10414   5.442   1.701   0.021 -0.2477  0.1263  0.1781
 3436SOL    HW110415   5.480   1.615   0.038  0.3101  0.4944  0.8288
 3436SOL    HW210416   5.464   1.719  -0.070  0.0279 -0.2245  0.1711
 3437SOL     OW10417   4.386   4.540   1.068  1.0782 -0.1963  0.2340
 3437SOL    HW110418   4.442   4.496   1.133  0.8036  1.8750  1.9907
 3437SOL    HW210419   4.297   4.521   1.099  0.9551  1.2374  0.8132
 3438SOL     OW10420   0.699   3.523   0.197 -0.2421 -0.3005 -0.1401
 3438SOL    HW110421   0.657   3.550   0.278 -0.7822  1.3592 -0.9215
 3438SOL    HW210422   0.655   3.442   0.173 -1.3742  0.1602  0.2827
 3439SOL     OW10423   3.611   2.432   3.536 -0.0039 -0.0807 -0.2922
 3439SOL    HW110424   3.662   2.448   3.615  0.8149  0.2599 -0.8788
 3439SOL    HW210425   3.675   2.433   3.465 -0.8925  0.9477 -1.1149
 3440SOL     OW10426   5.340   1.124   3.193 -0.0379  0.3623 -0.2027
 3440SOL    HW110427   5.353   1.047   3.249  1.5917 -0.0899 -1.1231
 3440SOL    HW210428   5.312   1.193   3.252  1.4434 -0.1483  1.1766
 3441SOL     OW10429   2.380   4.870   2.171  0.0308 -0.2015 -0.0293
 3441SOL    HW110430   2.354   4.962   2.185  1.1896 -0.1664  2.4659
 3441SOL    HW210431   2.423   4.870   2.086  1.4932  1.9561  0.6255
 3442SOL     OW10432   4.507   2.250   1.912  0.0016 -0.4975  0.3941
 3442SOL    HW110433   4.581   2.309   1.924 -0.0723 -0.2524 -0.3421
 3442SOL    HW210434   4.543   2.175   1.866 -0.4023  0.0671 -0.8710
 3443SOL     OW10435   4.625   4.720   2.618  0.2698  0.2292 -0.2088
 3443SOL    HW110436   4.530   4.720   2.631 -0.1364  2.9620 -2.3324
 3443SOL    HW210437   4.643   4.634   2.580 -1.4509 -0.0658 -0.4613
 3444SOL     OW10438   2.150   2.361   3.055  0.0729  0.2354  0.0055
 3444SOL    HW110439   2.082   2.427   3.047  0.7676  0.7716 -2.2119
 3444SOL    HW210440   2.123   2.290   2.996  0.9389  0.0153 -0.1508
 3445SOL     OW10441   4.168   3.566   0.174 -0.2954  0.3245  0.0544
 3445SOL    HW110442   4.083   3.549   0.133  0.4073  0.2801 -1.4704
 3445SOL    HW210443   4.148   3.628   0.245 -1.5431  0.6304 -0.5224
 3446SOL     OW10444   1.727   1.608   0.831 -0.0343  0.6318  0.3317
 3446SOL    HW110445   1.727   1.703   0.815  0.5913  0.6729  0.5730
 3446SOL    HW210446   1.818   1.582   0.822 -0.1461  0.1159  0.6579
 3447SOL     OW10447   4.562   4.007   1.328 -0.6088 -0.5364  0.2630
 3447SOL    HW110448   4.518   3.939   1.278 -0.7517 -0.1971 -0.0725
 3447SOL    HW210449   4.506   4.084   1.321  0.6152  0.2878 -1.2332
 3448SOL     OW10450   4.662   0.289   3.194  0.0451 -0.1551  0.0906
 3448SOL    HW110451   4.721   0.317   3.264 -0.0699  0.3014  0.0089
 3448SOL    HW210452   4.678   0.195   3.185 -0.7601 -0.4533  1.5116
 3449SOL     OW10453   2.040   5.400   2.481 -0.5358  0.2811 -0.2730
 3449SOL    HW110454   1.977   5.351   2.534 -0.8741  0.4331 -0.5353
 3449SOL    HW210455   1.987   5.457   2.426 -0.2370 -0.4737 -1.3839
 3450SOL     OW10456   4.457   1.344   0.811  0.1258 -0.5304  0.2530
 3450SOL    HW110457   4.369   1.335   0.775  0.3290  0.4699 -0.5517
 3450SOL    HW210458   4.455   1.427   0.858  1.0800  0.3713 -1.2141
 3451SOL     OW10459   5.045   0.242   0.284  0.0205  0.1615 -0.2731
 3451SOL    HW110460   5.105   0.168   0.289 -0.0301  0.1829  1.0108
 3451SOL    HW210461   5.097   0.313   0.246  0.3541 -0.2543 -0.5962
 3452SOL     OW10462   0.302   2.843   0.107 -0.1080 -0.1290  0.1618
 3452SOL    HW110463   0.326   2.884   0.191 -2.4416 -0.7931  1.2380
 3452SOL    HW210464   0.207   2.858   0.100 -0.7324 -3.5754 -0.3432
 3453SOL     OW10465   1.747   0.085   3.356 -0.2500  0.3296  0.2765
 3453SOL    HW110466   1.722   0.162   3.305 -1.9733 -0.2900  0.1199
 3453SOL    HW210467   1.699   0.093   3.438 -0.0244 -0.3035  0.4793
 3454SOL     OW10468   4.537   2.162   3.112 -0.5879  0.5193  0.2975
 3454SOL    HW110469   4.560   2.156   3.020 -0.1135  0.0338  0.4406
 3454SOL    HW210470   4.552   2.253   3.135  0.0455  0.4750  0.0816
 3455SOL     OW10471   4.091   4.663   3.302  0.1250  0.2594  0.0410
 3455SOL    HW110472   4.039   4.740   3.325  0.1070 -0.0242  0.9916
 3455SOL    HW210473   4.054   4.592   3.355  2.0058  0.2344  1.3794
 3456SOL     OW10474   0.783   3.170   1.341  0.2959  0.6406  0.0491
 3456SOL    HW110475   0.878   3.157   1.331 -0.1849 -2.5193 -1.8945
 3456SOL    HW210476   0.755   3.099   1.399 -1.1458 -0.0030 -1.3604
 3457SOL     OW10477   5.178   2.026   1.689  0.1406 -0.1376  0.4699
 3457SOL    HW110478   5.227   2.108   1.693  0.2731 -0.2216  0.6185
 3457SOL    HW210479   5.157   2.006   1.781 -0.3839  0.0225  0.3896
 3458SOL     OW10480   4.941   2.873   1.379  0.4812 -0.0390 -0.0370
 3458SOL    HW110481   4.930   2.963   1.407  1.6555 -0.0626  0.5225
 3458SOL    HW210482   4.856   2.832   1.396  0.5322  0.4727  1.5256
 3459SOL     OW10483   5.251   1.559   3.669 -0.3686  0.2548  0.2626
 3459SOL    HW110484   5.238   1.473   3.709  0.9586  0.2451  0.7277
 3459SOL    HW210485   5.346   1.565   3.656 -0.0789  2.7085  2.7084
 3460SOL     OW10486   2.570   0.876   0.009  0.4170  0.6583  0.1497
 3460SOL    HW110487   2.506   0.889  -0.061  0.3155  1.1017  0.3204
 3460SOL    HW210488   2.623   0.803  -0.020  0.6585  1.1195 -0.5986
 3461SOL     OW10489   4.424   1.125   2.706 -0.0218 -0.5223 -0.8278
 3461SOL    HW110490   4.425   1.150   2.614  0.2682  3.4834  0.0545
 3461SOL    HW210491   4.516   1.125   2.732 -0.1466 -0.9259 -0.3774
 3462SOL     OW10492   1.743   2.837   1.876  0.0110  0.1769 -0.2276
 3462SOL    HW110493   1.838   2.825   1.875 -0.0283 -0.3642 -2.4546
 3462SOL    HW210494   1.712   2.795   1.796 -1.9911  1.2803 -0.1160
 3463SOL     OW10495   5.036   3.543   1.559  0.0755 -0.0329  0.1694
 3463SOL    HW110496   5.067   3.633   1.548 -2.3344  0.6196 -2.6811
 3463SOL    HW210497   5.079   3.494   1.489 -2.5382  0.2150 -1.7865
 3464SOL     OW10498   3.912   2.568   3.687  0.4159  0.3724 -0.0288
 3464SOL    HW110499   3.967   2.523   3.750 -0.0204 -1.0274 -0.5964
 3464SOL    HW210500   3.823   2.540   3.709  0.2676 -0.2169 -1.2957
 3465SOL     OW10501   2.849   2.355   2.762  0.0548 -0.2054 -0.4094
 3465SOL    HW110502   2.797   2.425   2.801  0.5501 -0.7967  1.4158
 3465SOL    HW210503   2.922   2.342   2.824 -0.0560 -2.3563 -0.6477
 3466SOL     OW10504   5.540   1.443   2.859 -0.3142 -0.4007  0.3470
 3466SOL    HW110505   5.560   1.415   2.948  0.6080  0.3534  0.3897
 3466SOL    HW210506   5.499   1.529   2.869  0.5018  0.0455  0.0296
 3467SOL     OW10507   4.785   4.460   1.094  0.2102  0.5401 -0.3141
 3467SOL    HW110508   4.694   4.438   1.111 -0.4610  0.7791 -3.2116
 3467SOL    HW210509   4.797   4.546   1.134 -0.8521  0.5709 -0.0385
 3468SOL     OW10510   4.158   2.231   1.615  0.0702  0.5533 -0.8092
 3468SOL    HW110511   4.149   2.146   1.657  1.2121  0.9002  0.2047
 3468SOL    HW210512   4.146   2.214   1.522 -0.4867 -0.5750 -0.5405
 3469SOL     OW10513   0.090   0.387   0.597 -0.6004 -0.4637 -0.2402
 3469SOL    HW110514   0.125   0.313   0.646  0.5224  0.0215 -0.2808
 3469SOL    HW210515   0.103   0.364   0.505  0.6190  0.1647 -0.2444
 3470SOL     OW10516   4.524   4.854   2.376  0.0041 -0.2548 -0.7604
 3470SOL    HW110517   4.589   4.905   2.327 -0.2625 -0.1012 -0.9596
 3470SOL    HW210518   4.541   4.876   2.468 -2.9816  3.9037 -0.9170
 3471SOL     OW10519   2.481   4.642   2.905 -0.6070  0.5837 -0.1447
 3471SOL    HW110520   2.519   4.624   2.819 -0.1655  0.7179  0.0190
 3471SOL    HW210521   2.424   4.567   2.923  1.5613 -0.9518  0.7428
 3472SOL     OW10522   4.890   2.906   0.406  0.3662  0.5414 -0.2143
 3472SOL    HW110523   4.814   2.849   0.414  1.8203 -1.4889  0.1013
 3472SOL    HW210524   4.856   2.987   0.369 -1.7720 -0.6214 -0.9561
 3473SOL     OW10525   3.969   3.787   3.371 -0.2454  0.1879 -0.1060
 3473SOL    HW110526   4.017   3.870   3.367 -0.4106  0.2574 -1.4676
 3473SOL    HW210527   3.885   3.806   3.327 -0.7472 -0.4081  0.5723
 3474SOL     OW10528   0.984   4.235   0.020  0.3000  0.0243 -0.3900
 3474SOL    HW110529   1.070   4.220  -0.020  1.1946  2.5764  0.3901
 3474SOL    HW210530   0.976   4.331   0.023 -0.7042 -0.0525  3.3896
 3475SOL     OW10531   5.026   4.283   3.580  0.0100 -0.4527  0.0104
 3475SOL    HW110532   5.061   4.314   3.664  0.0185 -0.3087 -0.0466
 3475SOL    HW210533   5.063   4.342   3.515  0.0074 -0.5684 -0.0966
 3476SOL     OW10534   3.877   0.525   3.346  0.2208 -0.3554 -0.1145
 3476SOL    HW110535   3.804   0.556   3.293  0.0920 -2.4281 -1.2529
 3476SOL    HW210536   3.943   0.497   3.283  1.0221 -0.7845  0.8699
 3477SOL     OW10537   5.380   3.573   2.185 -0.1989 -0.3331  0.0259
 3477SOL    HW110538   5.394   3.498   2.127  1.6692  1.3307 -1.8329
 3477SOL    HW210539   5.468   3.606   2.204 -0.9632  2.3721 -0.6297
 3478SOL     OW10540   2.294   3.917   3.406  0.1106 -0.2419 -0.2726
 3478SOL    HW110541   2.287   3.979   3.478 -3.2952 -0.6801 -0.0503
 3478SOL    HW210542   2.289   3.971   3.327  1.9074  0.0750 -0.2058
 3479SOL     OW10543   2.685   2.620   0.698  0.0444 -0.0573 -0.1838
 3479SOL    HW110544   2.769   2.577   0.683  0.7053  1.5668 -1.4390
 3479SOL    HW210545   2.656   2.647   0.612 -1.2309  0.3909  0.3685
 3480SOL     OW10546   0.303   3.426   1.230  0.6802  0.1790  0.4248
 3480SOL    HW110547   0.345   3.392   1.309 -0.5330 -0.1524  0.9399
 3480SOL    HW210548   0.376   3.462   1.178  1.5308  0.1080  1.5316
 3481SOL     OW10549   1.312   4.292   3.490  0.4272  0.0828 -0.0279
 3481SOL    HW110550   1.351   4.252   3.568 -0.9084 -1.8037 -0.2819
 3481SOL    HW210551   1.221   4.308   3.514 -0.0206 -0.5877 -1.2080
 3482SOL     OW10552   2.776   3.426   3.638  0.5854  0.0721 -0.2832
 3482SOL    HW110553   2.748   3.384   3.720 -0.7541 -0.4098 -0.9501
 3482SOL    HW210554   2.701   3.416   3.580  1.6568  0.0625 -1.7105
 3483SOL     OW10555   0.459   2.590   2.631  0.8766 -0.2010  0.0328
 3483SOL    HW110556   0.516   2.646   2.685  0.9697  1.3555 -1.6131
 3483SOL    HW210557   0.516   2.517   2.606  1.6491  0.4516 -0.1762
 3484SOL     OW10558   3.396   1.404   2.807 -0.1796  0.2729 -0.4439
 3484SOL    HW110559   3.470   1.359   2.848 -0.1381  0.8943  0.1812
 3484SOL    HW210560   3.424   1.495   2.802 -1.0565  0.5780  0.1360
 3485SOL     OW10561   4.752   4.901   0.603 -0.3569 -0.7037 -0.3231
 3485SOL    HW110562   4.818   4.870   0.664 -0.0848 -1.5204 -1.0137
 3485SOL    HW210563   4.737   4.992   0.628  2.0828 -0.0318 -1.0474
 3486SOL     OW10564   3.711   5.282   3.689  0.1398  0.7047  0.6163
 3486SOL    HW110565   3.720   5.360   3.743  1.0372  0.5367  0.7258
 3486SOL    HW210566   3.681   5.214   3.750  0.8323  0.5976  0.8471
 3487SOL     OW10567   5.461   4.591   3.605 -0.4135 -0.2250  0.6991
 3487SOL    HW110568   5.494   4.525   3.665 -0.5868 -0.8965  0.0708
 3487SOL    HW210569   5.427   4.660   3.661 -1.5203 -1.2993  1.3935
 3488SOL     OW10570   4.142   5.574   0.119 -0.2861 -0.0096 -0.9571
 3488SOL    HW110571   4.053   5.544   0.101 -0.1362 -0.5589 -0.8133
 3488SOL    HW210572   4.193   5.547   0.042 -0.5270  1.6155 -1.7169
 3489SOL     OW10573   5.261   5.319   0.562  0.5402 -0.2391  0.5130
 3489SOL    HW110574   5.168   5.336   0.578  0.3430 -0.6867 -0.1164
 3489SOL    HW210575   5.271   5.225   0.576  0.3515 -0.6687 -1.8820
 3490SOL     OW10576   3.353   5.547   1.685  0.0944  0.5445  0.1538
 3490SOL    HW110577   3.263   5.566   1.661 -0.6377 -1.3407  1.2085
 3490SOL    HW210578   3.363   5.586   1.772  0.3845  0.9631 -0.0642
 3491SOL     OW10579   3.959   3.791   3.719 -0.1817 -0.4870 -0.6002
 3491SOL    HW110580   4.023   3.858   3.697  0.0029 -0.4774 -0.0514
 3491SOL    HW210581   3.922   3.819   3.803  0.7532 -1.6535  0.2578
 3492SOL     OW10582   3.300   0.955   2.494 -0.2385  0.0746 -0.2377
 3492SOL    HW110583   3.269   0.945   2.405 -0.8697  1.4343 -0.2004
 3492SOL    HW210584   3.229   1.001   2.540  0.6297  0.6565  0.5834
 3493SOL     OW10585   4.931   2.580   3.116 -0.5291 -0.3565 -0.0622
 3493SOL    HW110586   5.005   2.549   3.167 -0.1330  0.6659  0.0127
 3493SOL    HW210587   4.938   2.675   3.119  0.6250 -0.1720 -3.5447
 3494SOL     OW10588   4.792   1.930   2.632 -0.9971 -0.2535 -0.6399
 3494SOL    HW110589   4.852   1.926   2.558 -2.4074  1.2870 -1.9505
 3494SOL    HW210590   4.747   2.014   2.622 -1.0223  0.1770  2.1563
 3495SOL     OW10591   3.557   0.652   2.396  0.1645 -0.2440 -0.3365
 3495SOL    HW110592   3.539   0.737   2.438  1.0927 -0.2139  0.0234
 3495SOL    HW210593   3.651   0.652   2.382 -0.1522 -0.0227 -2.9905
 3496SOL     OW10594   0.688   2.464   0.659 -0.5289 -0.6415 -0.3773
 3496SOL    HW110595   0.635   2.486   0.582 -2.1090  2.1354  1.3647
 3496SOL    HW210596   0.752   2.534   0.665 -0.2331 -0.9918  0.6783
 3497SOL     OW10597   0.288   1.936   0.200  0.3869  0.6576  0.0579
 3497SOL    HW110598   0.291   1.863   0.261  0.6078  1.0188  0.4844
 3497SOL    HW210599   0.202   1.930   0.159 -0.7892  1.8804  2.2166
 3498SOL     OW10600   5.523   4.007   0.002  0.2214 -0.1731 -0.1856
 3498SOL    HW110601   5.575   3.929   0.022 -0.4271 -0.3928  0.6585
 3498SOL    HW210602   5.498   3.996  -0.090  0.7132 -0.6126 -0.2707
 3499SOL     OW10603   2.855   5.045   3.740  0.1549  0.0906 -0.3207
 3499SOL    HW110604   2.846   5.124   3.688 -0.6869  0.4129  0.2950
 3499SOL    HW210605   2.784   4.988   3.711  0.8239 -0.4969 -0.8411
 3500SOL     OW10606   2.555   3.872   1.283 -0.6269 -0.1931 -0.0327
 3500SOL    HW110607   2.506   3.835   1.357 -1.2430 -0.2966 -0.4920
 3500SOL    HW210608   2.495   3.867   1.209 -0.4447  1.0240 -0.2785
 3501SOL     OW10609   0.034   0.741   1.287 -0.1463  0.0364  0.6958
 3501SOL    HW110610  -0.046   0.759   1.337 -2.2012 -0.3962 -2.1656
 3501SOL    HW210611   0.046   0.818   1.232  0.1061 -0.8072 -0.4688
 3502SOL     OW10612   2.282   4.181   0.030  0.2557 -0.1291 -0.3248
 3502SOL    HW110613   2.220   4.146   0.094  0.9344  0.8196  0.9275
 3502SOL    HW210614   2.245   4.266   0.006  0.1007 -0.4032 -1.0623
 3503SOL     OW10615   1.193   0.127   3.570 -0.1462 -0.1530  0.0215
 3503SOL    HW110616   1.117   0.181   3.552  0.2964  0.7471  0.7387
 3503SOL    HW210617   1.207   0.076   3.490 -1.4439 -0.2773 -0.1353
 3504SOL     OW10618   4.977   1.860   3.815 -0.4239  0.2339 -0.9798
 3504SOL    HW110619   5.040   1.895   3.752 -0.5715  1.0257 -0.7040
 3504SOL    HW210620   5.025   1.794   3.863  0.2888  1.0336 -0.5793
 3505SOL     OW10621   2.709   3.758   1.527  0.1521  0.2247  0.8467
 3505SOL    HW110622   2.616   3.736   1.532  0.6471 -1.8227  1.9387
 3505SOL    HW210623   2.715   3.847   1.561 -1.4450  0.5792  0.2710
 3506SOL     OW10624   0.234   2.013   2.159  0.0419 -0.6353  0.2422
 3506SOL    HW110625   0.329   2.012   2.154  0.1458  2.6455 -1.4536
 3506SOL    HW210626   0.205   1.968   2.080  0.1806 -1.0905  0.4466
 3507SOL     OW10627   1.474   3.584   2.959  0.4065 -0.3737  0.2596
 3507SOL    HW110628   1.401   3.526   2.984  1.3929 -2.1697 -0.8489
 3507SOL    HW210629   1.521   3.599   3.041  0.2818 -1.3894  0.5353
 3508SOL     OW10630   2.458   2.490   2.778  0.2172 -0.2163  0.3796
 3508SOL    HW110631   2.412   2.487   2.862  1.2917  3.7626  1.3280
 3508SOL    HW210632   2.551   2.487   2.801  0.5428 -0.8961 -0.8897
 3509SOL     OW10633   3.930   1.405   3.001 -0.2118 -0.1289  0.1199
 3509SOL    HW110634   3.921   1.413   2.906  2.4915  0.4248 -0.1631
 3509SOL    HW210635   3.976   1.322   3.014 -1.0056 -0.4600  1.0302
 3510SOL     OW10636   3.082   1.193   0.296 -0.4584 -0.4981  0.7808
 3510SOL    HW110637   2.999   1.226   0.328 -0.8641 -1.2667  0.5521
 3510SOL    HW210638   3.063   1.104   0.266  0.5671 -0.9010  1.2576
 3511SOL     OW10639   3.833   2.698   2.920 -0.0558 -0.0917  0.2961
 3511SOL    HW110640   3.749   2.677   2.880 -0.0935  0.0331  0.3101
 3511SOL    HW210641   3.876   2.756   2.857  0.2240 -0.5430  0.0639
 3512SOL     OW10642   5.557   4.673   3.349  0.4423  0.4524  0.1107
 3512SOL    HW110643   5.506   4.681   3.430 -1.4702 -0.6041 -0.9316
 3512SOL    HW210644   5.647   4.686   3.377 -0.0708 -0.6732  2.5752
 3513SOL     OW10645   1.518   1.940   1.140 -0.0584 -0.0311  0.0474
 3513SOL    HW110646   1.547   1.946   1.231  1.6780 -4.4815  0.0285
 3513SOL    HW210647   1.441   1.883   1.143 -1.9193  2.2699 -1.1006
 3514SOL     OW10648   4.849   3.478   1.893 -0.2825  0.0521 -0.1451
 3514SOL    HW110649   4.936   3.470   1.854 -0.8021 -0.4756 -1.2562
 3514SOL    HW210650   4.835   3.395   1.937 -0.4571 -0.1079 -0.4942
 3515SOL     OW10651   4.437   2.618   1.270 -0.0328 -0.0990 -0.8255
 3515SOL    HW110652   4.387   2.544   1.305 -1.0516  0.9571  0.0769
 3515SOL    HW210653   4.375   2.691   1.272  1.5511  1.2992  0.4345
 3516SOL     OW10654   4.205   0.370   0.263 -0.5058 -0.4161 -0.1519
 3516SOL    HW110655   4.204   0.341   0.172  1.4288  0.8752 -0.6346
 3516SOL    HW210656   4.289   0.341   0.298 -1.0821 -0.6200  1.1607
 3517SOL     OW10657   2.736   5.211   0.717  0.2108  0.0487  0.4218
 3517SOL    HW110658   2.643   5.193   0.729  0.5372 -2.8550 -0.4093
 3517SOL    HW210659   2.755   5.182   0.628  2.1719 -1.0314  1.0983
 3518SOL     OW10660   5.417   5.141   2.440  0.5914 -0.8066 -0.1105
 3518SOL    HW110661   5.341   5.189   2.406 -0.0691 -0.8111  1.2833
 3518SOL    HW210662   5.439   5.079   2.370 -1.3125 -1.4835 -0.1911
 3519SOL     OW10663   3.420   3.802   1.935 -0.5991 -0.1868 -0.5625
 3519SOL    HW110664   3.510   3.823   1.910 -0.7307 -0.5728 -1.4065
 3519SOL    HW210665   3.410   3.838   2.022 -0.3227  1.8594 -1.3305
 3520SOL     OW10666   2.288   0.208   2.504 -0.2093 -0.3308  0.2236
 3520SOL    HW110667   2.313   0.200   2.412 -0.6317  0.5992  0.0090
 3520SOL    HW210668   2.335   0.285   2.535 -0.8537 -0.0398  0.4992
 3521SOL     OW10669   4.100   3.874   0.934 -0.5485 -0.1252 -0.1246
 3521SOL    HW110670   4.114   3.894   1.027  0.9663  1.0982 -0.5682
 3521SOL    HW210671   4.104   3.779   0.929  0.4372 -0.1634  0.9282
 3522SOL     OW10672   3.555   2.909   3.491  0.3353 -0.1408 -0.2065
 3522SOL    HW110673   3.567   2.867   3.576 -2.3304 -0.0879  0.2741
 3522SOL    HW210674   3.498   2.850   3.442  1.5952 -0.0305 -1.8850
 3523SOL     OW10675   1.581   0.703   3.483  0.8235  0.5256 -0.3192
 3523SOL    HW110676   1.626   0.782   3.451  0.5094  1.3231  1.1204
 3523SOL    HW210677   1.589   0.707   3.578 -0.6853 -0.2678 -0.1161
 3524SOL     OW10678   3.182   4.258   0.294 -0.6793 -0.3942  0.3236
 3524SOL    HW110679   3.161   4.323   0.228  0.6642  0.1595  0.4003
 3524SOL    HW210680   3.103   4.205   0.303 -1.4504  0.5969 -0.4696
 3525SOL     OW10681   1.202   0.321   3.824  0.2712 -0.0763 -0.3295
 3525SOL    HW110682   1.130   0.308   3.763 -2.2263  0.8977  2.1499
 3525SOL    HW210683   1.250   0.397   3.790 -1.0975  0.5003 -1.0332
 3526SOL     OW10684   4.442   3.031   2.053  0.2699 -0.1416 -0.0691
 3526SOL    HW110685   4.380   2.995   2.117 -0.0694  0.4539 -0.0533
 3526SOL    HW210686   4.490   2.955   2.021  0.6558 -0.4188  1.1078
 3527SOL     OW10687   3.062   4.613   0.812  0.5024 -0.5483 -0.2795
 3527SOL    HW110688   2.995   4.605   0.879  1.2907  3.0547  1.1760
 3527SOL    HW210689   3.019   4.658   0.739  1.3070  2.2137  0.8503
 3528SOL     OW10690   2.126   2.966   2.508 -0.1037 -0.2522 -0.2804
 3528SOL    HW110691   2.068   2.971   2.584 -1.6984  2.8200 -1.5521
 3528SOL    HW210692   2.177   3.047   2.512  2.3049 -1.6272 -0.7047
 3529SOL     OW10693   2.257   2.700   3.754 -0.5563  0.1195 -0.0548
 3529SOL    HW110694   2.227   2.614   3.725  0.4663  0.5339 -2.5936
 3529SOL    HW210695   2.178   2.755   3.751 -0.6440 -0.0361 -1.5033
 3530SOL     OW10696   3.434   1.983   3.892 -0.2504 -0.1026 -0.0652
 3530SOL    HW110697   3.341   1.959   3.897 -0.1324 -0.5630 -0.0864
 3530SOL    HW210698   3.473   1.945   3.971 -0.0822  0.1085 -0.0458
 3531SOL     OW10699   2.092   2.116   3.551  0.1321 -0.3809 -0.1063
 3531SOL    HW110700   2.007   2.159   3.566  1.3771  2.2589  0.0431
 3531SOL    HW210701   2.094   2.099   3.457 -0.2213  0.4212 -0.2717
 3532SOL     OW10702   1.498   4.631   1.638  1.1060 -0.1150  0.2268
 3532SOL    HW110703   1.444   4.552   1.633 -0.6234  0.9546  0.7715
 3532SOL    HW210704   1.556   4.626   1.562 -0.8186 -0.6503 -1.3002
 3533SOL     OW10705   3.342   0.579   3.751 -0.1226 -0.5040 -0.0075
 3533SOL    HW110706   3.324   0.603   3.660  1.0408  0.6823  0.0274
 3533SOL    HW210707   3.280   0.631   3.802  0.3282  0.1121 -0.0713
 3534SOL     OW10708   0.266   2.785   1.027  0.0132  0.0885  0.2078
 3534SOL    HW110709   0.176   2.758   1.046  0.1406  0.7263  1.9319
 3534SOL    HW210710   0.260   2.880   1.016  0.3595  0.0338 -0.4769
 3535SOL     OW10711   2.102   3.419   1.706 -0.4002  0.3703 -0.5983
 3535SOL    HW110712   2.008   3.429   1.695 -0.5239  1.9102  1.1897
 3535SOL    HW210713   2.111   3.356   1.778 -0.1062  0.5409 -0.4806
 3536SOL     OW10714   0.787   4.217   3.817  0.2610  0.1769 -0.0877
 3536SOL    HW110715   0.712   4.212   3.757 -0.5185  0.1729  0.8540
 3536SOL    HW210716   0.777   4.301   3.861 -0.2301 -0.5713  1.3199
 3537SOL     OW10717   4.043   4.744   2.214 -0.3433  0.2987 -0.7055
 3537SOL    HW110718   4.086   4.829   2.217 -0.7287  0.4758 -0.2119
 3537SOL    HW210719   4.085   4.698   2.141  0.0100  0.8312 -0.8342
 3538SOL     OW10720   0.644   3.668   1.817  0.2624 -0.1693  0.1618
 3538SOL    HW110721   0.637   3.645   1.724 -0.2606  0.8660 -0.0767
 3538SOL    HW210722   0.709   3.739   1.819  1.0527 -0.9001  0.7275
 3539SOL     OW10723   1.265   0.747   0.802 -0.1161  0.6169 -0.2825
 3539SOL    HW110724   1.266   0.842   0.793  1.2172  0.6112 -0.3695
 3539SOL    HW210725   1.257   0.714   0.712 -0.1849  0.6451 -0.2867
 3540SOL     OW10726   2.892   3.161   0.736  0.3925 -0.2246  0.2474
 3540SOL    HW110727   2.953   3.133   0.804  0.0564 -0.0921  0.6042
 3540SOL    HW210728   2.915   3.252   0.718 -2.6677  1.5462  3.7981
 3541SOL     OW10729   5.077   4.784   3.535 -0.2080  0.3471 -0.5888
 3541SOL    HW110730   5.069   4.697   3.574  3.3987  0.4267  0.7159
 3541SOL    HW210731   5.080   4.844   3.610 -2.0603  1.5807 -1.4421
 3542SOL     OW10732   0.421   2.327   1.861 -0.1147 -0.1560  0.6749
 3542SOL    HW110733   0.347   2.384   1.840 -0.5127 -0.2003  1.8537
 3542SOL    HW210734   0.436   2.342   1.955  0.7827 -0.8247  0.6435
 3543SOL     OW10735   1.051   4.952   0.148  0.1607 -0.2580  0.0054
 3543SOL    HW110736   1.128   4.914   0.105  1.1944  2.2212 -0.4960
 3543SOL    HW210737   0.983   4.952   0.081  0.2035 -0.9538 -0.0501
 3544SOL     OW10738   1.424   0.617   3.099  0.3263 -0.2194  0.1890
 3544SOL    HW110739   1.410   0.596   3.007 -1.0282  0.8048  0.1131
 3544SOL    HW210740   1.515   0.646   3.104  0.4432 -0.3935 -0.8093
 3545SOL     OW10741   1.628   2.687   3.513 -0.1417  0.3013  0.2145
 3545SOL    HW110742   1.647   2.607   3.465 -1.0527 -0.2446  0.7475
 3545SOL    HW210743   1.563   2.662   3.578 -1.5426  1.7622 -0.5510
 3546SOL     OW10744   1.895   2.159   3.015  0.2505 -0.1436  0.0533
 3546SOL    HW110745   1.937   2.134   2.933 -0.4410  1.0923 -0.7160
 3546SOL    HW210746   1.804   2.132   3.004  0.4054 -1.0684  0.9247
 3547SOL     OW10747   2.411   4.674   3.674 -0.5369  0.2417 -0.0899
 3547SOL    HW110748   2.431   4.711   3.761  1.5494  0.0018 -0.4124
 3547SOL    HW210749   2.411   4.750   3.616 -0.3382  0.2162 -0.1235
 3548SOL     OW10750   4.352   4.801   2.646  0.4619  0.7229  0.3297
 3548SOL    HW110751   4.339   4.707   2.643 -0.5301  0.8677 -0.8389
 3548SOL    HW210752   4.269   4.836   2.678  0.6869  1.2287  0.3836
 3549SOL     OW10753   0.591   0.009   3.551 -0.0823 -0.3970 -0.2743
 3549SOL    HW110754   0.605  -0.012   3.458 -1.1627  1.7140 -0.9931
 3549SOL    HW210755   0.496   0.007   3.562  0.0079 -0.1335  0.6584
 3550SOL     OW10756   3.580   0.818   0.911  0.4323 -0.8500  0.0683
 3550SOL    HW110757   3.571   0.749   0.845  1.4392 -0.0843 -0.9046
 3550SOL    HW210758   3.671   0.812   0.940  0.2434 -0.5928  0.7436
 3551SOL     OW10759   5.553   4.851   2.849  0.3285 -0.9555  0.4776
 3551SOL    HW110760   5.460   4.841   2.830  0.0739  1.7171 -0.1449
 3551SOL    HW210761   5.566   4.804   2.931 -2.1961  0.7849  2.0022
 3552SOL     OW10762   3.665   1.685   0.152  0.2953 -0.1650 -0.3895
 3552SOL    HW110763   3.641   1.634   0.229 -1.4330 -1.6890 -1.8479
 3552SOL    HW210764   3.617   1.767   0.161  0.6653 -0.0401  0.4855
 3553SOL     OW10765   1.113   2.743   3.668 -0.2669 -0.2766 -0.1998
 3553SOL    HW110766   1.019   2.733   3.683 -0.0389 -3.9580 -0.4433
 3553SOL    HW210767   1.142   2.803   3.737 -2.7444  0.9041 -0.1076
 3554SOL     OW10768   4.588   2.073   1.657  0.5074 -0.2298  0.3573
 3554SOL    HW110769   4.619   2.039   1.573 -3.3966 -0.3189 -1.2850
 3554SOL    HW210770   4.561   2.163   1.637 -0.3406 -0.2002  1.5425
 3555SOL     OW10771   2.632   3.669   1.886 -0.3649  0.0318 -0.4211
 3555SOL    HW110772   2.665   3.619   1.961  1.6422  0.3252 -1.0376
 3555SOL    HW210773   2.667   3.757   1.900 -1.4236  0.5255 -0.8395
 3556SOL     OW10774   5.192   2.085   3.060  0.3237 -0.3448  0.1275
 3556SOL    HW110775   5.109   2.126   3.036 -0.1050 -0.1532  1.8601
 3556SOL    HW210776   5.180   1.993   3.036  0.3766  0.0372 -1.4746
 3557SOL     OW10777   5.525   1.444   2.020  0.3375  0.1760  0.0442
 3557SOL    HW110778   5.507   1.386   1.947  1.0597  0.4865 -0.3881
 3557SOL    HW210779   5.612   1.480   2.002  0.5961  0.1405  1.1245
 3558SOL     OW10780   4.688   1.303   3.347  0.2047  0.4489 -0.0942
 3558SOL    HW110781   4.611   1.339   3.303  0.5625 -0.6594 -1.7469
 3558SOL    HW210782   4.762   1.354   3.312  0.3354  0.6968  0.5421
 3559SOL     OW10783   5.147   0.008   0.850 -0.1673  0.2438  0.3582
 3559SOL    HW110784   5.172  -0.031   0.766  0.8407 -1.4097  1.3743
 3559SOL    HW210785   5.221   0.064   0.873 -0.3121  0.4686  0.2695
 3560SOL     OW10786   1.941   4.049   3.782  0.1135  0.0635  0.0129
 3560SOL    HW110787   1.926   4.102   3.859 -4.2148 -1.6612  0.6558
 3560SOL    HW210788   1.905   4.100   3.709 -0.4929 -0.3742 -0.0008
 3561SOL     OW10789   3.211   2.076   1.303  0.3530  0.5554 -0.3930
 3561SOL    HW110790   3.250   2.131   1.235  0.9612  0.5341 -0.0722
 3561SOL    HW210791   3.271   2.002   1.310 -0.4586 -0.1550 -0.8187
 3562SOL     OW10792   2.200   5.213   1.266  0.3284  0.0797  0.4644
 3562SOL    HW110793   2.164   5.210   1.177 -1.1615 -1.0408  1.0751
 3562SOL    HW210794   2.157   5.289   1.305 -0.4315 -0.5080  0.7908
 3563SOL     OW10795   0.417   0.876   3.305  0.5046  0.4255  0.1431
 3563SOL    HW110796   0.493   0.886   3.363 -1.1974 -1.4820  2.9618
 3563SOL    HW210797   0.422   0.785   3.276 -0.7195  0.2609  0.4258
 3564SOL     OW10798   5.465   3.035   2.287 -0.9732 -0.0065  0.0512
 3564SOL    HW110799   5.531   3.082   2.235 -0.5398  1.3289  1.7242
 3564SOL    HW210800   5.397   3.101   2.303 -0.7913 -0.1918  1.6987
 3565SOL     OW10801   3.486   0.165   2.187 -0.4627 -0.0746 -0.4031
 3565SOL    HW110802   3.480   0.257   2.163 -0.9201 -0.0693 -0.2729
 3565SOL    HW210803   3.558   0.161   2.251 -1.1900  0.3670  0.4544
 3566SOL     OW10804   2.299   2.333   3.369 -0.5313  0.4874  0.0844
 3566SOL    HW110805   2.229   2.291   3.320  0.0016 -0.1143 -0.1776
 3566SOL    HW210806   2.305   2.421   3.332  0.7401 -0.3610 -1.8788
 3567SOL     OW10807   1.226   4.704   0.613  0.7653  0.2020 -0.2607
 3567SOL    HW110808   1.175   4.684   0.692  1.3805  1.1705  0.4139
 3567SOL    HW210809   1.196   4.792   0.587 -0.0474 -0.4533 -1.6339
 3568SOL     OW10810   5.073   2.834   1.773 -0.1127  0.2556  0.1370
 3568SOL    HW110811   5.063   2.773   1.846  0.6760  0.7296  0.6553
 3568SOL    HW210812   5.012   2.905   1.791 -0.9179 -0.2914 -0.3861
 3569SOL     OW10813   2.192   1.703   0.773  0.0321 -0.4064 -0.1253
 3569SOL    HW110814   2.185   1.640   0.702 -0.7770  1.3256 -1.6830
 3569SOL    HW210815   2.236   1.779   0.733 -0.2424  0.5273  1.2775
 3570SOL     OW10816   0.794   5.497   3.123 -0.0423 -0.5622 -0.3742
 3570SOL    HW110817   0.729   5.465   3.187 -0.0755  0.0335 -0.1018
 3570SOL    HW210818   0.864   5.533   3.177 -0.4526  0.7196 -0.6572
 3571SOL     OW10819   1.135   0.937   3.805 -0.8433 -0.3497 -0.5774
 3571SOL    HW110820   1.154   0.926   3.712  1.8268 -0.7701 -0.0805
 3571SOL    HW210821   1.055   0.887   3.820 -1.0191 -0.7154 -2.5276
 3572SOL     OW10822   3.756   4.913   0.864 -0.0103  0.4972  0.2709
 3572SOL    HW110823   3.685   4.962   0.823 -0.7889  0.1700  1.1863
 3572SOL    HW210824   3.794   4.863   0.793 -1.3162 -0.0492 -0.0758
 3573SOL     OW10825   5.494   5.336   3.028 -0.0873 -0.1580  0.2755
 3573SOL    HW110826   5.460   5.314   2.941 -0.6967 -0.3692  0.5591
 3573SOL    HW210827   5.431   5.400   3.063  0.8889  0.9694  0.0282
 3574SOL     OW10828   1.252   4.254   2.488 -0.4692  0.3390  0.4305
 3574SOL    HW110829   1.306   4.188   2.531  0.0634  1.1103  0.9563
 3574SOL    HW210830   1.266   4.238   2.394  0.2322  0.1653  0.5578
 3575SOL     OW10831   2.144   1.964   0.176 -0.2654 -0.1384 -0.2311
 3575SOL    HW110832   2.188   1.904   0.117 -1.0807  0.3250 -1.3424
 3575SOL    HW210833   2.054   1.932   0.180 -0.4171  0.3093  0.1115
 3576SOL     OW10834   5.415   1.465   2.276  0.0901 -0.0721  0.8199
 3576SOL    HW110835   5.327   1.498   2.292 -0.8462 -2.0621  0.1114
 3576SOL    HW210836   5.431   1.485   2.184 -0.1091 -0.7664  0.6335
 3577SOL     OW10837   1.505   5.069   3.505  0.0132  0.3320 -0.4524
 3577SOL    HW110838   1.516   5.164   3.507 -0.3557  0.3688  0.1488
 3577SOL    HW210839   1.544   5.039   3.587 -1.3665  0.1378  0.1626
 3578SOL     OW10840   4.584   1.070   0.797 -0.4953 -0.4398  0.3299
 3578SOL    HW110841   4.516   1.073   0.731  0.3701 -0.1161 -0.5716
 3578SOL    HW210842   4.605   1.162   0.814  2.2744 -0.4758 -2.1645
 3579SOL     OW10843   3.144   1.713   2.023  0.2704  0.3132  0.2405
 3579SOL    HW110844   3.095   1.636   2.050 -0.4698  0.4068 -0.7736
 3579SOL    HW210845   3.222   1.678   1.980 -0.0343  0.1164 -0.1641
 3580SOL     OW10846   1.639   2.365   3.628  0.1363 -0.1377 -0.3082
 3580SOL    HW110847   1.581   2.299   3.666 -1.7232  0.7446 -1.5058
 3580SOL    HW210848   1.667   2.418   3.702  0.3096 -1.2395  0.4360
 3581SOL     OW10849   3.706   4.494   2.262 -0.1792 -0.3276  0.1589
 3581SOL    HW110850   3.763   4.430   2.305  1.3569  0.1109 -1.0993
 3581SOL    HW210851   3.736   4.579   2.295  1.8945  0.1269 -2.5121
 3582SOL     OW10852   4.247   0.459   0.846 -0.1516  0.3432 -0.2314
 3582SOL    HW110853   4.277   0.445   0.936 -0.9263  1.0692  0.1496
 3582SOL    HW210854   4.195   0.381   0.826  2.0292 -1.0025 -0.9506
 3583SOL     OW10855   1.065   2.829   3.379 -0.2843  0.2690  0.2811
 3583SOL    HW110856   0.978   2.868   3.377 -0.0037  1.0071  1.3137
 3583SOL    HW210857   1.073   2.793   3.468  0.0486 -0.7767 -0.1575
 3584SOL     OW10858   0.786   4.831   3.358  0.1637  0.1817  0.1075
 3584SOL    HW110859   0.756   4.749   3.318  0.3725  1.0201 -1.8334
 3584SOL    HW210860   0.852   4.802   3.422 -2.2178 -1.4041  2.0372
 3585SOL     OW10861   3.525   0.616   1.169 -0.3484 -0.1929  0.2363
 3585SOL    HW110862   3.590   0.684   1.149 -1.3768  1.2277  1.5143
 3585SOL    HW210863   3.554   0.579   1.252  0.2454 -1.4202 -0.4900
 3586SOL     OW10864   1.577   4.030   0.782 -0.0226  0.2749  0.0275
 3586SOL    HW110865   1.592   4.032   0.687 -1.9628 -1.2871 -0.3909
 3586SOL    HW210866   1.494   4.076   0.794 -0.9130 -1.3885  0.6394
 3587SOL     OW10867   4.115   4.734   2.879 -0.5135 -0.2551  0.0050
 3587SOL    HW110868   4.104   4.821   2.839 -1.3733  0.1127  1.0028
 3587SOL    HW210869   4.029   4.714   2.915  0.0305 -0.9538  0.9264
 3588SOL     OW10870   2.471   5.064   2.742 -0.0767  0.3900  0.2408
 3588SOL    HW110871   2.378   5.041   2.739 -0.2744  1.1615  0.0677
 3588SOL    HW210872   2.476   5.147   2.694  0.8754 -0.1742 -0.6545
 3589SOL     OW10873   2.915   0.078   2.953 -0.1780  0.4190 -0.4231
 3589SOL    HW110874   2.849   0.106   2.890 -1.8812 -2.0612  0.0933
 3589SOL    HW210875   2.869   0.076   3.037  1.4809  1.6567  0.5934
 3590SOL     OW10876   5.256   1.531   3.131  0.1163 -0.1963 -0.0403
 3590SOL    HW110877   5.176   1.496   3.090  0.3836 -0.4122 -0.3807
 3590SOL    HW210878   5.318   1.540   3.058 -0.4301  2.4565 -0.2789
 3591SOL     OW10879   5.027   1.180   0.574  0.4173 -0.3703 -0.4675
 3591SOL    HW110880   4.995   1.108   0.519  1.7797 -0.4736 -1.1857
 3591SOL    HW210881   5.122   1.172   0.570  0.5827  1.0418  0.0466
 3592SOL     OW10882   2.840   4.344   3.635 -0.3241  0.1655 -0.3398
 3592SOL    HW110883   2.759   4.390   3.617 -0.3616  0.0711 -0.4161
 3592SOL    HW210884   2.886   4.342   3.551  0.6665  1.9493  0.1027
 3593SOL     OW10885   1.584   1.645   2.365 -0.2036  0.3745 -0.1319
 3593SOL    HW110886   1.619   1.656   2.454  2.8794  1.9298 -1.4196
 3593SOL    HW210887   1.509   1.703   2.362 -0.5547  0.0770  1.5107
 3594SOL     OW10888   5.097   2.057   2.172 -0.0692 -0.1192  0.7078
 3594SOL    HW110889   5.180   2.034   2.129 -0.7667  0.1900 -0.8794
 3594SOL    HW210890   5.047   1.976   2.172  0.1017 -0.2314  1.3914
 3595SOL     OW10891   5.504   3.023   1.970 -0.0218 -0.4481 -0.5671
 3595SOL    HW110892   5.456   2.964   1.911 -0.0878  0.6314 -1.6359
 3595SOL    HW210893   5.541   3.089   1.912  1.3220 -0.2746  0.4397
 3596SOL     OW10894   1.813   5.017   1.226  0.4974  0.1291 -0.2766
 3596SOL    HW110895   1.794   5.027   1.132 -0.7424  0.9503  0.0369
 3596SOL    HW210896   1.765   4.939   1.252 -1.2213  1.2823  0.1668
 3597SOL     OW10897   5.239   2.049   0.985 -0.7425  0.0829 -0.4212
 3597SOL    HW110898   5.333   2.065   0.984 -0.5604 -0.7559  1.0742
 3597SOL    HW210899   5.221   2.004   0.903  0.3594 -0.7739 -0.2041
 3598SOL     OW10900   4.374   4.928   1.917 -0.5843 -0.3762  0.1962
 3598SOL    HW110901   4.363   4.930   1.822 -0.1688 -1.2523  0.1162
 3598SOL    HW210902   4.469   4.930   1.930 -0.6424 -0.1067  0.6056
 3599SOL     OW10903   3.473   5.263   2.310 -0.1372  0.6026 -0.1645
 3599SOL    HW110904   3.449   5.170   2.320 -1.1285  0.7600 -0.8436
 3599SOL    HW210905   3.439   5.305   2.389 -2.4750  0.8606 -1.2168
 3600SOL     OW10906   0.209   2.130   1.155  0.7896  0.5517  0.9404
 3600SOL    HW110907   0.221   2.068   1.082  0.2203  0.0158  1.2920
 3600SOL    HW210908   0.256   2.209   1.127  1.6437 -0.0777  0.5403
 3601SOL     OW10909   4.431   2.316   1.643  0.1220  0.5832 -0.3404
 3601SOL    HW110910   4.337   2.304   1.630  0.1341  1.3951 -1.2419
 3601SOL    HW210911   4.440   2.336   1.737 -0.6504  0.9677 -0.3428
 3602SOL     OW10912   0.579   4.446   0.472 -0.4545  0.5265  0.0936
 3602SOL    HW110913   0.642   4.462   0.542 -0.6333  0.1418  0.3426
 3602SOL    HW210914   0.507   4.507   0.491 -0.4146  0.5633  0.1272
 3603SOL     OW10915   5.561   2.208   0.576 -0.2766 -0.0098 -0.0446
 3603SOL    HW110916   5.567   2.278   0.641 -0.4086 -0.1056  0.0721
 3603SOL    HW210917   5.479   2.163   0.597 -0.9787  0.7486 -1.0810
 3604SOL     OW10918   0.999   4.151   2.425  1.3370 -0.0456  0.0287
 3604SOL    HW110919   1.011   4.102   2.507 -2.1228 -0.4338  0.4517
 3604SOL    HW210920   1.069   4.216   2.426  2.3889 -1.0730  2.4939
 3605SOL     OW10921   4.806   2.788   2.164 -0.0563 -0.1995 -0.5644
 3605SOL    HW110922   4.757   2.862   2.199  0.4345 -0.2506  0.2503
 3605SOL    HW210923   4.887   2.827   2.131 -0.2828 -0.2252 -1.1601
 3606SOL     OW10924   5.512   0.765   0.175  0.0371 -0.1694  0.1171
 3606SOL    HW110925   5.436   0.801   0.130  0.2319  0.8254  0.5631
 3606SOL    HW210926   5.579   0.834   0.168  0.6492 -0.7273  0.3849
 3607SOL     OW10927   0.953   1.246   1.998  0.3204  0.3822 -0.1793
 3607SOL    HW110928   0.957   1.154   2.025 -1.2648  0.2102 -0.4205
 3607SOL    HW210929   1.044   1.274   1.996  0.8005 -1.0038  0.5120
 3608SOL     OW10930   1.221   4.894   3.351 -0.8503  0.9873 -0.3888
 3608SOL    HW110931   1.156   4.959   3.325 -3.3683 -1.0803  0.3179
 3608SOL    HW210932   1.179   4.809   3.334  0.9376 -0.4712  1.8196
 3609SOL     OW10933   0.330   3.958   2.944 -0.1954 -0.3996 -0.5933
 3609SOL    HW110934   0.383   3.888   2.906  1.8681  1.5093 -1.4917
 3609SOL    HW210935   0.271   3.986   2.874  0.0346 -0.2606 -0.7323
 3610SOL     OW10936   1.980   1.526   0.801 -0.2150 -0.3049  0.1499
 3610SOL    HW110937   2.048   1.594   0.803 -1.1668  0.6798 -0.2229
 3610SOL    HW210938   2.017   1.458   0.744  1.1374 -0.5511  1.2626
 3611SOL     OW10939   4.317   3.792   1.971  0.8349  0.1963  0.5453
 3611SOL    HW110940   4.403   3.758   1.997  0.7628  0.4434  1.1350
 3611SOL    HW210941   4.299   3.751   1.887  3.3040  3.1442 -1.6215
 3612SOL     OW10942   3.977   5.133   3.859  0.2718 -0.2664 -0.3452
 3612SOL    HW110943   4.049   5.098   3.912 -1.3180  0.3727  2.4533
 3612SOL    HW210944   3.927   5.187   3.920 -2.0035  0.1759 -2.4465
 3613SOL     OW10945   1.965   0.530   2.989  0.2494 -0.1030  0.5410
 3613SOL    HW110946   2.007   0.535   2.904  0.3814  1.9161  0.6606
 3613SOL    HW210947   1.948   0.437   3.003 -0.2980 -0.4376 -1.9312
 3614SOL     OW10948   3.734   3.520   0.902  0.2263 -0.6620  0.2555
 3614SOL    HW110949   3.746   3.553   0.813  0.9674  1.5582  1.0986
 3614SOL    HW210950   3.672   3.581   0.942  0.7959 -0.9088  1.5770
 3615SOL     OW10951   0.911   1.644   2.724 -0.1322  0.1993  0.5854
 3615SOL    HW110952   0.864   1.597   2.655  2.0095 -0.2203 -0.6698
 3615SOL    HW210953   0.956   1.715   2.678  0.0170  0.9248  1.8254
 3616SOL     OW10954   0.236   1.987   3.710 -0.1828  0.6087 -0.1443
 3616SOL    HW110955   0.284   2.043   3.772  0.1776  0.1454 -0.0007
 3616SOL    HW210956   0.293   1.984   3.633  0.4224 -0.6130  0.3322
 3617SOL     OW10957   0.343   5.033   2.687  0.1667  0.2245 -0.0187
 3617SOL    HW110958   0.253   5.054   2.660  1.4843  4.0279 -2.1746
 3617SOL    HW210959   0.380   4.987   2.613  0.2494 -0.7258  0.5967
 3618SOL     OW10960   3.545   1.160   0.310 -0.4538  0.1320 -0.1292
 3618SOL    HW110961   3.474   1.203   0.261  0.1179  1.1787 -0.0665
 3618SOL    HW210962   3.571   1.086   0.254 -1.2763  0.0156 -0.3703
 3619SOL     OW10963   1.419   2.868   3.562 -0.2040 -0.8092  0.2151
 3619SOL    HW110964   1.377   2.794   3.519 -1.5401 -1.0506  1.8237
 3619SOL    HW210965   1.512   2.847   3.560 -0.3448 -1.3845 -1.3963
 3620SOL     OW10966   4.603   2.061   3.695 -0.1790  0.2396 -0.2305
 3620SOL    HW110967   4.570   2.146   3.665 -0.0355  0.1922 -0.5250
 3620SOL    HW210968   4.693   2.078   3.722 -0.3709  0.3259  0.3833
 3621SOL     OW10969   2.248   1.943   3.199 -0.0066  0.5019  0.7049
 3621SOL    HW110970   2.224   1.945   3.106 -0.0317  0.4869  0.7110
 3621SOL    HW210971   2.340   1.918   3.199  0.1508  1.0762  0.6584
 3622SOL     OW10972   2.737   4.542   3.377 -0.3273  0.7681 -0.2194
 3622SOL    HW110973   2.745   4.636   3.391 -0.9931  0.7179  0.5794
 3622SOL    HW210974   2.696   4.533   3.292  4.2495  1.0968 -2.7952
 3623SOL     OW10975   4.715   5.404   3.341  0.2341 -0.0014  0.2869
 3623SOL    HW110976   4.640   5.403   3.400 -0.7989 -1.5648 -0.9725
 3623SOL    HW210977   4.727   5.313   3.315  1.4043  0.4651 -0.9766
 3624SOL     OW10978   1.944   1.356   3.629  0.1916 -0.1938  0.0156
 3624SOL    HW110979   1.908   1.431   3.582 -1.0200 -0.8250 -0.1215
 3624SOL    HW210980   1.881   1.340   3.699  0.9921 -0.4385  0.6971
 3625SOL     OW10981   4.508   4.113   3.196 -0.1673 -0.1661  0.1579
 3625SOL    HW110982   4.470   4.051   3.133 -1.4419  1.0919 -0.3667
 3625SOL    HW210983   4.518   4.063   3.276  0.8759 -1.6386 -0.8365
 3626SOL     OW10984   4.884   3.186   2.501  0.0367  0.0905 -0.1761
 3626SOL    HW110985   4.868   3.180   2.595 -0.0117 -1.8441 -0.2679
 3626SOL    HW210986   4.799   3.213   2.464 -0.6851 -1.6073  0.1422
 3627SOL     OW10987   2.595   0.788   2.012 -0.6215  0.3595  0.6962
 3627SOL    HW110988   2.673   0.743   1.980  0.0667  2.0488 -0.1432
 3627SOL    HW210989   2.566   0.841   1.937 -2.2697  0.1847  1.1611
 3628SOL     OW10990   2.676   5.210   2.514  0.2799  0.6546 -0.4116
 3628SOL    HW110991   2.597   5.219   2.567  0.9169 -1.9023  1.1422
 3628SOL    HW210992   2.731   5.284   2.539 -0.8204  1.3744 -0.0734
 3629SOL     OW10993   5.543   1.449   1.279  0.0126  0.3671 -0.1896
 3629SOL    HW110994   5.536   1.357   1.306  0.4079  0.2161 -0.5928
 3629SOL    HW210995   5.469   1.462   1.220  0.9402 -0.2011 -1.5400
 3630SOL     OW10996   1.285   2.849   2.761 -0.3051 -0.2057  0.5660
 3630SOL    HW110997   1.236   2.891   2.833 -1.6150  1.6105 -1.2733
 3630SOL    HW210998   1.374   2.883   2.770 -0.5408  0.2968  1.1230
 3631SOL     OW10999   5.567   0.511   3.920 -1.2481  0.1958 -0.1486
 3631SOL    HW111000   5.606   0.432   3.883 -1.1756 -0.4343  1.2420
 3631SOL    HW211001   5.515   0.480   3.994  0.7995  1.6671  2.0512
 3632SOL     OW11002   0.779   3.514   3.138 -0.7776  0.1723  0.5905
 3632SOL    HW111003   0.722   3.445   3.173  1.9297 -2.0637  0.9684
 3632SOL    HW211004   0.773   3.505   3.043 -0.2773 -0.7844  0.6387
 3633SOL     OW11005   2.630   5.057   3.371 -0.6598 -0.1769  0.1657
 3633SOL    HW111006   2.629   5.140   3.419  0.3990  0.2031 -0.4171
 3633SOL    HW211007   2.635   5.083   3.279 -1.9905 -0.8974 -0.1297
 3634SOL     OW11008   1.508   2.870   1.007  0.4627 -0.1020 -0.3598
 3634SOL    HW111009   1.541   2.935   0.945  1.1296 -1.4916 -1.5279
 3634SOL    HW211010   1.587   2.834   1.048  0.0955 -0.0964  0.3593
 3635SOL     OW11011   2.806   0.016   3.480 -0.3102 -0.4629  0.0222
 3635SOL    HW111012   2.833   0.087   3.538  1.4793 -0.5895 -0.6026
 3635SOL    HW211013   2.772   0.060   3.402  2.8662 -0.1653 -1.3259
 3636SOL     OW11014   4.272   4.833   1.011  0.1397  0.2830  0.4129
 3636SOL    HW111015   4.226   4.882   0.942 -1.7786 -0.6934  0.9201
 3636SOL    HW211016   4.341   4.785   0.965 -1.0742 -0.3195 -0.8553
 3637SOL     OW11017   0.670   1.341   2.239  0.5935 -0.8617  0.0037
 3637SOL    HW111018   0.718   1.388   2.307 -1.1297  2.9150 -1.1038
 3637SOL    HW211019   0.719   1.358   2.158 -1.1495  1.0320 -0.7525
 3638SOL     OW11020   3.553   4.470   1.379 -0.2588 -0.3395  0.1416
 3638SOL    HW111021   3.482   4.469   1.443 -1.3204 -0.6687 -0.9809
 3638SOL    HW211022   3.512   4.502   1.298  0.5566 -1.6978 -0.8649
 3639SOL     OW11023   3.701   2.417   3.778 -0.3908 -0.2446  1.0014
 3639SOL    HW111024   3.694   2.500   3.827 -1.8846  0.2747 -0.0140
 3639SOL    HW211025   3.670   2.351   3.840 -2.0286  0.3755  0.9198
 3640SOL     OW11026   1.631   0.356   2.213 -0.1353 -0.3637  0.3803
 3640SOL    HW111027   1.558   0.390   2.162 -1.4320 -2.0189  1.0367
 3640SOL    HW211028   1.611   0.379   2.304  0.3257 -0.5293  0.5297
 3641SOL     OW11029   4.389   1.956   3.840 -0.0854  0.7906 -0.9594
 3641SOL    HW111030   4.371   2.047   3.860 -2.1516  1.4439 -4.7767
 3641SOL    HW211031   4.477   1.957   3.802  0.8322  0.7206  1.0534
 3642SOL     OW11032   0.070   3.625   2.131 -0.0392 -0.4296  0.0861
 3642SOL    HW111033   0.082   3.531   2.126 -0.3902 -0.4438 -0.5808
 3642SOL    HW211034   0.138   3.661   2.073  0.6349 -0.2261  0.9773
 3643SOL     OW11035   4.230   2.912   2.188  0.7063 -0.2541 -0.1286
 3643SOL    HW111036   4.248   2.824   2.220 -0.6175  0.0680  1.6779
 3643SOL    HW211037   4.192   2.899   2.101  3.9079 -1.2024 -1.5254
 3644SOL     OW11038   5.427   3.030   2.890 -0.4799  0.1579  0.5121
 3644SOL    HW111039   5.520   3.034   2.914 -0.5418  0.4981  0.6901
 3644SOL    HW211040   5.384   3.090   2.950 -0.9954 -0.9541  1.2893
 3645SOL     OW11041   1.006   2.817   0.825  0.8022  0.0958  0.0706
 3645SOL    HW111042   1.080   2.864   0.787  0.7369 -1.2011 -1.7657
 3645SOL    HW211043   1.045   2.765   0.896  1.2961  0.9127  0.4097
 3646SOL     OW11044   0.235   5.460   1.775  0.1193 -0.4262 -0.2341
 3646SOL    HW111045   0.310   5.469   1.834  0.5032  1.6190 -0.9314
 3646SOL    HW211046   0.164   5.505   1.820 -0.0504 -0.3686 -0.5554
 3647SOL     OW11047   1.831   4.163   3.554 -0.0411  0.0786 -0.2346
 3647SOL    HW111048   1.821   4.132   3.464 -1.3612 -1.0086  0.2632
 3647SOL    HW211049   1.749   4.206   3.574  0.4816  0.8701  0.2693
 3648SOL     OW11050   2.731   3.135   1.568  0.1992 -0.2986 -0.4464
 3648SOL    HW111051   2.751   3.220   1.607  0.3821 -0.2509 -0.6398
 3648SOL    HW211052   2.638   3.138   1.549  0.2423 -0.0711 -0.6201
 3649SOL     OW11053   0.547   4.152   0.481  0.0726 -0.0603  0.1681
 3649SOL    HW111054   0.563   4.098   0.403  0.0934  0.2530 -0.0500
 3649SOL    HW211055   0.536   4.240   0.446 -1.6452 -0.1719  0.3390
 3650SOL     OW11056   3.555   2.622   0.551  0.6626 -0.4562  0.1345
 3650SOL    HW111057   3.591   2.708   0.569 -0.8574 -0.0211  1.3488
 3650SOL    HW211058   3.603   2.590   0.475 -0.2670  2.4242 -1.8206
 3651SOL     OW11059   4.459   2.414   2.961 -0.0252  0.1423  0.0188
 3651SOL    HW111060   4.515   2.461   3.022  0.1814  0.8364 -0.6938
 3651SOL    HW211061   4.519   2.358   2.911 -0.1985 -0.4576  0.4672
 3652SOL     OW11062   2.101   1.113   3.304  0.3503 -0.0734  0.6538
 3652SOL    HW111063   2.059   1.186   3.350  1.4030 -0.0576  1.6379
 3652SOL    HW211064   2.192   1.117   3.332  0.2119 -2.4277  1.5791
 3653SOL     OW11065   0.746   3.398   2.867 -0.1537  0.0337  0.4437
 3653SOL    HW111066   0.772   3.413   2.776  0.6703  1.3487  0.8639
 3653SOL    HW211067   0.662   3.353   2.861 -2.2358  3.6821 -1.0550
 3654SOL     OW11068   0.535   1.973   3.233 -0.1668 -0.4245 -0.3236
 3654SOL    HW111069   0.553   2.044   3.171 -1.5442 -0.1974 -0.4851
 3654SOL    HW211070   0.460   1.927   3.195  0.3647 -1.6461  0.0589
 3655SOL     OW11071   4.281   1.626   0.224  0.4911 -0.0390 -0.2280
 3655SOL    HW111072   4.231   1.545   0.237  1.0585 -0.9358 -2.8532
 3655SOL    HW211073   4.252   1.658   0.138  1.4272  1.6961  0.0624
 3656SOL     OW11074   2.020   5.220   1.043 -0.3297 -0.2102 -0.2282
 3656SOL    HW111075   1.991   5.288   0.982 -1.2518 -1.1849 -0.8992
 3656SOL    HW211076   1.956   5.150   1.033  0.5935 -1.1737  0.4804
 3657SOL     OW11077   3.549   0.261   2.835 -0.6792  0.1022  0.4707
 3657SOL    HW111078   3.577   0.349   2.808 -0.5475 -0.1576 -0.2568
 3657SOL    HW211079   3.454   0.264   2.828 -0.6538  0.0820  0.1248
 3658SOL     OW11080   2.718   4.455   1.492 -0.0117  0.2971 -0.6646
 3658SOL    HW111081   2.642   4.502   1.525 -0.7098  0.2781 -2.1801
 3658SOL    HW211082   2.789   4.477   1.554 -1.1379  0.5844  0.5672
 3659SOL     OW11083   4.918   2.611   2.459  0.4752 -0.2209  0.7212
 3659SOL    HW111084   4.895   2.691   2.505  1.3589  0.4584  0.0422
 3659SOL    HW211085   5.013   2.617   2.448  0.4615 -1.0275  0.0584
 3660SOL     OW11086   2.921   0.343   2.743  0.5052  0.7004  0.3881
 3660SOL    HW111087   2.909   0.380   2.831  0.2120  1.0100  0.2205
 3660SOL    HW211088   2.844   0.288   2.729 -0.6584  2.4796 -0.5814
 3661SOL     OW11089   3.915   0.737   3.573  0.0158 -0.0443 -0.2013
 3661SOL    HW111090   3.920   0.681   3.495  0.3183 -1.1433  0.5745
 3661SOL    HW211091   3.896   0.824   3.539 -2.3733 -0.9364 -1.3574
 3662SOL     OW11092   3.000   2.636   0.109 -0.3484 -0.1489  0.0872
 3662SOL    HW111093   3.040   2.682   0.183 -0.6535 -1.8606  1.3713
 3662SOL    HW211094   2.906   2.642   0.125 -0.4053 -0.8169  0.0083
 3663SOL     OW11095   3.682   5.370   2.870  0.2933  0.6567  0.2516
 3663SOL    HW111096   3.738   5.439   2.906  0.8868  0.3075  0.0113
 3663SOL    HW211097   3.599   5.413   2.853  0.0657  0.8861  1.8337
 3664SOL     OW11098   0.089   3.578   3.832 -0.5781 -0.4348  0.2867
 3664SOL    HW111099   0.013   3.545   3.880 -0.6719 -2.1619 -0.9476
 3664SOL    HW211100   0.051   3.625   3.758 -0.4397 -0.1458  0.4005
 3665SOL     OW11101   2.369   3.807   0.177  0.3461 -0.4034  0.2781
 3665SOL    HW111102   2.413   3.879   0.131 -0.7187  0.3704  0.4325
 3665SOL    HW211103   2.298   3.781   0.118  1.2337 -1.9256 -0.1576
 3666SOL     OW11104   2.408   4.729   3.234  0.5917 -0.6380 -0.3673
 3666SOL    HW111105   2.498   4.742   3.203  0.9978 -1.2839  0.5122
 3666SOL    HW211106   2.397   4.634   3.234 -0.1816 -0.5522 -0.7036
 3667SOL     OW11107   4.132   4.989   2.753  0.4589  0.0825 -0.1194
 3667SOL    HW111108   4.041   5.018   2.765  0.2511 -0.6306  0.0629
 3667SOL    HW211109   4.179   5.028   2.827  0.9014  2.7926 -1.6891
 3668SOL     OW11110   1.322   4.171   2.235 -0.1682  0.3203 -0.2701
 3668SOL    HW111111   1.329   4.248   2.180  1.8762  1.8233  1.8560
 3668SOL    HW211112   1.405   4.125   2.222 -0.8593 -0.8902 -0.5816
 3669SOL     OW11113   2.457   2.787   1.456 -0.1085  0.5643 -0.2239
 3669SOL    HW111114   2.520   2.849   1.420  0.3933  0.4651  0.4574
 3669SOL    HW211115   2.447   2.813   1.548  0.2281 -0.4422  0.1156
 3670SOL     OW11116   5.043   2.827   1.114 -0.6148 -0.5306  0.3366
 3670SOL    HW111117   5.014   2.829   1.205 -0.5251 -0.9838  0.3758
 3670SOL    HW211118   5.086   2.743   1.104  1.4878  0.4584  0.4994
 3671SOL     OW11119   0.841   2.932   0.505  0.2922 -0.4770 -0.2341
 3671SOL    HW111120   0.907   2.863   0.500  0.7904 -0.0446  0.2415
 3671SOL    HW211121   0.778   2.901   0.569  0.8797 -0.2005  0.4980
 3672SOL     OW11122   2.185   1.791   1.035  0.9376 -0.5290 -0.2987
 3672SOL    HW111123   2.120   1.751   1.092  1.6180 -0.4550  0.5558
 3672SOL    HW211124   2.192   1.732   0.960  1.2958 -1.5680  0.5308
 3673SOL     OW11125   4.331   5.312   2.203  0.4703  0.4011  0.4143
 3673SOL    HW111126   4.266   5.341   2.266  3.3414  3.2490  2.3842
 3673SOL    HW211127   4.400   5.273   2.256  0.6363 -2.2640 -1.5669
 3674SOL     OW11128   5.097   3.759   1.131 -0.2153  0.4202  0.3984
 3674SOL    HW111129   5.119   3.851   1.143 -0.5374  0.4496  0.8059
 3674SOL    HW211130   5.078   3.727   1.219 -0.5876  0.0929  0.2037
 3675SOL     OW11131   3.758   0.957   2.292 -0.0147 -0.3419  0.1234
 3675SOL    HW111132   3.704   1.034   2.274 -0.0145 -0.4182 -0.1937
 3675SOL    HW211133   3.748   0.943   2.387  0.8681  0.7154  0.3937
 3676SOL     OW11134   0.160   2.493   2.897 -0.6097 -0.1383  0.2465
 3676SOL    HW111135   0.254   2.485   2.915 -0.4123  0.5838 -0.3994
 3676SOL    HW211136   0.147   2.447   2.814 -1.0755 -1.3678  0.9810
 3677SOL     OW11137   2.588   0.341   3.147 -0.6158 -0.4054 -0.0006
 3677SOL    HW111138   2.604   0.248   3.163 -0.1465  0.0075  2.4078
 3677SOL    HW211139   2.503   0.358   3.189 -0.2701  0.4084  0.3915
 3678SOL     OW11140   0.403   2.326   3.210 -0.1952 -0.7269  0.0184
 3678SOL    HW111141   0.343   2.251   3.209  2.1598 -2.7413 -0.0098
 3678SOL    HW211142   0.487   2.289   3.184  0.8130  2.2290 -1.2993
 3679SOL     OW11143   2.213   0.278   1.922  0.1694  0.5193 -0.0080
 3679SOL    HW111144   2.246   0.197   1.882 -0.1144  1.5708 -2.5346
 3679SOL    HW211145   2.289   0.315   1.966  0.9693  0.1105 -0.9876
 3680SOL     OW11146   3.565   5.257   1.276 -0.3178 -0.1372 -0.1991
 3680SOL    HW111147   3.576   5.335   1.330  0.7038 -1.7068  1.9890
 3680SOL    HW211148   3.471   5.237   1.282 -0.0337 -1.0289  2.1899
 3681SOL     OW11149   0.218   2.069   0.654 -0.0579 -0.2705 -0.1590
 3681SOL    HW111150   0.287   2.121   0.614 -1.1010  0.9780 -0.3945
 3681SOL    HW211151   0.136   2.107   0.620 -0.9722  0.3180  2.4822
 3682SOL     OW11152   2.082   4.287   3.514 -0.4177  0.1170  0.3034
 3682SOL    HW111153   2.019   4.216   3.522 -0.7614  0.5502  1.6070
 3682SOL    HW211154   2.032   4.367   3.529 -0.3197  0.7950 -2.5050
 3683SOL     OW11155   2.642   1.109   2.071 -0.4714 -0.6565  0.1154
 3683SOL    HW111156   2.688   1.038   2.025 -0.2044 -0.7243  0.4813
 3683SOL    HW211157   2.551   1.080   2.074 -0.2797 -1.2372  0.7145
 3684SOL     OW11158   1.991   3.949   0.549  0.2819 -0.5739  0.2008
 3684SOL    HW111159   1.960   3.975   0.636  0.0732 -1.9940  0.5893
 3684SOL    HW211160   1.916   3.966   0.491 -0.0834 -0.9085  0.5590
 3685SOL     OW11161   1.526   1.583   2.739  0.1792  0.4441 -0.2833
 3685SOL    HW111162   1.464   1.534   2.686  0.2463 -0.8924  0.7947
 3685SOL    HW211163   1.606   1.530   2.737  0.8334  1.4142 -0.4982
 3686SOL     OW11164   1.352   2.832   1.575  0.0818 -0.3308  0.2710
 3686SOL    HW111165   1.258   2.846   1.582  0.2834  0.6402  1.5898
 3686SOL    HW211166   1.389   2.920   1.584  1.2030 -0.9488  2.4112
 3687SOL     OW11167   4.978   3.638   0.011 -0.6095  0.2772  0.0487
 3687SOL    HW111168   5.003   3.589  -0.067 -0.5470 -0.4379  0.5151
 3687SOL    HW211169   5.033   3.604   0.081  0.7240  2.2401  0.0455
 3688SOL     OW11170   3.551   2.504   0.788  0.2862 -0.6289 -0.3530
 3688SOL    HW111171   3.467   2.461   0.804 -0.4904  0.4781 -1.3287
 3688SOL    HW211172   3.548   2.531   0.697  2.1653 -1.4978 -0.7288
 3689SOL     OW11173   4.521   4.135   2.471 -0.2471  0.3229 -0.1491
 3689SOL    HW111174   4.570   4.058   2.501 -1.5288 -0.4087  0.1420
 3689SOL    HW211175   4.519   4.193   2.547 -0.8347 -0.1654  0.2140
 3690SOL     OW11176   4.655   2.218   2.832 -0.1452 -0.2061 -0.0987
 3690SOL    HW111177   4.661   2.157   2.759 -0.1955 -0.4409  0.0947
 3690SOL    HW211178   4.746   2.242   2.851 -0.1843  0.6420 -0.8982
 3691SOL     OW11179   1.112   1.394   0.705 -0.5585  0.1457  0.4610
 3691SOL    HW111180   1.026   1.388   0.664 -0.6764  3.6841 -0.0593
 3691SOL    HW211181   1.095   1.433   0.791  0.2820 -2.0936  1.7437
 3692SOL     OW11182   2.355   5.206   3.587 -0.2776  0.2101  0.0693
 3692SOL    HW111183   2.260   5.208   3.579 -0.1764 -0.6494 -1.7127
 3692SOL    HW211184   2.386   5.264   3.518  0.5087  1.0533  1.0902
 3693SOL     OW11185   1.012   0.441   3.641  0.1885  0.2384  0.0551
 3693SOL    HW111186   1.074   0.510   3.617  0.5648  0.2145  0.8836
 3693SOL    HW211187   0.939   0.451   3.580 -0.0944  1.8235  0.5906
 3694SOL     OW11188   5.277   2.180   0.647 -0.0469  0.0659  0.7887
 3694SOL    HW111189   5.218   2.137   0.709 -1.1181  1.1366  0.5694
 3694SOL    HW211190   5.260   2.137   0.563 -0.2498  0.1170  0.8029
 3695SOL     OW11191   5.053   0.024   3.805  0.0810 -0.4727  0.0950
 3695SOL    HW111192   5.029   0.115   3.822 -1.3638  0.4600 -5.0317
 3695SOL    HW211193   4.974  -0.025   3.828  0.3022 -0.2544  1.3964
 3696SOL     OW11194   3.801   3.582   0.660  0.4209 -0.3887 -0.6382
 3696SOL    HW111195   3.868   3.634   0.704 -1.6738  1.5810  0.4828
 3696SOL    HW211196   3.793   3.622   0.573 -1.6724  1.8667  0.4543
 3697SOL     OW11197   2.297   2.585   3.256  0.2777  0.5459  0.6531
 3697SOL    HW111198   2.321   2.670   3.293 -0.0624  0.6706  0.5916
 3697SOL    HW211199   2.207   2.598   3.224  0.0656  0.0408  1.0305
 3698SOL     OW11200   4.105   0.212   3.158 -0.4182  0.6814 -0.0710
 3698SOL    HW111201   4.197   0.237   3.163 -0.5533  0.9715  1.1843
 3698SOL    HW211202   4.106   0.127   3.113  0.2388  1.7406 -2.1938
 3699SOL     OW11203   0.405   1.271   2.279  0.5076 -0.4290 -0.3356
 3699SOL    HW111204   0.363   1.341   2.329  0.5436 -0.9860  0.4895
 3699SOL    HW211205   0.493   1.304   2.261 -0.6428  1.4446 -3.4633
 3700SOL     OW11206   3.541   1.244   3.130 -0.1081 -0.5422 -0.1671
 3700SOL    HW111207   3.612   1.205   3.080  0.2591  1.4929 -1.3769
 3700SOL    HW211208   3.558   1.338   3.126 -1.0730 -0.1737  2.3152
 3701SOL     OW11209   3.769   2.711   2.363 -0.4045  0.0735  0.2372
 3701SOL    HW111210   3.716   2.764   2.303 -0.5114  2.2880  2.1928
 3701SOL    HW211211   3.705   2.655   2.407 -0.3132 -1.6740 -1.6811
 3702SOL     OW11212   3.396   2.687   1.691 -0.2721 -0.0627  0.3318
 3702SOL    HW111213   3.366   2.697   1.601 -1.0422 -1.5211  0.3918
 3702SOL    HW211214   3.345   2.750   1.741  0.8866  1.4922 -0.3632
 3703SOL     OW11215   3.202   1.264   2.352 -0.3527 -0.0874 -0.6506
 3703SOL    HW111216   3.227   1.317   2.276 -1.2482  0.1267 -0.8141
 3703SOL    HW211217   3.262   1.290   2.421  1.3863 -1.2711 -1.6451
 3704SOL     OW11218   3.801   5.517   2.018  0.5249 -0.7106 -0.0347
 3704SOL    HW111219   3.758   5.591   1.974  1.7457  1.2343  1.8359
 3704SOL    HW211220   3.818   5.454   1.948 -2.0495 -0.0093 -1.4411
 3705SOL     OW11221   3.104   3.246   0.074 -0.2708  0.1288  0.1299
 3705SOL    HW111222   3.026   3.214   0.121 -0.3270  0.4578  0.2640
 3705SOL    HW211223   3.178   3.209   0.123 -0.3464 -1.0853 -0.6397
 3706SOL     OW11224   1.810   3.311   3.645  0.3142 -0.1818  0.2784
 3706SOL    HW111225   1.826   3.399   3.610 -1.0444 -0.0504 -0.0487
 3706SOL    HW211226   1.882   3.297   3.706  0.3009  1.3638  0.7052
 3707SOL     OW11227   0.045   4.516   0.864 -0.1044  0.4160 -0.1232
 3707SOL    HW111228  -0.036   4.469   0.884  0.3367 -0.4963 -0.4336
 3707SOL    HW211229   0.033   4.547   0.774 -0.4359  0.9985  0.1157
 3708SOL     OW11230   0.957   2.538   0.744  0.0523  0.0195 -0.3429
 3708SOL    HW111231   1.026   2.506   0.803 -0.6000 -1.7894 -0.4751
 3708SOL    HW211232   0.930   2.622   0.781  1.4968  0.1987  0.3797
 3709SOL     OW11233   0.257   2.384   0.270 -0.7765  0.2125  0.6505
 3709SOL    HW111234   0.262   2.421   0.182  0.3259 -0.1637  0.5452
 3709SOL    HW211235   0.235   2.458   0.326 -0.2723  0.6937  0.2211
 3710SOL     OW11236   5.455   5.477   0.996  0.0711  0.7052 -0.1958
 3710SOL    HW111237   5.468   5.563   0.956 -0.4770  1.2100  0.6889
 3710SOL    HW211238   5.386   5.491   1.061 -2.7560 -1.1923 -2.5353
 3711SOL     OW11239   2.761   3.426   3.008  0.2088 -0.3995 -0.4122
 3711SOL    HW111240   2.787   3.369   3.081  0.3562  1.1092  0.7691
 3711SOL    HW211241   2.809   3.391   2.933  0.5784 -1.5944  0.3437
 3712SOL     OW11242   4.619   0.903   2.838 -0.2385 -0.6254 -0.1620
 3712SOL    HW111243   4.695   0.849   2.858  0.3237  0.3174  0.3162
 3712SOL    HW211244   4.625   0.920   2.744  0.1303 -0.5756 -0.1304
 3713SOL     OW11245   3.624   1.214   2.802 -0.3000  0.0378 -0.1719
 3713SOL    HW111246   3.676   1.185   2.877 -0.0134  1.4413  0.2168
 3713SOL    HW211247   3.581   1.135   2.770  3.1082 -1.5300 -1.3778
 3714SOL     OW11248   4.079   5.501   3.515  0.1550 -0.3074  0.2034
 3714SOL    HW111249   4.088   5.498   3.420  0.8725 -1.6757  0.2934
 3714SOL    HW211250   4.167   5.523   3.547 -0.1445  0.4276  0.5545
 3715SOL     OW11251   4.619   1.913   3.197  0.0340 -0.4412  0.2066
 3715SOL    HW111252   4.601   1.849   3.129 -1.7242 -1.2977  1.4041
 3715SOL    HW211253   4.595   1.997   3.158  0.8705 -0.6772 -0.8472
 3716SOL     OW11254   4.424   2.249   0.638 -0.1098 -0.0666 -0.2265
 3716SOL    HW111255   4.400   2.179   0.578 -3.0843  0.4653  0.2090
 3716SOL    HW211256   4.502   2.217   0.683  0.1916 -1.8993 -1.9417
 3717SOL     OW11257   0.981   4.134   2.932 -0.1607 -0.1839  0.1257
 3717SOL    HW111258   1.066   4.113   2.892  1.0437  1.7647  1.4959
 3717SOL    HW211259   0.920   4.133   2.858  1.4486  0.4743 -1.3045
 3718SOL     OW11260   4.706   2.297   0.608  0.2947 -0.0880  0.0639
 3718SOL    HW111261   4.677   2.325   0.694 -2.2062 -0.7906 -0.4859
 3718SOL    HW211262   4.702   2.202   0.610  1.7602 -0.1857 -0.3535
 3719SOL     OW11263   3.149   0.694   3.903  0.2490 -0.6304  0.4136
 3719SOL    HW111264   3.216   0.753   3.867 -0.7909 -0.3844 -1.2402
 3719SOL    HW211265   3.103   0.746   3.968  2.0335 -1.0088  2.0826
 3720SOL     OW11266   5.353   2.724   3.649 -0.4549 -0.1356 -0.4012
 3720SOL    HW111267   5.330   2.700   3.739 -0.7184 -0.1332 -0.4656
 3720SOL    HW211268   5.412   2.655   3.619 -0.6154 -0.3042 -0.3309
 3721SOL     OW11269   5.217   3.755   2.272  0.3631 -0.7354  0.3423
 3721SOL    HW111270   5.281   3.699   2.228  0.2941 -2.3854  2.1891
 3721SOL    HW211271   5.132   3.719   2.246  0.1928  0.3056 -0.6476
 3722SOL     OW11272   0.469   4.307   1.267 -0.5651  0.1964  0.1594
 3722SOL    HW111273   0.436   4.384   1.313 -0.9043  0.8398 -1.1153
 3722SOL    HW211274   0.399   4.283   1.206  0.1556 -0.1652 -0.5599
 3723SOL     OW11275   2.076   5.104   0.166  0.3826 -0.5190 -0.2009
 3723SOL    HW111276   2.109   5.171   0.106  1.4233  1.0842  2.0334
 3723SOL    HW211277   2.136   5.030   0.154  1.1127  0.1041 -0.5140
 3724SOL     OW11278   5.430   0.675   1.511 -0.0881 -0.0731 -0.2995
 3724SOL    HW111279   5.402   0.588   1.539  0.2884 -0.5894 -1.4853
 3724SOL    HW211280   5.525   0.673   1.518 -0.0670  0.1928 -0.4901
 3725SOL     OW11281   4.522   2.607   1.814 -0.4102  0.0772 -0.2309
 3725SOL    HW111282   4.442   2.555   1.822  0.3218 -1.1834 -0.7359
 3725SOL    HW211283   4.586   2.562   1.870 -0.2416  1.4814  0.7394
 3726SOL     OW11284   1.559   1.155   3.496 -0.1265 -0.3187  0.2978
 3726SOL    HW111285   1.486   1.094   3.502  0.2404 -0.7209  0.8065
 3726SOL    HW211286   1.520   1.241   3.509 -0.4136 -0.5925  1.3079
 3727SOL     OW11287   3.741   2.710   0.830 -0.0938  0.0800 -0.4236
 3727SOL    HW111288   3.792   2.672   0.902  1.0351  1.5754 -0.3976
 3727SOL    HW211289   3.717   2.635   0.776  1.0871 -0.8027  0.2320
 3728SOL     OW11290   4.534   3.293   3.718 -0.0212 -0.5222  0.1869
 3728SOL    HW111291   4.580   3.220   3.677 -1.9425 -1.8376  0.2384
 3728SOL    HW211292   4.549   3.281   3.812  0.1852 -0.4900  0.1573
 3729SOL     OW11293   4.855   0.608   1.613 -0.1777  0.2580  0.2902
 3729SOL    HW111294   4.850   0.661   1.693 -1.1440  1.7422 -0.6978
 3729SOL    HW211295   4.940   0.631   1.575 -0.7527  1.4425 -0.3275
 3730SOL     OW11296   5.201   0.417   3.419  0.3946 -0.5604  0.6192
 3730SOL    HW111297   5.160   0.454   3.497  4.2943  0.5984  2.3811
 3730SOL    HW211298   5.236   0.493   3.371 -0.5429 -1.3663 -1.4919
 3731SOL     OW11299   2.029   4.742   0.225 -0.0819  0.1524 -0.2540
 3731SOL    HW111300   2.017   4.658   0.180  1.6077  0.0020 -0.4814
 3731SOL    HW211301   1.999   4.807   0.161  0.1384 -0.1853 -0.7067
 3732SOL     OW11302   2.720   1.562   3.057  0.3457  0.0132  0.5778
 3732SOL    HW111303   2.675   1.629   3.005  2.3933  1.2151  0.2600
 3732SOL    HW211304   2.749   1.608   3.136 -0.3622 -1.1339  1.5471
 3733SOL     OW11305   2.667   5.266   1.214  0.3156  0.1322  0.2059
 3733SOL    HW111306   2.586   5.216   1.210 -0.0000  0.5463  1.0969
 3733SOL    HW211307   2.643   5.347   1.261  0.8473  1.0436 -1.0435
 3734SOL     OW11308   2.379   3.742   1.106  0.2903 -0.2249  0.6665
 3734SOL    HW111309   2.300   3.786   1.138 -0.0594 -0.5027  0.1928
 3734SOL    HW211310   2.367   3.738   1.011  0.5910 -0.8104  0.6516
 3735SOL     OW11311   4.663   0.833   1.456 -0.4183  0.4695 -0.8338
 3735SOL    HW111312   4.693   0.744   1.438  2.2704  1.5128 -2.0981
 3735SOL    HW211313   4.602   0.852   1.385 -0.4658 -0.1049 -0.9537
 3736SOL     OW11314   0.337   1.958   2.953 -0.0770  0.4083  0.1604
 3736SOL    HW111315   0.307   1.992   3.038  0.9053 -0.9667  1.0959
 3736SOL    HW211316   0.296   1.873   2.945  0.4613  0.1934 -0.3788
 3737SOL     OW11317   2.800   0.510   1.634  0.7369 -0.0747 -0.3479
 3737SOL    HW111318   2.830   0.573   1.699 -0.7320 -0.0931  0.3922
 3737SOL    HW211319   2.723   0.470   1.674  0.2264 -0.6064 -1.8112
 3738SOL     OW11320   0.907   0.666   3.213 -0.6031 -0.4138  0.5115
 3738SOL    HW111321   0.978   0.730   3.205 -0.1919 -0.9222  0.0309
 3738SOL    HW211322   0.859   0.674   3.131 -1.4460  0.3156  1.0538
 3739SOL     OW11323   0.625   2.216   0.307  0.0527 -0.8245  0.1044
 3739SOL    HW111324   0.591   2.305   0.303  0.5214 -0.6633 -0.2024
 3739SOL    HW211325   0.689   2.218   0.378  2.0389 -0.2454 -1.6281
 3740SOL     OW11326   0.129   2.736   3.312  0.2425  0.0265  0.4101
 3740SOL    HW111327   0.208   2.688   3.335  0.3646  0.2256  0.4127
 3740SOL    HW211328   0.148   2.772   3.225  0.4535  0.7090  0.7329
 3741SOL     OW11329   3.927   3.054   0.147 -0.2343  0.2359 -0.3311
 3741SOL    HW111330   4.012   3.087   0.178 -0.6543  0.8383  0.1821
 3741SOL    HW211331   3.931   3.065   0.052  1.2996 -2.1572 -0.6424
 3742SOL     OW11332   2.030   3.300   3.212  0.3888  0.3601  0.0505
 3742SOL    HW111333   2.109   3.345   3.182  0.7970 -0.6963 -0.5024
 3742SOL    HW211334   2.061   3.241   3.281  0.6523 -2.2584 -2.1617
 3743SOL     OW11335   2.477   5.163   0.700  0.5946 -0.7785 -0.0347
 3743SOL    HW111336   2.439   5.150   0.612 -1.0684  0.5055  0.4379
 3743SOL    HW211337   2.403   5.150   0.759  1.6508 -1.3888  1.2006
 3744SOL     OW11338   5.437   0.527   0.701  0.1657 -0.3089 -0.4850
 3744SOL    HW111339   5.389   0.445   0.705  1.3061 -1.0465 -1.4348
 3744SOL    HW211340   5.516   0.507   0.651 -0.9407  2.0487 -3.5125
 3745SOL     OW11341   3.909   1.437   3.638 -0.4515  0.4079  0.7707
 3745SOL    HW111342   3.979   1.384   3.676 -2.0303 -1.5324  1.1776
 3745SOL    HW211343   3.946   1.525   3.630  2.2289 -0.6720  0.3052
 3746SOL     OW11344   1.111   0.379   0.210 -0.1351 -0.0181 -0.1175
 3746SOL    HW111345   1.054   0.429   0.151  1.8010  2.4087 -0.0834
 3746SOL    HW211346   1.051   0.332   0.267 -2.0956 -1.4204 -3.0666
 3747SOL     OW11347   5.005   0.957   3.895 -0.1106 -0.1562 -0.5107
 3747SOL    HW111348   4.997   0.876   3.945  1.8261  0.0457  0.2008
 3747SOL    HW211349   5.070   0.937   3.827 -0.8958  0.3008 -1.4157
 3748SOL     OW11350   0.676   1.696   3.216 -0.2604 -0.0220 -0.6399
 3748SOL    HW111351   0.649   1.777   3.259 -1.5039 -0.2102 -1.0044
 3748SOL    HW211352   0.756   1.670   3.261 -0.9743  0.3051  0.9053
 3749SOL     OW11353   0.134   3.095   3.613  0.1860  0.5786  0.2258
 3749SOL    HW111354   0.173   3.047   3.540 -1.5839 -0.9886  0.2462
 3749SOL    HW211355   0.049   3.123   3.580  0.4962  2.3063  0.7912
 3750SOL     OW11356   1.707   4.053   0.349  0.8908  0.0651 -0.1097
 3750SOL    HW111357   1.693   4.109   0.426 -0.9536 -1.3039  0.6042
 3750SOL    HW211358   1.634   4.072   0.291 -0.9396 -2.9253  1.0229
 3751SOL     OW11359   3.529   1.571   3.107 -0.1961 -0.0679 -0.3153
 3751SOL    HW111360   3.450   1.561   3.054 -0.4010  0.0827 -0.0429
 3751SOL    HW211361   3.520   1.658   3.147  0.1008 -0.0558 -0.2737
 3752SOL     OW11362   3.943   4.842   1.864  0.4780  0.0250  0.4179
 3752SOL    HW111363   3.958   4.937   1.869  0.8435  0.0017 -0.1795
 3752SOL    HW211364   4.019   4.804   1.908  0.0247  0.0148  1.2197
 3753SOL     OW11365   4.396   1.144   2.421  0.6592  0.2929 -0.0980
 3753SOL    HW111366   4.326   1.151   2.356 -1.8998 -1.5615  2.2454
 3753SOL    HW211367   4.469   1.104   2.373 -0.8297 -0.2987 -2.0039
 3754SOL     OW11368   0.421   3.558   1.985  0.3611  0.1359 -0.0506
 3754SOL    HW111369   0.468   3.638   1.959  0.8957 -0.2843 -0.3855
 3754SOL    HW211370   0.433   3.499   1.911  1.1656 -0.7723  0.7867
 3755SOL     OW11371   0.465   5.134   3.875 -0.0407 -0.7996 -0.7517
 3755SOL    HW111372   0.519   5.154   3.950 -2.6320 -0.9932  1.3105
 3755SOL    HW211373   0.435   5.219   3.843 -0.9842 -0.7787  0.1182
 3756SOL     OW11374   4.885   1.242   0.825 -0.3425  0.3642  0.3828
 3756SOL    HW111375   4.909   1.211   0.737  0.1926 -0.7914  0.9244
 3756SOL    HW211376   4.818   1.309   0.808 -2.2106 -1.6439 -0.8259
 3757SOL     OW11377   2.296   3.743   3.093  0.0076  0.2852 -0.4203
 3757SOL    HW111378   2.226   3.804   3.114  0.8477  0.6847  1.3950
 3757SOL    HW211379   2.262   3.694   3.018  0.2025  4.4512 -3.6048
 3758SOL     OW11380   4.847   2.629   3.706 -0.0944 -0.0295 -0.7785
 3758SOL    HW111381   4.819   2.717   3.681 -1.7424 -0.7071 -1.4458
 3758SOL    HW211382   4.886   2.640   3.793 -0.0126  1.3930 -0.9783
 3759SOL     OW11383   1.361   1.828   0.821 -0.3908  0.3995 -0.0812
 3759SOL    HW111384   1.270   1.851   0.803 -1.6633 -3.8098 -0.1683
 3759SOL    HW211385   1.363   1.809   0.915  0.1901 -0.2450 -0.2133
 3760SOL     OW11386   2.162   5.217   3.282 -0.1471  0.6244 -0.1212
 3760SOL    HW111387   2.176   5.138   3.230  1.0818  0.7639 -0.0476
 3760SOL    HW211388   2.082   5.200   3.331  0.3611 -0.7727  0.2582
 3761SOL     OW11389   0.576   1.686   3.704 -0.7213  0.1359  0.6306
 3761SOL    HW111390   0.595   1.637   3.785  2.5606 -0.7521 -0.5159
 3761SOL    HW211391   0.571   1.619   3.636  0.1769  1.0624 -0.4081
 3762SOL     OW11392   0.415   4.791   3.639  0.1530 -0.3275  0.3975
 3762SOL    HW111393   0.474   4.861   3.609  0.7148 -1.0048 -0.1023
 3762SOL    HW211394   0.353   4.836   3.696  0.0703  0.7158 -0.4643
 3763SOL     OW11395   5.279   1.234   1.830  0.5130 -0.3320  0.0905
 3763SOL    HW111396   5.365   1.215   1.792  0.3999 -0.2243 -0.2219
 3763SOL    HW211397   5.274   1.178   1.908  0.4560 -1.1039 -0.4565
 3764SOL     OW11398   3.236   3.073   3.337  0.6760 -0.0446 -0.1876
 3764SOL    HW111399   3.252   2.988   3.378  2.1465  0.6718  0.8156
 3764SOL    HW211400   3.257   3.137   3.406 -2.0829  1.1562 -0.3228
 3765SOL     OW11401   0.099   2.663   3.931  0.2705  0.0935  0.1008
 3765SOL    HW111402   0.030   2.728   3.919 -2.4658 -2.3473  1.3169
 3765SOL    HW211403   0.135   2.649   3.844 -0.7773  1.4224 -0.5845
 3766SOL     OW11404   0.656   2.601   1.260 -0.6630 -0.0322  0.7742
 3766SOL    HW111405   0.701   2.673   1.215 -0.6800 -0.3003  0.3182
 3766SOL    HW211406   0.717   2.572   1.327  0.0159 -0.6603 -0.1003
 3767SOL     OW11407   3.283   1.708   1.591  0.0071 -0.0459  0.0820
 3767SOL    HW111408   3.375   1.681   1.597  0.4150  1.5364  2.0904
 3767SOL    HW211409   3.234   1.632   1.623  0.3825 -1.5489 -2.5659
 3768SOL     OW11410   3.900   1.869   0.832 -0.5276  0.3004  0.4787
 3768SOL    HW111411   3.936   1.932   0.769 -2.5316 -0.6601 -1.7737
 3768SOL    HW211412   3.806   1.871   0.817 -0.7854 -2.1995  1.3484
 3769SOL     OW11413   0.459   5.079   0.190 -0.0427  0.1461 -0.7618
 3769SOL    HW111414   0.430   4.991   0.214  4.3160 -1.6040 -0.8850
 3769SOL    HW211415   0.424   5.136   0.258 -0.1860 -2.2843  1.3641
 3770SOL     OW11416   2.116   4.382   1.124 -0.4215 -0.0651 -0.3647
 3770SOL    HW111417   2.056   4.333   1.069 -1.0485  0.7431 -0.4127
 3770SOL    HW211418   2.200   4.379   1.077 -0.5697 -0.6606 -0.6026
 3771SOL     OW11419   4.027   2.326   3.497  0.3121  0.4681 -0.1427
 3771SOL    HW111420   4.037   2.375   3.416  0.5138  1.7429  0.6274
 3771SOL    HW211421   4.036   2.392   3.566  0.0211 -0.5673  0.9111
 3772SOL     OW11422   2.365   1.325   0.081  0.1065 -0.0227  0.2661
 3772SOL    HW111423   2.286   1.311   0.029 -0.1815 -0.5772  0.8470
 3772SOL    HW211424   2.372   1.247   0.136  2.0978 -0.9072 -1.1105
 3773SOL     OW11425   2.544   5.451   3.580 -0.3126  0.3028  0.1413
 3773SOL    HW111426   2.477   5.436   3.513  0.3019  0.4618 -0.5156
 3773SOL    HW211427   2.616   5.492   3.533  1.6067 -2.7969  0.0830
 3774SOL     OW11428   2.159   4.961   0.622  0.0147  0.4079 -0.0106
 3774SOL    HW111429   2.219   5.016   0.571  1.8003 -0.9285  0.5491
 3774SOL    HW211430   2.173   4.873   0.588 -0.7343 -0.1146  0.9948
 3775SOL     OW11431   3.793   3.533   3.045  0.0119  0.5027 -0.2285
 3775SOL    HW111432   3.802   3.454   3.098 -0.3482 -0.4213 -1.5028
 3775SOL    HW211433   3.701   3.558   3.054 -0.1384  0.1286 -0.7102
 3776SOL     OW11434   4.742   1.775   1.524  0.5595 -0.3689  0.1924
 3776SOL    HW111435   4.742   1.863   1.485  0.0112 -0.3008  0.3452
 3776SOL    HW211436   4.788   1.785   1.607  2.3154 -0.6433 -0.7071
 3777SOL     OW11437   3.507   0.367   1.583  0.1355  0.3436  0.1403
 3777SOL    HW111438   3.596   0.339   1.607 -0.2063 -1.5337 -0.6818
 3777SOL    HW211439   3.475   0.411   1.662  1.1089 -0.6407  1.1301
 3778SOL     OW11440   2.716   4.170   0.778  0.2415  0.0791  0.4197
 3778SOL    HW111441   2.643   4.134   0.727  0.3709  2.2767 -1.4645
 3778SOL    HW211442   2.757   4.234   0.720  0.1142  3.1395  3.3782
 3779SOL     OW11443   2.032   3.787   0.237 -0.1211  0.4328 -0.4543
 3779SOL    HW111444   1.965   3.763   0.300  1.1548  1.2439  1.2715
 3779SOL    HW211445   2.024   3.882   0.227 -0.5941  0.2706 -1.8909
 3780SOL     OW11446   0.133   4.112   1.943  0.3636 -0.2578  0.2083
 3780SOL    HW111447   0.142   4.042   1.878  0.2273  0.5751 -0.7168
 3780SOL    HW211448   0.211   4.104   1.997 -0.4747 -2.2519  1.2526
 3781SOL     OW11449   0.104   5.370   2.731 -0.0998 -0.1253  0.0793
 3781SOL    HW111450   0.164   5.396   2.801 -1.1414 -0.0903  0.9770
 3781SOL    HW211451   0.050   5.300   2.769  0.1875 -1.0445 -1.1148
 3782SOL     OW11452   1.713   0.958   0.756 -0.6146  0.3484 -0.0766
 3782SOL    HW111453   1.688   1.048   0.735 -0.9224  0.0593 -0.9715
 3782SOL    HW211454   1.659   0.936   0.833 -1.3307  0.5671 -0.5095
 3783SOL     OW11455   5.141   3.331   3.826 -0.3219 -0.2129  0.3652
 3783SOL    HW111456   5.126   3.411   3.775  0.9149 -0.6856 -0.8097
 3783SOL    HW211457   5.217   3.291   3.785 -2.6242 -3.5899 -1.1045
 3784SOL     OW11458   2.109   3.925   0.914  0.2127  0.5418 -0.8762
 3784SOL    HW111459   2.052   3.924   0.838  0.5739  0.2870 -1.1439
 3784SOL    HW211460   2.182   3.982   0.890  0.4043  0.3400 -0.7766
 3785SOL     OW11461   4.532   4.202   1.923 -0.0582  0.0400  0.0601
 3785SOL    HW111462   4.570   4.123   1.884 -0.9967  0.1517 -1.1380
 3785SOL    HW211463   4.527   4.182   2.017  2.2567 -0.2273  0.1893
 3786SOL     OW11464   4.707   4.820   2.881 -0.3819 -0.4378 -0.1272
 3786SOL    HW111465   4.634   4.827   2.943 -0.4740 -0.2838 -0.2537
 3786SOL    HW211466   4.676   4.760   2.814 -0.2585 -0.6545  0.0068
 3787SOL     OW11467   0.027   0.310   2.096  0.1479 -0.0574 -0.2661
 3787SOL    HW111468   0.039   0.322   2.002 -1.4610  1.6063 -0.3179
 3787SOL    HW211469  -0.060   0.271   2.105  0.2097 -0.0376  0.5377
 3788SOL     OW11470   2.075   2.528   2.490  0.1910 -0.3459 -0.7913
 3788SOL    HW111471   2.031   2.582   2.424 -1.1997  0.8651  1.0395
 3788SOL    HW211472   2.041   2.440   2.475 -1.4335  0.2234 -0.6584
 3789SOL     OW11473   4.194   0.142   0.833  0.1494 -0.2634 -0.1452
 3789SOL    HW111474   4.147   0.059   0.822  0.4579 -0.4482 -0.0906
 3789SOL    HW211475   4.219   0.144   0.925  0.4921 -0.3027 -0.2332
 3790SOL     OW11476   0.840   4.845   3.873  0.3082 -0.3879 -0.1504
 3790SOL    HW111477   0.750   4.877   3.868  0.0332 -1.1795 -0.4417
 3790SOL    HW211478   0.850   4.790   3.795  1.2787  0.2625 -0.5050
 3791SOL     OW11479   5.161   4.199   3.242  0.4592 -0.0843  0.0709
 3791SOL    HW111480   5.151   4.279   3.189  0.0209  0.9104  1.5837
 3791SOL    HW211481   5.073   4.181   3.275  0.0531 -2.6288 -2.1290
 3792SOL     OW11482   3.282   2.169   0.606  0.2254 -0.2045 -0.6202
 3792SOL    HW111483   3.190   2.161   0.629  0.5258  1.4562  1.4571
 3792SOL    HW211484   3.324   2.092   0.645 -0.1075 -0.3900 -0.6254
 3793SOL     OW11485   0.507   1.962   0.425 -0.1652 -0.1074  0.4767
 3793SOL    HW111486   0.481   1.874   0.451  0.8804 -0.1102  1.5992
 3793SOL    HW211487   0.547   1.951   0.339  1.1269 -0.9650  1.1426
 3794SOL     OW11488   4.919   4.903   3.354 -0.0621  0.1531  0.0900
 3794SOL    HW111489   4.976   4.848   3.409 -0.2841 -0.4312 -0.2598
 3794SOL    HW211490   4.906   4.852   3.274  1.4111  1.5648 -1.1422
 3795SOL     OW11491   0.024   3.349   1.269  0.4235  0.2367 -0.6714
 3795SOL    HW111492   0.104   3.376   1.225  0.9627 -2.0917 -1.2789
 3795SOL    HW211493   0.017   3.407   1.344  1.5054  1.8767 -1.7674
 3796SOL     OW11494   0.161   2.582   0.440  0.1174  0.5731 -0.1085
 3796SOL    HW111495   0.167   2.552   0.530 -1.1698  1.6803  0.3878
 3796SOL    HW211496   0.191   2.674   0.443  2.0100  0.0668 -1.2043
 3797SOL     OW11497   2.282   0.325   2.948  0.1074  0.3762  0.1996
 3797SOL    HW111498   2.239   0.249   2.909 -0.8796  0.6613  0.6977
 3797SOL    HW211499   2.212   0.372   2.993  0.9177  0.9497  0.8948
 3798SOL     OW11500   3.964   1.890   0.281 -0.4662  0.3105  0.0445
 3798SOL    HW111501   4.050   1.929   0.263 -0.2717 -0.0873  0.0808
 3798SOL    HW211502   3.905   1.932   0.219 -0.0934  0.0383 -0.5152
 3799SOL     OW11503   2.503   4.456   0.419  0.5561 -0.0955  0.1870
 3799SOL    HW111504   2.490   4.515   0.494 -3.5265  1.0918 -1.1756
 3799SOL    HW211505   2.474   4.370   0.451 -0.2043  0.1881  0.2908
 3800SOL     OW11506   2.006   2.513   1.079  0.3390 -0.4122  0.1542
 3800SOL    HW111507   1.973   2.580   1.019 -0.7372 -0.0439  1.1064
 3800SOL    HW211508   2.039   2.443   1.022  0.5879  0.4962 -0.8546
 3801SOL     OW11509   2.531   2.186   3.297  0.1316  0.1938 -0.0308
 3801SOL    HW111510   2.507   2.175   3.206  0.0436  1.7418 -0.2276
 3801SOL    HW211511   2.461   2.239   3.335  1.2484  1.4668  0.3551
 3802SOL     OW11512   4.905   1.024   1.894 -0.3163  0.3234  0.2821
 3802SOL    HW111513   4.916   0.937   1.856 -0.7208  0.4143 -0.0593
 3802SOL    HW211514   4.839   1.066   1.838 -1.6487  0.1319  1.6558
 3803SOL     OW11515   2.904   2.120   3.813 -0.0238 -0.4031  0.0582
 3803SOL    HW111516   2.833   2.062   3.839 -1.3310  0.2770 -1.7736
 3803SOL    HW211517   2.887   2.201   3.862  1.9692 -1.4951  2.8456
 3804SOL     OW11518   3.268   5.122   0.264  0.3102 -0.3128 -0.3229
 3804SOL    HW111519   3.336   5.056   0.279 -0.9891 -1.3367  1.4925
 3804SOL    HW211520   3.187   5.079   0.292 -0.5223  2.2331  1.5240
 3805SOL     OW11521   3.134   0.056   2.765  0.1472  0.0323  0.2307
 3805SOL    HW111522   3.060   0.055   2.826 -1.9149  0.9804 -2.0939
 3805SOL    HW211523   3.094   0.058   2.679  2.9318  0.7160 -1.1542
 3806SOL     OW11524   2.704   4.864   1.709  0.5312  0.1096  0.0502
 3806SOL    HW111525   2.666   4.933   1.763 -0.9548  1.2643 -2.3056
 3806SOL    HW211526   2.635   4.842   1.647  2.7551  0.2523 -2.6415
 3807SOL     OW11527   1.488   4.097   2.583  0.1714  0.2275  0.0527
 3807SOL    HW111528   1.534   4.034   2.528 -0.7196 -1.7958  1.5431
 3807SOL    HW211529   1.552   4.122   2.650 -0.0873 -0.6036  0.6119
 3808SOL     OW11530   3.110   4.015   3.264 -0.3820 -0.1394 -0.0186
 3808SOL    HW111531   3.057   3.972   3.330  1.2451 -1.7499  0.3035
 3808SOL    HW211532   3.072   3.987   3.180 -1.0178  0.0386  0.2073
 3809SOL     OW11533   1.573   5.181   2.552  0.0557  0.8707  0.1030
 3809SOL    HW111534   1.589   5.205   2.643 -1.5760 -0.1682  0.7153
 3809SOL    HW211535   1.509   5.244   2.521  1.0449  1.5887 -0.5490
 3810SOL     OW11536   2.695   2.422   0.066  0.2374  0.0321 -0.1748
 3810SOL    HW111537   2.717   2.509   0.100  2.2700  0.1797 -1.7150
 3810SOL    HW211538   2.774   2.370   0.079 -1.4448 -2.1511  2.1806
 3811SOL     OW11539   2.250   2.991   1.838  0.2478 -0.5109 -0.6412
 3811SOL    HW111540   2.223   3.081   1.851 -1.1551 -0.9435 -0.4318
 3811SOL    HW211541   2.276   2.961   1.926  0.1584 -0.4936 -0.6093
 3812SOL     OW11542   3.437   3.007   0.692  0.6956 -0.3639  0.2331
 3812SOL    HW111543   3.421   3.092   0.650  2.0619  0.5771  1.4819
 3812SOL    HW211544   3.523   3.017   0.732  1.2345 -2.6488 -0.2481
 3813SOL     OW11545   1.334   4.633   0.266  0.2638 -0.0125 -0.0689
 3813SOL    HW111546   1.359   4.715   0.308 -0.6688  0.1670  0.1492
 3813SOL    HW211547   1.311   4.575   0.339  0.5668 -0.3523 -0.2401
 3814SOL     OW11548   2.552   3.919   3.661 -0.2520  0.3786  0.1519
 3814SOL    HW111549   2.609   3.887   3.732  0.8235  1.0292 -0.3836
 3814SOL    HW211550   2.603   3.989   3.621 -0.8056 -0.0462 -1.3347
 3815SOL     OW11551   1.365   0.521   3.722 -0.1657 -0.0580  0.4550
 3815SOL    HW111552   1.332   0.584   3.658  0.2543 -0.3142 -0.0197
 3815SOL    HW211553   1.411   0.575   3.787 -0.7757  0.2194  0.6605
 3816SOL     OW11554   2.171   1.232   0.915 -0.0655 -0.2269 -0.1401
 3816SOL    HW111555   2.155   1.138   0.906  0.1627 -0.5601  2.2163
 3816SOL    HW211556   2.245   1.238   0.975  0.7827  1.4786 -1.2824
 3817SOL     OW11557   2.096   2.313   0.893  0.4005 -0.2783  0.7347
 3817SOL    HW111558   2.182   2.284   0.862  0.9775  1.4596  0.6172
 3817SOL    HW211559   2.037   2.297   0.819  0.7362 -0.9020  0.5965
 3818SOL     OW11560   0.526   5.044   3.124  0.2306 -0.4183  0.0048
 3818SOL    HW111561   0.567   5.125   3.154 -1.0616  0.5448 -0.7379
 3818SOL    HW211562   0.475   5.070   3.048 -0.1468 -1.9627 -0.2959
 3819SOL     OW11563   2.063   0.334   0.333 -0.0478 -0.8778 -0.3322
 3819SOL    HW111564   2.122   0.346   0.258  0.6641  0.5903  0.4240
 3819SOL    HW211565   2.120   0.303   0.403 -0.2197  0.1753  0.2952
 3820SOL     OW11566   0.630   1.362   3.132 -0.0771 -0.2564  0.1427
 3820SOL    HW111567   0.538   1.380   3.109 -0.5797  0.9005  2.7414
 3820SOL    HW211568   0.675   1.445   3.117  0.3328 -0.5078 -0.0484
 3821SOL     OW11569   5.550   0.547   2.687  0.6212 -0.5525 -0.5757
 3821SOL    HW111570   5.627   0.507   2.646  0.9069 -0.5225 -0.0691
 3821SOL    HW211571   5.572   0.640   2.692  0.2254 -0.4205 -1.1520
 3822SOL     OW11572   4.820   3.290   1.064  0.0468  0.1809 -0.0870
 3822SOL    HW111573   4.846   3.200   1.083  0.9078  0.6424  1.0345
 3822SOL    HW211574   4.860   3.310   0.979 -0.2842 -0.5413 -0.4153
 3823SOL     OW11575   4.582   3.418   1.604 -0.0340  0.1761 -0.5722
 3823SOL    HW111576   4.569   3.482   1.674 -0.2578 -0.7542  0.2498
 3823SOL    HW211577   4.528   3.343   1.629  1.8056 -1.1722 -0.4704
 3824SOL     OW11578   0.549   4.397   2.918  0.0534  0.0198 -0.4022
 3824SOL    HW111579   0.471   4.385   2.864  0.1977  1.3507 -0.9498
 3824SOL    HW211580   0.520   4.455   2.989 -0.2423 -2.0183  1.2546
 3825SOL     OW11581   1.237   4.755   2.677  0.1662  0.0261 -0.3475
 3825SOL    HW111582   1.145   4.745   2.653  0.1416  0.0909 -0.2792
 3825SOL    HW211583   1.280   4.680   2.636 -0.3212 -1.5015  1.7623
 3826SOL     OW11584   3.280   1.813   1.062 -0.2305  0.2050  0.2356
 3826SOL    HW111585   3.314   1.844   1.145 -0.1532 -1.6163  0.9265
 3826SOL    HW211586   3.266   1.719   1.075 -1.9944  0.2161 -1.2111
 3827SOL     OW11587   0.546   0.760   1.831  0.0634  0.0687 -0.2759
 3827SOL    HW111588   0.592   0.743   1.913  0.3138 -2.3302 -0.8423
 3827SOL    HW211589   0.487   0.685   1.821  0.6816 -0.1728 -2.7066
 3828SOL     OW11590   2.757   2.277   1.004  0.1095 -0.4061 -0.1045
 3828SOL    HW111591   2.821   2.219   1.044  1.2069  0.7585 -0.1061
 3828SOL    HW211592   2.777   2.364   1.040 -1.4740 -0.0034 -0.1076
 3829SOL     OW11593   4.493   5.041   2.911  0.8141 -0.4393  0.0232
 3829SOL    HW111594   4.405   5.075   2.927  0.4175 -0.9008 -1.0978
 3829SOL    HW211595   4.495   4.958   2.960  1.2418  0.3773  1.4561
 3830SOL     OW11596   3.060   0.201   1.254  0.1130 -0.2623 -0.0638
 3830SOL    HW111597   2.988   0.139   1.266  0.2326 -1.1666 -3.1248
 3830SOL    HW211598   3.039   0.246   1.172  2.0030  0.9898  0.0747
 3831SOL     OW11599   1.530   2.054   0.899 -0.5318 -0.1684  0.4694
 3831SOL    HW111600   1.545   2.034   0.992 -1.1364  1.6397  1.0028
 3831SOL    HW211601   1.479   1.980   0.867 -1.2493 -0.3350  1.8885
 3832SOL     OW11602   2.743   1.030   3.051  0.5569  0.6447 -0.3077
 3832SOL    HW111603   2.790   0.987   3.122 -0.3499  0.2263  0.0538
 3832SOL    HW211604   2.670   1.075   3.095  1.0420  1.9159 -0.7646
 3833SOL     OW11605   4.903   2.204   3.290 -0.4149 -0.2898 -0.0524
 3833SOL    HW111606   4.963   2.278   3.301 -1.9488  0.7440  1.8791
 3833SOL    HW211607   4.915   2.177   3.199 -1.1058  3.5229 -1.4432
 3834SOL     OW11608   4.289   0.762   1.508 -0.0492  0.2656  0.2206
 3834SOL    HW111609   4.350   0.796   1.574 -0.7517 -0.9425  1.5631
 3834SOL    HW211610   4.341   0.700   1.457  0.0266 -0.3393  0.9999
 3835SOL     OW11611   3.960   3.685   1.829  0.5784  0.3518  0.4096
 3835SOL    HW111612   3.965   3.700   1.735  0.5562 -0.7037  0.2193
 3835SOL    HW211613   3.879   3.634   1.841  1.0833 -0.3704  0.8621
 3836SOL     OW11614   0.503   1.317   1.404 -0.2426 -0.3579 -0.3400
 3836SOL    HW111615   0.517   1.238   1.457 -1.5255  0.8184  1.9071
 3836SOL    HW211616   0.435   1.292   1.341 -2.4211 -0.4704  1.9139
 3837SOL     OW11617   2.208   2.191   1.857 -0.6052 -0.3977  0.0211
 3837SOL    HW111618   2.119   2.178   1.890 -0.8956  2.6389  0.7667
 3837SOL    HW211619   2.258   2.223   1.932  0.8860 -1.0978 -0.6224
 3838SOL     OW11620   0.407   2.495   1.512  1.2672  0.2382  0.2596
 3838SOL    HW111621   0.485   2.476   1.565  0.6687 -1.7809  0.5208
 3838SOL    HW211622   0.424   2.452   1.428  1.3656  1.7458 -0.5349
 3839SOL     OW11623   2.979   1.737   1.527  0.2743  0.2316  0.4500
 3839SOL    HW111624   3.027   1.766   1.605 -0.9991 -1.4509  1.9306
 3839SOL    HW211625   2.997   1.644   1.521 -1.4970 -0.1163  0.0978
 3840SOL     OW11626   3.776   1.384   0.209  0.4854 -0.2324  0.4318
 3840SOL    HW111627   3.772   1.328   0.132  3.6877 -0.4876  0.3383
 3840SOL    HW211628   3.684   1.398   0.233 -0.5698 -1.3488 -2.5086
 3841SOL     OW11629   1.656   2.912   1.322 -0.0157  0.1413  0.5758
 3841SOL    HW111630   1.680   2.988   1.269  2.4464 -0.0146  1.3426
 3841SOL    HW211631   1.648   2.840   1.259 -1.9307  0.8912 -0.1013
 3842SOL     OW11632   0.544   4.970   0.534 -0.0374  0.3829 -0.3528
 3842SOL    HW111633   0.461   5.017   0.542  0.1332  0.5698  0.3945
 3842SOL    HW211634   0.611   5.039   0.540  0.2062  0.0922  0.4231
 3843SOL     OW11635   5.363   1.759   1.926  0.1283  0.1281  0.0009
 3843SOL    HW111636   5.431   1.741   1.861 -1.1953 -1.7743 -0.9643
 3843SOL    HW211637   5.362   1.680   1.981 -0.3596  0.7198  0.8560
 3844SOL     OW11638   2.404   2.226   0.443 -0.5423 -0.6712 -0.1304
 3844SOL    HW111639   2.378   2.300   0.498 -1.9387 -1.3414  0.1387
 3844SOL    HW211640   2.391   2.149   0.498 -1.7068 -1.3277 -1.2913
 3845SOL     OW11641   2.723   3.930   1.937 -0.4147  0.5171  0.8833
 3845SOL    HW111642   2.742   3.966   2.024 -0.5612  1.1115  0.6804
 3845SOL    HW211643   2.633   3.958   1.919  0.1128  1.6892 -0.0697
 3846SOL     OW11644   2.920   4.711   0.053  0.0269 -0.0284  0.3665
 3846SOL    HW111645   2.856   4.697  -0.017  1.5092 -1.2216 -0.8273
 3846SOL    HW211646   2.963   4.793   0.029  0.5211 -0.4265 -0.1404
 3847SOL     OW11647   1.452   3.637   0.619  0.2062  0.2034  0.7473
 3847SOL    HW111648   1.524   3.640   0.682  2.0727  2.2328 -1.3177
 3847SOL    HW211649   1.440   3.544   0.600 -0.0093 -0.4401  3.4912
 3848SOL     OW11650   3.649   1.392   0.922 -0.3569  0.0709  0.0843
 3848SOL    HW111651   3.672   1.300   0.906 -0.7014 -0.0383  0.2038
 3848SOL    HW211652   3.674   1.437   0.841 -0.1780 -0.1277  0.0284
 3849SOL     OW11653   5.236   0.872   1.781  0.2227 -0.0265 -0.3606
 3849SOL    HW111654   5.202   0.810   1.845  1.2789 -0.7269 -0.4412
 3849SOL    HW211655   5.284   0.937   1.832 -0.5654  0.5190 -0.3048
 3850SOL     OW11656   0.539   3.557   2.416  0.5064 -0.6846 -0.2664
 3850SOL    HW111657   0.479   3.632   2.415 -0.6495 -1.5786 -0.6512
 3850SOL    HW211658   0.615   3.586   2.367  1.1410  1.0458  1.5937
 3851SOL     OW11659   4.004   4.035   1.630  0.2542  0.1784 -0.1165
 3851SOL    HW111660   3.988   4.049   1.723 -1.5399  1.0150 -0.4908
 3851SOL    HW211661   3.970   3.947   1.612  0.9041 -0.1163  0.0609
 3852SOL     OW11662   1.759   3.894   0.951 -0.5426  0.0552  0.0206
 3852SOL    HW111663   1.754   3.964   1.016 -2.1386 -0.4301  0.4536
 3852SOL    HW211664   1.699   3.921   0.881  0.4947  0.1471 -0.8749
 3853SOL     OW11665   3.616   5.069   3.832 -0.1004  0.1219 -0.1520
 3853SOL    HW111666   3.650   4.989   3.872 -0.5708  0.0811  0.1737
 3853SOL    HW211667   3.524   5.050   3.814 -1.2912  1.7334  3.2547
 3854SOL     OW11668   4.537   5.183   2.376 -0.0894  0.5868  0.1247
 3854SOL    HW111669   4.571   5.120   2.313  0.0773 -0.2360  1.0053
 3854SOL    HW211670   4.531   5.134   2.458  1.3509  2.0653  1.1805
 3855SOL     OW11671   2.344   5.514   2.955  0.8181  0.0258 -0.1573
 3855SOL    HW111672   2.327   5.426   2.922 -1.9777  0.0837  0.8840
 3855SOL    HW211673   2.264   5.563   2.934  1.8993  2.0428  0.2299
 3856SOL     OW11674   2.586   0.914   0.515 -0.3086 -0.4754 -0.3356
 3856SOL    HW111675   2.647   0.948   0.450  1.5406 -1.8790  0.5616
 3856SOL    HW211676   2.627   0.833   0.547 -2.3969 -1.2123  0.7104
 3857SOL     OW11677   3.436   1.010   2.715  0.6544 -0.3424  0.2407
 3857SOL    HW111678   3.402   1.002   2.626  0.9039  0.6926  0.0437
 3857SOL    HW211679   3.362   0.986   2.771 -0.2514  1.2398 -0.2049
 3858SOL     OW11680   2.984   0.493   1.449 -0.2103  0.0710  0.4090
 3858SOL    HW111681   2.925   0.514   1.521  1.4128  1.5890  1.3507
 3858SOL    HW211682   2.926   0.470   1.376 -1.9639  1.5170  1.2863
 3859SOL     OW11683   2.107   3.656   1.312  0.1454  0.0170  0.2812
 3859SOL    HW111684   2.164   3.732   1.327  1.6662 -0.8275 -0.8990
 3859SOL    HW211685   2.049   3.684   1.241 -0.4671  0.6477  1.0157
 3860SOL     OW11686   1.442   2.655   3.852  0.2152 -0.0007 -0.2546
 3860SOL    HW111687   1.517   2.599   3.872  0.8115  0.8556  0.0002
 3860SOL    HW211688   1.413   2.627   3.766  1.1589 -0.0083 -0.5854
 3861SOL     OW11689   2.468   2.134   2.977 -0.6087  0.0044 -0.1853
 3861SOL    HW111690   2.459   2.228   2.989  0.6207 -0.0313  1.2942
 3861SOL    HW211691   2.403   2.112   2.910 -1.1772  1.8243 -0.2822
 3862SOL     OW11692   1.388   2.744   1.937  0.0250 -0.0472 -0.1613
 3862SOL    HW111693   1.361   2.820   1.885  3.0703 -0.3013 -2.3236
 3862SOL    HW211694   1.318   2.680   1.923 -0.8725  1.0914 -1.1878
 3863SOL     OW11695   4.303   4.487   1.367  0.1497  0.4727 -0.6316
 3863SOL    HW111696   4.263   4.486   1.454  1.1535 -1.5130 -0.1231
 3863SOL    HW211697   4.397   4.483   1.385  0.4095  1.0678 -1.8114
 3864SOL     OW11698   5.403   3.961   2.212  0.1936  0.1771 -0.6203
 3864SOL    HW111699   5.324   3.917   2.244  0.1335  0.3054 -0.5933
 3864SOL    HW211700   5.418   3.921   2.126  1.3839 -1.4812  0.3017
 3865SOL     OW11701   2.576   4.886   0.342 -0.2245 -0.3001 -0.3544
 3865SOL    HW111702   2.627   4.819   0.296  1.8176  0.9426 -0.0066
 3865SOL    HW211703   2.523   4.926   0.274  1.1984  0.1003 -1.2755
 3866SOL     OW11704   2.002   0.198   0.066 -0.2626  0.1529  0.1528
 3866SOL    HW111705   1.935   0.265   0.053  0.4685  1.4314  2.4446
 3866SOL    HW211706   1.998   0.178   0.160  0.4199 -2.1046 -0.2329
 3867SOL     OW11707   4.170   3.892   0.213 -0.0059  0.1923 -0.1189
 3867SOL    HW111708   4.184   3.855   0.300  2.7927 -0.3385 -0.6992
 3867SOL    HW211709   4.076   3.880   0.197 -0.7999  1.0952  3.1113
 3868SOL     OW11710   3.814   0.908   0.674 -0.2409  0.5063  0.4366
 3868SOL    HW111711   3.762   0.984   0.700  0.2273  0.8174  0.4724
 3868SOL    HW211712   3.832   0.862   0.756 -3.0362 -1.3219  0.1723
 3869SOL     OW11713   2.278   2.155   1.530  0.5170 -0.1898  0.0768
 3869SOL    HW111714   2.242   2.169   1.442  1.0693  2.7801  0.2187
 3869SOL    HW211715   2.371   2.173   1.520  0.8000 -0.9993  1.0867
 3870SOL     OW11716   5.172   3.395   1.377  0.2331 -0.2370 -0.6550
 3870SOL    HW111717   5.151   3.403   1.284  1.7057 -0.0063 -0.9952
 3870SOL    HW211718   5.191   3.301   1.388  2.0207  0.0483 -1.0636
 3871SOL     OW11719   2.072   0.596   0.147  0.0325  0.6336 -1.0601
 3871SOL    HW111720   2.124   0.517   0.134  2.4950  2.1019 -0.7526
 3871SOL    HW211721   2.042   0.590   0.238 -1.6443 -0.8814 -1.6386
 3872SOL     OW11722   4.199   4.737   1.277  0.1514 -0.0759 -0.7302
 3872SOL    HW111723   4.195   4.642   1.284  1.6490 -0.1716 -0.8597
 3872SOL    HW211724   4.204   4.755   1.183 -0.8158  0.1902 -0.7466
 3873SOL     OW11725   1.630   0.354   0.468  0.4313  0.2793  0.7120
 3873SOL    HW111726   1.668   0.423   0.415  1.4011 -1.1805 -0.5552
 3873SOL    HW211727   1.558   0.397   0.515 -0.6638  1.5836 -1.9707
 3874SOL     OW11728   3.674   0.030   3.591  0.1081 -0.0091  0.0597
 3874SOL    HW111729   3.697  -0.005   3.678 -1.1793 -2.2372 -0.4039
 3874SOL    HW211730   3.738  -0.009   3.532 -1.9574 -2.6647 -0.6122
 3875SOL     OW11731   1.858   1.726   2.817  0.4070  0.4841 -0.2176
 3875SOL    HW111732   1.813   1.810   2.812 -4.1953 -1.6598 -0.2902
 3875SOL    HW211733   1.863   1.707   2.910  0.0607  0.2632 -0.2389
 3876SOL     OW11734   1.241   3.615   0.262 -0.0991 -0.3738 -0.2676
 3876SOL    HW111735   1.190   3.692   0.239 -1.2715 -1.3892 -1.2452
 3876SOL    HW211736   1.230   3.606   0.357 -0.1857  0.4820 -0.1897
 3877SOL     OW11737   2.134   4.663   1.789 -0.7459  0.8937 -0.3675
 3877SOL    HW111738   2.066   4.722   1.822 -2.0761  0.6048 -2.3976
 3877SOL    HW211739   2.098   4.575   1.801  0.2973  0.5754  0.6387
 3878SOL     OW11740   3.567   1.295   1.384 -0.1007  0.4038 -0.4217
 3878SOL    HW111741   3.603   1.247   1.458 -1.3569  0.9986  0.6261
 3878SOL    HW211742   3.502   1.236   1.346  0.2654  0.2513 -0.8217
 3879SOL     OW11743   0.571   4.009   2.336  0.7553  0.1579 -0.4646
 3879SOL    HW111744   0.500   3.988   2.396  0.6258 -0.2106 -0.7469
 3879SOL    HW211745   0.604   4.093   2.367  1.0008 -0.2561  0.4039
 3880SOL     OW11746   4.808   2.635   0.098 -0.1176 -0.6792 -0.4434
 3880SOL    HW111747   4.836   2.553   0.140 -0.0616  0.1155  1.1358
 3880SOL    HW211748   4.743   2.672   0.158 -0.4317  0.2589 -1.3313
 3881SOL     OW11749   4.489   4.133   2.172 -0.2643  0.3273 -0.3367
 3881SOL    HW111750   4.401   4.097   2.187  1.3013 -3.7773  0.2194
 3881SOL    HW211751   4.506   4.188   2.248 -2.1375  0.7607 -0.1883
 3882SOL     OW11752   4.684   0.325   2.920  0.6884  0.0643 -0.0743
 3882SOL    HW111753   4.696   0.328   3.015  0.6663  0.5516 -0.0881
 3882SOL    HW211754   4.646   0.409   2.898  1.0275  0.0907 -0.5671
 3883SOL     OW11755   3.501   5.332   3.524  0.2195  0.2168 -0.3766
 3883SOL    HW111756   3.435   5.386   3.569  0.5965  0.1609  0.2506
 3883SOL    HW211757   3.571   5.321   3.588  1.2704  1.0445 -1.3290
 3884SOL     OW11758   5.150   4.840   1.810  0.5960 -0.3039  0.3628
 3884SOL    HW111759   5.246   4.837   1.810  0.6362 -3.7523 -1.4381
 3884SOL    HW211760   5.128   4.902   1.740  1.3228  2.6549  2.5499
 3885SOL     OW11761   2.379   1.532   2.681 -0.1380  0.2780 -0.2912
 3885SOL    HW111762   2.429   1.495   2.608  1.5502  3.0124 -0.6960
 3885SOL    HW211763   2.387   1.627   2.669 -3.1844  0.8623  1.2531
 3886SOL     OW11764   4.135   5.399   2.434 -0.1906 -0.7670  0.4286
 3886SOL    HW111765   4.167   5.471   2.487 -0.6277 -0.3177  0.0889
 3886SOL    HW211766   4.141   5.322   2.491  1.5878 -0.7299  0.3373
 3887SOL     OW11767   0.508   1.098   1.551  0.2333 -0.1222 -0.0065
 3887SOL    HW111768   0.538   1.009   1.564 -1.1935 -0.7593 -0.8222
 3887SOL    HW211769   0.500   1.135   1.639 -1.1181 -1.4927  0.4841
 3888SOL     OW11770   1.787   1.613   1.645 -0.6059  0.5100 -0.4779
 3888SOL    HW111771   1.753   1.700   1.664  1.6245  0.8226  2.8431
 3888SOL    HW211772   1.715   1.554   1.667 -1.4350  1.4072 -0.7062
 3889SOL     OW11773   1.635   3.987   3.841 -0.1649 -0.4574  0.1789
 3889SOL    HW111774   1.621   3.893   3.849  0.5226 -0.6714 -1.0395
 3889SOL    HW211775   1.730   3.998   3.836 -0.2039  0.3594  0.8525
 3890SOL     OW11776   1.782   3.719   3.426  0.1564 -0.5713 -0.1842
 3890SOL    HW111777   1.732   3.755   3.353  0.7471  0.7087  0.0093
 3890SOL    HW211778   1.869   3.759   3.418  0.4806 -1.0497  0.7343
 3891SOL     OW11779   1.680   2.214   2.822 -0.1387 -0.4495  0.1411
 3891SOL    HW111780   1.732   2.273   2.768  0.3136 -1.0306 -0.0747
 3891SOL    HW211781   1.589   2.230   2.795 -0.0095  0.0199 -0.0274
 3892SOL     OW11782   3.678   4.694   3.139 -0.1086  0.6453 -0.1600
 3892SOL    HW111783   3.696   4.732   3.225 -0.8581 -0.1606  0.3677
 3892SOL    HW211784   3.583   4.684   3.137  0.0446 -1.0774 -0.3166
 3893SOL     OW11785   1.806   3.115   1.980  0.0419  0.2736  0.3986
 3893SOL    HW111786   1.752   3.162   1.917  0.4500  0.3048  0.0672
 3893SOL    HW211787   1.773   3.025   1.978 -0.8396  0.5721  1.1446
 3894SOL     OW11788   1.321   4.525   2.502  0.5256 -0.4619 -0.3061
 3894SOL    HW111789   1.270   4.444   2.497  1.9233 -1.3748 -0.2102
 3894SOL    HW211790   1.391   4.506   2.565  0.3603  1.1319  0.4306
 3895SOL     OW11791   3.814   4.437   2.017  0.0730 -0.2955 -0.3929
 3895SOL    HW111792   3.753   4.472   2.082  0.3399  0.9271 -0.7780
 3895SOL    HW211793   3.893   4.417   2.067 -0.4169 -1.2932 -0.0003
 3896SOL     OW11794   3.381   0.196   1.428 -0.1141 -0.4063  0.4165
 3896SOL    HW111795   3.313   0.246   1.382 -0.3116 -0.5370  0.5649
 3896SOL    HW211796   3.435   0.263   1.470 -0.8856 -0.3315  1.3360
 3897SOL     OW11797   2.419   5.443   1.349 -0.4395  0.1304  0.2165
 3897SOL    HW111798   2.439   5.365   1.401  1.3901  2.2182  2.8865
 3897SOL    HW211799   2.326   5.460   1.365 -1.1254 -1.9365 -1.1754
 3898SOL     OW11800   1.324   1.265   2.869 -0.0657  0.4192 -0.1034
 3898SOL    HW111801   1.366   1.178   2.866 -0.6657  0.1360 -1.0066
 3898SOL    HW211802   1.274   1.269   2.787 -2.5771  0.3459  1.3192
 3899SOL     OW11803   4.852   4.713   1.191 -0.2864 -0.0506 -0.0176
 3899SOL    HW111804   4.762   4.738   1.168 -0.1682  2.6233  1.9117
 3899SOL    HW211805   4.907   4.759   1.127 -0.2153 -0.5798 -0.3481
 3900SOL     OW11806   1.193   0.221   3.099  0.0672 -0.1500  0.0497
 3900SOL    HW111807   1.169   0.305   3.137 -0.6688 -0.1456 -0.3972
 3900SOL    HW211808   1.111   0.187   3.063  0.6919 -0.2291 -1.3649
 3901SOL     OW11809   5.264   4.378   2.577 -0.5828  0.3023 -0.1188
 3901SOL    HW111810   5.209   4.341   2.509  1.6638  1.6373 -2.8642
 3901SOL    HW211811   5.292   4.302   2.629  0.0878 -1.2697 -2.6250
 3902SOL     OW11812   2.298   1.694   2.097  0.7710  0.5853 -0.1746
 3902SOL    HW111813   2.321   1.783   2.124 -0.1951  0.2197  2.1184
 3902SOL    HW211814   2.350   1.637   2.155 -0.2882 -0.2995 -0.0568
 3903SOL     OW11815   1.722   4.460   3.633  0.2544  0.4194  0.4435
 3903SOL    HW111816   1.786   4.434   3.699  0.9355 -0.5703 -0.5850
 3903SOL    HW211817   1.772   4.469   3.553 -1.1025 -2.1998 -0.8338
 3904SOL     OW11818   3.514   3.995   0.768 -0.2043 -0.0569  0.1140
 3904SOL    HW111819   3.448   4.063   0.781  0.8513  0.4632  3.7988
 3904SOL    HW211820   3.589   4.040   0.730 -0.2123  0.4025  0.6434
 3905SOL     OW11821   2.485   0.464   3.570 -0.1628 -0.3639  0.8451
 3905SOL    HW111822   2.459   0.427   3.654 -1.2739  1.4940  1.3727
 3905SOL    HW211823   2.534   0.544   3.593  1.0043 -0.7174 -0.2608
 3906SOL     OW11824   3.717   1.251   1.955  0.5975 -0.5637  0.0369
 3906SOL    HW111825   3.727   1.157   1.968 -0.2101 -0.7857 -0.8807
 3906SOL    HW211826   3.642   1.260   1.897  0.0691  0.7007  0.8811
 3907SOL     OW11827   1.916   4.258   2.506  0.1464 -0.2208 -0.3037
 3907SOL    HW111828   1.928   4.181   2.452  0.5845  0.6824 -1.5476
 3907SOL    HW211829   1.884   4.325   2.446 -3.1939 -0.1837  1.2827
 3908SOL     OW11830   1.536   0.811   0.917  0.0561  0.2677  0.2285
 3908SOL    HW111831   1.461   0.788   0.861  0.7532  1.7256 -1.4019
 3908SOL    HW211832   1.563   0.728   0.955 -0.3895 -0.8489 -1.7192
 3909SOL     OW11833   4.792   3.702   0.338 -0.3043  0.8228 -0.7046
 3909SOL    HW111834   4.877   3.744   0.326 -0.0960  0.5458 -0.2337
 3909SOL    HW211835   4.729   3.772   0.322  0.0407  1.3581  0.1438
 3910SOL     OW11836   3.115   2.100   0.130  0.3374  0.2278  0.5239
 3910SOL    HW111837   3.130   2.012   0.096 -0.5561  0.0948  0.4452
 3910SOL    HW211838   3.165   2.103   0.212  0.5413 -0.2761  0.4236
 3911SOL     OW11839   3.104   1.443   2.812  0.6365 -0.1733  0.0087
 3911SOL    HW111840   3.081   1.513   2.873  1.8407  1.1813 -1.0256
 3911SOL    HW211841   3.199   1.435   2.820  0.6486 -0.8604 -0.7557
 3912SOL     OW11842   1.027   0.941   2.002 -0.7163 -0.0232 -0.1910
 3912SOL    HW111843   0.997   0.851   1.993  2.8915 -1.5434  1.0859
 3912SOL    HW211844   1.075   0.958   1.921 -0.6752  0.4531 -0.0691
 3913SOL     OW11845   2.783   3.940   0.441 -0.8526  0.2490  0.8611
 3913SOL    HW111846   2.782   3.875   0.370 -0.6595 -0.9884  1.9444
 3913SOL    HW211847   2.809   3.890   0.518  1.9712  2.1102  1.2659
 3914SOL     OW11848   3.796   3.768   2.647 -0.5008  0.3109 -0.5386
 3914SOL    HW111849   3.863   3.699   2.647 -1.3057 -0.5552 -2.5359
 3914SOL    HW211850   3.795   3.800   2.737  1.4080 -0.7987 -0.0533
 3915SOL     OW11851   2.838   0.631   1.936  0.0865  0.1739 -0.9331
 3915SOL    HW111852   2.862   0.656   2.026 -0.3665 -0.3212 -0.6705
 3915SOL    HW211853   2.912   0.579   1.905  0.7919  1.3546 -1.2887
 3916SOL     OW11854   0.796   2.203   0.525 -0.7046  0.0562  0.1954
 3916SOL    HW111855   0.863   2.270   0.511 -1.9906  1.1562 -0.9864
 3916SOL    HW211856   0.747   2.234   0.601 -1.2777  0.4739 -0.3301
 3917SOL     OW11857   1.716   0.861   1.269 -0.1635 -0.0987  0.5090
 3917SOL    HW111858   1.722   0.778   1.316  1.7407 -1.0306 -1.2454
 3917SOL    HW211859   1.787   0.914   1.304  0.0746 -0.0856  0.0075
 3918SOL     OW11860   2.991   0.470   3.497  0.4890 -0.3951 -0.0331
 3918SOL    HW111861   2.955   0.392   3.538 -0.2094  1.4496  3.2245
 3918SOL    HW211862   2.924   0.498   3.435 -0.5522 -0.8032  0.8811
 3919SOL     OW11863   4.023   2.492   0.680 -0.0411  0.2279  0.4569
 3919SOL    HW111864   4.039   2.586   0.669  1.2138 -0.0809 -0.7212
 3919SOL    HW211865   3.977   2.466   0.601  1.4839 -0.4954 -0.2436
 3920SOL     OW11866   0.524   1.035   0.978  0.7727 -0.4177 -0.0878
 3920SOL    HW111867   0.545   1.068   0.890 -0.7273  0.1027 -0.2774
 3920SOL    HW211868   0.436   0.999   0.970  0.1173  0.7343  1.4678
 3921SOL     OW11869   4.461   0.313   0.373  0.5500 -0.4543 -0.8878
 3921SOL    HW111870   4.411   0.308   0.455 -0.1122 -0.1712 -1.2634
 3921SOL    HW211871   4.530   0.376   0.391 -1.8522  2.6646 -1.6555
 3922SOL     OW11872   5.194   5.545   3.564  0.5626  0.1696 -0.0736
 3922SOL    HW111873   5.226   5.604   3.496  0.8083 -0.0018 -0.1075
 3922SOL    HW211874   5.155   5.602   3.629 -0.6523  0.2851 -0.8676
 3923SOL     OW11875   3.216   2.021   0.383 -0.7449  0.3260  0.5802
 3923SOL    HW111876   3.262   2.085   0.438  1.3926 -0.6170 -0.0089
 3923SOL    HW211877   3.205   1.945   0.439 -0.0512 -0.0404  0.2361
 3924SOL     OW11878   3.536   2.719   1.339 -1.0804 -0.2839 -0.8130
 3924SOL    HW111879   3.560   2.779   1.410  1.1306 -1.1634 -0.7222
 3924SOL    HW211880   3.443   2.702   1.353 -1.1550  1.0686  0.7133
 3925SOL     OW11881   2.619   3.539   2.139 -0.7657  0.3439  0.0455
 3925SOL    HW111882   2.665   3.597   2.199  1.8884 -0.7936 -0.7313
 3925SOL    HW211883   2.641   3.451   2.168 -0.2609 -0.2360 -1.9454
 3926SOL     OW11884   2.613   2.576   3.664  0.2696 -0.8174  0.0276
 3926SOL    HW111885   2.548   2.511   3.636 -0.1274 -0.6032  0.4395
 3926SOL    HW211886   2.693   2.553   3.616 -0.0773 -1.1569 -0.3913
 3927SOL     OW11887   2.978   0.192   1.552  0.0142 -0.3408  0.6502
 3927SOL    HW111888   2.966   0.244   1.472  1.9866 -0.7804  0.0096
 3927SOL    HW211889   3.027   0.250   1.610 -0.7669 -0.2955  1.2776
 3928SOL     OW11890   4.150   5.052   0.095  0.5829 -0.2719  0.0261
 3928SOL    HW111891   4.061   5.020   0.082  1.3836 -2.7166  0.0671
 3928SOL    HW211892   4.194   4.981   0.142  2.3053  1.2838  0.8928
 3929SOL     OW11893   2.284   5.248   2.880 -0.5693 -0.0317  0.0768
 3929SOL    HW111894   2.330   5.220   2.801 -0.9419 -0.8371  0.1306
 3929SOL    HW211895   2.286   5.170   2.937 -0.7219  0.3873  0.6652
 3930SOL     OW11896   2.497   1.583   1.015  0.4238 -0.4846 -0.1455
 3930SOL    HW111897   2.499   1.673   1.047 -1.3854 -0.8048  0.9843
 3930SOL    HW211898   2.404   1.561   1.008  0.7471 -1.3802 -3.0691
 3931SOL     OW11899   2.944   0.086   2.538  0.1832  0.1102 -0.1578
 3931SOL    HW111900   2.944   0.077   2.443  0.1375  1.2000 -0.2742
 3931SOL    HW211901   2.877   0.152   2.556 -1.8409 -2.1002  0.8658
 3932SOL     OW11902   0.966   3.683   2.096 -0.2876 -0.0943  0.0616
 3932SOL    HW111903   1.005   3.610   2.048  0.8893  0.9140 -0.5709
 3932SOL    HW211904   1.034   3.750   2.098 -0.9527  0.5972  1.5804
 3933SOL     OW11905   2.621   2.392   0.348 -0.2600 -0.2815  0.3111
 3933SOL    HW111906   2.562   2.321   0.373  0.6561 -1.2326 -0.1884
 3933SOL    HW211907   2.638   2.377   0.255 -0.7202  1.0937 -0.0264
 3934SOL     OW11908   3.851   2.166   3.702 -0.2274  0.3129 -0.0403
 3934SOL    HW111909   3.892   2.227   3.640  0.3154 -0.0563 -0.0511
 3934SOL    HW211910   3.790   2.220   3.752  1.0245  1.0987  0.6898
 3935SOL     OW11911   1.629   2.260   1.587  0.3601  0.7138 -0.0506
 3935SOL    HW111912   1.639   2.293   1.677  1.5342 -2.1079  0.9929
 3935SOL    HW211913   1.543   2.292   1.560 -0.1372  1.4979  2.1703
 3936SOL     OW11914   5.560   1.819   1.675 -0.2427  0.1868  0.1948
 3936SOL    HW111915   5.578   1.891   1.614 -0.1154 -0.4089 -0.4864
 3936SOL    HW211916   5.554   1.741   1.619  0.3983 -0.4612  1.0012
 3937SOL     OW11917   5.164   3.299   2.638 -0.4467  0.7233 -0.9257
 3937SOL    HW111918   5.095   3.334   2.694 -0.1322  1.2852 -0.8879
 3937SOL    HW211919   5.181   3.369   2.575  1.6122  1.4746  0.3797
 3938SOL     OW11920   4.308   4.286   0.442 -0.1013  0.1501  0.0765
 3938SOL    HW111921   4.323   4.235   0.363  0.6761 -1.1861  1.0359
 3938SOL    HW211922   4.394   4.317   0.468 -0.4634  1.3071 -0.0526
 3939SOL     OW11923   1.890   3.350   1.115  0.1140  0.1176 -0.4645
 3939SOL    HW111924   1.876   3.437   1.077  1.3018  0.2372 -0.6851
 3939SOL    HW211925   1.910   3.294   1.040  0.6047 -0.0573 -0.2111
 3940SOL     OW11926   0.209   1.357   0.852  0.4833 -0.2761  0.0801
 3940SOL    HW111927   0.219   1.295   0.780  0.9753  0.2069 -0.2712
 3940SOL    HW211928   0.298   1.373   0.883  0.2308 -1.1124  1.3517
 3941SOL     OW11929   5.481   0.578   1.781 -0.0614  0.4315  0.1279
 3941SOL    HW111930   5.415   0.648   1.777 -0.0558  0.4983  0.9108
 3941SOL    HW211931   5.441   0.510   1.835 -0.7984 -1.0155 -2.1250
 3942SOL     OW11932   4.682   2.442   3.154  0.7406 -0.4146 -0.1374
 3942SOL    HW111933   4.768   2.465   3.118  0.0564  1.6483 -0.5731
 3942SOL    HW211934   4.691   2.458   3.248  0.8533 -0.1801 -0.1851
 3943SOL     OW11935   4.610   4.662   0.392 -0.6881  0.2529  0.2212
 3943SOL    HW111936   4.572   4.703   0.314 -1.5687  1.5293  1.2781
 3943SOL    HW211937   4.678   4.604   0.357 -0.7480  1.1199 -1.4676
 3944SOL     OW11938   0.306   3.058   1.427  0.1710 -0.4694  0.6176
 3944SOL    HW111939   0.368   2.989   1.405 -0.6604 -0.8222 -0.7387
 3944SOL    HW211940   0.353   3.139   1.407 -0.1557 -0.7554 -1.4932
 3945SOL     OW11941   5.088   1.081   3.063  0.0872  0.1483 -0.0951
 3945SOL    HW111942   5.120   1.125   2.985 -0.3211  0.1377 -0.2713
 3945SOL    HW211943   5.156   1.096   3.129 -1.7676  4.7516  1.2124
 3946SOL     OW11944   1.958   0.927   2.687 -0.3918 -0.1827 -0.3653
 3946SOL    HW111945   1.902   0.887   2.754 -1.0464 -1.0021 -1.3685
 3946SOL    HW211946   1.986   0.853   2.632  1.5080  0.2381 -0.0370
 3947SOL     OW11947   4.242   4.283   3.206  0.9984  0.3008 -0.4164
 3947SOL    HW111948   4.308   4.276   3.275 -0.2545  0.5369  0.8667
 3947SOL    HW211949   4.287   4.326   3.133  1.8690  1.9367  1.0089
 3948SOL     OW11950   1.996   4.132   1.804  0.3344 -0.3598 -0.3679
 3948SOL    HW111951   1.930   4.132   1.734  0.4622  0.6038 -0.5036
 3948SOL    HW211952   2.016   4.039   1.818 -0.2119 -0.6031 -1.1186
 3949SOL     OW11953   4.868   2.202   1.721  0.4880 -0.3033  0.4308
 3949SOL    HW111954   4.796   2.258   1.692 -0.9486 -2.3610 -0.2137
 3949SOL    HW211955   4.833   2.158   1.798  1.5283 -0.4809  0.8195
 3950SOL     OW11956   3.524   4.177   1.823  0.4096  0.4012  0.4499
 3950SOL    HW111957   3.492   4.109   1.764  0.2721  0.3126  0.6271
 3950SOL    HW211958   3.446   4.219   1.858  0.4236 -0.9261  2.1762
 3951SOL     OW11959   0.273   2.737   1.468 -0.1085 -0.0094  0.0125
 3951SOL    HW111960   0.326   2.658   1.466 -0.5011 -0.2683 -0.5873
 3951SOL    HW211961   0.267   2.764   1.376 -2.1577 -0.7885 -0.1391
 3952SOL     OW11962   5.568   2.123   3.682 -0.4276 -0.2415  0.3558
 3952SOL    HW111963   5.638   2.188   3.694 -0.5193 -0.1080  0.1696
 3952SOL    HW211964   5.613   2.039   3.678 -0.0822 -0.0016 -1.7497
 3953SOL     OW11965   2.321   4.316   2.919 -0.1170 -0.4450  0.2198
 3953SOL    HW111966   2.239   4.355   2.950  0.2823  1.1147 -0.5800
 3953SOL    HW211967   2.296   4.227   2.892 -1.5461 -0.0098 -0.0032
 3954SOL     OW11968   3.902   0.493   1.316 -0.0963  0.3754 -0.4503
 3954SOL    HW111969   3.989   0.473   1.283 -0.6509 -1.5366 -0.8521
 3954SOL    HW211970   3.859   0.539   1.243 -0.5796 -1.8698 -1.6681
 3955SOL     OW11971   5.203   3.686   2.678 -0.0096  0.2757 -0.3637
 3955SOL    HW111972   5.111   3.665   2.660  0.2354 -1.8959  0.7165
 3955SOL    HW211973   5.199   3.758   2.741 -0.9994 -0.4856  0.4626
 3956SOL     OW11974   2.702   1.872   1.599 -0.0155  0.2460 -0.0620
 3956SOL    HW111975   2.774   1.823   1.560 -0.9972 -0.3832 -1.1603
 3956SOL    HW211976   2.696   1.840   1.689  0.2579 -0.6170 -0.3430
 3957SOL     OW11977   3.326   5.523   2.222 -0.3475  0.3125  0.3172
 3957SOL    HW111978   3.252   5.557   2.172  2.7530  1.7768 -3.8339
 3957SOL    HW211979   3.374   5.601   2.251  0.3815 -0.5843  1.6428
 3958SOL     OW11980   1.354   0.278   0.204 -0.5066 -0.2182 -0.2389
 3958SOL    HW111981   1.324   0.195   0.242 -2.3154  0.4799 -0.0411
 3958SOL    HW211982   1.273   0.327   0.188  0.5252  1.4722 -0.4429
 3959SOL     OW11983   3.018   1.811   1.794  0.6663  0.2431  0.4214
 3959SOL    HW111984   3.068   1.761   1.858  0.2977 -0.6116  0.0604
 3959SOL    HW211985   3.008   1.897   1.833  0.5701 -0.2219  1.4524
 3960SOL     OW11986   3.522   2.852   3.160 -0.1392  0.1616  0.2348
 3960SOL    HW111987   3.561   2.938   3.175 -0.3120  0.0427  1.4636
 3960SOL    HW211988   3.472   2.863   3.079 -0.7983  1.4568  0.7784
 3961SOL     OW11989   1.494   3.741   0.357 -0.4475 -0.4505 -0.0414
 3961SOL    HW111990   1.535   3.655   0.347 -0.4251 -0.3771 -0.6020
 3961SOL    HW211991   1.458   3.740   0.446 -0.8500 -1.2041 -0.2083
 3962SOL     OW11992   3.462   4.154   2.462  0.2552 -0.0810  0.2734
 3962SOL    HW111993   3.393   4.087   2.465  1.1790 -1.0379  1.2469
 3962SOL    HW211994   3.479   4.166   2.369 -1.1764  0.1383  0.0151
 3963SOL     OW11995   3.860   4.920   2.674  0.1915 -0.2374  0.1927
 3963SOL    HW111996   3.829   4.834   2.647  0.4405 -0.5065  0.7516
 3963SOL    HW211997   3.805   4.943   2.749  1.3650 -0.7591  1.2495
 3964SOL     OW11998   3.253   3.182   3.616  0.4940  0.6801  0.2789
 3964SOL    HW111999   3.224   3.097   3.650  0.5335  0.7479  0.4819
 3964SOL    HW212000   3.172   3.228   3.594  0.4296  0.9713  1.0886
 3965SOL     OW12001   2.949   1.539   3.676  0.0500 -0.4824 -0.0842
 3965SOL    HW112002   3.039   1.534   3.707  0.5437  2.1442 -0.8853
 3965SOL    HW212003   2.898   1.557   3.755  0.7317  1.7373 -0.1059
 3966SOL     OW12004   2.251   0.566   3.708  0.5697  0.1264  0.2921
 3966SOL    HW112005   2.223   0.494   3.651 -2.1118  1.7891 -0.6956
 3966SOL    HW212006   2.211   0.546   3.792  2.1172 -0.8515  0.8409
 3967SOL     OW12007   0.292   1.715   3.743  0.1299  0.0855 -0.6463
 3967SOL    HW112008   0.258   1.798   3.776 -1.0749 -1.3042  1.9418
 3967SOL    HW212009   0.380   1.736   3.710  0.8950  2.0027  2.2387
 3968SOL     OW12010   1.067   2.869   1.840 -0.2254 -0.4751  0.4460
 3968SOL    HW112011   1.056   2.874   1.935 -3.8403  1.7746  0.1069
 3968SOL    HW212012   1.037   2.781   1.817 -0.6631 -0.5547  1.2851
 3969SOL     OW12013   0.854   2.122   2.980  0.4049 -0.4793  0.7056
 3969SOL    HW112014   0.938   2.080   2.960  1.8357  1.8333  1.5053
 3969SOL    HW212015   0.799   2.102   2.904  1.8589 -1.5180 -0.1355
 3970SOL     OW12016   0.171   1.097   2.292 -0.4627 -0.0985 -0.5176
 3970SOL    HW112017   0.096   1.143   2.255  0.3338  0.4763 -1.4783
 3970SOL    HW212018   0.247   1.150   2.267  0.5784 -2.2657 -2.3938
 3971SOL     OW12019   4.386   3.803   0.001  0.1386 -0.8302  0.2244
 3971SOL    HW112020   4.431   3.752   0.068  1.2348  0.6544  0.6489
 3971SOL    HW212021   4.300   3.822   0.038  1.4739  1.8649  2.2654
 3972SOL     OW12022   2.754   2.698   0.158  0.2923 -0.0735  0.1063
 3972SOL    HW112023   2.691   2.727   0.092 -0.5923 -0.8030  0.6099
 3972SOL    HW212024   2.731   2.748   0.237  1.1216  0.5401 -0.0307
 3973SOL     OW12025   4.696   1.823   2.292 -0.1437  0.0920  0.6453
 3973SOL    HW112026   4.634   1.847   2.223 -0.0962 -0.7046  0.3104
 3973SOL    HW212027   4.648   1.839   2.373 -0.6013 -0.0035  0.4024
 3974SOL     OW12028   2.602   3.653   0.513 -0.1701 -0.3827  0.7961
 3974SOL    HW112029   2.573   3.701   0.436 -0.0078 -1.3661  0.1051
 3974SOL    HW212030   2.697   3.669   0.518 -0.2932  0.2634  1.2235
 3975SOL     OW12031   2.633   1.060   1.319  0.2922 -0.1388 -0.0342
 3975SOL    HW112032   2.680   0.986   1.279 -0.7109 -0.6193 -0.3470
 3975SOL    HW212033   2.692   1.135   1.306  1.2907 -0.8572  0.2274
 3976SOL     OW12034   4.488   5.031   2.617 -0.1448 -0.1740  0.5448
 3976SOL    HW112035   4.516   5.028   2.709  0.0027 -0.0546  0.5031
 3976SOL    HW212036   4.413   4.972   2.614 -0.3553  0.0710  0.8168
 3977SOL     OW12037   2.570   3.041   2.329  0.1021  0.1312 -0.3803
 3977SOL    HW112038   2.625   2.982   2.381 -0.3898  0.5621  0.6747
 3977SOL    HW212039   2.486   2.995   2.321 -0.0611  0.3783 -0.1423
 3978SOL     OW12040   0.420   3.410   2.614 -0.3789  0.0221 -0.1182
 3978SOL    HW112041   0.459   3.465   2.546 -2.7206  0.4353 -1.2189
 3978SOL    HW212042   0.383   3.472   2.677  1.3574 -0.3608  1.3771
 3979SOL     OW12043   1.521   3.485   1.924  0.0112  0.5237  0.0383
 3979SOL    HW112044   1.478   3.451   1.845  3.1448 -2.1318 -0.7248
 3979SOL    HW212045   1.507   3.418   1.990  3.6258 -1.0587 -0.5682
 3980SOL     OW12046   0.951   2.350   3.848  0.1928 -0.1531  0.4850
 3980SOL    HW112047   0.965   2.372   3.756 -0.5671  1.3808  0.6967
 3980SOL    HW212048   0.862   2.378   3.866  0.6350  0.4465  1.9202
 3981SOL     OW12049   2.825   0.148   1.842  0.5845  0.1338  0.6572
 3981SOL    HW112050   2.894   0.209   1.816  0.9644 -0.0610  1.1721
 3981SOL    HW212051   2.771   0.197   1.904 -0.2209  0.5437 -0.3420
 3982SOL     OW12052   0.497   1.610   1.964  0.2454 -0.0306  0.5324
 3982SOL    HW112053   0.571   1.552   1.980 -0.4796 -1.4301 -0.9066
 3982SOL    HW212054   0.535   1.686   1.921  1.3230  1.0300  3.1289
 3983SOL     OW12055   4.683   0.167   1.658  0.0051 -0.3038 -0.1920
 3983SOL    HW112056   4.611   0.107   1.673  0.4160 -0.6094  0.5924
 3983SOL    HW212057   4.654   0.221   1.584  0.2404 -2.4067 -1.9013
 3984SOL     OW12058   0.828   1.748   2.094 -0.3078 -0.0515 -0.2003
 3984SOL    HW112059   0.921   1.739   2.073  0.1950 -0.5787  1.9688
 3984SOL    HW212060   0.813   1.843   2.097  0.3987  0.0514  0.3023
 3985SOL     OW12061   3.550   3.231   2.859  0.2917 -0.3429  0.5797
 3985SOL    HW112062   3.608   3.159   2.834 -0.5666 -0.6430 -0.6025
 3985SOL    HW212063   3.534   3.279   2.778 -2.2113 -1.0850  0.5514
 3986SOL     OW12064   0.969   5.465   0.497 -0.3727 -0.0801  0.6265
 3986SOL    HW112065   0.963   5.510   0.581  2.3160 -0.9788  1.3910
 3986SOL    HW212066   1.023   5.522   0.443 -0.9689 -0.1537 -0.0682
 3987SOL     OW12067   4.964   2.795   3.900 -0.1869 -0.0718 -0.1722
 3987SOL    HW112068   5.026   2.842   3.844 -1.0138 -0.1844 -1.2216
 3987SOL    HW212069   4.915   2.864   3.945  0.4035  0.0208  0.3454
 3988SOL     OW12070   5.260   3.731   1.510 -0.5237  0.2102  0.3060
 3988SOL    HW112071   5.283   3.736   1.418  3.1644 -1.0129  0.9733
 3988SOL    HW212072   5.257   3.821   1.540  0.2735  0.5538 -0.6131
 3989SOL     OW12073   5.456   4.783   2.434 -0.2628  0.3798  0.8019
 3989SOL    HW112074   5.551   4.789   2.445  0.5287 -4.4775 -0.9555
 3989SOL    HW212075   5.434   4.852   2.371  2.2436  0.9816  0.4911
 3990SOL     OW12076   0.670   3.304   0.746  0.2367 -0.7758 -0.0157
 3990SOL    HW112077   0.596   3.254   0.712  0.7707 -0.7514 -1.2762
 3990SOL    HW212078   0.745   3.245   0.735  1.2971  0.9263 -3.6208
 3991SOL     OW12079   3.542   2.108   1.613  0.1331  0.2856 -0.5646
 3991SOL    HW112080   3.479   2.087   1.681  0.2283 -0.0212 -0.5721
 3991SOL    HW212081   3.496   2.170   1.556  0.0403  0.5071 -0.2490
 3992SOL     OW12082   1.146   2.685   1.034 -0.2298  0.0247  0.1095
 3992SOL    HW112083   1.155   2.591   1.020 -0.2349  0.2860 -1.9451
 3992SOL    HW212084   1.215   2.707   1.096  0.1905 -1.2129  0.1105
 3993SOL     OW12085   2.208   4.983   2.761 -0.5807 -0.1741 -0.0185
 3993SOL    HW112086   2.192   5.034   2.682 -2.5237  0.6607  0.8616
 3993SOL    HW212087   2.130   4.996   2.815  0.9475 -0.1724  2.3495
 3994SOL     OW12088   4.166   4.933   3.567 -0.2773  0.2740 -0.2578
 3994SOL    HW112089   4.211   5.018   3.565  0.9267 -0.3415 -0.6604
 3994SOL    HW212090   4.076   4.954   3.590  0.0714  1.6305 -0.0312
 3995SOL     OW12091   0.698   3.787   1.246  0.5329  0.0386  0.1354
 3995SOL    HW112092   0.709   3.764   1.154  0.5379 -0.1349  0.1787
 3995SOL    HW212093   0.760   3.859   1.261  3.7351 -2.6636  1.0616
 3996SOL     OW12094   2.414   2.354   3.611  0.0609 -0.6463  0.8300
 3996SOL    HW112095   2.380   2.338   3.523  1.4513 -1.4941  0.4158
 3996SOL    HW212096   2.341   2.335   3.669 -0.8895 -0.0324 -0.1290
 3997SOL     OW12097   4.444   2.395   2.245  0.0728  0.5834  0.5147
 3997SOL    HW112098   4.495   2.315   2.240  0.2008  0.4685  2.6850
 3997SOL    HW212099   4.362   2.375   2.201  0.9290 -0.0193 -0.8437
 3998SOL     OW12100   5.267   3.502   2.477  0.1778  0.8785 -0.1364
 3998SOL    HW112101   5.324   3.534   2.408  0.7870  0.2003  0.0336
 3998SOL    HW212102   5.239   3.580   2.525  1.0841  1.2061 -0.1413
 3999SOL     OW12103   5.414   4.194   1.374  0.2224 -0.5722  0.1996
 3999SOL    HW112104   5.356   4.204   1.299  1.3492  1.0410 -0.5202
 3999SOL    HW212105   5.443   4.103   1.371  0.1656 -0.5550 -1.2768
 4000SOL     OW12106   2.431   1.143   0.324 -0.1527 -0.3764 -0.5647
 4000SOL    HW112107   2.423   1.051   0.347 -0.1930 -1.1185 -3.1971
 4000SOL    HW212108   2.525   1.160   0.327 -0.2058 -0.2212  0.7736
 4001SOL     OW12109   3.033   0.770   3.166  0.3749  0.1153 -0.4052
 4001SOL    HW112110   3.025   0.780   3.072  1.2969  0.4707 -0.4588
 4001SOL    HW212111   2.945   0.788   3.200 -0.3691 -1.6133 -1.2947
 4002SOL     OW12112   1.301   1.951   1.444  0.1960 -0.3829 -0.4120
 4002SOL    HW112113   1.220   1.907   1.416  0.3097 -0.8217 -0.0680
 4002SOL    HW212114   1.370   1.890   1.419  0.3387 -0.5179  0.2913
 4003SOL     OW12115   2.849   3.573   1.694  0.1781  0.4408  0.2102
 4003SOL    HW112116   2.759   3.580   1.723  0.3427  0.6833  0.6714
 4003SOL    HW212117   2.861   3.646   1.633 -0.8518 -1.3914 -2.3664
 4004SOL     OW12118   0.965   5.018   0.712 -0.4812 -0.4417  0.2000
 4004SOL    HW112119   0.996   4.974   0.791  0.0356 -0.6994 -0.1454
 4004SOL    HW212120   0.919   5.095   0.745 -1.0348 -1.0056  0.7905
 4005SOL     OW12121   4.652   0.365   3.605  0.2559  0.7399  0.0070
 4005SOL    HW112122   4.702   0.346   3.526  0.7523 -1.6732  0.8065
 4005SOL    HW212123   4.574   0.310   3.598  1.6244 -1.7764  2.3321
 4006SOL     OW12124   5.139   4.439   3.119  0.1376 -0.4336  0.2288
 4006SOL    HW112125   5.189   4.494   3.180 -2.2539  0.1755  1.7693
 4006SOL    HW212126   5.191   4.440   3.039  1.3015  2.2834  0.8818
 4007SOL     OW12127   2.444   4.127   3.938 -0.6497  0.2662 -0.1171
 4007SOL    HW112128   2.464   4.037   3.911  3.4301  1.2037 -0.8154
 4007SOL    HW212129   2.431   4.120   4.033 -0.4629 -1.0591 -0.1603
 4008SOL     OW12130   2.753   5.139   0.447 -0.3077 -0.7849 -0.4281
 4008SOL    HW112131   2.761   5.178   0.360 -1.6162 -1.0075 -0.6648
 4008SOL    HW212132   2.689   5.069   0.436 -0.2584 -1.0203  0.6579
 4009SOL     OW12133   2.558   2.279   0.822  0.3402 -0.4682 -0.0670
 4009SOL    HW112134   2.624   2.317   0.764  0.8837  0.4260  1.1221
 4009SOL    HW212135   2.596   2.282   0.909 -1.2307 -0.0083  0.6378
 4010SOL     OW12136   0.260   2.538   0.051  0.5307 -0.7449 -0.1169
 4010SOL    HW112137   0.227   2.622   0.085  1.9494 -0.2097 -0.0021
 4010SOL    HW212138   0.233   2.538  -0.041 -0.7675 -0.8587  0.2374
 4011SOL     OW12139   0.817   0.746   2.456 -0.0282 -0.6045  0.2634
 4011SOL    HW112140   0.732   0.733   2.497 -0.1255  0.4849  0.4259
 4011SOL    HW212141   0.828   0.841   2.451  0.4574 -0.7025 -1.2591
 4012SOL     OW12142   0.396   1.736   3.137 -0.0465  0.4768 -0.0213
 4012SOL    HW112143   0.489   1.720   3.149  0.9324  1.8941 -4.0139
 4012SOL    HW212144   0.356   1.649   3.137  1.4993 -0.2598  0.3819
 4013SOL     OW12145   3.452   3.001   0.050  0.7574 -0.4183 -0.0793
 4013SOL    HW112146   3.492   2.917   0.074  1.7094 -0.5458 -1.8503
 4013SOL    HW212147   3.513   3.038  -0.015 -0.3135  1.0231 -0.3159
 4014SOL     OW12148   2.146   1.722   2.785  0.5093  0.0618  0.4700
 4014SOL    HW112149   2.190   1.639   2.806 -0.8874 -0.9925 -0.5776
 4014SOL    HW212150   2.052   1.702   2.794  0.0864  1.0818 -1.3240
 4015SOL     OW12151   1.545   0.577   0.018  0.0353  0.1655 -0.1428
 4015SOL    HW112152   1.520   0.654  -0.034  0.8434 -0.3376 -1.3211
 4015SOL    HW212153   1.508   0.503  -0.030  2.5338 -0.4968 -1.2510
 4016SOL     OW12154   1.525   3.744   3.291  0.0394 -0.2325 -0.1120
 4016SOL    HW112155   1.546   3.832   3.320  1.1864 -0.5926  0.2129
 4016SOL    HW212156   1.432   3.734   3.309 -0.4606  1.4413 -1.6136
 4017SOL     OW12157   1.765   4.961   2.453 -0.3949  0.7014 -0.1951
 4017SOL    HW112158   1.688   4.918   2.488 -0.9959  1.4886 -0.5114
 4017SOL    HW212159   1.746   5.055   2.460  0.5930  0.9122 -0.1376
 4018SOL     OW12160   5.048   1.761   0.401 -0.3658  0.4230  0.4387
 4018SOL    HW112161   5.005   1.698   0.460 -0.4937  0.9227  0.8819
 4018SOL    HW212162   5.119   1.711   0.361 -1.6558 -0.5878 -0.7163
 4019SOL     OW12163   1.212   3.451   3.400 -0.3850 -0.3850  0.8650
 4019SOL    HW112164   1.219   3.472   3.493 -1.1907 -0.3355  0.9199
 4019SOL    HW212165   1.136   3.394   3.394  1.3314 -2.7949  0.6309
 4020SOL     OW12166   1.086   3.147   1.717 -0.0059 -0.3430  0.0529
 4020SOL    HW112167   1.092   3.186   1.805  0.6417 -0.0495 -0.1134
 4020SOL    HW212168   1.071   3.054   1.733  0.1333 -0.2963  0.4773
 4021SOL     OW12169   0.367   2.208   0.480  0.2433  0.2769 -0.1930
 4021SOL    HW112170   0.326   2.245   0.402  0.1750 -0.1347 -0.3535
 4021SOL    HW212171   0.408   2.127   0.451 -0.1208 -0.0832  0.2746
 4022SOL     OW12172   2.002   4.455   0.552 -0.2836 -0.6342  0.4687
 4022SOL    HW112173   1.976   4.403   0.476  0.8960 -2.2577  1.1121
 4022SOL    HW212174   1.951   4.536   0.545 -0.5420 -0.9320 -1.7826
 4023SOL     OW12175   1.385   5.088   1.809  0.1892  0.4315 -0.1866
 4023SOL    HW112176   1.389   5.090   1.713 -1.5740 -2.1913 -0.4210
 4023SOL    HW212177   1.382   4.995   1.831 -1.6488  0.9753  2.2756
 4024SOL     OW12178   4.052   1.549   1.920  0.5183 -0.0309 -0.6204
 4024SOL    HW112179   4.092   1.579   1.839  1.4319  1.6871  0.4184
 4024SOL    HW212180   3.960   1.573   1.912  1.0307  2.2726 -0.2452
 4025SOL     OW12181   2.345   4.610   1.223 -0.7088  0.2008 -0.2782
 4025SOL    HW112182   2.422   4.660   1.248 -1.1845 -0.2838  2.4679
 4025SOL    HW212183   2.274   4.648   1.275 -1.8271 -0.8898 -0.9603
 4026SOL     OW12184   0.044   2.810   0.642 -0.9700  0.1924  0.2343
 4026SOL    HW112185   0.101   2.864   0.587 -0.7061 -0.4173 -0.0976
 4026SOL    HW212186   0.101   2.781   0.713 -0.5585 -1.2563 -0.6380
 4027SOL     OW12187   2.612   2.347   2.187  0.3594  0.0003 -0.3731
 4027SOL    HW112188   2.529   2.378   2.150 -0.2673 -0.6064  0.4841
 4027SOL    HW212189   2.679   2.386   2.131 -0.5039  0.4249 -1.1459
 4028SOL     OW12190   3.813   4.303   3.396 -0.5396  0.2316 -0.7523
 4028SOL    HW112191   3.808   4.301   3.300 -2.5690 -0.2321 -0.6953
 4028SOL    HW212192   3.749   4.238   3.425 -0.7899  1.1406  0.9148
 4029SOL     OW12193   3.039   4.607   3.644 -0.2280 -0.1169  0.0166
 4029SOL    HW112194   3.033   4.553   3.565 -2.0181  0.9005 -0.5778
 4029SOL    HW212195   2.993   4.556   3.711 -0.8782  0.1369 -0.2372
 4030SOL     OW12196   4.453   4.152   1.019 -0.2742  0.7154 -0.1195
 4030SOL    HW112197   4.543   4.122   1.021 -0.4373  0.1771 -0.4857
 4030SOL    HW212198   4.436   4.187   1.107 -0.7040 -2.1881  1.0553
 4031SOL     OW12199   4.037   1.121   3.696 -0.4819 -0.1205 -0.1504
 4031SOL    HW112200   4.076   1.106   3.782  2.3849 -2.6590 -1.6865
 4031SOL    HW212201   4.052   1.214   3.679  0.4623  0.0459  1.3671
 4032SOL     OW12202   5.323   4.281   2.827 -0.2317  0.3004 -0.4132
 4032SOL    HW112203   5.278   4.364   2.846 -0.8577 -0.5920  2.5034
 4032SOL    HW212204   5.406   4.288   2.874  0.8030  0.1975 -2.1766
 4033SOL     OW12205   2.810   3.775   1.244  0.3320 -0.5661 -0.4501
 4033SOL    HW112206   2.768   3.755   1.328  1.9997 -0.1963  0.5167
 4033SOL    HW212207   2.739   3.804   1.187 -0.6407  0.4712  1.2452
 4034SOL     OW12208   0.254   0.727   2.435 -0.4062  0.2918  0.0691
 4034SOL    HW112209   0.311   0.753   2.363 -1.0283  2.8030  0.4003
 4034SOL    HW212210   0.215   0.645   2.406  0.2704  0.6211 -1.9224
 4035SOL     OW12211   0.359   3.729   0.389  0.7558  0.3248  0.2362
 4035SOL    HW112212   0.285   3.789   0.379  1.2989  0.9927  0.0949
 4035SOL    HW212213   0.411   3.742   0.309  1.4998  0.5450  0.7428
 4036SOL     OW12214   2.874   1.837   0.200 -0.0075  0.3146 -0.1141
 4036SOL    HW112215   2.790   1.792   0.209  1.0697 -1.5781  1.2998
 4036SOL    HW212216   2.875   1.901   0.271  0.4433 -0.9460  1.0625
 4037SOL     OW12217   2.379   0.894   0.974 -0.2590  0.0848 -0.0036
 4037SOL    HW112218   2.433   0.905   0.896  0.5143 -1.7324  0.2268
 4037SOL    HW212219   2.395   0.973   1.026  2.1284 -0.3271  0.0040
 4038SOL     OW12220   2.714   2.113   2.294 -0.3765 -0.4926 -0.0623
 4038SOL    HW112221   2.687   2.199   2.260 -0.3011 -1.1221 -1.8145
 4038SOL    HW212222   2.674   2.108   2.381 -2.1142  0.4680 -0.7560
 4039SOL     OW12223   4.605   1.305   3.611  0.0428 -0.4817  0.0320
 4039SOL    HW112224   4.514   1.329   3.592  0.2896 -0.0719 -0.6626
 4039SOL    HW212225   4.638   1.271   3.528  0.6618 -0.2101  0.1651
 4040SOL     OW12226   2.553   4.775   1.256 -0.5842 -0.0551 -0.1410
 4040SOL    HW112227   2.544   4.811   1.345  1.3285  0.0671  0.0591
 4040SOL    HW212228   2.632   4.722   1.261 -0.8462 -0.6059 -1.6166
 4041SOL     OW12229   5.449   1.198   1.350 -0.1153 -0.1203  0.6354
 4041SOL    HW112230   5.418   1.144   1.423 -0.7342  0.3101  0.6972
 4041SOL    HW212231   5.414   1.154   1.272 -1.2947  0.6139  0.7301
 4042SOL     OW12232   0.188   2.797   2.757 -0.1658  0.0350  0.5950
 4042SOL    HW112233   0.239   2.797   2.676 -2.3296  1.9885 -0.8754
 4042SOL    HW212234   0.120   2.732   2.742 -0.8511  0.7367  0.6384
 4043SOL     OW12235   4.212   3.165   0.262  0.0080 -0.2047  0.2077
 4043SOL    HW112236   4.164   3.220   0.324  1.5006 -0.3453  1.5412
 4043SOL    HW212237   4.304   3.185   0.278  0.5887 -2.6703  0.3659
 4044SOL     OW12238   4.484   2.732   3.260  0.1789 -0.5156 -0.3634
 4044SOL    HW112239   4.449   2.652   3.222  0.6564 -0.5337 -0.7703
 4044SOL    HW212240   4.537   2.702   3.334  0.5161 -0.5886 -0.6349
 4045SOL     OW12241   1.553   2.592   2.144 -0.1916 -0.0763  0.3086
 4045SOL    HW112242   1.586   2.515   2.189  1.5557  0.3575 -0.1387
 4045SOL    HW212243   1.467   2.567   2.111  0.2425 -1.7397  0.3843
 4046SOL     OW12244   0.825   2.807   2.410  0.0971 -0.0928 -0.4675
 4046SOL    HW112245   0.751   2.828   2.467  1.0405 -1.4166  1.3576
 4046SOL    HW212246   0.857   2.891   2.379 -1.5453  0.5526 -0.4849
 4047SOL     OW12247   5.356   0.276   1.231 -0.3185 -0.4004 -0.3154
 4047SOL    HW112248   5.437   0.278   1.281 -0.9382 -1.2173  0.7838
 4047SOL    HW212249   5.297   0.335   1.278  0.0700  1.4083 -1.9746
 4048SOL     OW12250   0.593   3.583   0.828 -0.3865 -0.1702 -0.4310
 4048SOL    HW112251   0.582   3.495   0.791  1.5197 -0.3700 -0.6393
 4048SOL    HW212252   0.611   3.638   0.752 -0.7662  0.2592 -0.2149
 4049SOL     OW12253   4.856   2.995   1.842 -0.7791 -0.1126 -0.4715
 4049SOL    HW112254   4.831   3.047   1.919  0.4584  0.1139 -0.1987
 4049SOL    HW212255   4.845   3.055   1.768 -0.0480  0.3282 -0.2365
 4050SOL     OW12256   3.754   1.071   2.968 -0.7196  0.1443 -0.7346
 4050SOL    HW112257   3.847   1.079   2.988 -0.5805  1.3807 -1.7055
 4050SOL    HW212258   3.738   0.977   2.963  1.4781 -0.2432 -4.5946
 4051SOL     OW12259   0.877   3.787   0.261 -0.3904  0.4052 -0.5241
 4051SOL    HW112260   0.824   3.717   0.223  0.7472 -0.5616 -0.3975
 4051SOL    HW212261   0.918   3.746   0.338 -0.6609  1.5810  0.2747
 4052SOL     OW12262   1.193   5.288   3.205  0.1828 -0.3017  0.0608
 4052SOL    HW112263   1.285   5.264   3.219 -0.0577 -2.9515 -2.0032
 4052SOL    HW212264   1.195   5.351   3.134  0.3909 -1.5201 -1.0558
 4053SOL     OW12265   3.227   0.433   3.060  0.3306 -1.1744 -0.2471
 4053SOL    HW112266   3.139   0.448   3.026  0.3359 -1.0964 -0.2262
 4053SOL    HW212267   3.214   0.401   3.149  0.3661  1.3059  0.7377
 4054SOL     OW12268   5.053   2.971   3.397  0.6287  0.2155  0.0640
 4054SOL    HW112269   5.097   3.055   3.411  0.6139  1.1055 -4.1714
 4054SOL    HW212270   5.124   2.910   3.378  0.5996 -0.7825  2.7056
 4055SOL     OW12271   2.985   3.431   1.462  0.5662 -0.5410 -0.2457
 4055SOL    HW112272   2.981   3.405   1.554 -1.0651 -2.2428 -0.7181
 4055SOL    HW212273   3.037   3.511   1.461 -0.8660  0.5375  2.3884
 4056SOL     OW12274   5.015   3.827   1.407  0.1093 -0.2188 -0.2792
 4056SOL    HW112275   4.923   3.842   1.426  0.2063  0.2778 -0.1700
 4056SOL    HW212276   5.058   3.910   1.430  0.1395  0.6975 -3.2331
 4057SOL     OW12277   4.796   2.396   2.570 -0.1161  0.1576 -0.4111
 4057SOL    HW112278   4.820   2.462   2.504  0.7083  1.2363  0.9123
 4057SOL    HW212279   4.732   2.440   2.625 -0.4251 -0.5644 -0.1908
 4058SOL     OW12280   0.802   2.107   1.842  0.3250  0.0758 -0.1096
 4058SOL    HW112281   0.871   2.139   1.901 -0.1369  0.6718  0.1276
 4058SOL    HW212282   0.753   2.044   1.895  0.4674 -0.0737 -0.1568
 4059SOL     OW12283   2.930   4.504   1.801 -0.6477  0.0208  0.3170
 4059SOL    HW112284   2.946   4.461   1.884 -0.8832  3.2082  2.1830
 4059SOL    HW212285   2.836   4.490   1.785 -0.8229  0.2122  1.1238
 4060SOL     OW12286   1.033   1.371   3.761  0.1628  0.1834  0.1164
 4060SOL    HW112287   0.974   1.405   3.694  2.6075  2.1336 -1.2079
 4060SOL    HW212288   0.984   1.299   3.801 -2.0903  0.0573 -2.5419
 4061SOL     OW12289   3.197   1.148   0.540 -0.3546 -0.1588 -0.6409
 4061SOL    HW112290   3.119   1.128   0.592 -0.3074 -0.6107 -0.7377
 4061SOL    HW212291   3.163   1.168   0.453 -0.4310  0.5608 -0.4505
 4062SOL     OW12292   3.553   0.714   0.474  0.1959 -0.1065 -0.3389
 4062SOL    HW112293   3.497   0.791   0.476  1.0145  0.4903 -0.0063
 4062SOL    HW212294   3.571   0.694   0.566  2.0811  0.8743 -0.4636
 4063SOL     OW12295   2.299   1.722   2.449  0.1372 -0.3302 -0.5040
 4063SOL    HW112296   2.347   1.655   2.401 -1.9924 -0.8358 -2.0777
 4063SOL    HW212297   2.207   1.701   2.433 -0.6133  1.4465  1.1454
 4064SOL     OW12298   2.305   1.170   1.738  0.0634 -0.1638  0.3602
 4064SOL    HW112299   2.305   1.137   1.827 -1.8600 -0.1976  0.3947
 4064SOL    HW212300   2.357   1.250   1.741 -0.8814  0.4366  1.7760
 4065SOL     OW12301   3.032   5.322   0.671  0.2168 -0.0814  0.4311
 4065SOL    HW112302   3.017   5.386   0.602 -0.1165  0.0308  0.6057
 4065SOL    HW212303   3.125   5.303   0.666 -0.1129 -1.4865 -1.2969
 4066SOL     OW12304   0.843   5.257   0.785  0.1130 -0.2455  0.4446
 4066SOL    HW112305   0.861   5.350   0.799  0.5695 -0.3126  0.3102
 4066SOL    HW212306   0.796   5.230   0.864 -0.2740  0.1628  0.3597
 4067SOL     OW12307   3.761   4.040   0.511 -0.8974 -0.0512  0.3898
 4067SOL    HW112308   3.841   4.064   0.559 -1.5365  2.0026  0.5468
 4067SOL    HW212309   3.732   4.122   0.472 -1.9309 -1.1434 -1.2330
 4068SOL     OW12310   2.902   2.472   3.354 -0.2320 -0.1204 -0.1312
 4068SOL    HW112311   2.974   2.424   3.314  0.3838  0.1034  0.6696
 4068SOL    HW212312   2.893   2.432   3.441  0.2308  1.1152  0.5160
 4069SOL     OW12313   3.415   3.697   1.285 -0.1973  0.2993  0.3794
 4069SOL    HW112314   3.437   3.789   1.271 -2.5308  0.7603 -0.7135
 4069SOL    HW212315   3.410   3.660   1.197  1.8940 -1.2562  0.8208
 4070SOL     OW12316   1.639   1.858   0.475  0.2896 -0.0851  0.0561
 4070SOL    HW112317   1.617   1.920   0.545 -0.5140  0.4299 -0.6328
 4070SOL    HW212318   1.585   1.885   0.401 -0.1281 -1.6414 -0.2522
 4071SOL     OW12319   1.578   0.764   3.753  0.0234 -0.0943  0.0901
 4071SOL    HW112320   1.570   0.703   3.826 -1.9682  0.0768  0.0795
 4071SOL    HW212321   1.610   0.845   3.792  0.0312 -0.3293  0.5764
 4072SOL     OW12322   3.611   1.970   0.455 -0.5355  0.0736  0.2841
 4072SOL    HW112323   3.608   2.062   0.428 -0.1727 -0.6630 -2.4977
 4072SOL    HW212324   3.543   1.927   0.404 -0.7990 -1.2171  1.6531
 4073SOL     OW12325   3.272   3.820   0.562  0.4784 -0.4348 -0.6803
 4073SOL    HW112326   3.347   3.874   0.540  0.7354 -0.8973 -0.9641
 4073SOL    HW212327   3.290   3.789   0.651 -0.0888  0.6393 -0.1779
 4074SOL     OW12328   1.963   5.056   2.882 -0.2046  0.2846  0.3021
 4074SOL    HW112329   2.001   5.122   2.940 -0.0887 -1.7712  2.7353
 4074SOL    HW212330   1.869   5.063   2.896 -0.4114  1.5416 -1.3794
 4075SOL     OW12331   3.833   4.632   1.698 -0.4374  1.0017 -0.2281
 4075SOL    HW112332   3.884   4.692   1.753 -2.0277 -0.0989  2.6732
 4075SOL    HW212333   3.831   4.550   1.748 -2.2101 -0.0078 -1.8538
 4076SOL     OW12334   2.265   0.392   0.122  0.4164 -0.6170  0.1866
 4076SOL    HW112335   2.327   0.430   0.059  1.2925 -2.6499 -0.2332
 4076SOL    HW212336   2.314   0.321   0.164 -0.6954 -0.3626  2.0140
 4077SOL     OW12337   2.857   4.744   0.669  0.6067 -0.5529 -0.4892
 4077SOL    HW112338   2.823   4.698   0.592 -0.2647 -0.7836  0.0138
 4077SOL    HW212339   2.782   4.749   0.728  1.1797 -0.0883  0.2095
 4078SOL     OW12340   3.687   3.914   1.887  0.2608  0.4977  0.3048
 4078SOL    HW112341   3.742   3.874   1.955  0.5433  0.5755  0.1262
 4078SOL    HW212342   3.684   4.007   1.911  0.6531  0.5871  0.0177
 4079SOL     OW12343   1.108   0.688   0.321  0.2309  0.0625 -0.3240
 4079SOL    HW112344   1.106   0.598   0.289  0.9051 -0.4340  0.9205
 4079SOL    HW212345   1.183   0.727   0.276  1.1029 -0.5915  0.4976
 4080SOL     OW12346   5.378   0.968   3.655 -0.0152 -0.5320  0.1762
 4080SOL    HW112347   5.455   0.935   3.701  0.4818 -1.5065 -1.3053
 4080SOL    HW212348   5.398   0.957   3.563 -1.3370  0.6045 -0.2819
 4081SOL     OW12349   2.962   3.084   3.850  0.2909 -0.1300  0.7370
 4081SOL    HW112350   2.870   3.072   3.875 -0.7124  3.9076 -0.3661
 4081SOL    HW212351   3.006   3.110   3.931  0.0620 -0.2764  0.9082
 4082SOL     OW12352   2.257   2.805   1.150  1.1843  0.9400 -0.4256
 4082SOL    HW112353   2.325   2.843   1.206 -0.1644 -0.5419  2.4181
 4082SOL    HW212354   2.303   2.737   1.101  1.9571  0.5984  0.7329
 4083SOL     OW12355   2.519   1.687   2.918  0.0778 -0.1584  0.0132
 4083SOL    HW112356   2.489   1.762   2.970 -0.9706 -1.4678  1.3856
 4083SOL    HW212357   2.505   1.714   2.828 -2.6121  0.4236  0.5156
 4084SOL     OW12358   0.341   1.945   2.423  0.3393  0.4187  0.0016
 4084SOL    HW112359   0.302   1.954   2.337  1.5905  2.0761 -0.4328
 4084SOL    HW212360   0.327   1.853   2.446 -0.8397  0.1790 -1.5353
 4085SOL     OW12361   5.334   3.481   2.823 -0.2979  0.2829 -0.7351
 4085SOL    HW112362   5.281   3.539   2.768  0.2995  0.8529 -0.7090
 4085SOL    HW212363   5.419   3.524   2.829 -0.1374 -0.1316  0.0504
 4086SOL     OW12364   5.373   2.324   1.415  0.5198 -0.3916  0.4088
 4086SOL    HW112365   5.459   2.293   1.387  1.6314  2.4006  0.3413
 4086SOL    HW212366   5.338   2.371   1.340  0.2590  0.9125  1.2942
 4087SOL     OW12367   1.703   2.280   1.988  0.0886 -0.0761  0.2377
 4087SOL    HW112368   1.660   2.352   1.942  0.4228  0.4641  0.7597
 4087SOL    HW212369   1.632   2.231   2.029 -0.2746 -0.8745 -1.2354
 4088SOL     OW12370   5.425   5.532   0.485 -0.1169 -0.5335  0.3229
 4088SOL    HW112371   5.360   5.467   0.513 -1.1264  0.6361  0.7482
 4088SOL    HW212372   5.374   5.609   0.460  0.9911 -0.2508 -1.2380
 4089SOL     OW12373   1.007   1.494   0.398  0.0850  0.2682  0.2103
 4089SOL    HW112374   0.998   1.480   0.492  1.6372  0.0035  0.3392
 4089SOL    HW212375   1.010   1.406   0.360 -0.3118  0.3724 -0.0784
 4090SOL     OW12376   3.269   4.456   0.945 -0.1650 -0.4464  0.0282
 4090SOL    HW112377   3.250   4.518   0.876  0.6569  2.0606  1.9106
 4090SOL    HW212378   3.190   4.402   0.952 -0.9343  0.4187 -1.6376
 4091SOL     OW12379   0.289   1.343   3.887  0.0783  0.1164  0.2761
 4091SOL    HW112380   0.277   1.255   3.922  0.6735  0.1564  0.5835
 4091SOL    HW212381   0.202   1.383   3.895 -0.3828 -0.6808 -0.5561
 4092SOL     OW12382   4.386   1.639   2.079  0.1192  0.1313 -0.2588
 4092SOL    HW112383   4.438   1.599   2.148  0.1655 -1.0824 -0.9618
 4092SOL    HW212384   4.433   1.618   1.998  1.3966  3.5341 -0.5817
 4093SOL     OW12385   0.780   0.842   1.311 -0.6421  0.2520  0.1577
 4093SOL    HW112386   0.721   0.814   1.381 -0.6734  3.4380  1.5443
 4093SOL    HW212387   0.724   0.851   1.235 -1.0570 -0.9491  0.2944
 4094SOL     OW12388   2.596   4.075   0.276  0.6452  0.4491 -0.1042
 4094SOL    HW112389   2.650   3.997   0.266  0.4346  0.1860  0.7115
 4094SOL    HW212390   2.533   4.052   0.345 -1.2748  0.3216 -1.7870
 4095SOL     OW12391   0.888   2.762   1.152 -0.3129 -0.0611  0.0655
 4095SOL    HW112392   0.933   2.842   1.127 -1.6358  0.5434 -0.5024
 4095SOL    HW212393   0.945   2.691   1.121  0.1886  0.6740 -0.7245
 4096SOL     OW12394   2.260   1.072   2.665  0.1721  0.1590 -0.2462
 4096SOL    HW112395   2.209   1.012   2.719 -0.5498  0.6257 -0.3891
 4096SOL    HW212396   2.269   1.151   2.720  1.7939 -0.3309  0.2639
 4097SOL     OW12397   4.296   2.394   1.376  0.0750 -0.2887 -0.2284
 4097SOL    HW112398   4.228   2.334   1.344  0.0033  0.5450 -1.7484
 4097SOL    HW212399   4.253   2.442   1.447 -0.9872  0.2871 -1.2232
 4098SOL     OW12400   2.594   3.862   3.283  0.1345 -0.0561 -0.2156
 4098SOL    HW112401   2.586   3.818   3.368 -2.0869 -0.9416 -0.8175
 4098SOL    HW212402   2.505   3.893   3.264  0.2196 -1.1422 -2.8339
 4099SOL     OW12403   1.403   1.828   3.109  0.4462 -0.1489  0.0557
 4099SOL    HW112404   1.312   1.822   3.139  0.5827  0.0769  0.5231
 4099SOL    HW212405   1.430   1.737   3.097  0.4230 -0.2551  0.7406
 4100NA      NA12406   5.155   3.107   2.500 -0.3914 -0.2325 -0.0984
 4101NA      NA12407   0.177   4.616   2.084 -0.0912 -0.2155 -0.1612
 4102NA      NA12408   3.863   4.945   1.067 -0.3774  0.2167  0.0706
 4103NA      NA12409   1.581   2.819   2.050 -0.0565 -0.4582 -0.4152
 4104NA      NA12410   1.441   4.959   3.304 -0.2035  0.3796 -0.2151
 4105NA      NA12411   4.144   1.690   2.126  0.7911  0.3359 -0.2707
 4106NA      NA12412   3.581   3.795   2.292 -0.2347  0.5696 -0.4747
 4107NA      NA12413   2.952   5.163   0.823  0.2534  0.1024  0.2497
 4108NA      NA12414   3.658   2.879   1.206 -0.4856 -0.5349 -0.0460
 4109NA      NA12415   5.156   5.321   3.506 -0.5876 -0.1188  0.0320
 4110NA      NA12416   2.444   0.218   1.017  0.0411  0.1802  0.7369
 4111NA      NA12417   3.910   3.548   3.733 -0.1439 -0.1918  0.3084
 4112NA      NA12418   3.710   5.337   2.183 -0.3373 -0.2431 -0.0914
 4113NA      NA12419   2.268   2.011   1.707 -0.2739  0.3329 -0.5707
 4114CL      CL12420   4.903   3.624   2.616  0.1086 -0.0524 -0.2226
 4115CL      CL12421   4.926   5.321   2.466  0.0936 -0.1059  0.0479
 4116CL      CL12422   1.466   3.345   2.195 -0.0157 -0.3468 -0.2006
 4117CL      CL12423   0.823   1.471   2.482  0.0178  0.4868  0.4562
 4118CL      CL12424   1.685   3.264   0.615  0.0554 -0.0094  0.5003
 4119CL      CL12425   2.505   0.425   1.719 -0.3927  0.0602 -0.4488
 4120CL      CL12426   2.328   1.947   0.608 -0.0397  0.1145  0.2258
 4121CL      CL12427   2.452   4.909   1.511 -0.2967  0.0601  0.1969
 4122CL      CL12428   0.130   4.084   2.721 -0.1884  0.3447 -0.3379
 4123CL      CL12429   4.289   0.289   1.356 -0.2920 -0.1009 -0.1491
 4124CL      CL12430   4.756   3.213   2.042 -0.0504 -0.0789 -0.4772
 4125CL      CL12431   2.678   0.054   3.180  0.1331  0.4415  0.5230
   5.57737   5.57737   3.94379   0.00000   0.00000   0.00000   0.00000   2.78869   2.78869
