Protein in water
18946
    1GLY      N    1   2.715   0.182   0.904  0.6116  0.4139  0.3910
    1GLY     H1    2   2.782   0.216   0.970  0.0062  0.0032 -0.0071
    1GLY     H2    3   2.669   0.095   0.883  0.0062  0.0032 -0.0071
    1GLY     CA    4   2.669   0.292   0.811 -0.2908 -0.3115  0.5850
    1GLY    HA1    5   2.720   0.378   0.839  0.0062  0.0032 -0.0071
    1GLY    HA2    6   2.685   0.259   0.715  0.0062  0.0032 -0.0071
    1GLY      C    7   2.522   0.330   0.816  1.0652  0.2442  0.2072
    1GLY      O    8   2.485   0.444   0.778 -0.5459 -0.6373  0.0809
    2GLY      N    9   2.435   0.231   0.863  0.1064 -0.0966 -0.3171
    2GLY     HN   10   2.466   0.138   0.878  0.0062  0.0032 -0.0071
    2GLY     CA   11   2.297   0.246   0.897  0.0338  0.4708  0.6615
    2GLY    HA1   12   2.249   0.270   0.811  0.0062  0.0032 -0.0071
    2GLY    HA2   13   2.269   0.159   0.941  0.0062  0.0032 -0.0071
    2GLY      C   14   2.271   0.354   0.994  0.3571 -0.3080 -0.1951
    2GLY      O   15   2.350   0.386   1.082 -0.2324  0.0426 -0.2011
    3LEU      N   16   2.150   0.412   0.988 -0.1435  0.3773 -0.1797
    3LEU     HN   17   2.083   0.382   0.919  0.0062  0.0032 -0.0071
    3LEU     CA   18   2.103   0.518   1.074 -0.3800  0.5819 -0.6900
    3LEU     HA   19   2.179   0.595   1.072  0.0062  0.0032 -0.0071
    3LEU     CB   20   1.971   0.576   1.024 -0.0985  0.3708 -0.0390
    3LEU    HB1   21   1.892   0.504   1.038  0.0062  0.0032 -0.0071
    3LEU    HB2   22   1.940   0.657   1.088  0.0062  0.0032 -0.0071
    3LEU     CG   23   1.971   0.623   0.879  0.1043 -0.4985 -0.3034
    3LEU     HG   24   2.008   0.539   0.816  0.0062  0.0032 -0.0071
    3LEU   MCD1   25   1.833   0.709   0.837  0.5866  0.4508  0.0025
    3LEU   MCD2   26   1.817   0.620   0.813  0.2108  0.6834 -0.6473
    3LEU    CD1   27   1.832   0.662   0.828  0.0062  0.0032 -0.0071
    3LEU   HD11   28   1.816   0.771   0.842  0.0062  0.0032 -0.0071
    3LEU   HD12   29   1.823   0.639   0.720  0.0062  0.0032 -0.0071
    3LEU   HD13   30   1.753   0.607   0.884  0.0062  0.0032 -0.0071
    3LEU   MCD1   31   2.057   0.766   0.897  0.2048 -0.6679  0.7080
    3LEU   MCD2   32   2.084   0.730   0.815  0.3836 -0.2486  0.5741
    3LEU    CD2   33   2.066   0.742   0.857  0.0062  0.0032 -0.0071
    3LEU   HD21   34   2.059   0.812   0.943  0.0062  0.0032 -0.0071
    3LEU   HD22   35   2.171   0.706   0.848  0.0062  0.0032 -0.0071
    3LEU   HD23   36   2.038   0.796   0.764  0.0062  0.0032 -0.0071
    3LEU      C   37   2.086   0.472   1.221 -0.4339  0.0047  0.0017
    3LEU      O   38   2.057   0.358   1.247  0.5849  0.0967 -0.2928
    4PHE      N   39   2.110   0.556   1.319  0.4320  0.1177 -0.1984
    4PHE     HN   40   2.144   0.647   1.297  0.0062  0.0032 -0.0071
    4PHE     CA   41   2.090   0.528   1.459 -0.1587 -0.3225  0.3419
    4PHE     HA   42   2.143   0.435   1.473  0.0062  0.0032 -0.0071
    4PHE     CB   43   2.163   0.633   1.551  0.0155 -0.2079 -0.4212
    4PHE    HB1   44   2.127   0.728   1.527  0.0062  0.0032 -0.0071
    4PHE    HB2   45   2.151   0.602   1.651  0.0062  0.0032 -0.0071
    4PHE     CG   46   2.309   0.646   1.535 -0.9008  0.1339  0.1197
    4PHE    CD1   47   2.392   0.530   1.514  1.1333 -0.2199  0.3653
    4PHE    HD1   48   2.349   0.431   1.519  0.0062  0.0032 -0.0071
    4PHE    CE1   49   2.525   0.532   1.487 -0.1583 -0.4930 -0.2562
    4PHE    HE1   50   2.579   0.440   1.467  0.0062  0.0032 -0.0071
    4PHE     CZ   51   2.588   0.651   1.484 -0.5929 -1.0158  0.5901
    4PHE     HZ   52   2.694   0.653   1.467  0.0062  0.0032 -0.0071
    4PHE    CD2   53   2.375   0.767   1.529 -0.2183 -0.5329 -0.0457
    4PHE    HD2   54   2.318   0.857   1.545  0.0062  0.0032 -0.0071
    4PHE    CE2   55   2.515   0.769   1.503 -0.1738 -0.2926 -0.2023
    4PHE    HE2   56   2.569   0.862   1.497  0.0062  0.0032 -0.0071
    4PHE      C   57   1.946   0.496   1.497 -0.3349 -0.1739 -0.1572
    4PHE      O   58   1.841   0.542   1.446 -0.4912 -0.0790  0.1701
    5GLY      N   59   1.934   0.408   1.602  0.6804 -0.1891  0.0748
    5GLY     HN   60   2.012   0.386   1.660  0.0062  0.0032 -0.0071
    5GLY     CA   61   1.808   0.341   1.635 -0.2843 -0.7540 -0.6306
    5GLY    HA1   62   1.746   0.341   1.547  0.0062  0.0032 -0.0071
    5GLY    HA2   63   1.831   0.244   1.675  0.0062  0.0032 -0.0071
    5GLY      C   64   1.740   0.419   1.739  0.4148 -0.0964  0.0236
    5GLY      O   65   1.735   0.543   1.745  0.7270  0.0243  0.5636
    6GLY      N   66   1.677   0.350   1.835 -0.5625  0.1505 -0.2874
    6GLY     HN   67   1.675   0.250   1.831  0.0062  0.0032 -0.0071
    6GLY     CA   68   1.608   0.407   1.948  0.1906  0.5576 -0.3026
    6GLY    HA1   69   1.583   0.332   2.002  0.0062  0.0032 -0.0071
    6GLY    HA2   70   1.671   0.471   1.985  0.0062  0.0032 -0.0071
    6GLY      C   71   1.484   0.483   1.926 -0.0762  0.1324 -0.3047
    6GLY      O   72   1.405   0.465   1.834  0.0647 -0.4604  0.1184
    7ASN      N   73   1.467   0.574   2.021  0.2589 -0.6719 -0.1599
    7ASN     HN   74   1.537   0.589   2.091  0.0062  0.0032 -0.0071
    7ASN     CA   75   1.351   0.658   2.033 -0.0282  0.1677  0.0417
    7ASN     HA   76   1.274   0.616   1.970  0.0062  0.0032 -0.0071
    7ASN     CB   77   1.301   0.660   2.185 -0.8380  0.0819  0.2151
    7ASN    HB1   78   1.380   0.710   2.249  0.0062  0.0032 -0.0071
    7ASN    HB2   79   1.201   0.713   2.190  0.0062  0.0032 -0.0071
    7ASN     CG   80   1.280   0.516   2.242 -0.1393 -0.7663  0.9695
    7ASN    OD1   81   1.320   0.476   2.348 -0.0424 -0.3058 -0.3117
    7ASN    ND2   82   1.200   0.435   2.170 -0.2217  0.4345 -0.3305
    7ASN   HD21   83   1.160   0.468   2.085  0.0062  0.0032 -0.0071
    7ASN   HD22   84   1.183   0.342   2.201  0.0062  0.0032 -0.0071
    7ASN      C   85   1.379   0.800   1.988 -0.0247 -0.1468  0.6106
    7ASN      O   86   1.284   0.874   1.960  0.2227  0.3844  0.6113
    8THR      N   87   1.504   0.844   1.973  0.5006  0.2766  0.2758
    8THR     HN   88   1.580   0.793   2.014  0.0062  0.0032 -0.0071
    8THR     CA   89   1.543   0.962   1.902 -0.7038  0.1650 -0.2031
    8THR     HA   90   1.485   0.962   1.811  0.0062  0.0032 -0.0071
    8THR     CB   91   1.514   1.083   1.978 -0.4895 -0.7899  0.9303
    8THR     HB   92   1.408   1.082   2.013  0.0062  0.0032 -0.0071
    8THR    OG1   93   1.534   1.204   1.902  0.0412 -0.5364  0.2151
    8THR    HG1   94   1.449   1.221   1.861  0.2465 -1.9776 -0.9469
    8THR   MCG1   95   1.584   1.135   2.122  0.3879 -0.2441  0.3257
    8THR   MCG2   96   1.641   1.069   2.087 -0.2277 -0.9526  0.6087
    8THR    CG2   97   1.608   1.101   2.099  0.0062  0.0032 -0.0071
    8THR   HG21   98   1.568   1.179   2.167  0.0062  0.0032 -0.0071
    8THR   HG22   99   1.617   1.005   2.154  0.0062  0.0032 -0.0071
    8THR   HG23  100   1.708   1.132   2.064  0.0062  0.0032 -0.0071
    8THR      C  101   1.691   0.950   1.860 -0.9110  0.4863  0.1539
    8THR      O  102   1.761   0.858   1.911  0.5309 -0.6272  0.0674
    9GLN      N  103   1.746   1.035   1.768 -0.1565 -0.0468 -0.4618
    9GLN     HN  104   1.693   1.110   1.729  0.0062  0.0032 -0.0071
    9GLN     CA  105   1.881   1.024   1.720 -0.0059 -1.3179  0.6104
    9GLN     HA  106   1.920   0.930   1.756  0.0062  0.0032 -0.0071
    9GLN     CB  107   1.888   1.027   1.561  0.5090 -0.4870 -0.1495
    9GLN    HB1  108   1.849   1.127   1.523  0.0062  0.0032 -0.0071
    9GLN    HB2  109   1.997   1.024   1.528  0.0062  0.0032 -0.0071
    9GLN     CG  110   1.811   0.912   1.488  0.2753 -0.4725 -0.5330
    9GLN    HG1  111   1.851   0.817   1.523  0.0062  0.0032 -0.0071
    9GLN    HG2  112   1.705   0.923   1.511  0.0062  0.0032 -0.0071
    9GLN     CD  113   1.826   0.915   1.335  0.5365 -0.1170  0.2386
    9GLN    OE1  114   1.890   1.003   1.282  0.4205 -0.5945  0.3102
    9GLN    NE2  115   1.759   0.824   1.263  0.5634 -0.3985 -0.2345
    9GLN   HE21  116   1.701   0.757   1.310  0.0062  0.0032 -0.0071
    9GLN   HE22  117   1.767   0.823   1.164  0.0062  0.0032 -0.0071
    9GLN      C  118   1.970   1.134   1.773  0.0475 -0.6006 -0.5036
    9GLN      O  119   1.920   1.244   1.816  0.2244  0.7797  0.4604
   10PRO      N  120   2.100   1.117   1.792  0.1654 -0.2165  0.0471
   10PRO     CD  121   2.148   0.984   1.815  0.0767  1.1041 -0.1123
   10PRO    HD1  122   2.093   0.939   1.901  0.0062  0.0032 -0.0071
   10PRO    HD2  123   2.129   0.922   1.723  0.0062  0.0032 -0.0071
   10PRO     CA  124   2.205   1.207   1.767 -0.2647 -0.1489 -0.3571
   10PRO     HA  125   2.204   1.275   1.851  0.0062  0.0032 -0.0071
   10PRO     CB  126   2.332   1.126   1.773 -0.3872  0.1539  0.6777
   10PRO    HB1  127   2.372   1.107   1.671  0.0062  0.0032 -0.0071
   10PRO    HB2  128   2.411   1.182   1.828  0.0062  0.0032 -0.0071
   10PRO     CG  129   2.298   0.996   1.843 -0.0952 -0.1253  1.1660
   10PRO    HG1  130   2.322   0.998   1.957  0.0062  0.0032 -0.0071
   10PRO    HG2  131   2.358   0.906   1.803  0.0062  0.0032 -0.0071
   10PRO      C  132   2.177   1.299   1.644  0.3166  0.3493  0.3954
   10PRO      O  133   2.166   1.252   1.528 -0.5085  0.8173 -0.7387
   11ALA      N  134   2.176   1.431   1.663  1.1356  0.2206 -0.4966
   11ALA     HN  135   2.187   1.471   1.753  0.0062  0.0032 -0.0071
   11ALA     CA  136   2.157   1.525   1.558 -0.1794  0.0411 -0.1886
   11ALA     HA  137   2.073   1.494   1.497  0.0062  0.0032 -0.0071
   11ALA   MCB1  138   2.175   1.667   1.646 -0.0332 -0.2549  0.2654
   11ALA   MCB2  139   2.089   1.670   1.609  0.1712  0.2115 -0.2027
   11ALA     CB  140   2.134   1.662   1.624  0.0062  0.0032 -0.0071
   11ALA    HB1  141   2.224   1.692   1.682  0.0062  0.0032 -0.0071
   11ALA    HB2  142   2.112   1.739   1.547  0.0062  0.0032 -0.0071
   11ALA    HB3  143   2.047   1.656   1.694  0.0062  0.0032 -0.0071
   11ALA      C  144   2.283   1.531   1.475  0.3505 -1.1624  0.7202
   11ALA      O  145   2.279   1.545   1.353  0.3993  0.1183 -0.0348
   12THR      N  146   2.398   1.529   1.528 -1.0202 -0.0573 -0.1496
   12THR     HN  147   2.401   1.527   1.627  0.0062  0.0032 -0.0071
   12THR     CA  148   2.525   1.531   1.448  0.4982  0.3021 -0.1381
   12THR     HA  149   2.515   1.615   1.380  0.0062  0.0032 -0.0071
   12THR     CB  150   2.639   1.559   1.545  0.0175  0.1910  0.5077
   12THR     HB  151   2.732   1.571   1.486  0.0062  0.0032 -0.0071
   12THR    OG1  152   2.660   1.445   1.634 -0.0599 -0.3732  0.3397
   12THR    HG1  153   2.750   1.419   1.616  0.6341  1.0904  1.3628
   12THR   MCG1  154   2.657   1.691   1.647 -0.1996  0.3584  0.3344
   12THR   MCG2  155   2.571   1.698   1.611 -0.0234  0.4597 -0.0772
   12THR    CG2  156   2.615   1.688   1.625  0.0062  0.0032 -0.0071
   12THR   HG21  157   2.705   1.712   1.686  0.0062  0.0032 -0.0071
   12THR   HG22  158   2.594   1.772   1.557  0.0062  0.0032 -0.0071
   12THR   HG23  159   2.529   1.675   1.694  0.0062  0.0032 -0.0071
   12THR      C  160   2.556   1.405   1.361 -0.1927  0.3769 -0.5179
   12THR    OT1  161   2.513   1.291   1.377  0.1270 -0.3856  0.2798
   12THR    OT2  162   2.661   1.425   1.270  0.2798  0.4513  0.3628
   12THR    HT2  163   2.677   1.351   1.211  1.3776  0.3954  0.6886
   13SOL     OW  164   0.244   1.743   2.731  0.3566  0.3065  0.6615
   13SOL    HW1  165   0.272   1.804   2.662  0.8959 -0.7432 -0.1158
   13SOL    HW2  166   0.149   1.755   2.737  0.5749  2.4618  1.8551
   14SOL     OW  167   6.030   2.138   0.549 -0.4175 -0.0704  0.1216
   14SOL    HW1  168   6.066   2.105   0.467  0.6843 -1.5956  1.1058
   14SOL    HW2  169   5.987   2.063   0.589 -1.9715  0.9164  0.4803
   15SOL     OW  170   3.865   4.946   0.626 -0.1783  0.4269  0.1124
   15SOL    HW1  171   3.881   4.856   0.596  0.5971  0.6411 -0.1745
   15SOL    HW2  172   3.940   4.996   0.593 -0.2003  1.0316  0.9098
   16SOL     OW  173   6.377   5.260   2.586  0.2784  0.6314  0.2468
   16SOL    HW1  174   6.465   5.229   2.609 -0.6778 -1.2259  2.0040
   16SOL    HW2  175   6.358   5.328   2.651 -0.0002  0.1462  0.6852
   17SOL     OW  176   3.946   3.003   2.627  0.2618 -0.0519  0.0190
   17SOL    HW1  177   3.912   3.074   2.573 -0.8757  1.1754  2.0802
   17SOL    HW2  178   4.019   3.043   2.676 -2.0677  1.0482  3.3393
   18SOL     OW  179   2.528   1.496   2.929 -0.0856  0.7212 -0.3310
   18SOL    HW1  180   2.472   1.467   3.001  2.2408  0.4842  1.6267
   18SOL    HW2  181   2.498   1.445   2.853 -0.3426 -2.0935  1.3780
   19SOL     OW  182   6.081   5.677   2.953  0.2087  1.1611 -0.4720
   19SOL    HW1  183   5.997   5.656   2.993  0.6229  0.5527  0.1345
   19SOL    HW2  184   6.062   5.747   2.890 -0.8639  0.5607 -0.8690
   20SOL     OW  185   4.167   6.215   0.544 -0.2946  0.0782 -0.5440
   20SOL    HW1  186   4.180   6.120   0.543  4.0803  0.2646 -0.1343
   20SOL    HW2  187   4.150   6.238   0.453 -2.5374 -0.9309 -0.5209
   21SOL     OW  188   4.640   1.645   3.820  0.0890 -0.6931  0.3719
   21SOL    HW1  189   4.621   1.649   3.913 -2.0956 -2.3128  0.1626
   21SOL    HW2  190   4.560   1.678   3.778  0.4263 -1.3746 -0.8956
   22SOL     OW  191   6.087   3.126   1.117 -0.1318 -0.1680 -0.2569
   22SOL    HW1  192   6.180   3.133   1.093 -0.5435  0.7523 -1.9267
   22SOL    HW2  193   6.087   3.118   1.212  1.6303  2.0691  0.1136
   23SOL     OW  194   3.091   6.098   3.293  0.3916  0.3154  0.1900
   23SOL    HW1  195   3.181   6.074   3.273  0.1763  0.0114 -0.4503
   23SOL    HW2  196   3.100   6.173   3.353  1.0598 -0.0049  0.5202
   24SOL     OW  197   0.325   5.438   3.560 -0.1813  0.5493  0.1985
   24SOL    HW1  198   0.418   5.461   3.561  0.0558 -0.2608  1.6238
   24SOL    HW2  199   0.296   5.461   3.472  0.9861  2.2216  0.1579
   25SOL     OW  200   0.931   3.010   0.966 -0.1449  0.1249  0.0852
   25SOL    HW1  201   0.935   2.918   0.991  0.4724 -0.2805 -1.3032
   25SOL    HW2  202   1.023   3.037   0.961 -0.1767  0.1725 -1.4624
   26SOL     OW  203   1.626   3.517   3.513 -0.2834  0.5229 -0.4141
   26SOL    HW1  204   1.686   3.591   3.514  1.0895 -0.5055  0.3869
   26SOL    HW2  205   1.642   3.473   3.430 -2.3035  1.8881 -1.7105
   27SOL     OW  206   3.306   4.540   2.087  0.0345 -0.2335  0.0771
   27SOL    HW1  207   3.381   4.562   2.032 -1.2690 -0.5225 -2.0337
   27SOL    HW2  208   3.294   4.618   2.142  1.4083  0.1090 -0.0262
   28SOL     OW  209   1.560   3.292   4.173 -0.6833  0.2705 -0.3848
   28SOL    HW1  210   1.564   3.387   4.169 -1.8238  0.3372 -0.9026
   28SOL    HW2  211   1.645   3.265   4.207 -0.6275  1.5101  0.5779
   29SOL     OW  212   5.612   4.804   0.773 -0.7145  0.0938 -0.4365
   29SOL    HW1  213   5.604   4.898   0.755  0.9350  0.1551 -1.2634
   29SOL    HW2  214   5.671   4.772   0.705 -0.4221 -1.3419  0.4176
   30SOL     OW  215   3.160   0.910   3.126  0.9175 -0.3066 -0.5641
   30SOL    HW1  216   3.124   0.945   3.045 -0.4805 -1.8335 -0.7007
   30SOL    HW2  217   3.207   0.984   3.166  0.1867  0.9708 -1.9068
   31SOL     OW  218   5.564   5.392   1.829  0.2570 -0.4210 -0.4673
   31SOL    HW1  219   5.649   5.373   1.869 -0.5097 -2.3797  0.5639
   31SOL    HW2  220   5.541   5.311   1.783 -1.0791 -0.0141 -0.6090
   32SOL     OW  221   0.864   0.278   0.088  0.1166 -1.0142  0.3221
   32SOL    HW1  222   0.855   0.372   0.072 -0.7065 -0.9770  0.8584
   32SOL    HW2  223   0.788   0.256   0.142  0.8836 -1.7685  1.1591
   33SOL     OW  224   1.809   0.181   2.252 -0.0145 -0.1957  0.4332
   33SOL    HW1  225   1.836   0.090   2.239  0.9029  0.1273 -0.1046
   33SOL    HW2  226   1.869   0.232   2.198 -0.6476  0.7254  0.5466
   34SOL     OW  227   1.758   1.790   0.155 -0.4376  0.5153  0.2546
   34SOL    HW1  228   1.731   1.744   0.235 -1.0147 -0.4277 -0.4295
   34SOL    HW2  229   1.802   1.868   0.186  0.3968 -0.3690  1.5144
   35SOL     OW  230   0.125   2.921   2.641 -0.4382 -0.7584 -0.3441
   35SOL    HW1  231   0.106   2.964   2.557 -0.4103 -1.2680 -0.6186
   35SOL    HW2  232   0.061   2.850   2.647  0.0608 -1.2216 -0.3158
   36SOL     OW  233   2.184   1.351   1.159 -0.0817 -0.2257  0.3200
   36SOL    HW1  234   2.094   1.320   1.170 -0.7239  1.2485 -0.2990
   36SOL    HW2  235   2.238   1.278   1.189 -1.3802 -2.1917 -1.5003
   37SOL     OW  236   0.153   1.206   1.533  0.0936  0.3292 -0.0063
   37SOL    HW1  237   0.120   1.179   1.447 -1.0063  0.9487  0.1736
   37SOL    HW2  238   0.139   1.301   1.534 -0.7901  0.2297  1.1712
   38SOL     OW  239   5.616   1.263   2.780  0.2069 -0.6180  0.3969
   38SOL    HW1  240   5.592   1.319   2.707 -0.0259 -2.1853 -0.8408
   38SOL    HW2  241   5.534   1.222   2.807  0.1399  0.4537  2.1385
   39SOL     OW  242   6.324   1.308   4.514 -0.5465 -0.2032 -0.2228
   39SOL    HW1  243   6.312   1.229   4.461 -1.0980  0.5234 -1.2529
   39SOL    HW2  244   6.283   1.378   4.462  0.3494  0.8535  0.4132
   40SOL     OW  245   4.889   0.991   4.417 -0.7346 -0.4387  0.5688
   40SOL    HW1  246   4.950   0.920   4.401  0.1409 -0.0477  1.8422
   40SOL    HW2  247   4.838   0.963   4.493 -1.5754 -0.3823  0.0577
   41SOL     OW  248   4.402   3.751   1.336  0.1084  0.0414 -0.1469
   41SOL    HW1  249   4.449   3.825   1.375  1.0185 -0.5512 -0.0413
   41SOL    HW2  250   4.414   3.679   1.398 -1.0996 -0.1093 -0.0534
   42SOL     OW  251   6.166   5.526   3.674 -0.6866  0.3205  0.1227
   42SOL    HW1  252   6.183   5.468   3.749 -1.3051  0.2195  0.1977
   42SOL    HW2  253   6.077   5.504   3.647 -0.8601  1.0922  0.0236
   43SOL     OW  254   0.029   5.202   2.158 -0.2220  0.1667  0.1690
   43SOL    HW1  255   0.009   5.213   2.252 -0.8404  1.1679 -0.0542
   43SOL    HW2  256  -0.031   5.133   2.130  1.6376 -2.0354  0.9552
   44SOL     OW  257   4.733   4.388   1.934  0.4120 -0.1152 -0.5145
   44SOL    HW1  258   4.793   4.445   1.981  0.8751 -0.3855 -0.7635
   44SOL    HW2  259   4.790   4.331   1.882  0.3498 -3.2630  2.1989
   45SOL     OW  260   4.435   5.537   3.100  0.1332  0.1580  0.1490
   45SOL    HW1  261   4.429   5.510   3.192  0.4150  0.5645  0.2900
   45SOL    HW2  262   4.356   5.589   3.085 -0.3145 -0.5572 -0.0699
   46SOL     OW  263   6.100   3.768   1.367  0.0950 -0.7329 -0.9909
   46SOL    HW1  264   6.175   3.825   1.386  0.9971 -1.9908 -0.4544
   46SOL    HW2  265   6.135   3.679   1.376 -1.0252 -1.4216 -2.5174
   47SOL     OW  266   2.476   6.172   3.487  0.7413  0.8782  0.4544
   47SOL    HW1  267   2.434   6.258   3.491  1.0566  1.1807 -1.1646
   47SOL    HW2  268   2.556   6.186   3.437 -0.3161 -0.6422 -2.0768
   48SOL     OW  269   1.016   4.651   0.019  0.2985  0.2899 -0.1891
   48SOL    HW1  270   1.111   4.643   0.027  0.2428 -1.6007 -0.5535
   48SOL    HW2  271   0.988   4.688   0.103  1.2884 -0.1054  0.3518
   49SOL     OW  272   5.183   3.573   1.219  0.3911  0.7526 -0.5650
   49SOL    HW1  273   5.221   3.655   1.188  2.2750  0.1418 -0.0923
   49SOL    HW2  274   5.249   3.506   1.200  0.2713 -0.1943  1.6790
   50SOL     OW  275   4.090   1.142   3.462  0.5400  0.2983  0.1283
   50SOL    HW1  276   4.053   1.213   3.411  2.6584  1.4970  0.0164
   50SOL    HW2  277   4.082   1.172   3.553  0.1762 -0.0361  0.2144
   51SOL     OW  278   4.066   3.909   3.122  0.2688  0.3622  0.0156
   51SOL    HW1  279   4.065   3.844   3.052  1.9887  1.6418 -1.3746
   51SOL    HW2  280   3.984   3.956   3.112 -0.8160 -1.1800  0.7832
   52SOL     OW  281   3.246   0.466   0.189  0.5809  0.4985 -0.1076
   52SOL    HW1  282   3.323   0.410   0.197  0.2009 -0.1372 -0.7015
   52SOL    HW2  283   3.212   0.449   0.101 -0.6339  0.2152  0.3757
   53SOL     OW  284   0.131   2.533   2.873  0.8308 -0.0164 -0.5523
   53SOL    HW1  285   0.053   2.481   2.853 -0.3768  0.9742  1.0139
   53SOL    HW2  286   0.194   2.509   2.806 -0.0316 -2.4877 -0.6841
   54SOL     OW  287   4.507   3.912   0.138  0.0230 -0.2859  0.1507
   54SOL    HW1  288   4.507   3.823   0.105  2.0012 -0.4916  0.4543
   54SOL    HW2  289   4.599   3.937   0.140 -0.2345  0.9880  2.1092
   55SOL     OW  290   0.939   1.724   4.043  0.0794  0.4217 -0.0284
   55SOL    HW1  291   0.921   1.700   4.134  0.7729 -1.6899 -0.3384
   55SOL    HW2  292   1.034   1.734   4.039 -0.0368  2.3363 -0.2464
   56SOL     OW  293   3.127   5.338   4.207  0.2262  0.3293 -0.0112
   56SOL    HW1  294   3.061   5.390   4.161  0.8387 -0.4335 -1.9097
   56SOL    HW2  295   3.193   5.402   4.235 -0.3641  0.8637  0.2170
   57SOL     OW  296   2.281   3.277   3.262  0.1835  0.1410 -0.1315
   57SOL    HW1  297   2.331   3.266   3.181 -0.4044  0.3824 -0.5338
   57SOL    HW2  298   2.264   3.371   3.268 -0.8813 -0.0062 -0.4228
   58SOL     OW  299   4.979   0.293   0.197  0.7749  0.0691  0.2313
   58SOL    HW1  300   5.068   0.309   0.228  1.0976  3.1825 -1.5432
   58SOL    HW2  301   4.929   0.370   0.225 -0.4178  0.0741 -1.6036
   59SOL     OW  302   2.982   3.326   3.588  1.0384  0.4256  0.4034
   59SOL    HW1  303   2.935   3.347   3.668 -2.0429 -0.0783 -0.9849
   59SOL    HW2  304   3.007   3.411   3.551 -0.1202  0.9018  0.6203
   60SOL     OW  305   3.885   1.483   3.182 -0.2218 -0.5214  0.5220
   60SOL    HW1  306   3.861   1.563   3.227 -1.3761 -1.5877  2.0029
   60SOL    HW2  307   3.852   1.413   3.238  0.8264 -2.0579 -0.6140
   61SOL     OW  308   4.602   0.171   4.480 -0.4222 -0.4691 -0.1116
   61SOL    HW1  309   4.622   0.148   4.570  1.0081  1.2165  0.1202
   61SOL    HW2  310   4.532   0.236   4.487  1.1456  1.3865  0.1504
   62SOL     OW  311   2.916   3.027   0.112 -0.2986  0.3393  0.7066
   62SOL    HW1  312   3.009   3.022   0.134  0.1696 -0.3093 -1.0889
   62SOL    HW2  313   2.901   3.120   0.092 -0.1441  0.5044  1.3251
   63SOL     OW  314   3.512   1.036   0.742  0.0102 -0.3446 -0.5175
   63SOL    HW1  315   3.492   0.944   0.758 -3.1810  0.3431  1.1174
   63SOL    HW2  316   3.455   1.062   0.670 -1.7792  0.8368  1.1304
   64SOL     OW  317   5.926   0.098   0.692  0.0263 -0.1248 -0.0759
   64SOL    HW1  318   5.963   0.186   0.683 -1.8971  0.8071 -0.0424
   64SOL    HW2  319   5.935   0.059   0.605  1.3662 -0.1451  0.0398
   65SOL     OW  320   3.832   3.800   2.036 -0.1748  0.4773  0.1001
   65SOL    HW1  321   3.759   3.751   1.999 -0.2041  1.4845 -1.3202
   65SOL    HW2  322   3.851   3.868   1.972  2.4198 -0.0737  0.0500
   66SOL     OW  323   1.166   2.754   0.463  0.1298 -0.0604  0.1024
   66SOL    HW1  324   1.095   2.814   0.440  1.7311  1.3652 -1.9200
   66SOL    HW2  325   1.122   2.673   0.489 -2.1832  1.1549  0.5232
   67SOL     OW  326   6.249   4.643   0.301 -0.2304 -0.3266  0.8577
   67SOL    HW1  327   6.239   4.683   0.387  0.3438  0.9625  0.3618
   67SOL    HW2  328   6.169   4.591   0.290 -2.6441  2.8341  0.4811
   68SOL     OW  329   2.832   2.870   4.467  0.3156 -0.7512  0.2333
   68SOL    HW1  330   2.821   2.942   4.529  0.9739  2.0215 -2.3664
   68SOL    HW2  331   2.743   2.844   4.444  0.0658 -1.3475  1.6776
   69SOL     OW  332   3.425   5.778   1.952 -0.1143 -0.1776  0.2967
   69SOL    HW1  333   3.340   5.770   1.995 -0.1892 -0.3575  0.1144
   69SOL    HW2  334   3.487   5.791   2.025 -0.5173  2.1774  0.3723
   70SOL     OW  335   4.705   0.005   2.985 -0.1730  0.0046 -0.0672
   70SOL    HW1  336   4.718   0.095   2.955  1.2519  0.1875  0.8808
   70SOL    HW2  337   4.788  -0.018   3.027 -0.9717 -1.2629  0.9700
   71SOL     OW  338   5.914   0.234   1.431 -0.1063 -0.8745  0.6706
   71SOL    HW1  339   5.834   0.286   1.440 -0.0967 -0.7289  0.0059
   71SOL    HW2  340   5.951   0.260   1.346  2.4554  1.5847  2.1934
   72SOL     OW  341   2.830   3.353   0.699 -0.7373  0.2371  0.2761
   72SOL    HW1  342   2.772   3.281   0.673 -0.0658 -0.4632  0.6548
   72SOL    HW2  343   2.781   3.401   0.766 -0.6347 -0.7528  1.0977
   73SOL     OW  344   3.361   5.586   1.712  0.0590 -0.0032 -0.0543
   73SOL    HW1  345   3.358   5.505   1.763  0.7128  0.2995  0.4957
   73SOL    HW2  346   3.347   5.656   1.776 -1.8794  0.3174 -0.6943
   74SOL     OW  347   2.593   4.317   2.348 -0.0781  0.4731  0.1274
   74SOL    HW1  348   2.613   4.285   2.261  2.2190 -0.8620  0.9718
   74SOL    HW2  349   2.623   4.408   2.348 -0.1426  0.5027 -0.4494
   75SOL     OW  350   0.863   4.309   1.759  0.0640 -0.2433  0.1394
   75SOL    HW1  351   0.851   4.353   1.675  2.9604 -0.6268 -0.6883
   75SOL    HW2  352   0.774   4.299   1.794 -1.6386 -1.4121 -3.5360
   76SOL     OW  353   6.093   4.254   0.156  0.5547 -0.3305 -0.1191
   76SOL    HW1  354   6.088   4.212   0.071 -0.9443 -1.6973  0.5356
   76SOL    HW2  355   6.173   4.219   0.196  1.0421  0.0039 -0.7689
   77SOL     OW  356   0.644   1.934   2.513 -0.2801 -0.1491 -0.6149
   77SOL    HW1  357   0.607   1.886   2.587  1.5204 -0.6412  0.0596
   77SOL    HW2  358   0.678   2.015   2.552  0.4180 -0.2759 -0.9364
   78SOL     OW  359   2.143   2.330   1.423 -0.2056  0.2883 -0.3214
   78SOL    HW1  360   2.196   2.368   1.354  0.1362  0.6688  0.1333
   78SOL    HW2  361   2.205   2.310   1.493  0.0546 -3.0267 -1.1976
   79SOL     OW  362   6.184   2.304   0.074  0.5706 -0.2140 -0.5048
   79SOL    HW1  363   6.220   2.393   0.070  0.4335 -0.1730 -0.8272
   79SOL    HW2  364   6.173   2.288   0.168 -1.5303  0.9922 -0.4118
   80SOL     OW  365   4.549   0.729   3.557 -0.3002  0.6234 -0.1430
   80SOL    HW1  366   4.480   0.748   3.492  1.8157  0.5843 -2.7641
   80SOL    HW2  367   4.600   0.810   3.561  1.8972 -0.4442 -1.9121
   81SOL     OW  368   5.002   0.144   1.767  0.0449 -0.5714 -0.2443
   81SOL    HW1  369   4.961   0.223   1.732  0.6600  0.1678  0.6135
   81SOL    HW2  370   5.092   0.169   1.784  0.4850 -1.7254 -0.7153
   82SOL     OW  371   0.691   5.348   1.165  0.2767  0.1138  0.2171
   82SOL    HW1  372   0.736   5.284   1.109  0.5026 -0.7615  1.3395
   82SOL    HW2  373   0.633   5.395   1.105  2.0011  0.6910 -1.1423
   83SOL     OW  374   4.710   2.920   4.413 -0.2680 -0.5698  0.2851
   83SOL    HW1  375   4.709   2.961   4.500 -0.3357  1.9881 -0.7434
   83SOL    HW2  376   4.623   2.938   4.377  0.9879  3.4204 -2.0168
   84SOL     OW  377   1.875   1.960   1.267  0.1022 -0.3298  0.5865
   84SOL    HW1  378   1.831   1.964   1.352 -0.7145  0.3821  0.1629
   84SOL    HW2  379   1.819   1.903   1.214 -1.9002  2.3557 -0.7015
   85SOL     OW  380   1.438   4.969   3.827 -0.7162 -0.9118 -0.0770
   85SOL    HW1  381   1.518   4.971   3.879 -2.1304  0.0458  2.3854
   85SOL    HW2  382   1.425   5.060   3.800 -0.5811 -1.2201 -1.3457
   86SOL     OW  383   0.401   0.410   1.066  0.1773  0.1653 -0.1595
   86SOL    HW1  384   0.390   0.418   1.160  0.1483 -1.2105 -0.0025
   86SOL    HW2  385   0.488   0.445   1.049  0.3128  0.1305  0.4295
   87SOL     OW  386   2.214   2.551   3.607 -0.1144 -0.1867 -0.3819
   87SOL    HW1  387   2.298   2.584   3.637 -0.8232  0.7305  0.7236
   87SOL    HW2  388   2.220   2.456   3.620  0.3507 -0.0261  0.7664
   88SOL     OW  389   0.325   2.141   3.222  0.1509  0.1211  0.0091
   88SOL    HW1  390   0.295   2.186   3.143  0.6426 -1.8306 -1.4197
   88SOL    HW2  391   0.253   2.151   3.284 -0.4923  1.2571 -0.8465
   89SOL     OW  392   0.566   5.090   1.529 -0.0789 -0.3447 -0.1583
   89SOL    HW1  393   0.533   5.119   1.444  0.0341 -2.2073 -0.9341
   89SOL    HW2  394   0.660   5.076   1.516 -0.1014 -0.8931  0.1815
   90SOL     OW  395   2.811   0.816   1.936  0.3543  0.3244 -0.1511
   90SOL    HW1  396   2.770   0.804   2.021  2.7907 -0.1878  1.1294
   90SOL    HW2  397   2.740   0.847   1.879 -1.7974 -0.8706  1.5759
   91SOL     OW  398   0.303   3.455   1.655 -0.3602 -0.5120 -0.5913
   91SOL    HW1  399   0.391   3.468   1.691  0.2157 -1.3448 -1.5671
   91SOL    HW2  400   0.289   3.531   1.598 -1.1263  0.6190  0.9503
   92SOL     OW  401   2.270   6.255   3.283  0.5728 -0.0784  0.3514
   92SOL    HW1  402   2.339   6.321   3.292  0.5530 -0.0581  0.3556
   92SOL    HW2  403   2.189   6.305   3.280  0.4558 -0.1363  1.4340
   93SOL     OW  404   3.988   2.104   2.579 -0.4869  0.0105  0.0866
   93SOL    HW1  405   4.082   2.116   2.563 -0.7881  0.7896 -1.6181
   93SOL    HW2  406   3.963   2.178   2.633 -0.1989  0.0882  0.1179
   94SOL     OW  407   0.852   2.749   0.315 -0.7578  0.0121 -0.6083
   94SOL    HW1  408   0.912   2.822   0.328  0.7249 -1.3556  3.0906
   94SOL    HW2  409   0.779   2.768   0.374 -0.0546 -1.4694  0.9335
   95SOL     OW  410   5.186   5.699   0.772  0.5542  0.6932 -0.7328
   95SOL    HW1  411   5.122   5.641   0.813  2.5051 -0.1409  1.6611
   95SOL    HW2  412   5.181   5.680   0.679 -0.5956 -1.5538 -0.3309
   96SOL     OW  413   3.486   0.784   2.086 -0.0331 -0.1746  0.2704
   96SOL    HW1  414   3.430   0.760   2.012 -0.9373  1.3383  0.3734
   96SOL    HW2  415   3.500   0.703   2.134 -1.3744 -0.7828 -0.2799
   97SOL     OW  416   5.664   5.369   2.859 -0.4224  0.0600  0.0007
   97SOL    HW1  417   5.740   5.398   2.909 -0.8189  0.0291  0.6448
   97SOL    HW2  418   5.645   5.282   2.892 -0.6129 -0.0170 -0.3019
   98SOL     OW  419   0.793   5.504   1.691  0.0506  0.0046  0.5141
   98SOL    HW1  420   0.825   5.520   1.780  0.3954 -0.3317  0.4603
   98SOL    HW2  421   0.873   5.503   1.637 -0.0994 -0.3199  0.2881
   99SOL     OW  422   3.653   5.739   2.688 -0.2426 -0.1891 -0.0684
   99SOL    HW1  423   3.594   5.777   2.623 -0.3109 -0.1807 -0.0019
   99SOL    HW2  424   3.740   5.766   2.660 -0.1838 -0.9848 -0.6976
  100SOL     OW  425   2.353   2.610   2.710 -0.3392  0.1024  0.2409
  100SOL    HW1  426   2.328   2.701   2.690 -2.1495 -0.3429  0.1524
  100SOL    HW2  427   2.274   2.559   2.692  0.6942 -1.5655  0.0125
  101SOL     OW  428   4.477   5.118   2.741 -0.7018 -0.1891  0.0424
  101SOL    HW1  429   4.526   5.193   2.776 -2.5507 -0.2957  4.0363
  101SOL    HW2  430   4.525   5.042   2.773 -0.4777 -0.6595 -1.2959
  102SOL     OW  431   2.448   1.931   1.308 -0.0999 -0.2056  0.2578
  102SOL    HW1  432   2.508   1.860   1.286 -0.8277 -1.3087  1.4840
  102SOL    HW2  433   2.361   1.892   1.302 -0.6334  0.9500 -0.1661
  103SOL     OW  434   3.982   3.160   3.479 -0.0087  0.1057  0.2553
  103SOL    HW1  435   3.950   3.171   3.568  0.2720 -1.0325  0.5237
  103SOL    HW2  436   3.918   3.207   3.425 -0.9398 -0.3066  0.9435
  104SOL     OW  437   5.033   4.967   0.083  0.3133 -0.0911  0.3706
  104SOL    HW1  438   5.111   4.957   0.139  0.0157 -2.2037  0.5743
  104SOL    HW2  439   5.050   4.909   0.009 -0.3796  0.7398 -0.4760
  105SOL     OW  440   0.489   3.852   2.763 -0.1717 -0.6233  0.0463
  105SOL    HW1  441   0.562   3.849   2.824 -0.4180 -0.2470  0.3673
  105SOL    HW2  442   0.519   3.908   2.691 -1.0474  1.9902  1.4673
  106SOL     OW  443   6.227   1.436   1.257  0.0768  0.7466 -0.2978
  106SOL    HW1  444   6.176   1.356   1.271  0.3064  0.6789  0.2167
  106SOL    HW2  445   6.221   1.452   1.163 -0.0260  0.1595 -0.4014
  107SOL     OW  446   2.682   5.236   3.289  0.5817  0.1699 -0.3166
  107SOL    HW1  447   2.688   5.157   3.342  0.8740  1.1960  1.3176
  107SOL    HW2  448   2.770   5.248   3.254  1.2539  0.9624  1.4272
  108SOL     OW  449   2.586   2.980   0.208 -0.1362  0.4046  0.6838
  108SOL    HW1  450   2.527   2.921   0.255  0.1060  0.2218  0.7689
  108SOL    HW2  451   2.607   2.933   0.127 -0.7016  0.8031  0.3003
  109SOL     OW  452   1.873   5.710   2.764  0.1342 -0.2482 -0.3539
  109SOL    HW1  453   1.929   5.667   2.829 -0.4972 -1.3073 -0.4733
  109SOL    HW2  454   1.834   5.638   2.714 -0.2671  0.5037 -1.1779
  110SOL     OW  455   4.341   2.887   0.825  0.2483  0.1431  0.4860
  110SOL    HW1  456   4.285   2.943   0.878 -0.0083 -0.3641  0.7660
  110SOL    HW2  457   4.429   2.900   0.861  0.3146  0.8689  0.1067
  111SOL     OW  458   6.039   5.827   2.097 -0.4903 -0.4021 -0.3047
  111SOL    HW1  459   6.103   5.775   2.048 -0.6338 -0.1932 -0.7254
  111SOL    HW2  460   6.025   5.904   2.042  1.8716  1.6451  1.4767
  112SOL     OW  461   2.994   3.606   4.442  0.2582  0.5478  0.4188
  112SOL    HW1  462   3.076   3.633   4.400 -0.7003  1.3954 -1.0905
  112SOL    HW2  463   2.993   3.510   4.434  1.0376  0.5267  0.4071
  113SOL     OW  464   1.940   1.214   2.172  0.3486  0.2805 -0.0217
  113SOL    HW1  465   2.029   1.195   2.199  0.1380 -1.1463 -0.1439
  113SOL    HW2  466   1.904   1.128   2.148 -1.1314  0.7662  0.2613
  114SOL     OW  467   3.528   4.312   2.330  0.3417 -0.6386  0.0098
  114SOL    HW1  468   3.548   4.229   2.373  0.3941 -0.9047 -0.5064
  114SOL    HW2  469   3.594   4.320   2.261  0.0277 -0.4203 -0.2747
  115SOL     OW  470   3.608   3.743   4.319 -0.4501 -0.5369 -0.0340
  115SOL    HW1  471   3.526   3.751   4.367  1.2472  1.0965  3.1635
  115SOL    HW2  472   3.654   3.670   4.361  1.4189  1.4280  1.8297
  116SOL     OW  473   6.213   2.561   3.006  0.0500  0.5686 -0.3397
  116SOL    HW1  474   6.230   2.654   3.026 -2.2278  1.3181 -1.3101
  116SOL    HW2  475   6.221   2.555   2.911  0.6654 -0.4171 -0.2535
  117SOL     OW  476   4.082   0.959   0.062 -0.3047 -0.4352 -0.3707
  117SOL    HW1  477   4.156   0.900   0.053  0.2200  0.1424  0.0248
  117SOL    HW2  478   4.044   0.938   0.148  0.0523 -0.0250 -0.1052
  118SOL     OW  479   6.136   1.727   1.874  0.2496 -0.0775  0.1782
  118SOL    HW1  480   6.196   1.800   1.884 -0.8552  0.9025  0.0663
  118SOL    HW2  481   6.115   1.726   1.781 -0.2054 -0.1338  0.2765
  119SOL     OW  482   5.581   2.763   3.028 -0.2978 -0.0586  0.1217
  119SOL    HW1  483   5.552   2.852   3.010  0.8431  0.5571  1.0809
  119SOL    HW2  484   5.529   2.708   2.969  1.0080  1.4199 -2.7894
  120SOL     OW  485   3.755   2.105   3.569  0.2509  1.0769 -0.2201
  120SOL    HW1  486   3.685   2.154   3.612  0.4236  0.1979  1.1498
  120SOL    HW2  487   3.829   2.109   3.629  1.3972  1.8503 -1.5561
  121SOL     OW  488   2.461   4.873   2.647  0.2676 -0.5055 -0.4543
  121SOL    HW1  489   2.421   4.904   2.728 -0.0862 -0.7959 -0.5140
  121SOL    HW2  490   2.391   4.873   2.583  0.6232  0.0467 -0.8627
  122SOL     OW  491   0.187   0.434   3.286  0.4439 -0.0242  0.2021
  122SOL    HW1  492   0.222   0.390   3.363 -1.1175 -0.3455  0.7983
  122SOL    HW2  493   0.175   0.525   3.313 -2.7197 -0.5679  1.5591
  123SOL     OW  494   4.050   2.113   1.896 -0.6492  0.5493  0.0413
  123SOL    HW1  495   4.080   2.108   1.805 -2.7329  0.6533 -0.7720
  123SOL    HW2  496   4.049   2.207   1.915  0.5601  0.4994  0.5421
  124SOL     OW  497   3.799   0.521   3.122 -0.1415  0.0702  0.2605
  124SOL    HW1  498   3.765   0.449   3.174  1.5346 -1.9614 -1.1000
  124SOL    HW2  499   3.823   0.588   3.186 -0.5220 -1.1446  1.7979
  125SOL     OW  500   2.097   4.776   4.293  0.0882  0.0561 -0.5381
  125SOL    HW1  501   2.102   4.814   4.205 -0.5243  2.7875  0.4128
  125SOL    HW2  502   2.158   4.703   4.291  1.8757  1.3638 -2.6350
  126SOL     OW  503   2.023   5.048   3.090  1.1607  0.1000  0.3390
  126SOL    HW1  504   2.051   5.062   3.000  0.9844  0.5748  0.3531
  126SOL    HW2  505   1.935   5.086   3.094  1.1700  0.0902  0.7123
  127SOL     OW  506   2.520   5.073   0.310 -0.2489 -0.1033  0.4724
  127SOL    HW1  507   2.456   5.005   0.327 -0.5294  0.3332  1.3156
  127SOL    HW2  508   2.604   5.035   0.337  0.1656 -1.1504 -1.8280
  128SOL     OW  509   6.243   6.033   3.416 -0.4592 -0.2941 -0.2376
  128SOL    HW1  510   6.195   5.951   3.422 -0.4653 -0.6557 -2.8379
  128SOL    HW2  511   6.321   6.019   3.471 -1.3613 -1.2174  0.9123
  129SOL     OW  512   1.275   5.089   3.339  0.0826  0.1491  0.2267
  129SOL    HW1  513   1.220   5.083   3.261 -0.3597  1.8655  0.3155
  129SOL    HW2  514   1.277   5.001   3.375 -1.7591 -0.2227 -0.3825
  130SOL     OW  515   2.776   2.169   2.652 -0.3245  0.2318 -0.0202
  130SOL    HW1  516   2.792   2.241   2.592  0.9095  0.2070  0.2241
  130SOL    HW2  517   2.863   2.147   2.687 -0.7027 -1.1192  0.1970
  131SOL     OW  518   5.370   3.162   2.266 -0.1227 -0.1121  0.1227
  131SOL    HW1  519   5.283   3.178   2.231 -0.1266 -1.5420 -0.6693
  131SOL    HW2  520   5.421   3.240   2.243 -1.4694  1.5370  1.9924
  132SOL     OW  521   1.401   4.662   1.802  0.2820  0.0684  0.1606
  132SOL    HW1  522   1.457   4.721   1.752  0.1243  0.7709  0.7662
  132SOL    HW2  523   1.459   4.626   1.869  0.3763 -0.4721 -0.2069
  133SOL     OW  524   2.289   1.019   3.105  0.0178  0.1894 -0.3753
  133SOL    HW1  525   2.248   0.982   3.027  0.3912  1.0414 -1.0073
  133SOL    HW2  526   2.242   1.101   3.120  0.6681  0.5763 -0.3790
  134SOL     OW  527   0.413   2.347   1.874 -0.3945  0.1556  0.7050
  134SOL    HW1  528   0.436   2.254   1.879 -0.0087 -0.0241 -1.8032
  134SOL    HW2  529   0.343   2.351   1.808 -1.2439  1.5899  1.5716
  135SOL     OW  530   0.455   5.931   4.448  0.5670 -0.0735 -0.0013
  135SOL    HW1  531   0.365   5.899   4.436  1.1232 -1.5192 -0.7914
  135SOL    HW2  532   0.509   5.870   4.398  2.1645 -0.2105  1.6884
  136SOL     OW  533   5.670   1.278   1.841 -0.3778  0.2479 -0.3461
  136SOL    HW1  534   5.703   1.282   1.930 -1.4289 -1.8663  0.2597
  136SOL    HW2  535   5.748   1.284   1.786  0.3717  0.7920  0.7178
  137SOL     OW  536   5.477   5.990   3.680 -0.0298 -0.0074 -0.5993
  137SOL    HW1  537   5.528   5.910   3.693 -0.2338 -0.0878 -0.2845
  137SOL    HW2  538   5.467   5.996   3.585  0.8455  0.1877 -0.6974
  138SOL     OW  539   2.579   1.777   0.713 -0.5369 -0.3008 -0.1306
  138SOL    HW1  540   2.518   1.732   0.655 -1.9895  2.0209 -0.6704
  138SOL    HW2  541   2.537   1.860   0.732  1.7827  0.8295  0.8457
  139SOL     OW  542   3.586   2.531   1.167  0.0426  0.1410  0.2568
  139SOL    HW1  543   3.634   2.526   1.085 -0.7043 -1.9580 -0.1642
  139SOL    HW2  544   3.640   2.588   1.223  2.0687 -0.6165 -0.7446
  140SOL     OW  545   3.245   3.773   1.991  0.4295  0.1222  0.3532
  140SOL    HW1  546   3.225   3.707   1.924  2.2566  0.2872 -0.4790
  140SOL    HW2  547   3.285   3.845   1.942  0.2423  1.0452  1.4692
  141SOL     OW  548   3.660   2.426   0.098 -0.0736  0.2005  0.3691
  141SOL    HW1  549   3.744   2.464   0.122 -1.0905  2.0751  1.4767
  141SOL    HW2  550   3.638   2.369   0.172  0.1138 -0.1094  0.1880
  142SOL     OW  551   4.507   6.124   4.264 -0.0370  0.5852  0.0636
  142SOL    HW1  552   4.589   6.150   4.220 -0.9668  0.6633 -1.8360
  142SOL    HW2  553   4.476   6.204   4.306  0.2013  0.9358 -0.3994
  143SOL     OW  554   4.164   3.148   2.720 -0.3132 -0.4653 -0.5139
  143SOL    HW1  555   4.256   3.159   2.700 -0.5375  0.9537 -0.9524
  143SOL    HW2  556   4.159   3.152   2.815  0.1792 -1.9184 -0.3776
  144SOL     OW  557   6.227   1.105   1.945  0.1677  0.1465 -0.0998
  144SOL    HW1  558   6.246   1.171   2.012  0.5487  0.4741 -0.5203
  144SOL    HW2  559   6.277   1.029   1.972  0.4960  0.3504 -0.1227
  145SOL     OW  560   1.115   1.664   3.280 -0.4628  0.4663  0.1595
  145SOL    HW1  561   1.036   1.616   3.257  0.8318 -0.9413 -2.0982
  145SOL    HW2  562   1.088   1.756   3.281 -2.4016 -0.0055  1.4033
  146SOL     OW  563   4.387   0.839   4.156 -0.5645 -0.3094 -0.3564
  146SOL    HW1  564   4.359   0.763   4.105 -1.8812 -0.4947  0.5446
  146SOL    HW2  565   4.328   0.841   4.232 -0.1734  1.2557 -0.0081
  147SOL     OW  566   0.866   0.513   2.277  0.3173  0.2305  0.5168
  147SOL    HW1  567   0.938   0.558   2.232 -0.7012 -0.8876 -2.8541
  147SOL    HW2  568   0.803   0.582   2.296  0.2340  0.7569 -1.2987
  148SOL     OW  569   2.020   4.141   0.132 -0.3755  0.3258  0.1133
  148SOL    HW1  570   2.041   4.058   0.089 -0.5796 -0.8300  2.0279
  148SOL    HW2  571   2.064   4.207   0.078 -0.5632 -0.9196 -1.7678
  149SOL     OW  572   3.450   1.238   2.548  0.1227 -0.2564 -0.3580
  149SOL    HW1  573   3.496   1.222   2.630  0.1972 -0.7339 -0.4844
  149SOL    HW2  574   3.457   1.332   2.533 -0.2198 -0.1069  0.3736
  150SOL     OW  575   2.457   4.243   3.411 -0.3980 -0.2016 -0.5848
  150SOL    HW1  576   2.431   4.302   3.482 -1.6648 -0.3159 -0.9118
  150SOL    HW2  577   2.543   4.274   3.384 -0.0624  0.1187  0.6907
  151SOL     OW  578   4.332   1.596   0.756  0.0402 -0.0928  0.0538
  151SOL    HW1  579   4.398   1.664   0.750 -0.7361  0.6252 -1.1689
  151SOL    HW2  580   4.372   1.528   0.810  0.8746  1.2739  1.3002
  152SOL     OW  581   1.879   0.760   2.335 -0.3829 -0.0233  0.5369
  152SOL    HW1  582   1.909   0.822   2.401 -1.4663  2.0615 -0.7289
  152SOL    HW2  583   1.960   0.726   2.296  0.5343  2.8161 -0.5253
  153SOL     OW  584   6.034   6.006   4.532 -0.1715  0.2443 -0.0384
  153SOL    HW1  585   5.938   6.004   4.526 -0.5396 -2.4320  2.4872
  153SOL    HW2  586   6.053   6.079   4.590 -0.9151 -0.0962  0.6731
  154SOL     OW  587   5.737   4.315   0.988  0.5642 -0.4659 -0.4195
  154SOL    HW1  588   5.694   4.401   0.988  0.5499 -0.2710  2.6889
  154SOL    HW2  589   5.688   4.264   1.053  0.0982 -3.2648 -2.5746
  155SOL     OW  590   5.982   5.322   0.974 -0.0804  0.0288  0.4800
  155SOL    HW1  591   6.063   5.321   1.026 -1.1375 -0.1486  2.2972
  155SOL    HW2  592   5.937   5.241   0.999 -0.5199 -0.2504 -1.0634
  156SOL     OW  593   5.814   4.256   2.508 -0.0146 -0.3300  0.2396
  156SOL    HW1  594   5.829   4.328   2.447  0.6539 -1.0391 -0.4891
  156SOL    HW2  595   5.901   4.235   2.542  0.1833 -1.9820 -1.0316
  157SOL     OW  596   2.456   0.684   0.661  0.3588 -0.0552 -0.0121
  157SOL    HW1  597   2.448   0.748   0.731 -1.4738  0.8819 -0.9271
  157SOL    HW2  598   2.454   0.599   0.705  1.2859  0.4646  1.1308
  158SOL     OW  599   3.451   2.008   1.039 -0.4547 -0.1780  0.0655
  158SOL    HW1  600   3.482   2.097   1.050 -0.2784  0.0060 -1.4142
  158SOL    HW2  601   3.435   2.000   0.945  2.1164 -2.4670 -0.4508
  159SOL     OW  602   2.968   0.369   0.601 -0.0476 -0.1311 -0.2632
  159SOL    HW1  603   3.028   0.343   0.531 -0.5314  2.0729 -1.7305
  159SOL    HW2  604   3.024   0.410   0.667  0.3649 -1.7961  0.5196
  160SOL     OW  605   0.033   4.313   1.894  0.0343 -0.5307 -0.3468
  160SOL    HW1  606   0.107   4.282   1.840 -0.0141  0.0132 -0.7476
  160SOL    HW2  607   0.024   4.405   1.870  0.0348 -0.2538  0.6376
  161SOL     OW  608   1.439   0.101   1.960 -0.1464 -0.0038  0.3669
  161SOL    HW1  609   1.452   0.010   1.934 -0.4991  0.1036 -0.2210
  161SOL    HW2  610   1.489   0.110   2.041  1.0351 -0.3567 -0.2721
  162SOL     OW  611   5.997   3.784   3.454  0.4598  0.0309  0.3535
  162SOL    HW1  612   6.085   3.818   3.437  0.5845  0.2923  1.3396
  162SOL    HW2  613   5.997   3.695   3.419 -0.0456  1.0527 -2.8208
  163SOL     OW  614   5.097   1.974   2.303  0.1578 -0.3632  0.1324
  163SOL    HW1  615   5.099   2.033   2.227  2.5868 -0.8137 -0.3327
  163SOL    HW2  616   5.028   1.911   2.283 -1.8521  1.5899  0.1850
  164SOL     OW  617   6.284   2.650   2.348  0.1295  0.2825  0.1010
  164SOL    HW1  618   6.233   2.599   2.284 -0.2941  0.2826  0.4297
  164SOL    HW2  619   6.367   2.668   2.303 -0.0762  0.1026 -0.3702
  165SOL     OW  620   6.148   1.250   1.517  0.3312  0.2347  0.4981
  165SOL    HW1  621   6.104   1.221   1.437  2.5065  0.1969 -0.8567
  165SOL    HW2  622   6.186   1.170   1.553  1.1219  0.5050  0.3130
  166SOL     OW  623   3.303   3.304   0.841 -0.0344  0.1269 -0.0514
  166SOL    HW1  624   3.255   3.269   0.767  0.3626  0.7700 -0.6391
  166SOL    HW2  625   3.387   3.257   0.840  0.2556  0.6282 -0.4684
  167SOL     OW  626   5.660   4.607   1.224  0.0127 -0.4077  0.0150
  167SOL    HW1  627   5.694   4.696   1.224 -2.4927  0.7503 -0.6952
  167SOL    HW2  628   5.686   4.571   1.308  0.3400  1.3831  0.7706
  168SOL     OW  629   2.925   2.467   3.798  0.2231 -0.4698  0.7880
  168SOL    HW1  630   2.993   2.446   3.862 -0.0756 -1.7239  0.7319
  168SOL    HW2  631   2.954   2.426   3.717  0.6411  1.1715  0.0266
  169SOL     OW  632   0.263   0.226   2.354 -0.4356  0.1084 -0.1705
  169SOL    HW1  633   0.304   0.301   2.397  0.8200 -1.0766  0.8771
  169SOL    HW2  634   0.248   0.256   2.264  2.7839  0.8098 -0.7322
  170SOL     OW  635   4.139   0.357   3.614  0.1752  0.3711  0.0866
  170SOL    HW1  636   4.144   0.397   3.527 -0.2051 -0.3322 -0.2807
  170SOL    HW2  637   4.230   0.337   3.636  0.2071 -0.3184 -0.5975
  171SOL     OW  638   5.431   2.100   3.471 -0.0436  0.6487  0.1776
  171SOL    HW1  639   5.373   2.115   3.546 -0.4933 -1.0514  0.2374
  171SOL    HW2  640   5.494   2.035   3.502 -0.5699 -0.5107 -1.0372
  172SOL     OW  641   6.198   3.381   3.132 -0.4054  0.1619 -0.7868
  172SOL    HW1  642   6.126   3.326   3.163 -0.9969  1.4540  0.3036
  172SOL    HW2  643   6.158   3.464   3.109  0.6296  0.6476 -0.9636
  173SOL     OW  644   2.319   2.918   0.466 -0.4906  0.1852  0.3023
  173SOL    HW1  645   2.389   2.853   0.461  0.1386  0.8575 -0.0683
  173SOL    HW2  646   2.251   2.877   0.520  0.1763 -0.5039  0.6478
  174SOL     OW  647   5.323   0.559   3.090  0.4965  0.6249  0.2366
  174SOL    HW1  648   5.317   0.643   3.136  0.5616  1.0600 -0.5063
  174SOL    HW2  649   5.256   0.565   3.022  1.4203  0.6803 -0.7236
  175SOL     OW  650   0.303   4.580   1.281 -0.4534  0.3660 -0.0520
  175SOL    HW1  651   0.247   4.649   1.318 -0.2652 -0.4154  1.9811
  175SOL    HW2  652   0.270   4.500   1.321  2.3761 -0.1057  1.8883
  176SOL     OW  653   3.928   1.143   3.197 -0.0571  0.9351 -0.3255
  176SOL    HW1  654   3.847   1.123   3.244 -0.7296  1.2977 -1.2663
  176SOL    HW2  655   3.899   1.193   3.121  0.9893  0.4445 -1.0789
  177SOL     OW  656   4.866   1.345   0.701 -0.0493 -0.6226 -0.1623
  177SOL    HW1  657   4.881   1.384   0.787  0.2905  2.7860 -1.4472
  177SOL    HW2  658   4.950   1.306   0.677  0.7553  0.7719  0.1531
  178SOL     OW  659   1.430   5.262   1.158  0.1172 -0.0921  0.4310
  178SOL    HW1  660   1.485   5.327   1.113  1.0850  0.2070  1.9208
  178SOL    HW2  661   1.341   5.298   1.150  0.1410 -0.2263 -1.4250
  179SOL     OW  662   0.021   0.126   3.706  0.4281  0.5043 -0.0037
  179SOL    HW1  663  -0.015   0.078   3.781  1.7252  1.3165  1.2364
  179SOL    HW2  664  -0.045   0.116   3.637 -0.4164 -1.0575  0.9232
  180SOL     OW  665   1.218   0.473   2.634  0.0285  0.7457  0.3941
  180SOL    HW1  666   1.232   0.426   2.552 -0.4989 -0.6980  1.0606
  180SOL    HW2  667   1.134   0.441   2.666 -0.5365  2.4172  0.7961
  181SOL     OW  668   4.221   1.251   2.039  0.1637 -0.4463 -0.3143
  181SOL    HW1  669   4.140   1.238   2.089  0.5252 -0.5922  0.2572
  181SOL    HW2  670   4.286   1.273   2.106  0.3256  1.0039 -0.8833
  182SOL     OW  671   2.384   5.360   4.135  0.2464  0.4952 -0.2944
  182SOL    HW1  672   2.400   5.326   4.047 -0.2243 -1.4331  0.2649
  182SOL    HW2  673   2.390   5.455   4.125 -0.7177  0.4564 -2.5948
  183SOL     OW  674   4.293   5.924   1.982  0.2565  0.0230  0.0793
  183SOL    HW1  675   4.324   5.995   2.038 -2.4635  1.8130 -0.2865
  183SOL    HW2  676   4.301   5.959   1.893 -0.5676 -0.3953 -0.1747
  184SOL     OW  677   0.972   5.128   3.543  0.3814  0.4914 -0.4912
  184SOL    HW1  678   0.915   5.072   3.595 -0.6984 -1.3865 -3.2739
  184SOL    HW2  679   1.058   5.118   3.583 -0.2423 -1.1895  0.6213
  185SOL     OW  680   0.534   2.594   3.488 -0.1846 -0.0162  0.2207
  185SOL    HW1  681   0.479   2.534   3.536 -0.0172 -1.9014 -1.6613
  185SOL    HW2  682   0.595   2.629   3.553 -2.3812  0.8715  2.0505
  186SOL     OW  683   5.610   0.442   2.271  0.6540 -0.0277 -0.0725
  186SOL    HW1  684   5.653   0.360   2.295 -2.0451 -1.3273  1.1732
  186SOL    HW2  685   5.674   0.510   2.294  2.5792 -1.6614  0.0188
  187SOL     OW  686   3.937   2.421   3.873 -0.1565  0.2021  0.5587
  187SOL    HW1  687   3.939   2.444   3.780  1.1949 -1.0925  0.1985
  187SOL    HW2  688   4.012   2.468   3.911  0.8712 -1.1782  0.3967
  188SOL     OW  689   4.592   0.829   2.319 -0.0546 -0.1721  0.3574
  188SOL    HW1  690   4.536   0.857   2.246 -1.4903 -0.7080  1.1819
  188SOL    HW2  691   4.649   0.904   2.335  0.6926 -0.1970 -1.5941
  189SOL     OW  692   1.147   3.808   1.551 -0.0852 -0.2748 -0.7893
  189SOL    HW1  693   1.058   3.827   1.579 -0.4397 -0.8609 -1.4576
  189SOL    HW2  694   1.190   3.773   1.629  0.0560  1.3952 -0.0246
  190SOL     OW  695   0.535   1.436   3.748 -0.3595 -0.5857  0.4977
  190SOL    HW1  696   0.498   1.516   3.713  2.8592 -0.1127 -3.1316
  190SOL    HW2  697   0.622   1.461   3.780  0.6162 -2.4008 -0.3618
  191SOL     OW  698   0.368   2.768   2.145 -0.5523  0.1757 -0.6710
  191SOL    HW1  699   0.402   2.830   2.209  0.3143  1.6411 -2.3796
  191SOL    HW2  700   0.382   2.810   2.061 -2.5948 -1.1400 -1.8334
  192SOL     OW  701   1.675   3.243   2.377 -0.7628 -0.1298 -0.4195
  192SOL    HW1  702   1.641   3.161   2.413 -1.4196  0.8148  1.2981
  192SOL    HW2  703   1.769   3.240   2.396 -1.0836  0.4096  1.8615
  193SOL     OW  704   5.200   6.413   1.561  0.1505  0.6083  0.0814
  193SOL    HW1  705   5.193   6.348   1.631 -0.1461 -0.8244 -1.1647
  193SOL    HW2  706   5.177   6.496   1.602  0.9454  0.0345  1.8792
  194SOL     OW  707   4.189   5.064   3.625  0.3690 -0.4119 -0.4470
  194SOL    HW1  708   4.269   5.010   3.620  0.2917 -0.4967 -0.8645
  194SOL    HW2  709   4.126   5.018   3.570  0.6138  0.6210 -1.6830
  195SOL     OW  710   2.726   4.413   3.565 -0.0508 -0.5566 -0.3243
  195SOL    HW1  711   2.675   4.464   3.502 -0.6589  1.2099  1.3817
  195SOL    HW2  712   2.667   4.401   3.640  1.3677 -0.0902  0.9830
  196SOL     OW  713   0.631   0.296   2.847  0.0394  0.2614  0.5132
  196SOL    HW1  714   0.563   0.229   2.838  0.9488 -0.8963  1.7053
  196SOL    HW2  715   0.660   0.312   2.757 -0.9644 -0.0864  0.0959
  197SOL     OW  716   3.154   0.543   4.007 -0.6062  0.4201 -0.2135
  197SOL    HW1  717   3.134   0.529   3.915  0.2090 -0.0024 -0.3471
  197SOL    HW2  718   3.229   0.603   4.007 -1.0669  1.0267  0.2137
  198SOL     OW  719   4.760   1.863   2.461  0.2292  0.3543  0.3938
  198SOL    HW1  720   4.804   1.882   2.378  0.3397  0.9317  0.5805
  198SOL    HW2  721   4.828   1.874   2.528 -0.4520  2.8902  0.8840
  199SOL     OW  722   1.513   4.330   1.605  0.3194 -0.0134  0.0592
  199SOL    HW1  723   1.492   4.246   1.565 -0.3578  0.2895 -0.2452
  199SOL    HW2  724   1.607   4.324   1.624  0.0198 -1.4465  1.5335
  200SOL     OW  725   1.701   4.665   3.824  0.0190 -0.1460 -0.1816
  200SOL    HW1  726   1.708   4.656   3.729 -0.9900 -0.2676 -0.2651
  200SOL    HW2  727   1.611   4.640   3.844 -0.0823  0.7876  0.6943
  201SOL     OW  728   1.873   2.398   1.475  0.1013  0.5099 -0.2556
  201SOL    HW1  729   1.945   2.337   1.490  0.4707  0.4531 -1.8949
  201SOL    HW2  730   1.916   2.484   1.473 -0.1236  0.6378  0.1860
  202SOL     OW  731   1.582   4.410   1.107 -0.2783 -0.0590  0.0356
  202SOL    HW1  732   1.618   4.494   1.134 -1.0351  1.6980 -3.3029
  202SOL    HW2  733   1.513   4.391   1.171  1.4649  0.3879  2.2957
  203SOL     OW  734   4.782   3.691   0.307  0.3443 -0.5314  0.1631
  203SOL    HW1  735   4.860   3.691   0.362 -0.8450 -0.4926  2.0390
  203SOL    HW2  736   4.731   3.766   0.339 -0.6461 -0.8011 -0.6917
  204SOL     OW  737   1.609   0.838   0.067 -0.5309 -0.0034 -0.0960
  204SOL    HW1  738   1.600   0.800   0.154 -2.0008 -1.1420 -0.6457
  204SOL    HW2  739   1.685   0.794   0.029 -0.8722 -0.7883  0.0775
  205SOL     OW  740   1.132   4.656   2.930 -0.3670 -0.0320 -0.0317
  205SOL    HW1  741   1.186   4.600   2.873  0.7953  0.0801  0.8783
  205SOL    HW2  742   1.075   4.703   2.869  1.3107  0.6501 -1.2722
  206SOL     OW  743   5.014   0.471   0.517  0.4475  0.3636 -0.6556
  206SOL    HW1  744   5.089   0.418   0.544 -0.2971 -0.4419 -0.0411
  206SOL    HW2  745   4.938   0.417   0.539 -0.4982  2.2593  1.5277
  207SOL     OW  746   1.336   1.701   0.971  0.3948 -0.5644  0.7719
  207SOL    HW1  747   1.417   1.671   1.012  0.4757  1.1709  2.1361
  207SOL    HW2  748   1.277   1.626   0.976  1.3047 -1.2734  1.6194
  208SOL     OW  749   3.750   1.812   4.283  0.0188  0.0780 -0.2508
  208SOL    HW1  750   3.737   1.743   4.218 -1.5930  0.5686 -0.5417
  208SOL    HW2  751   3.662   1.834   4.313  0.6171  0.6377  1.3288
  209SOL     OW  752   2.934   3.924   1.164 -0.0959  0.7325  0.1635
  209SOL    HW1  753   2.913   3.975   1.243  0.0662  0.5480  0.3274
  209SOL    HW2  754   2.869   3.854   1.162  0.5491  0.0764  0.7485
  210SOL     OW  755   2.449   3.871   2.830  0.2295  0.2648  0.1551
  210SOL    HW1  756   2.488   3.799   2.780  0.0201  0.1413  0.1674
  210SOL    HW2  757   2.443   3.838   2.920  1.1794  0.7044  0.4137
  211SOL     OW  758   2.290   0.496   3.867 -0.3817  0.1915  0.3147
  211SOL    HW1  759   2.376   0.491   3.909  0.0961  0.3376 -0.6055
  211SOL    HW2  760   2.281   0.587   3.841 -0.7011  0.1207  0.1683
  212SOL     OW  761   1.915   4.736   4.010  0.2771 -0.1828 -0.5510
  212SOL    HW1  762   1.898   4.690   4.092  0.7812 -0.2264 -0.4614
  212SOL    HW2  763   1.873   4.683   3.943  0.0066 -0.2385 -0.3405
  213SOL     OW  764   2.491   6.254   2.685 -0.2531 -0.0840  0.7285
  213SOL    HW1  765   2.428   6.194   2.726 -0.1141 -1.8429 -1.2586
  213SOL    HW2  766   2.441   6.297   2.615  0.2796  0.0361  0.4101
  214SOL     OW  767   1.410   5.577   3.633 -0.3067 -0.5880  0.0107
  214SOL    HW1  768   1.363   5.542   3.557  1.1071 -0.8049 -0.8367
  214SOL    HW2  769   1.442   5.499   3.679  0.4850 -0.4700 -0.3037
  215SOL     OW  770   2.730   3.243   2.156  0.4149  0.3184  0.0126
  215SOL    HW1  771   2.697   3.311   2.214 -1.5770  0.0444 -0.6603
  215SOL    HW2  772   2.777   3.183   2.213  0.3328  1.1204  0.9687
  216SOL     OW  773   4.619   2.937   3.426  0.2600  0.2158  0.2083
  216SOL    HW1  774   4.541   2.940   3.482 -0.4854  1.3493 -0.7888
  216SOL    HW2  775   4.585   2.952   3.337  1.3482 -1.6151 -0.6419
  217SOL     OW  776   0.893   5.663   4.500  0.2465  0.1851  0.7974
  217SOL    HW1  777   0.862   5.723   4.567 -0.4378  0.1341  0.5404
  217SOL    HW2  778   0.961   5.712   4.454  0.4252  0.3723  1.2498
  218SOL     OW  779   4.874   2.370   2.287  0.4995 -0.1029  0.2447
  218SOL    HW1  780   4.952   2.333   2.247  1.2980  1.5123  0.1509
  218SOL    HW2  781   4.883   2.351   2.380 -0.9452 -3.1261  0.0174
  219SOL     OW  782   2.599   4.458   3.145  0.0877  0.0776 -0.1574
  219SOL    HW1  783   2.510   4.491   3.160 -0.3436 -1.4790  1.3860
  219SOL    HW2  784   2.586   4.374   3.101  0.8282  0.0399 -0.3256
  220SOL     OW  785   4.025   4.895   3.811  0.5555 -0.2202 -0.2300
  220SOL    HW1  786   4.091   4.946   3.858  1.0049 -0.1173 -0.9410
  220SOL    HW2  787   3.985   4.839   3.878  1.8312 -0.7704  0.1324
  221SOL     OW  788   4.518   2.611   0.057  0.0469 -0.0933  0.5985
  221SOL    HW1  789   4.583   2.574   0.116  0.5395  0.2554  0.2866
  221SOL    HW2  790   4.569   2.644  -0.017 -0.6159 -2.0713 -0.9285
  222SOL     OW  791   3.264   1.430   4.110  0.2234  0.0042  0.2107
  222SOL    HW1  792   3.358   1.428   4.094  0.3172  1.7156  0.1955
  222SOL    HW2  793   3.249   1.361   4.175  1.7801  0.6939  1.4462
  223SOL     OW  794   3.244   0.270   3.940  0.0704 -0.0469  0.2068
  223SOL    HW1  795   3.254   0.329   4.014  2.8597 -0.9766  0.7919
  223SOL    HW2  796   3.274   0.321   3.865 -0.0973  0.0641  0.2140
  224SOL     OW  797   5.083   5.405   3.345 -0.0245 -0.0229 -0.1182
  224SOL    HW1  798   5.047   5.480   3.299 -0.2533  0.2865  0.5461
  224SOL    HW2  799   5.076   5.333   3.282 -0.4184  0.3619 -0.5282
  225SOL     OW  800   0.108   1.753   0.066 -0.0295  0.1371  0.1747
  225SOL    HW1  801   0.038   1.793   0.014 -1.1799  0.4292  1.7726
  225SOL    HW2  802   0.177   1.819   0.070 -1.3722  1.6249  1.7522
  226SOL     OW  803   5.528   3.705   4.509 -0.5155 -0.1448 -0.1077
  226SOL    HW1  804   5.617   3.735   4.489 -0.4897 -1.0706 -1.6709
  226SOL    HW2  805   5.531   3.682   4.602  0.7803  0.1511 -0.0387
  227SOL     OW  806   0.721   0.646   3.665 -0.4189  1.0588  0.7884
  227SOL    HW1  807   0.815   0.645   3.647 -0.4209  2.8775  0.2285
  227SOL    HW2  808   0.681   0.618   3.583 -0.3772  0.6239  0.9136
  228SOL     OW  809   1.665   1.907   3.233  0.1871 -0.1286 -0.2108
  228SOL    HW1  810   1.607   1.864   3.296  0.5109  0.2367  0.3537
  228SOL    HW2  811   1.608   1.934   3.161  0.0630 -2.4288 -1.1846
  229SOL     OW  812   2.768   2.296   1.372  0.2295  0.3166  0.1552
  229SOL    HW1  813   2.810   2.298   1.458  0.4311  2.3246  0.1012
  229SOL    HW2  814   2.690   2.242   1.384  0.7581 -0.2602  1.3010
  230SOL     OW  815   2.629   2.098   0.618  0.4157  0.4172 -0.2506
  230SOL    HW1  816   2.631   2.184   0.660  1.3864  0.5654 -0.5578
  230SOL    HW2  817   2.537   2.071   0.624  0.3258  0.8823  1.0191
  231SOL     OW  818   5.677   6.029   4.246 -0.3575  0.4025 -0.1126
  231SOL    HW1  819   5.769   6.045   4.227  0.3164 -1.4984  0.9967
  231SOL    HW2  820   5.636   6.020   4.160  0.7321  0.2442 -0.6602
  232SOL     OW  821   6.328   0.980   1.158 -1.0652  0.3324 -0.1666
  232SOL    HW1  822   6.248   0.926   1.163 -0.1836 -1.0156  0.3522
  232SOL    HW2  823   6.390   0.926   1.110 -0.1276  0.9070  0.3418
  233SOL     OW  824   4.309   0.997   1.399  0.3896  0.0243  0.0011
  233SOL    HW1  825   4.404   0.997   1.407  0.4868 -1.3924 -0.5779
  233SOL    HW2  826   4.278   1.031   1.483  1.3956 -1.3608  1.0271
  234SOL     OW  827   5.613   5.042   0.222 -0.4032  0.0635 -0.1113
  234SOL    HW1  828   5.524   5.074   0.237  0.1084  1.7351 -0.2276
  234SOL    HW2  829   5.648   5.101   0.155  1.3047  0.5356  1.0886
  235SOL     OW  830   4.982   1.218   2.423  0.0623 -0.3652 -0.3565
  235SOL    HW1  831   4.952   1.235   2.334  1.4837  0.5267 -0.7421
  235SOL    HW2  832   4.966   1.299   2.471 -0.4793 -0.7589  0.1508
  236SOL     OW  833   5.249   6.026   4.036  0.3937  0.2204  0.2250
  236SOL    HW1  834   5.217   5.976   3.961 -1.3496  2.2461 -0.5773
  236SOL    HW2  835   5.207   5.984   4.111  0.6004 -0.6779 -0.1367
  237SOL     OW  836   3.156   4.235   0.309  0.2305  0.3739 -0.5263
  237SOL    HW1  837   3.085   4.211   0.250 -0.0849  2.0761 -0.9401
  237SOL    HW2  838   3.224   4.168   0.294 -1.0642 -1.0753 -0.4115
  238SOL     OW  839   2.911   6.128   3.543 -0.5590 -0.1590 -0.2031
  238SOL    HW1  840   2.873   6.178   3.615  1.9691  0.2480  1.0642
  238SOL    HW2  841   2.861   6.157   3.466 -0.3719  3.3046  0.6099
  239SOL     OW  842   5.812   2.112   1.645 -0.0177  0.0912 -0.0249
  239SOL    HW1  843   5.784   2.032   1.600  0.7067  0.2117 -0.7197
  239SOL    HW2  844   5.768   2.183   1.598  0.0220  0.1597  0.0413
  240SOL     OW  845   2.293   5.350   2.985 -0.3029 -0.1964  0.2974
  240SOL    HW1  846   2.309   5.431   3.033  1.1290 -0.1663 -0.1430
  240SOL    HW2  847   2.325   5.281   3.043 -0.5189 -0.3554  0.2318
  241SOL     OW  848   1.732   6.142   3.760 -0.1212 -0.8229 -0.5576
  241SOL    HW1  849   1.710   6.225   3.719 -1.9102 -0.2849  1.1793
  241SOL    HW2  850   1.650   6.112   3.799  0.6591 -2.9684 -0.2927
  242SOL     OW  851   5.914   4.348   1.258  0.3101 -0.0115 -0.1374
  242SOL    HW1  852   5.917   4.418   1.193 -1.2510  0.1104 -0.1533
  242SOL    HW2  853   5.870   4.388   1.334  2.1637 -0.1061  1.1296
  243SOL     OW  854   0.572   1.879   0.442 -0.3481  0.3288 -0.5331
  243SOL    HW1  855   0.584   1.801   0.496  2.3654 -0.4239 -1.8602
  243SOL    HW2  856   0.507   1.853   0.377  0.6821 -1.0608 -1.1147
  244SOL     OW  857   5.385   2.619   1.243  0.0424  0.3637 -0.2478
  244SOL    HW1  858   5.445   2.655   1.309  1.0723  0.1962 -1.0466
  244SOL    HW2  859   5.303   2.666   1.257 -0.3447 -0.7456  2.1842
  245SOL     OW  860   6.362   0.013   1.496 -0.6025 -0.0584 -0.4207
  245SOL    HW1  861   6.332  -0.059   1.441  0.1778 -1.2280  0.5725
  245SOL    HW2  862   6.456   0.019   1.478 -0.4223 -0.1552  0.4077
  246SOL     OW  863   4.222   0.660   2.983  0.3167 -0.3372  1.1643
  246SOL    HW1  864   4.242   0.573   2.950 -0.3934 -0.6949  1.6052
  246SOL    HW2  865   4.295   0.715   2.956  1.0695 -1.1982  1.3836
  247SOL     OW  866   2.912   4.354   4.252  0.1425  0.6279 -0.8090
  247SOL    HW1  867   2.953   4.428   4.207  1.1465 -1.0106 -2.9450
  247SOL    HW2  868   2.895   4.386   4.341 -1.4605  4.0353 -2.0074
  248SOL     OW  869   4.115   5.071   1.937  0.5322  0.0500  0.1195
  248SOL    HW1  870   4.028   5.064   1.977  0.2208  0.3388 -0.4842
  248SOL    HW2  871   4.099   5.111   1.852  1.2599  0.0792 -0.0139
  249SOL     OW  872   5.738   0.170   1.977  0.7400  0.2517  0.4742
  249SOL    HW1  873   5.701   0.151   1.891  0.5318  1.9862  0.1170
  249SOL    HW2  874   5.710   0.259   1.997  3.7140  1.3600  0.6653
  250SOL     OW  875   3.666   4.102   3.154  0.3555 -0.1279 -0.3609
  250SOL    HW1  876   3.683   4.180   3.208  1.5231 -0.1645 -0.6268
  250SOL    HW2  877   3.577   4.116   3.120  0.0336  0.4521  0.6157
  251SOL     OW  878   0.882   4.562   0.685  0.0546 -0.3706 -0.5258
  251SOL    HW1  879   0.833   4.576   0.767 -1.0276  0.3306 -1.2360
  251SOL    HW2  880   0.833   4.493   0.640 -1.4874  1.4457 -1.9994
  252SOL     OW  881   0.799   6.292   3.464  0.2184 -0.4079 -0.0732
  252SOL    HW1  882   0.787   6.282   3.558  1.5004  0.4487  0.2354
  252SOL    HW2  883   0.710   6.287   3.428 -0.9467  2.6197  1.5742
  253SOL     OW  884   1.429   3.819   1.658 -0.0788  0.2144  0.4612
  253SOL    HW1  885   1.433   3.838   1.565  2.0268 -2.7009 -0.3475
  253SOL    HW2  886   1.504   3.864   1.696 -0.3347  0.5819  0.5352
  254SOL     OW  887   1.602   4.828   0.348 -0.4019  0.6287 -0.4862
  254SOL    HW1  888   1.625   4.920   0.336  0.8007  0.5195  0.5955
  254SOL    HW2  889   1.672   4.792   0.403  0.1796 -1.3849 -2.2627
  255SOL     OW  890   2.073   4.743   3.080 -0.4347  0.0742 -0.4713
  255SOL    HW1  891   2.073   4.838   3.078  2.1313  0.2122 -0.3405
  255SOL    HW2  892   2.040   4.717   2.994 -0.0564  1.1488 -0.9756
  256SOL     OW  893   0.941   3.645   0.267  0.0658 -0.0544 -0.3820
  256SOL    HW1  894   0.966   3.627   0.357  0.6695 -0.8635 -0.6903
  256SOL    HW2  895   0.926   3.740   0.264  2.7519  0.5197 -0.0397
  257SOL     OW  896   1.420   5.678   2.826  0.3546 -0.8486 -0.4113
  257SOL    HW1  897   1.463   5.593   2.815  0.8759 -0.8954  1.3412
  257SOL    HW2  898   1.491   5.739   2.847 -0.1218 -0.2260 -0.5384
  258SOL     OW  899   1.116   1.644   4.257 -0.3700  0.0780  0.1496
  258SOL    HW1  900   1.054   1.571   4.266  0.1679 -0.4231 -0.1201
  258SOL    HW2  901   1.106   1.693   4.339 -2.3082  0.9970 -0.5000
  259SOL     OW  902   4.741   1.278   3.205 -0.0019  0.3652 -0.6011
  259SOL    HW1  903   4.822   1.309   3.165  1.3240 -2.6120 -0.7756
  259SOL    HW2  904   4.767   1.246   3.291 -0.5743 -1.6839 -1.0649
  260SOL     OW  905   6.311   5.453   2.797 -0.5430  0.1330 -0.3650
  260SOL    HW1  906   6.295   5.434   2.890  0.1503 -1.2085 -0.4590
  260SOL    HW2  907   6.262   5.533   2.780  0.5829  1.4192  1.5527
  261SOL     OW  908   2.222   0.023   4.253  0.0554 -0.4273  0.4006
  261SOL    HW1  909   2.196  -0.052   4.200 -2.2462 -0.2178  1.0141
  261SOL    HW2  910   2.162   0.093   4.227  1.8955  1.2097  0.0596
  262SOL     OW  911   2.543   0.948   4.530  0.0029  0.3086  0.6964
  262SOL    HW1  912   2.547   0.853   4.541 -0.6693 -0.0157 -1.0731
  262SOL    HW2  913   2.616   0.968   4.471 -1.0092  0.4761 -0.6120
  263SOL     OW  914   0.939   0.890   2.872 -0.2456 -0.1970  0.0388
  263SOL    HW1  915   0.929   0.878   2.967 -0.1524 -0.6215 -0.0020
  263SOL    HW2  916   0.931   0.802   2.836  0.6108 -0.1684 -0.2645
  264SOL     OW  917   4.023   4.143   0.390  0.0910  0.4334 -0.3357
  264SOL    HW1  918   4.089   4.095   0.439  1.1849 -0.5010 -2.4367
  264SOL    HW2  919   4.073   4.193   0.325 -1.2055  1.0098 -0.9691
  265SOL     OW  920   5.374   4.341   1.639  0.1522 -0.2820 -0.4123
  265SOL    HW1  921   5.404   4.252   1.619  1.8574  0.4756 -1.7974
  265SOL    HW2  922   5.451   4.384   1.676 -0.0481  1.0461 -1.3949
  266SOL     OW  923   2.418   1.265   0.925 -0.6528 -0.0500  0.1713
  266SOL    HW1  924   2.407   1.357   0.948 -2.1777 -0.3625  0.9306
  266SOL    HW2  925   2.507   1.243   0.953 -1.2540  0.4326  3.0655
  267SOL     OW  926   0.820   4.032   0.118  0.6287 -0.4107 -0.2193
  267SOL    HW1  927   0.810   4.117   0.161  0.5997 -0.8148  0.6097
  267SOL    HW2  928   0.912   4.010   0.127  0.4716 -0.8754  0.4093
  268SOL     OW  929   3.211   2.343   1.069  0.2008  0.0905 -0.1400
  268SOL    HW1  930   3.182   2.336   1.160  0.2270 -3.1633 -0.1701
  268SOL    HW2  931   3.297   2.302   1.068  1.2920  2.0707 -1.4136
  269SOL     OW  932   0.961   3.296   3.076 -0.2393 -0.2529 -0.1052
  269SOL    HW1  933   0.998   3.309   3.163  0.6219 -2.6593  0.0366
  269SOL    HW2  934   1.034   3.311   3.016  0.1004 -1.5916 -0.0932
  270SOL     OW  935   5.491   0.901   3.434  0.2513  0.0785 -0.2983
  270SOL    HW1  936   5.448   0.951   3.503  0.3770  0.1249 -0.2532
  270SOL    HW2  937   5.581   0.935   3.432  0.6814 -0.8896  0.4771
  271SOL     OW  938   4.470   6.209   0.912  0.2176 -0.2756  0.0197
  271SOL    HW1  939   4.446   6.181   0.823 -1.5445  0.7536  0.0726
  271SOL    HW2  940   4.406   6.167   0.969  0.1535  0.5263  0.5689
  272SOL     OW  941   2.458   2.329   4.415 -0.2667  0.5475 -0.0917
  272SOL    HW1  942   2.388   2.267   4.397 -0.7072  0.8104  0.6353
  272SOL    HW2  943   2.535   2.275   4.432 -0.3849  0.2452 -0.5006
  273SOL     OW  944   3.720   6.383   1.530 -0.1052 -0.1693  0.2500
  273SOL    HW1  945   3.776   6.305   1.528 -0.6463 -0.5764  0.5548
  273SOL    HW2  946   3.741   6.429   1.449  2.0638  0.7119  1.1468
  274SOL     OW  947   1.989   3.511   2.368  0.1195  0.2245 -0.2755
  274SOL    HW1  948   1.963   3.467   2.287 -2.2623 -0.0202  0.4877
  274SOL    HW2  949   2.026   3.441   2.422 -2.1012 -0.6499  0.2973
  275SOL     OW  950   0.809   5.957   1.157 -0.5825 -0.2017 -0.4606
  275SOL    HW1  951   0.904   5.960   1.150  0.0174  0.4306  3.2874
  275SOL    HW2  952   0.780   6.037   1.113  0.3651 -0.7807 -2.3734
  276SOL     OW  953   0.994   4.028   1.127 -0.0530  0.0470 -0.1728
  276SOL    HW1  954   1.086   4.023   1.152 -0.2791  0.7537  0.9176
  276SOL    HW2  955   0.953   4.083   1.194 -1.1030  0.4921 -1.1093
  277SOL     OW  956   4.606   5.374   2.788  0.2400 -0.2895  0.3191
  277SOL    HW1  957   4.569   5.418   2.711  1.5300 -1.9262 -1.4256
  277SOL    HW2  958   4.690   5.418   2.802  0.4246 -0.5832  0.1602
  278SOL     OW  959   3.033   0.003   2.945  0.1295  0.2388  0.1756
  278SOL    HW1  960   3.093  -0.062   2.981  0.3872  1.0102  1.2497
  278SOL    HW2  961   2.965   0.012   3.011 -0.7091  0.0235 -0.6260
  279SOL     OW  962   3.634   6.074   0.153  0.8580 -0.1499 -0.6287
  279SOL    HW1  963   3.610   6.139   0.086  0.7533  1.3063  0.6985
  279SOL    HW2  964   3.706   6.025   0.114 -0.6267 -1.0311 -2.6779
  280SOL     OW  965   6.001   0.740   3.845 -0.1959  0.2171 -0.0966
  280SOL    HW1  966   5.945   0.673   3.805 -1.3851  0.0567  1.5936
  280SOL    HW2  967   5.984   0.819   3.795 -0.6217 -0.2176 -0.6713
  281SOL     OW  968   1.929   0.394   2.924 -0.1543  0.6052 -0.4250
  281SOL    HW1  969   1.959   0.315   2.879 -2.7120  0.5308 -2.4243
  281SOL    HW2  970   1.959   0.467   2.869  0.6447  0.9439  0.4131
  282SOL     OW  971   6.316   5.110   4.493 -0.1740 -0.3095  0.4735
  282SOL    HW1  972   6.277   5.197   4.498 -2.0511 -1.0057 -0.0767
  282SOL    HW2  973   6.330   5.095   4.399 -0.0284 -0.6382  0.5446
  283SOL     OW  974   2.914   0.174   1.161  0.2923  0.2846 -0.0576
  283SOL    HW1  975   2.881   0.241   1.222 -1.1039 -0.6912  0.3612
  283SOL    HW2  976   2.934   0.099   1.216  1.2811  0.1294 -0.5820
  284SOL     OW  977   0.972   0.616   2.789  0.2480  0.5193  0.6994
  284SOL    HW1  978   0.882   0.607   2.758 -0.2871  0.8898  1.9905
  284SOL    HW2  979   1.004   0.526   2.796  0.6121  0.4060 -1.2735
  285SOL     OW  980   3.524   5.287   0.714 -0.0802 -0.5069 -1.0417
  285SOL    HW1  981   3.482   5.368   0.745  3.1986  0.6294  1.6109
  285SOL    HW2  982   3.523   5.229   0.790  2.1695 -0.6760 -1.0201
  286SOL     OW  983   0.584   0.133   3.380 -0.0783 -0.3196  0.1619
  286SOL    HW1  984   0.504   0.102   3.338  0.4025 -0.3720 -0.7770
  286SOL    HW2  985   0.559   0.151   3.471 -0.8036 -1.7337  0.2865
  287SOL     OW  986   2.469   0.993   2.709  0.1394 -0.3098  0.3689
  287SOL    HW1  987   2.402   0.959   2.650  0.2933 -0.5444  0.3272
  287SOL    HW2  988   2.540   1.021   2.651 -0.1474  0.4815  0.3679
  288SOL     OW  989   1.978   0.871   2.553  0.1145  0.2271 -0.3551
  288SOL    HW1  990   2.049   0.934   2.543 -0.1582  0.7723  0.8830
  288SOL    HW2  991   2.006   0.813   2.624  0.0944 -0.7151 -1.0657
  289SOL     OW  992   4.047   2.804   2.042 -0.4088 -0.6776 -0.3670
  289SOL    HW1  993   4.134   2.831   2.073 -0.8150  1.0512 -0.5409
  289SOL    HW2  994   4.037   2.715   2.074  0.9813 -0.5427  0.6220
  290SOL     OW  995   0.314   1.375   1.349 -0.1346 -0.6868  0.3208
  290SOL    HW1  996   0.344   1.306   1.408  0.6642 -0.3903  0.2812
  290SOL    HW2  997   0.225   1.396   1.380  0.4259 -0.1795  1.7670
  291SOL     OW  998   4.325   3.305   3.230  0.0087  0.2099 -0.2019
  291SOL    HW1  999   4.367   3.320   3.145  0.4971 -1.4009 -0.3099
  291SOL    HW2 1000   4.242   3.264   3.209  0.2119 -0.3708  0.0777
  292SOL     OW 1001   2.527   1.277   3.613 -0.3533 -0.1938 -0.1084
  292SOL    HW1 1002   2.579   1.207   3.571  0.5853  1.3893 -1.9016
  292SOL    HW2 1003   2.437   1.258   3.586  0.0064 -0.2432 -1.4445
  293SOL     OW 1004   6.103   2.832   0.711 -0.1883  0.1239 -0.4505
  293SOL    HW1 1005   6.054   2.889   0.771  0.6671  1.2443 -0.7334
  293SOL    HW2 1006   6.047   2.823   0.635 -0.9865 -0.7311  0.1988
  294SOL     OW 1007   3.385   1.357   1.028  0.2729 -0.1357 -0.1066
  294SOL    HW1 1008   3.412   1.274   1.066  0.5169 -1.4032 -2.6119
  294SOL    HW2 1009   3.291   1.361   1.042  0.0352 -1.5310 -0.9081
  295SOL     OW 1010   3.647   2.107   1.343  0.6028  0.0709 -0.4637
  295SOL    HW1 1011   3.667   2.054   1.266  0.9579 -0.8863  0.2534
  295SOL    HW2 1012   3.712   2.081   1.408 -0.4481 -0.1117  0.5860
  296SOL     OW 1013   1.203   0.668   4.158  0.1404 -0.2366  0.5708
  296SOL    HW1 1014   1.227   0.761   4.157  0.3639 -0.2939  0.1210
  296SOL    HW2 1015   1.263   0.629   4.221  1.2795 -0.3695 -0.5146
  297SOL     OW 1016   3.473   2.774   0.281  0.1391 -0.0339 -0.4319
  297SOL    HW1 1017   3.539   2.838   0.256  0.0853  0.7380  1.1114
  297SOL    HW2 1018   3.522   2.698   0.311  0.5224  0.8354  1.5076
  298SOL     OW 1019   2.853   1.043   0.149  0.1133 -0.1533 -0.2221
  298SOL    HW1 1020   2.844   1.057   0.244  2.3924 -1.0885  0.2533
  298SOL    HW2 1021   2.773   1.080   0.112 -0.1694  1.8316  1.9002
  299SOL     OW 1022   5.999   4.345   2.157  0.2575  0.3154  0.4722
  299SOL    HW1 1023   6.087   4.353   2.120  0.8892  1.5448  1.9948
  299SOL    HW2 1024   5.992   4.253   2.183 -0.4235 -0.8059 -2.7396
  300SOL     OW 1025   3.640   0.275   4.440 -0.0855 -0.3845  0.2647
  300SOL    HW1 1026   3.602   0.216   4.505 -0.8595  0.9123  1.0692
  300SOL    HW2 1027   3.599   0.248   4.358  1.1698 -2.2820  0.1177
  301SOL     OW 1028   4.903   2.066   4.400 -0.7044 -0.1352 -0.7306
  301SOL    HW1 1029   4.948   2.148   4.421 -0.1306 -0.4469 -0.6870
  301SOL    HW2 1030   4.906   2.061   4.305 -0.0126 -0.4777 -0.7070
  302SOL     OW 1031   4.977   1.972   4.125 -0.0944  0.0962  0.2393
  302SOL    HW1 1032   5.015   1.884   4.131  0.9585  0.4757 -0.2591
  302SOL    HW2 1033   4.926   1.971   4.045  0.8912  0.2346 -0.4325
  303SOL     OW 1034   6.182   4.260   1.406  0.5526 -0.0053 -0.1007
  303SOL    HW1 1035   6.164   4.249   1.499  0.3952 -1.2660 -0.2548
  303SOL    HW2 1036   6.118   4.204   1.362  1.0494  0.0547 -0.9411
  304SOL     OW 1037   5.811   1.417   2.405 -0.2944  0.1812 -0.3494
  304SOL    HW1 1038   5.841   1.490   2.351 -1.2891  0.0254 -1.1617
  304SOL    HW2 1039   5.866   1.422   2.484 -0.9660  2.4365  0.1260
  305SOL     OW 1040   2.341   4.739   0.924 -0.2948  0.7752  0.0553
  305SOL    HW1 1041   2.322   4.830   0.899  0.8429  0.7718 -1.0506
  305SOL    HW2 1042   2.432   4.742   0.956  0.2646 -0.1047 -1.2606
  306SOL     OW 1043   6.004   5.554   0.040  0.2760  0.1909 -0.3090
  306SOL    HW1 1044   6.099   5.566   0.041  0.6870 -2.2209 -0.2165
  306SOL    HW2 1045   5.983   5.513   0.124 -0.3400 -1.6856 -1.2554
  307SOL     OW 1046   1.910   5.901   4.382 -0.5869 -0.7599 -0.4759
  307SOL    HW1 1047   1.964   5.974   4.349 -1.5123  0.7692  1.0399
  307SOL    HW2 1048   1.827   5.910   4.335 -0.0970 -2.2240 -1.7727
  308SOL     OW 1049   0.790   1.188   1.965  0.4026  0.0970  0.0288
  308SOL    HW1 1050   0.844   1.197   2.043 -1.1547 -0.1549  1.2396
  308SOL    HW2 1051   0.851   1.161   1.896  1.6938 -0.8318  1.4123
  309SOL     OW 1052   5.873   3.894   2.092  0.0519 -0.0737 -0.0886
  309SOL    HW1 1053   5.828   3.951   2.029  2.6296  1.4190 -0.9165
  309SOL    HW2 1054   5.838   3.919   2.177  0.4625  2.3811 -0.4907
  310SOL     OW 1055   5.340   3.018   4.099 -0.3639 -0.3983  0.7170
  310SOL    HW1 1056   5.324   2.942   4.155 -3.5630 -0.0838  0.5965
  310SOL    HW2 1057   5.263   3.023   4.042  1.2821  1.0029 -1.7946
  311SOL     OW 1058   2.091   1.171   3.346  0.0781 -0.2679  0.1152
  311SOL    HW1 1059   2.069   1.199   3.257  2.0498 -1.2107 -0.8134
  311SOL    HW2 1060   2.069   1.078   3.348  0.4386 -0.3548  0.4367
  312SOL     OW 1061   0.837   0.714   0.586 -0.2174 -0.4684 -0.1048
  312SOL    HW1 1062   0.832   0.663   0.506  0.4569 -0.0120 -0.4599
  312SOL    HW2 1063   0.781   0.667   0.649 -0.9513 -0.6999 -0.9000
  313SOL     OW 1064   4.482   5.046   1.905 -0.3477  0.0408  0.3240
  313SOL    HW1 1065   4.575   5.026   1.898 -0.7786 -3.1030  0.3576
  313SOL    HW2 1066   4.478   5.137   1.934  2.7702 -0.1721  2.2701
  314SOL     OW 1067   4.702   2.941   3.697 -0.6478  0.5524 -0.5789
  314SOL    HW1 1068   4.752   2.903   3.625 -0.0720 -0.3252  0.2268
  314SOL    HW2 1069   4.619   2.968   3.658 -0.6884 -0.6496 -1.4291
  315SOL     OW 1070   2.072   0.437   4.036  0.7880 -0.0239 -0.0078
  315SOL    HW1 1071   2.152   0.468   3.993  2.3397 -2.0678  1.0784
  315SOL    HW2 1072   2.003   0.452   3.971  2.0217  1.6571 -1.1101
  316SOL     OW 1073   5.949   6.020   1.934 -0.2913  0.1973  0.6199
  316SOL    HW1 1074   5.995   6.095   1.972  1.5777 -0.1976 -0.6006
  316SOL    HW2 1075   5.992   6.005   1.850 -2.3454 -0.6513 -0.4243
  317SOL     OW 1076   5.637   6.228   0.066  1.0162 -0.0297 -0.1141
  317SOL    HW1 1077   5.709   6.191   0.014  0.5664 -1.9333  0.4547
  317SOL    HW2 1078   5.565   6.237   0.004  0.6224 -1.8452 -0.0105
  318SOL     OW 1079   1.833   1.350   3.175  0.2071 -0.3673  0.0170
  318SOL    HW1 1080   1.903   1.400   3.134  0.5348 -1.0492 -0.2833
  318SOL    HW2 1081   1.779   1.320   3.103  0.1494 -0.6432  0.1730
  319SOL     OW 1082   2.745   3.769   4.309  0.7802 -0.3975  0.1874
  319SOL    HW1 1083   2.651   3.780   4.326  0.8711  0.9128  0.0560
  319SOL    HW2 1084   2.758   3.674   4.305 -0.7420 -0.6274 -0.9332
  320SOL     OW 1085   5.540   3.905   2.597 -0.3944  0.2309  0.0076
  320SOL    HW1 1086   5.568   3.928   2.686 -1.0632  1.4608 -0.0600
  320SOL    HW2 1087   5.496   3.821   2.607  0.4932 -0.1907  0.6327
  321SOL     OW 1088   4.998   3.469   4.523  0.5844 -0.4900  0.0262
  321SOL    HW1 1089   5.001   3.493   4.430  2.2361 -0.1845  0.0925
  321SOL    HW2 1090   5.078   3.417   4.536  0.5053 -0.3367  1.3267
  322SOL     OW 1091   1.806   0.463   3.472 -0.0927 -0.2694 -0.0260
  322SOL    HW1 1092   1.765   0.522   3.535 -0.4277  0.4647 -0.8945
  322SOL    HW2 1093   1.733   0.422   3.425  0.1281  0.2880 -0.9007
  323SOL     OW 1094   6.391   5.434   3.550  0.1274 -0.5790 -0.1724
  323SOL    HW1 1095   6.419   5.505   3.491  0.9587 -1.5895 -1.0693
  323SOL    HW2 1096   6.313   5.469   3.593  1.3354  1.4962  0.6450
  324SOL     OW 1097   6.151   0.510   4.186 -0.1575  0.3212  0.5060
  324SOL    HW1 1098   6.189   0.432   4.226 -0.1719 -0.1600 -0.3559
  324SOL    HW2 1099   6.184   0.509   4.096 -1.6833  0.2034 -0.1173
  325SOL     OW 1100   2.118   5.003   0.904 -0.3351  0.1422  0.0597
  325SOL    HW1 1101   2.158   4.980   0.820  0.7306 -0.6969  0.7411
  325SOL    HW2 1102   2.090   5.094   0.894 -0.8188 -0.1132 -1.3860
  326SOL     OW 1103   3.526   3.394   0.199  0.1353  0.0182 -0.1057
  326SOL    HW1 1104   3.439   3.369   0.231  0.7410 -0.5758  1.2550
  326SOL    HW2 1105   3.510   3.428   0.111 -1.2965 -1.5655 -0.5870
  327SOL     OW 1106   0.400   1.268   1.109  0.5662  0.2646  0.2643
  327SOL    HW1 1107   0.367   1.183   1.137 -1.7344  0.6886 -0.7123
  327SOL    HW2 1108   0.383   1.326   1.183  1.4612  0.0678  0.6537
  328SOL     OW 1109   2.257   5.291   1.533  0.1455 -0.0131  0.0888
  328SOL    HW1 1110   2.296   5.226   1.475 -0.1092 -0.8301  0.7913
  328SOL    HW2 1111   2.169   5.304   1.498  0.7258  1.2962 -1.0710
  329SOL     OW 1112   0.311   0.665   0.914  0.1120  0.6118  0.4700
  329SOL    HW1 1113   0.227   0.654   0.871 -0.3757  3.4276  0.3325
  329SOL    HW2 1114   0.328   0.581   0.956 -2.0151 -0.5578 -0.6930
  330SOL     OW 1115   3.946   4.037   1.567  0.1639  0.1544 -0.1432
  330SOL    HW1 1116   4.015   4.037   1.500 -1.0369 -0.5408 -1.4930
  330SOL    HW2 1117   3.939   3.945   1.593 -0.0916  0.2583  0.1584
  331SOL     OW 1118   3.037   4.972   2.741 -0.0225 -0.0866  0.1808
  331SOL    HW1 1119   3.060   4.924   2.821  1.0338  1.9932  1.3060
  331SOL    HW2 1120   3.115   4.964   2.686 -0.9314 -1.9469 -1.0384
  332SOL     OW 1121   0.653   3.409   2.320  0.2750 -0.1854  0.0197
  332SOL    HW1 1122   0.568   3.383   2.355 -0.3201 -0.9023 -1.7368
  332SOL    HW2 1123   0.698   3.327   2.302  0.8032  0.1516 -0.2513
  333SOL     OW 1124   3.931   2.104   1.098 -0.2748  0.0876 -0.1198
  333SOL    HW1 1125   3.858   2.043   1.110  0.5192 -1.0095 -0.4760
  333SOL    HW2 1126   3.904   2.160   1.026 -0.8538 -0.1382 -0.0898
  334SOL     OW 1127   4.342   5.746   2.246  0.0712  0.2914  0.0557
  334SOL    HW1 1128   4.351   5.696   2.166  0.5790  0.2244  0.1440
  334SOL    HW2 1129   4.281   5.816   2.225  0.1043  0.1997 -0.3516
  335SOL     OW 1130   3.626   3.200   4.503  0.3621 -0.4311 -0.0033
  335SOL    HW1 1131   3.601   3.108   4.506  0.1165 -0.5541 -2.2788
  335SOL    HW2 1132   3.589   3.238   4.582 -1.4570 -1.8884 -0.0317
  336SOL     OW 1133   0.887   4.527   3.293 -0.0289 -0.6031  0.0244
  336SOL    HW1 1134   0.818   4.477   3.249 -2.2457  0.8164  1.4822
  336SOL    HW2 1135   0.891   4.489   3.381 -1.4783  1.2497  1.0362
  337SOL     OW 1136   5.575   5.987   0.361  0.0185  0.1273  0.3635
  337SOL    HW1 1137   5.642   6.006   0.426 -0.0282 -0.7328  0.6854
  337SOL    HW2 1138   5.495   5.973   0.412 -0.1004 -0.1988  0.0964
  338SOL     OW 1139   6.033   4.199   4.382  0.5208  0.5201 -0.0688
  338SOL    HW1 1140   6.058   4.157   4.465  1.7643  2.2175  0.5188
  338SOL    HW2 1141   6.047   4.131   4.316  0.3577 -0.6201  0.9875
  339SOL     OW 1142   2.511   2.172   1.333 -0.3700 -0.6083  0.2871
  339SOL    HW1 1143   2.497   2.078   1.327  0.5800 -0.7009 -1.3715
  339SOL    HW2 1144   2.453   2.210   1.267  0.3170 -0.1895 -0.1022
  340SOL     OW 1145   5.866   3.577   3.120  0.2599 -0.1470  0.1021
  340SOL    HW1 1146   5.860   3.538   3.032 -1.2272 -0.0998  0.1276
  340SOL    HW2 1147   5.885   3.669   3.104 -2.0059  0.3535 -0.4046
  341SOL     OW 1148   4.251   4.573   3.380 -0.2389  0.2762 -0.2018
  341SOL    HW1 1149   4.253   4.648   3.321  1.1558  1.2005  0.8793
  341SOL    HW2 1150   4.182   4.594   3.443  0.8830  1.3257  0.7789
  342SOL     OW 1151   3.852   3.096   1.321  0.1076  0.6911  0.1652
  342SOL    HW1 1152   3.796   3.120   1.395  0.3110  2.5936 -0.1881
  342SOL    HW2 1153   3.913   3.032   1.357 -0.7637  0.3806  1.2014
  343SOL     OW 1154   4.861   3.760   1.554 -0.1026  0.3551 -0.4508
  343SOL    HW1 1155   4.852   3.719   1.468 -0.3426 -0.0569 -0.2377
  343SOL    HW2 1156   4.794   3.829   1.555  0.2091  0.6685 -0.7593
  344SOL     OW 1157   3.651   1.105   1.878 -0.0098  0.7157  0.2387
  344SOL    HW1 1158   3.636   1.060   1.961 -1.1651 -0.3548 -0.4762
  344SOL    HW2 1159   3.588   1.176   1.877  0.5568  1.2428  0.5872
  345SOL     OW 1160   0.627   3.133   4.324  0.2059  0.1804  0.2229
  345SOL    HW1 1161   0.609   3.112   4.232  0.1072  1.0734  0.0185
  345SOL    HW2 1162   0.660   3.223   4.322  0.3775  0.1507  1.0489
  346SOL     OW 1163   4.777   4.816   2.149 -0.5543  0.0854  0.2976
  346SOL    HW1 1164   4.759   4.801   2.242 -0.7611  0.3940  0.3094
  346SOL    HW2 1165   4.754   4.908   2.135 -1.5801 -0.2303 -0.3072
  347SOL     OW 1166   6.215   0.281   4.282 -0.2567  0.8147 -0.2304
  347SOL    HW1 1167   6.232   0.205   4.227  0.3793 -0.1437  1.1426
  347SOL    HW2 1168   6.293   0.287   4.339 -1.2687  1.0332  1.2617
  348SOL     OW 1169   3.255   4.378   0.743  0.3509  0.4312  0.2144
  348SOL    HW1 1170   3.270   4.406   0.653  1.4291 -2.5945 -0.7848
  348SOL    HW2 1171   3.289   4.450   0.796  0.0991  2.1746 -1.7397
  349SOL     OW 1172   3.870   5.396   2.457 -0.2000  0.1877 -0.3839
  349SOL    HW1 1173   3.784   5.437   2.473 -0.2634 -0.1353  0.1447
  349SOL    HW2 1174   3.931   5.470   2.452 -0.6485  0.5238 -1.9383
  350SOL     OW 1175   0.544   0.256   2.200 -0.2328 -0.0620  0.1270
  350SOL    HW1 1176   0.507   0.309   2.271 -2.8040  0.3963 -1.2949
  350SOL    HW2 1177   0.602   0.194   2.244 -0.0531  1.4195  2.3279
  351SOL     OW 1178   4.659   2.326   0.010 -0.2386  0.6313 -0.0526
  351SOL    HW1 1179   4.680   2.345   0.101 -2.2296  0.1459  0.6015
  351SOL    HW2 1180   4.742   2.293  -0.027  0.8408  1.5697  1.3120
  352SOL     OW 1181   3.366   4.953   2.018 -0.8541 -0.0930  0.5625
  352SOL    HW1 1182   3.415   4.889   1.967  1.2923  0.6878  1.4201
  352SOL    HW2 1183   3.321   5.007   1.953 -0.9158 -1.0927 -0.2688
  353SOL     OW 1184   3.549   3.168   0.833  0.4154  0.0975 -0.0860
  353SOL    HW1 1185   3.617   3.207   0.777  0.3190 -0.4300 -0.5831
  353SOL    HW2 1186   3.531   3.083   0.794  1.5202 -1.0660  1.6418
  354SOL     OW 1187   3.726   3.293   0.688 -0.1885  0.1730 -0.0212
  354SOL    HW1 1188   3.680   3.374   0.668 -0.4793  0.2442  0.8406
  354SOL    HW2 1189   3.810   3.300   0.642  0.6603  1.8869  1.5453
  355SOL     OW 1190   4.744   0.153   3.926 -0.7973  0.0922  0.3816
  355SOL    HW1 1191   4.711   0.220   3.867 -0.3354 -0.3193 -0.3731
  355SOL    HW2 1192   4.826   0.124   3.886 -1.1167 -1.1106  0.5361
  356SOL     OW 1193   4.645   4.344   0.485  0.2387  0.1472  0.0156
  356SOL    HW1 1194   4.679   4.319   0.399  4.2186 -1.9819  1.6609
  356SOL    HW2 1195   4.642   4.262   0.534  0.4171  1.4147  2.4461
  357SOL     OW 1196   4.157   3.991   4.455 -0.2830  0.2075  0.6252
  357SOL    HW1 1197   4.158   3.995   4.551  0.5431  2.6942  0.6465
  357SOL    HW2 1198   4.240   3.950   4.432 -0.7052 -0.8891  0.8843
  358SOL     OW 1199   6.252   2.510   2.717 -0.0471 -0.0172  0.3835
  358SOL    HW1 1200   6.301   2.432   2.692 -2.0422 -1.2808  0.0479
  358SOL    HW2 1201   6.166   2.500   2.677 -1.1296  1.3289  2.0398
  359SOL     OW 1202   5.514   3.858   1.919  0.2227 -0.7962  0.0943
  359SOL    HW1 1203   5.603   3.830   1.898  0.2711 -2.1588  1.7023
  359SOL    HW2 1204   5.482   3.792   1.980 -0.8253  1.1461  1.9035
  360SOL     OW 1205   2.973   6.332   1.272 -0.2877  0.0208 -0.3024
  360SOL    HW1 1206   2.930   6.247   1.262 -2.2993  0.7615  0.8709
  360SOL    HW2 1207   3.055   6.323   1.223 -0.7149 -2.3170 -0.8479
  361SOL     OW 1208   4.378   1.441   0.481  0.3784  0.3021 -0.3801
  361SOL    HW1 1209   4.377   1.365   0.540 -0.3567 -1.1285 -2.0620
  361SOL    HW2 1210   4.471   1.460   0.467  0.6328  1.3670  1.8628
  362SOL     OW 1211   5.130   0.914   0.490 -0.1590  0.0314  0.0143
  362SOL    HW1 1212   5.065   0.910   0.560 -0.1345 -1.4089  0.0268
  362SOL    HW2 1213   5.213   0.929   0.536 -0.1929 -0.5341  0.2838
  363SOL     OW 1214   6.014   4.217   1.653  0.9046  0.1395  0.3550
  363SOL    HW1 1215   6.028   4.145   1.714  1.1688  0.4436  0.6589
  363SOL    HW2 1216   5.934   4.194   1.607  1.4708 -0.8183 -0.2229
  364SOL     OW 1217   5.507   2.003   1.587 -0.2069  0.3208  0.1300
  364SOL    HW1 1218   5.478   1.926   1.636 -0.6154  0.2776 -0.1720
  364SOL    HW2 1219   5.587   1.974   1.542 -1.3265 -0.5671 -1.4978
  365SOL     OW 1220   3.756   3.867   3.110  0.1932  0.1546  0.5819
  365SOL    HW1 1221   3.738   3.960   3.103  1.9795  0.5701  0.5948
  365SOL    HW2 1222   3.673   3.828   3.139 -0.3776  1.8306  1.3957
  366SOL     OW 1223   2.473   3.096   0.595  0.0156  0.1097 -0.1430
  366SOL    HW1 1224   2.407   3.159   0.623 -1.6574 -1.4542 -0.2582
  366SOL    HW2 1225   2.425   3.031   0.545  2.0648  0.2312 -2.7227
  367SOL     OW 1226   2.066   5.459   1.126  0.1332  0.4779  0.0091
  367SOL    HW1 1227   2.095   5.547   1.101  0.2821  1.0405  1.8374
  367SOL    HW2 1228   1.974   5.457   1.102  0.4580  0.4887 -1.4658
  368SOL     OW 1229   1.954   2.125   2.229  0.1800 -0.1906 -0.5509
  368SOL    HW1 1230   1.998   2.203   2.195 -1.6965  1.2485 -0.0131
  368SOL    HW2 1231   2.020   2.056   2.222  1.3826  0.9356 -2.8637
  369SOL     OW 1232   5.187   2.683   4.235  0.3933 -0.1808 -0.7579
  369SOL    HW1 1233   5.210   2.682   4.142  1.0468  0.8392 -0.6437
  369SOL    HW2 1234   5.243   2.616   4.274  1.6150  0.7246 -0.8362
  370SOL     OW 1235   0.288   2.011   0.947 -0.2825  0.0579  0.0887
  370SOL    HW1 1236   0.283   2.096   0.903  1.7402  1.6628  2.3716
  370SOL    HW2 1237   0.338   1.955   0.887 -0.3722  0.9717 -0.8970
  371SOL     OW 1238   0.053   0.030   3.418 -0.4147  0.1212  0.3033
  371SOL    HW1 1239   0.045   0.085   3.340 -0.3787 -0.9872 -0.5272
  371SOL    HW2 1240  -0.022  -0.029   3.414 -0.6812  0.3444  1.3888
  372SOL     OW 1241   1.194   1.809   4.451 -0.4397 -0.0139 -0.0557
  372SOL    HW1 1242   1.229   1.898   4.459 -1.4619  0.4910 -0.7250
  372SOL    HW2 1243   1.140   1.797   4.529 -0.9968  0.3028 -0.3864
  373SOL     OW 1244   1.727   3.930   4.184  0.1120 -0.1651 -0.2253
  373SOL    HW1 1245   1.698   3.844   4.153 -1.0601  0.2187 -0.3160
  373SOL    HW2 1246   1.743   3.980   4.103  0.3238 -0.1486 -0.1750
  374SOL     OW 1247   0.116   5.806   2.508 -0.2808 -0.0248  0.5564
  374SOL    HW1 1248   0.170   5.878   2.539 -0.2908  0.2325  0.0100
  374SOL    HW2 1249   0.034   5.847   2.480 -0.4970 -0.3204  0.7314
  375SOL     OW 1250   1.215   5.425   1.102 -0.4512  0.0805  0.0052
  375SOL    HW1 1251   1.230   5.455   1.012  0.8084 -0.2448  0.0695
  375SOL    HW2 1252   1.144   5.361   1.094  0.1096 -0.4739 -0.8855
  376SOL     OW 1253   5.109   3.006   3.946  0.0756 -0.8024 -0.2026
  376SOL    HW1 1254   5.041   3.071   3.965  0.1306 -0.6561 -0.4976
  376SOL    HW2 1255   5.064   2.938   3.896  0.3047 -0.3221 -1.0941
  377SOL     OW 1256   3.396   3.374   2.379  1.0516  0.3029 -0.3132
  377SOL    HW1 1257   3.383   3.457   2.425  0.1131  0.7112 -1.2459
  377SOL    HW2 1258   3.397   3.397   2.286 -1.2215 -0.8323 -0.7724
  378SOL     OW 1259   0.119   6.060   1.259 -0.5067  0.0825  0.1290
  378SOL    HW1 1260   0.113   6.016   1.343 -1.7905  1.0474  0.6109
  378SOL    HW2 1261   0.030   6.060   1.225  0.0170 -0.5762 -1.4404
  379SOL     OW 1262   1.275   0.439   4.319  0.5626  0.6127  0.1911
  379SOL    HW1 1263   1.195   0.387   4.323  1.6786 -2.0149 -3.0300
  379SOL    HW2 1264   1.300   0.452   4.411 -1.4130 -2.0887  1.3669
  380SOL     OW 1265   5.263   5.438   1.641  0.0615 -0.0945  0.0698
  380SOL    HW1 1266   5.329   5.503   1.660 -0.6709  0.4036  1.0873
  380SOL    HW2 1267   5.204   5.481   1.579  0.4660 -0.4136 -0.5610
  381SOL     OW 1268   2.654   2.647   4.126 -0.1923  0.0013 -0.1886
  381SOL    HW1 1269   2.725   2.640   4.191 -0.7259 -0.8438  0.3513
  381SOL    HW2 1270   2.659   2.564   4.077 -1.5842 -0.7192  0.7488
  382SOL     OW 1271   1.181   5.025   2.357 -0.7128 -0.0871  0.2188
  382SOL    HW1 1272   1.142   4.942   2.385  0.0359 -0.6144 -0.2588
  382SOL    HW2 1273   1.179   5.080   2.436 -1.9655 -0.2447  0.3307
  383SOL     OW 1274   2.776   0.979   2.651  0.2122  0.0075 -0.2121
  383SOL    HW1 1275   2.736   0.942   2.730 -0.7372  0.6592 -0.3528
  383SOL    HW2 1276   2.808   0.903   2.602 -0.5040 -0.5226  0.1093
  384SOL     OW 1277   3.026   3.827   3.986 -0.3628  0.7009  0.0957
  384SOL    HW1 1278   3.061   3.838   3.898 -0.1244  0.5056  0.1613
  384SOL    HW2 1279   2.992   3.913   4.010  0.7497  1.1248  0.3023
  385SOL     OW 1280   2.493   1.304   0.669 -0.1287  0.2084  0.7019
  385SOL    HW1 1281   2.431   1.293   0.597  1.9941  1.8201 -1.7379
  385SOL    HW2 1282   2.439   1.324   0.745 -2.5915  0.6584 -0.9477
  386SOL     OW 1283   1.495   3.820   2.640  0.8875 -0.1361  0.2039
  386SOL    HW1 1284   1.500   3.725   2.632 -0.1124 -0.2387  0.5151
  386SOL    HW2 1285   1.439   3.848   2.567  1.8439  0.3295 -0.3896
  387SOL     OW 1286   5.797   4.058   0.831  0.6465  0.3240  0.2305
  387SOL    HW1 1287   5.814   4.137   0.883  0.4564 -0.4567  1.6042
  387SOL    HW2 1288   5.743   4.004   0.889 -0.7936 -0.0858 -1.3437
  388SOL     OW 1289   1.512   5.250   2.526  0.9910 -0.2202  0.6757
  388SOL    HW1 1290   1.496   5.326   2.471 -1.2930 -1.8704 -1.4194
  388SOL    HW2 1291   1.458   5.266   2.604  2.0050  0.9716  1.1913
  389SOL     OW 1292   1.893   1.586   4.423 -0.1611  0.3484 -0.0841
  389SOL    HW1 1293   1.940   1.610   4.343  0.6030 -0.7241  0.0010
  389SOL    HW2 1294   1.858   1.499   4.405  0.8615 -0.3497  1.0609
  390SOL     OW 1295   0.725   3.263   3.221 -0.4313  0.9204 -0.3317
  390SOL    HW1 1296   0.811   3.275   3.180 -0.2566 -0.1992 -0.3699
  390SOL    HW2 1297   0.745   3.224   3.306 -0.8825 -0.8677 -0.9454
  391SOL     OW 1298   0.393   0.350   1.996  0.5504 -0.1247  0.2110
  391SOL    HW1 1299   0.452   0.426   1.994 -0.8063  1.0239  0.5965
  391SOL    HW2 1300   0.425   0.296   2.068  2.3235 -0.6898 -0.8588
  392SOL     OW 1301   5.690   5.631   2.760 -0.0158 -0.0970 -0.0386
  392SOL    HW1 1302   5.602   5.616   2.793  0.1645  0.4322  0.7398
  392SOL    HW2 1303   5.740   5.661   2.836  0.9593 -0.8152 -0.3483
  393SOL     OW 1304   5.116   5.214   1.665  0.4786  0.5255  0.2496
  393SOL    HW1 1305   5.061   5.293   1.662  0.8683  0.8390 -2.2222
  393SOL    HW2 1306   5.202   5.244   1.635  0.8478 -0.7057 -0.0223
  394SOL     OW 1307   6.014   1.765   2.745  0.8219 -0.6465  0.0699
  394SOL    HW1 1308   6.046   1.851   2.772  0.0757 -1.1873  3.5141
  394SOL    HW2 1309   6.068   1.703   2.793  0.3003 -2.0738 -1.0354
  395SOL     OW 1310   2.572   2.106   1.597  0.3473 -0.4557  0.7959
  395SOL    HW1 1311   2.648   2.065   1.556  0.3213  0.5173 -0.3354
  395SOL    HW2 1312   2.516   2.131   1.523 -1.0292 -0.9870  1.5687
  396SOL     OW 1313   0.445   5.576   0.078 -0.0304  0.1550 -0.1513
  396SOL    HW1 1314   0.397   5.521   0.140  0.2154 -1.9005 -1.5690
  396SOL    HW2 1315   0.537   5.549   0.087  0.3231  1.2484 -0.1107
  397SOL     OW 1316   6.259   3.960   0.915 -0.1002 -0.2370  0.2381
  397SOL    HW1 1317   6.289   3.909   0.990 -3.3980 -1.5236  1.0603
  397SOL    HW2 1318   6.296   4.047   0.928  2.2991 -1.2465  1.2759
  398SOL     OW 1319   4.807   2.515   4.202  0.2923 -0.0367  0.5859
  398SOL    HW1 1320   4.865   2.546   4.271  1.0361 -0.1434  0.0313
  398SOL    HW2 1321   4.847   2.435   4.170 -0.5979 -0.5660  0.7140
  399SOL     OW 1322   3.837   5.151   0.943 -0.3946 -0.1051  0.3196
  399SOL    HW1 1323   3.785   5.075   0.970  0.9741 -0.8610  1.0121
  399SOL    HW2 1324   3.892   5.118   0.872  0.4279  0.1371  0.8232
  400SOL     OW 1325   0.941   4.476   2.716 -0.0580 -0.5663 -0.4381
  400SOL    HW1 1326   1.035   4.468   2.699 -0.0834  0.6203 -1.3773
  400SOL    HW2 1327   0.899   4.463   2.631 -0.7222 -0.6970 -0.1047
  401SOL     OW 1328   6.333   1.990   3.405  0.2456 -0.1073  0.1382
  401SOL    HW1 1329   6.342   1.917   3.344 -2.8653 -1.1602  0.5959
  401SOL    HW2 1330   6.264   2.045   3.367 -1.0508 -0.2288  2.0340
  402SOL     OW 1331   4.820   5.296   0.855 -0.1311 -0.3789 -0.3010
  402SOL    HW1 1332   4.765   5.266   0.783 -0.0928  1.3560 -1.1599
  402SOL    HW2 1333   4.760   5.342   0.913  0.1719  0.2449 -0.4678
  403SOL     OW 1334   4.396   6.336   0.655 -0.4415  0.2336  0.1350
  403SOL    HW1 1335   4.435   6.252   0.678 -0.8196 -0.0473 -0.2246
  403SOL    HW2 1336   4.307   6.314   0.626 -0.4157  0.7125 -0.3337
  404SOL     OW 1337   2.413   2.183   3.667  0.0440  0.4179 -0.0278
  404SOL    HW1 1338   2.360   2.176   3.588 -1.1841  1.7035  0.5915
  404SOL    HW2 1339   2.365   2.244   3.723  1.9691  1.3608  0.8037
  405SOL     OW 1340   3.273   5.878   1.577  0.2916 -0.0973 -0.2354
  405SOL    HW1 1341   3.348   5.937   1.582 -0.0042  0.2123  1.2510
  405SOL    HW2 1342   3.234   5.897   1.491  2.0206 -0.4897 -1.2130
  406SOL     OW 1343   4.501   1.233   3.370  0.4790  0.0721 -0.5091
  406SOL    HW1 1344   4.479   1.143   3.349 -1.0445  0.3974 -0.5174
  406SOL    HW2 1345   4.574   1.254   3.312 -0.2010 -0.6695 -1.7108
  407SOL     OW 1346   3.095   5.007   0.529  0.5221  0.5692  0.2625
  407SOL    HW1 1347   3.050   4.966   0.455  0.9705 -1.6457  1.0656
  407SOL    HW2 1348   3.136   5.085   0.492 -1.4992  1.1502 -1.1443
  408SOL     OW 1349   2.697   0.175   1.941  0.1717 -0.2601 -0.4170
  408SOL    HW1 1350   2.713   0.099   1.996  1.8138 -0.2120 -0.7351
  408SOL    HW2 1351   2.675   0.139   1.855  0.4036 -0.3767 -0.4280
  409SOL     OW 1352   3.344   3.606   1.237 -0.1593 -0.7166  0.0051
  409SOL    HW1 1353   3.317   3.697   1.226  0.2558  0.3785  4.3387
  409SOL    HW2 1354   3.438   3.606   1.222  0.2761  0.3919  1.9882
  410SOL     OW 1355   2.971   3.152   0.993  0.3771  0.6751  0.3721
  410SOL    HW1 1356   2.998   3.124   0.905 -0.6746  1.7612 -0.3550
  410SOL    HW2 1357   3.028   3.226   1.012  2.0773 -0.7576  1.6265
  411SOL     OW 1358   4.353   2.302   4.203 -0.6293  0.2654 -0.0885
  411SOL    HW1 1359   4.303   2.377   4.235  0.5047  0.0604  2.7267
  411SOL    HW2 1360   4.302   2.226   4.231 -1.0828 -0.0825 -1.6867
  412SOL     OW 1361   3.545   3.139   2.843  0.9772  0.3665  0.3629
  412SOL    HW1 1362   3.534   3.230   2.815  0.1084  1.0030  2.3484
  412SOL    HW2 1363   3.585   3.146   2.930 -1.0504 -0.9140  1.5496
  413SOL     OW 1364   0.431   3.593   4.241 -0.4641 -0.0764 -0.0582
  413SOL    HW1 1365   0.412   3.685   4.221  2.0882  0.5051 -0.4792
  413SOL    HW2 1366   0.463   3.556   4.159  0.7499 -0.6098  0.6047
  414SOL     OW 1367   4.109   0.243   1.201  0.6976 -0.2523  0.5009
  414SOL    HW1 1368   4.090   0.280   1.287  1.1393  1.7369 -0.1445
  414SOL    HW2 1369   4.024   0.236   1.158  0.6289  2.2135 -0.0519
  415SOL     OW 1370   0.698   3.605   1.117 -0.1251  0.4800  0.0918
  415SOL    HW1 1371   0.639   3.569   1.183 -0.1652 -2.1242 -1.1268
  415SOL    HW2 1372   0.785   3.576   1.144  0.1997  1.3902  0.1132
  416SOL     OW 1373   0.792   4.445   2.456  0.0731 -0.6041  0.6143
  416SOL    HW1 1374   0.709   4.398   2.445 -0.2268  0.1781 -1.1952
  416SOL    HW2 1375   0.846   4.415   2.383  1.0437 -0.3745  1.2024
  417SOL     OW 1376   4.184   4.772   0.014 -0.5006  0.0636 -0.5236
  417SOL    HW1 1377   4.089   4.781   0.011 -0.5810 -0.7255 -0.7695
  417SOL    HW2 1378   4.210   4.817   0.095 -1.1651 -0.3316 -0.0726
  418SOL     OW 1379   2.318   2.417   1.710 -0.0687 -0.0944  0.6568
  418SOL    HW1 1380   2.311   2.489   1.773 -1.8042  0.2782  0.1638
  418SOL    HW2 1381   2.396   2.369   1.737 -0.2762  0.4763  2.6190
  419SOL     OW 1382   2.610   5.488   3.366 -0.0100 -0.2728  0.4393
  419SOL    HW1 1383   2.605   5.523   3.277  2.2370  2.2946  1.0479
  419SOL    HW2 1384   2.651   5.402   3.355 -0.0460 -0.1662 -0.9983
  420SOL     OW 1385   2.665   4.763   2.796 -0.0073 -0.2057  0.7592
  420SOL    HW1 1386   2.605   4.816   2.744  0.1532  0.0932  0.8718
  420SOL    HW2 1387   2.618   4.682   2.813 -0.2264 -0.1291  0.5163
  421SOL     OW 1388   4.905   1.830   1.535 -0.2756  0.6144 -0.7690
  421SOL    HW1 1389   4.820   1.856   1.501 -1.3627  0.0771  1.2643
  421SOL    HW2 1390   4.920   1.886   1.611  0.6464 -0.0542 -0.4088
  422SOL     OW 1391   2.573   5.086   2.830  0.1639  0.2947  0.2348
  422SOL    HW1 1392   2.589   5.041   2.913 -1.6573 -0.6611  0.1754
  422SOL    HW2 1393   2.649   5.063   2.775  1.7523  1.4764  1.7150
  423SOL     OW 1394   1.267   4.281   0.572  0.0057 -0.5071 -0.2600
  423SOL    HW1 1395   1.186   4.319   0.539 -0.6546 -1.6467 -0.0816
  423SOL    HW2 1396   1.247   4.188   0.582  1.5270 -0.9534 -0.7750
  424SOL     OW 1397   3.235   4.038   0.722 -0.0520  0.1134  0.8585
  424SOL    HW1 1398   3.173   3.972   0.691  0.7524 -0.6484  0.7716
  424SOL    HW2 1399   3.313   3.988   0.745  0.8359  1.1007  0.1662
  425SOL     OW 1400   3.647   0.609   1.858 -0.1919  0.0153  0.0361
  425SOL    HW1 1401   3.718   0.670   1.837 -0.4111  0.2951  0.0889
  425SOL    HW2 1402   3.615   0.580   1.773  0.7464 -1.0354  0.0033
  426SOL     OW 1403   2.422   2.221   3.155 -0.3772  0.1075  0.1978
  426SOL    HW1 1404   2.372   2.246   3.078 -1.8443 -0.3168  0.9345
  426SOL    HW2 1405   2.474   2.298   3.176 -0.8631  0.6619 -0.5280
  427SOL     OW 1406   6.189   0.244   0.620  0.1677 -0.3633  0.2017
  427SOL    HW1 1407   6.161   0.335   0.632  2.1683  0.1932  2.6429
  427SOL    HW2 1408   6.245   0.246   0.542 -1.8778 -0.2946 -1.4262
  428SOL     OW 1409   3.643   4.092   1.534 -0.1244 -0.1624  0.2733
  428SOL    HW1 1410   3.701   4.018   1.516 -0.4348 -0.5570  0.8405
  428SOL    HW2 1411   3.568   4.079   1.475 -0.6770 -0.9086  1.0873
  429SOL     OW 1412   3.257   4.265   1.695  0.1552 -0.1120  0.5049
  429SOL    HW1 1413   3.258   4.277   1.790 -1.0027  1.5274  0.3898
  429SOL    HW2 1414   3.345   4.290   1.667 -0.0475  1.3945  1.0271
  430SOL     OW 1415   5.135   3.864   2.045  0.2113  0.0830  0.1116
  430SOL    HW1 1416   5.209   3.804   2.057 -1.0019 -1.6224 -0.3665
  430SOL    HW2 1417   5.171   3.935   1.992  1.7096 -0.1890  0.6526
  431SOL     OW 1418   1.281   2.399   0.221 -0.3225 -0.7126 -0.2680
  431SOL    HW1 1419   1.360   2.357   0.254  0.5026  1.0555  0.2489
  431SOL    HW2 1420   1.310   2.485   0.192 -2.2873  1.1846  2.3673
  432SOL     OW 1421   0.109   1.503   0.122  0.1074  0.0565 -0.0943
  432SOL    HW1 1422   0.104   1.455   0.039 -2.7258 -0.3717  0.1327
  432SOL    HW2 1423   0.103   1.595   0.096  1.0766  0.0675 -0.3660
  433SOL     OW 1424   2.874   5.354   0.391 -0.6517 -0.0912 -0.1630
  433SOL    HW1 1425   2.805   5.367   0.456 -1.1217 -0.3555 -0.5965
  433SOL    HW2 1426   2.953   5.334   0.443 -1.0847 -0.6151  0.3211
  434SOL     OW 1427   2.744   3.892   1.546  0.4449 -0.4528  0.1944
  434SOL    HW1 1428   2.695   3.862   1.622  0.3432  0.4836  0.5246
  434SOL    HW2 1429   2.679   3.898   1.476 -0.3767  2.1078  0.9598
  435SOL     OW 1430   5.318   0.216   0.445  0.2997 -0.4623 -0.1166
  435SOL    HW1 1431   5.246   0.153   0.446  0.8182 -1.0813 -0.5284
  435SOL    HW2 1432   5.375   0.187   0.375 -0.1712  1.3329 -1.3910
  436SOL     OW 1433   3.552   4.319   2.724  0.1149  0.2560 -0.0335
  436SOL    HW1 1434   3.607   4.242   2.716  1.4787  1.2147 -0.7008
  436SOL    HW2 1435   3.609   4.392   2.702 -0.7571  1.6193  1.6671
  437SOL     OW 1436   3.231   2.127   3.442 -0.5743  0.2880 -0.3773
  437SOL    HW1 1437   3.230   2.032   3.430  0.6584  0.2366 -0.3412
  437SOL    HW2 1438   3.201   2.162   3.358  1.1768 -0.1439 -1.2702
  438SOL     OW 1439   0.269   3.797   3.763  0.4304 -0.1769  0.4840
  438SOL    HW1 1440   0.266   3.753   3.679 -0.6973 -0.7423  0.7861
  438SOL    HW2 1441   0.249   3.888   3.744 -0.5982 -0.4428  0.2046
  439SOL     OW 1442   3.953   3.270   0.495 -0.5434 -0.2802  0.7143
  439SOL    HW1 1443   4.007   3.346   0.472 -1.8863  0.2166 -1.4410
  439SOL    HW2 1444   4.012   3.195   0.486 -0.0653  0.2095 -1.7406
  440SOL     OW 1445   0.142   1.318   2.632 -0.5493  0.4554 -0.2607
  440SOL    HW1 1446   0.080   1.355   2.694 -1.3490  0.9317 -1.2796
  440SOL    HW2 1447   0.211   1.383   2.625 -1.4394  1.3696 -1.2768
  441SOL     OW 1448   5.019   5.727   2.589  0.1940 -0.1232 -0.4753
  441SOL    HW1 1449   4.995   5.819   2.579 -0.7159 -0.3363 -0.4000
  441SOL    HW2 1450   4.939   5.684   2.619  1.1265 -0.5651  1.8097
  442SOL     OW 1451   2.363   6.057   1.205  0.2901 -0.4305 -0.3791
  442SOL    HW1 1452   2.444   6.106   1.188  0.3741 -0.4891 -0.1522
  442SOL    HW2 1453   2.296   6.123   1.216  0.2900 -0.3830 -0.6568
  443SOL     OW 1454   4.466   1.187   2.262  0.1087  0.2367 -0.0244
  443SOL    HW1 1455   4.524   1.149   2.196  0.5958 -1.5878  1.2847
  443SOL    HW2 1456   4.420   1.112   2.300  0.7122  0.9319  2.4594
  444SOL     OW 1457   2.406   6.025   0.416  0.1899  0.6875 -0.1676
  444SOL    HW1 1458   2.431   5.937   0.387 -0.0663  0.9089 -1.1458
  444SOL    HW2 1459   2.394   6.017   0.510  0.9997 -0.1221 -0.1035
  445SOL     OW 1460   3.493   4.412   1.332 -0.0611 -0.2049 -0.3277
  445SOL    HW1 1461   3.523   4.408   1.422 -0.4275  0.5877 -0.1499
  445SOL    HW2 1462   3.399   4.395   1.338  0.1679 -2.0667 -0.8052
  446SOL     OW 1463   0.964   6.089   0.682  0.4350  0.2708 -0.7240
  446SOL    HW1 1464   1.022   6.034   0.629  1.7408 -0.0854  0.9065
  446SOL    HW2 1465   0.915   6.026   0.736  0.2608  0.6523 -0.4306
  447SOL     OW 1466   4.621   1.793   2.158  0.0447  0.3170 -0.0351
  447SOL    HW1 1467   4.555   1.733   2.122 -0.2775  1.0820 -0.7659
  447SOL    HW2 1468   4.578   1.832   2.235  0.3793 -0.6025  0.6534
  448SOL     OW 1469   3.702   5.617   2.928 -0.1308  0.2545  0.0743
  448SOL    HW1 1470   3.653   5.535   2.929  1.2329 -0.6228  0.9554
  448SOL    HW2 1471   3.678   5.658   2.845 -0.6459 -1.1751 -0.5456
  449SOL     OW 1472   1.534   2.296   0.258 -0.4409 -0.0771  0.0241
  449SOL    HW1 1473   1.508   2.204   0.262  1.9531 -0.8731  0.0946
  449SOL    HW2 1474   1.552   2.320   0.349 -1.0213  0.5138  0.0032
  450SOL     OW 1475   0.486   4.296   0.111 -0.0292  0.0683 -0.0928
  450SOL    HW1 1476   0.555   4.274   0.049  1.1861 -0.4807  1.3225
  450SOL    HW2 1477   0.516   4.376   0.153 -0.3623 -0.0518  0.3920
  451SOL     OW 1478   3.475   5.828   4.318 -0.4346  0.1557  0.0660
  451SOL    HW1 1479   3.515   5.859   4.399  0.3225  0.5066 -0.4154
  451SOL    HW2 1480   3.384   5.808   4.342  0.0620 -0.9585  1.2867
  452SOL     OW 1481   4.571   0.503   0.011 -0.2219 -0.1552  0.1597
  452SOL    HW1 1482   4.665   0.486   0.003 -0.1025 -0.8398  1.9624
  452SOL    HW2 1483   4.556   0.580  -0.043  1.6261  0.7302  0.7351
  453SOL     OW 1484   1.381   6.266   1.348 -0.0121  0.4738  0.7491
  453SOL    HW1 1485   1.403   6.350   1.309  0.9843  0.4285  1.1541
  453SOL    HW2 1486   1.448   6.252   1.415  0.2808 -0.9511  0.2338
  454SOL     OW 1487   4.915   0.193   2.040 -0.4612  0.4377 -0.2018
  454SOL    HW1 1488   4.956   0.264   1.991  0.5057  0.8371  1.0862
  454SOL    HW2 1489   4.861   0.237   2.106 -0.6334 -0.0525 -0.0048
  455SOL     OW 1490   1.269   2.170   1.177 -0.3822  0.0002  0.0722
  455SOL    HW1 1491   1.284   2.076   1.173  0.9598  0.0302  2.0378
  455SOL    HW2 1492   1.178   2.178   1.207 -0.4158 -0.6733  0.1838
  456SOL     OW 1493   2.300   1.803   1.936  0.2064 -0.1191 -0.0575
  456SOL    HW1 1494   2.318   1.810   2.030  1.3518  0.7684 -0.2887
  456SOL    HW2 1495   2.267   1.714   1.923  2.3418 -1.1702  0.8694
  457SOL     OW 1496   3.529   1.746   0.324  0.0942  0.6845 -0.4660
  457SOL    HW1 1497   3.469   1.772   0.255 -0.2144  1.4185  0.0523
  457SOL    HW2 1498   3.614   1.737   0.281 -0.3450 -0.3066 -1.1985
  458SOL     OW 1499   1.434   4.774   3.260  0.1474 -0.1669  0.1161
  458SOL    HW1 1500   1.418   4.695   3.312 -1.2788  1.3909  2.3610
  458SOL    HW2 1501   1.348   4.814   3.249  0.9095  1.6652  0.1352
  459SOL     OW 1502   3.502   2.565   2.663  0.3673 -0.5178  0.0951
  459SOL    HW1 1503   3.414   2.554   2.701  0.1460  1.6693  0.4481
  459SOL    HW2 1504   3.528   2.476   2.638 -1.6552 -1.3592  0.5728
  460SOL     OW 1505   0.428   1.169   4.141  0.2453 -0.3144  0.3237
  460SOL    HW1 1506   0.341   1.150   4.175  0.4040  0.3091  1.1348
  460SOL    HW2 1507   0.449   1.094   4.086 -1.1653 -0.0720 -0.6507
  461SOL     OW 1508   3.002   0.743   3.817  0.5428 -0.6938 -0.7385
  461SOL    HW1 1509   2.983   0.650   3.832 -1.2894 -0.3788 -0.6830
  461SOL    HW2 1510   3.061   0.744   3.741  0.0473 -1.8823 -1.1774
  462SOL     OW 1511   1.615   0.694   3.499 -0.5525 -0.2948  0.6648
  462SOL    HW1 1512   1.604   0.770   3.442 -1.3887  0.5790  1.9036
  462SOL    HW2 1513   1.539   0.639   3.481 -2.5144  1.3485  2.7574
  463SOL     OW 1514   2.465   4.049   1.016  0.5490 -0.1312 -0.2361
  463SOL    HW1 1515   2.380   4.046   0.973 -0.2820 -0.2211  1.2781
  463SOL    HW2 1516   2.507   3.966   0.992  0.1056 -0.2122 -0.7756
  464SOL     OW 1517   1.071   4.594   1.313 -0.2513  0.1903  0.3738
  464SOL    HW1 1518   1.029   4.677   1.291 -1.3393 -0.2220  0.7307
  464SOL    HW2 1519   1.160   4.618   1.340 -1.4707  1.9587  4.4694
  465SOL     OW 1520   1.862   1.513   0.433 -0.0217  0.0619 -0.5074
  465SOL    HW1 1521   1.866   1.439   0.494 -0.9024 -0.4157 -0.9961
  465SOL    HW2 1522   1.943   1.505   0.382 -1.5828 -3.0911 -3.2727
  466SOL     OW 1523   0.227   1.926   2.027  0.4854  0.2897 -0.2061
  466SOL    HW1 1524   0.158   1.952   2.088  1.4761 -0.8484  1.5597
  466SOL    HW2 1525   0.180   1.894   1.950 -0.8879  0.8577  0.3418
  467SOL     OW 1526   4.570   4.981   4.351  0.3975  0.3047  0.3077
  467SOL    HW1 1527   4.481   4.971   4.385  0.4351  0.3835  0.4279
  467SOL    HW2 1528   4.557   5.023   4.266  0.2785 -0.2259  0.0523
  468SOL     OW 1529   5.233   1.740   4.269 -0.0902 -0.0670 -0.0308
  468SOL    HW1 1530   5.160   1.721   4.210  1.9129 -1.6731 -2.3697
  468SOL    HW2 1531   5.256   1.831   4.250 -0.6672  0.0593 -0.1822
  469SOL     OW 1532   4.425   2.215   3.766 -0.0546  0.3673  0.9047
  469SOL    HW1 1533   4.375   2.206   3.685  0.2437  0.2503  0.7314
  469SOL    HW2 1534   4.460   2.304   3.763 -0.1267  0.3978  0.9550
  470SOL     OW 1535   3.167   4.272   2.280 -0.4818 -0.1212  0.4542
  470SOL    HW1 1536   3.075   4.250   2.266 -0.4049 -0.0152 -0.3443
  470SOL    HW2 1537   3.204   4.195   2.322 -0.7530 -0.5120  0.0015
  471SOL     OW 1538   4.186   3.061   3.607 -0.2467 -0.2778  0.5570
  471SOL    HW1 1539   4.134   3.103   3.538 -0.5253 -0.2289  0.7977
  471SOL    HW2 1540   4.129   3.057   3.683  0.2915  0.3196  1.0133
  472SOL     OW 1541   6.348   0.810   0.748  0.1268 -0.4121 -0.0993
  472SOL    HW1 1542   6.402   0.734   0.727 -0.0562 -0.5499 -0.0748
  472SOL    HW2 1543   6.350   0.864   0.669  0.4618 -0.3203 -0.0278
  473SOL     OW 1544   2.296   3.563   2.983  0.3454 -0.1436  0.2904
  473SOL    HW1 1545   2.305   3.622   3.058 -1.4367  1.0835 -0.3165
  473SOL    HW2 1546   2.222   3.507   3.006  0.4882 -0.5084 -0.1258
  474SOL     OW 1547   2.492   1.891   0.346 -0.1349 -0.0730 -0.3967
  474SOL    HW1 1548   2.551   1.835   0.396  0.1433  0.4204 -0.1620
  474SOL    HW2 1549   2.430   1.830   0.306 -0.1221 -0.5098  0.2221
  475SOL     OW 1550   1.201   3.564   0.490 -0.1868 -0.5722  0.0797
  475SOL    HW1 1551   1.110   3.554   0.517 -0.4824 -0.3712 -0.8010
  475SOL    HW2 1552   1.239   3.622   0.557 -0.6668 -0.7414  0.5140
  476SOL     OW 1553   0.776   4.029   1.949 -0.1310 -0.5760 -0.2268
  476SOL    HW1 1554   0.761   4.060   2.039 -0.3964  2.8091 -1.1618
  476SOL    HW2 1555   0.871   4.017   1.944  0.1300  0.9317  0.1696
  477SOL     OW 1556   4.205   5.021   3.979 -0.3144  0.1535 -0.5812
  477SOL    HW1 1557   4.278   5.073   3.946 -0.3544  0.7896  0.2472
  477SOL    HW2 1558   4.165   5.076   4.047 -0.4839 -0.8799  0.2101
  478SOL     OW 1559   6.333   4.142   0.245  0.3491 -0.1042  0.1146
  478SOL    HW1 1560   6.424   4.115   0.231  0.3803 -0.2274  0.5128
  478SOL    HW2 1561   6.281   4.067   0.218  0.4118 -0.3754  0.7150
  479SOL     OW 1562   4.941   4.826   1.400  0.8255 -0.6198  0.0814
  479SOL    HW1 1563   4.980   4.911   1.382  2.9696 -1.7192 -1.2590
  479SOL    HW2 1564   5.014   4.765   1.401 -0.6913 -2.8163 -1.6043
  480SOL     OW 1565   4.812   2.701   3.041  0.3615  0.3577  0.5810
  480SOL    HW1 1566   4.719   2.678   3.051  0.4419  0.2375  1.1576
  480SOL    HW2 1567   4.855   2.654   3.113  1.0264 -0.4540 -0.3043
  481SOL     OW 1568   5.470   3.713   1.660 -0.1854 -0.8324  0.1038
  481SOL    HW1 1569   5.557   3.747   1.637  0.3685 -1.7050  0.8050
  481SOL    HW2 1570   5.411   3.786   1.641  0.7408 -0.0678 -0.0193
  482SOL     OW 1571   4.324   2.880   3.878 -0.0231 -0.0021 -0.0834
  482SOL    HW1 1572   4.254   2.930   3.920  0.1249 -0.9732  1.4586
  482SOL    HW2 1573   4.397   2.941   3.870 -0.5486  0.6144 -0.3520
  483SOL     OW 1574   0.424   3.608   2.516  0.2420  0.2831  0.7513
  483SOL    HW1 1575   0.452   3.542   2.580 -0.0350 -0.3090  0.2869
  483SOL    HW2 1576   0.346   3.570   2.475 -0.1431  1.0746  0.7231
  484SOL     OW 1577   5.669   0.384   1.435  0.4355  0.2424  0.2345
  484SOL    HW1 1578   5.607   0.312   1.423  0.8045  0.0792 -1.0016
  484SOL    HW2 1579   5.641   0.449   1.370  0.3947  1.0358  1.0083
  485SOL     OW 1580   6.301   1.197   3.164  0.5109  0.1782 -0.2792
  485SOL    HW1 1581   6.357   1.273   3.146 -1.2769  1.6245 -0.2966
  485SOL    HW2 1582   6.257   1.180   3.081 -0.8839  0.7652  0.2840
  486SOL     OW 1583   5.221   3.409   2.715  0.2256  0.2997 -0.3716
  486SOL    HW1 1584   5.277   3.388   2.640  1.1723  0.6058  0.2253
  486SOL    HW2 1585   5.281   3.439   2.783 -0.4746 -0.8326  0.8481
  487SOL     OW 1586   5.351   5.998   0.526  0.5365  0.4692  0.2881
  487SOL    HW1 1587   5.262   6.034   0.529  1.0723  2.2481 -1.3138
  487SOL    HW2 1588   5.399   6.046   0.593  0.2144 -1.1437  1.8149
  488SOL     OW 1589   0.492   5.248   4.117 -0.2888  0.4591 -0.5988
  488SOL    HW1 1590   0.412   5.220   4.161  0.1763  0.3208  0.1968
  488SOL    HW2 1591   0.501   5.189   4.042 -0.1785 -0.5073  0.1304
  489SOL     OW 1592   6.347   5.979   2.451 -0.6107  0.4927 -0.1116
  489SOL    HW1 1593   6.349   6.002   2.358 -0.7680 -1.3773 -0.6611
  489SOL    HW2 1594   6.269   6.023   2.485 -0.8908  0.7367 -1.0152
  490SOL     OW 1595   5.406   0.577   4.293  0.4793 -0.6111  0.4147
  490SOL    HW1 1596   5.349   0.546   4.223 -1.4670  0.9644  1.0743
  490SOL    HW2 1597   5.453   0.651   4.254  0.1331 -0.3487  0.4777
  491SOL     OW 1598   3.596   5.781   3.634 -0.2786 -0.5336  0.3839
  491SOL    HW1 1599   3.576   5.715   3.701 -0.5599 -3.0547 -1.8591
  491SOL    HW2 1600   3.511   5.810   3.602 -0.2356  2.1553  2.0892
  492SOL     OW 1601   1.317   1.990   1.556  0.4792 -0.2005 -0.0576
  492SOL    HW1 1602   1.239   1.974   1.609 -0.3223  0.5399 -0.9451
  492SOL    HW2 1603   1.287   1.982   1.465  1.1428  1.1193 -0.4535
  493SOL     OW 1604   0.794   1.093   2.716 -0.1307  0.2952  0.0375
  493SOL    HW1 1605   0.862   1.032   2.747 -0.9545 -0.9489 -0.4407
  493SOL    HW2 1606   0.716   1.039   2.709 -1.0826  1.5719  0.1226
  494SOL     OW 1607   0.446   4.927   4.320 -0.4097  0.4218  0.4021
  494SOL    HW1 1608   0.493   4.848   4.293  0.1572 -0.3674  3.0668
  494SOL    HW2 1609   0.360   4.919   4.279  0.2430 -0.5383 -0.9380
  495SOL     OW 1610   5.933   5.841   0.867  0.0864  0.0944 -0.1955
  495SOL    HW1 1611   5.856   5.896   0.877 -0.5490 -0.5058 -1.4216
  495SOL    HW2 1612   5.901   5.751   0.879  0.4430 -0.2075 -1.2758
  496SOL     OW 1613   3.131   1.328   2.311  0.7747  0.0470  0.5080
  496SOL    HW1 1614   3.132   1.285   2.225  3.9241 -2.5941  1.4511
  496SOL    HW2 1615   3.173   1.413   2.296 -0.0553  0.3007 -0.6605
  497SOL     OW 1616   0.652   1.657   4.474  0.3368  0.0365 -0.2812
  497SOL    HW1 1617   0.570   1.665   4.424  0.2996  2.0225 -0.0581
  497SOL    HW2 1618   0.627   1.608   4.553 -0.8765  1.1728  0.1194
  498SOL     OW 1619   1.443   1.711   4.082 -0.0029  0.4821  0.3088
  498SOL    HW1 1620   1.496   1.729   4.160  2.9321 -0.6398 -1.0997
  498SOL    HW2 1621   1.456   1.788   4.026 -0.1190  0.3307  0.0708
  499SOL     OW 1622   5.610   5.453   0.226  0.3285 -0.0805 -0.1012
  499SOL    HW1 1623   5.576   5.390   0.162 -1.6530  0.6836  0.0457
  499SOL    HW2 1624   5.690   5.486   0.187  1.1552 -2.1706 -0.4614
  500SOL     OW 1625   2.386   4.053   0.191  0.3879  0.0648 -0.2693
  500SOL    HW1 1626   2.319   4.002   0.146  0.2931 -0.0005 -0.0552
  500SOL    HW2 1627   2.407   4.124   0.130  0.4303 -0.1552 -0.5161
  501SOL     OW 1628   0.372   4.309   1.965 -0.1842  0.8282 -0.2843
  501SOL    HW1 1629   0.378   4.216   1.942 -0.2442  0.8117 -0.2328
  501SOL    HW2 1630   0.325   4.311   2.048 -0.4912  0.9252 -0.4554
  502SOL     OW 1631   4.827   3.261   4.219 -0.0590 -0.8539 -0.1311
  502SOL    HW1 1632   4.864   3.215   4.294 -1.5581 -1.6337  0.2032
  502SOL    HW2 1633   4.746   3.214   4.199 -1.2327  1.0485 -0.3801
  503SOL     OW 1634   2.758   5.974   3.865 -0.3543  0.3190  0.3504
  503SOL    HW1 1635   2.806   5.903   3.822 -1.0855 -1.0304  1.6073
  503SOL    HW2 1636   2.672   5.936   3.886 -0.6965  1.4938  1.3145
  504SOL     OW 1637   1.795   3.025   3.188  0.1389 -0.3586  0.5462
  504SOL    HW1 1638   1.718   3.066   3.147  0.8865  0.0351 -0.5700
  504SOL    HW2 1639   1.844   3.099   3.224 -0.0008 -0.6118  1.2849
  505SOL     OW 1640   5.227   4.771   3.035 -0.4817  0.5776  0.0657
  505SOL    HW1 1641   5.278   4.790   3.115  0.5254 -0.3000 -0.3257
  505SOL    HW2 1642   5.282   4.804   2.964  0.2720 -1.5018 -0.4690
  506SOL     OW 1643   3.337   2.031   0.803 -0.2301  0.1648 -0.6325
  506SOL    HW1 1644   3.336   2.124   0.822 -2.2142  0.2260 -0.6235
  506SOL    HW2 1645   3.389   2.023   0.723  1.0377  1.0502  0.0413
  507SOL     OW 1646   4.386   5.168   3.816 -0.4583 -0.1779 -0.1763
  507SOL    HW1 1647   4.409   5.261   3.820 -0.2021 -0.2191 -0.5914
  507SOL    HW2 1648   4.334   5.159   3.737  0.3101 -0.5470 -0.6623
  508SOL     OW 1649   2.843   5.261   2.948  0.1435  0.1316 -0.0253
  508SOL    HW1 1650   2.853   5.260   3.043 -0.0195 -0.4152 -0.0085
  508SOL    HW2 1651   2.748   5.256   2.934  0.1977 -1.8064 -0.2014
  509SOL     OW 1652   4.699   3.683   2.173 -0.1128  0.0315  0.3335
  509SOL    HW1 1653   4.759   3.738   2.222  0.5255  0.0402 -0.4299
  509SOL    HW2 1654   4.748   3.655   2.096 -0.7930 -0.6905  0.1301
  510SOL     OW 1655   0.161   0.015   4.209  0.3903  0.0935  0.5411
  510SOL    HW1 1656   0.177   0.006   4.302 -1.1121 -0.8707  0.7706
  510SOL    HW2 1657   0.248   0.025   4.170  1.2745 -1.5937  1.8411
  511SOL     OW 1658   2.050   2.237   3.026 -0.2915 -0.1892  0.4073
  511SOL    HW1 1659   2.126   2.180   3.018 -0.0944 -0.1240  1.4625
  511SOL    HW2 1660   1.999   2.200   3.099 -0.5115  0.5800  0.6720
  512SOL     OW 1661   0.064   0.547   0.739 -0.3527  0.2817  0.4824
  512SOL    HW1 1662   0.126   0.527   0.668 -0.1766  0.7491  0.4969
  512SOL    HW2 1663   0.038   0.461   0.773  0.6613  0.0694  0.7968
  513SOL     OW 1664   1.085   2.823   3.157 -0.7580  0.7607  0.3287
  513SOL    HW1 1665   1.130   2.906   3.172  0.4365  0.6561 -1.8353
  513SOL    HW2 1666   0.996   2.849   3.133 -1.0630  1.1918  1.7301
  514SOL     OW 1667   2.126   5.829   3.735  0.5145  0.3345 -0.1489
  514SOL    HW1 1668   2.081   5.769   3.676  1.2554 -0.3207 -0.0688
  514SOL    HW2 1669   2.110   5.916   3.698  0.0152  0.0351 -0.6619
  515SOL     OW 1670   0.128   2.167   3.434 -0.3033 -0.1024  0.1148
  515SOL    HW1 1671   0.138   2.177   3.528 -1.5626  0.3611  0.2341
  515SOL    HW2 1672   0.052   2.110   3.423  1.3529 -2.4923 -0.6623
  516SOL     OW 1673   5.690   0.066   3.363  0.3225 -0.1696 -0.3022
  516SOL    HW1 1674   5.690  -0.021   3.404 -0.7540  0.1221  0.3868
  516SOL    HW2 1675   5.765   0.111   3.402  0.8588 -0.7528 -0.6226
  517SOL     OW 1676   2.495   2.452   3.286 -0.0542  0.1298 -0.0822
  517SOL    HW1 1677   2.526   2.471   3.375 -1.4494 -1.5747  0.8972
  517SOL    HW2 1678   2.418   2.509   3.276  0.3357  0.6153 -0.3955
  518SOL     OW 1679   5.593   1.006   4.494 -0.3837  0.2809  0.0794
  518SOL    HW1 1680   5.629   1.052   4.418  1.8391  1.4942  1.6013
  518SOL    HW2 1681   5.508   1.048   4.510 -0.3093  0.8998 -0.9856
  519SOL     OW 1682   4.564   3.455   3.217 -0.0846 -0.1448  0.5793
  519SOL    HW1 1683   4.610   3.423   3.294  0.5954 -1.1229 -0.1796
  519SOL    HW2 1684   4.474   3.468   3.246  0.1015 -0.7036  1.4781
  520SOL     OW 1685   3.754   2.478   3.350  0.4071 -0.3777  1.0521
  520SOL    HW1 1686   3.770   2.437   3.266  1.3809  2.0765 -0.1533
  520SOL    HW2 1687   3.835   2.467   3.399  0.2570 -0.7903  1.2209
  521SOL     OW 1688   2.717   2.957   3.237  0.1486 -0.0749  0.1414
  521SOL    HW1 1689   2.688   2.926   3.151  1.3013 -1.0967  0.0702
  521SOL    HW2 1690   2.773   3.032   3.218  0.4363 -0.3251 -0.0134
  522SOL     OW 1691   5.341   1.122   4.516 -0.1084  0.0939 -0.2482
  522SOL    HW1 1692   5.308   1.139   4.428  1.4351  0.2569 -0.8574
  522SOL    HW2 1693   5.336   1.208   4.559 -2.6305 -0.3045  0.6011
  523SOL     OW 1694   0.311   1.857   3.915  0.2046 -0.2899  0.5768
  523SOL    HW1 1695   0.317   1.780   3.859 -1.1625 -0.8033  1.0576
  523SOL    HW2 1696   0.390   1.853   3.970  0.3315 -1.1531  0.3573
  524SOL     OW 1697   3.996   5.430   0.115  0.1738 -0.2436  0.0776
  524SOL    HW1 1698   3.937   5.504   0.099  1.1160  1.0856  1.9123
  524SOL    HW2 1699   4.021   5.399   0.028  0.6618  2.4678 -0.9355
  525SOL     OW 1700   4.587   3.518   1.848  0.0016 -0.2460 -0.8504
  525SOL    HW1 1701   4.573   3.426   1.873 -0.3954  0.0863  0.2737
  525SOL    HW2 1702   4.508   3.563   1.877  0.8270  0.7023  0.0855
  526SOL     OW 1703   3.462   2.951   0.662 -1.0939  0.0004 -0.3890
  526SOL    HW1 1704   3.539   2.904   0.692  0.0935  2.0405  0.1527
  526SOL    HW2 1705   3.392   2.921   0.720 -0.3876 -0.9309  0.0303
  527SOL     OW 1706   1.207   2.319   0.622  0.3107  0.2904 -0.5586
  527SOL    HW1 1707   1.172   2.376   0.553 -0.5710 -1.8596 -2.1133
  527SOL    HW2 1708   1.161   2.236   0.610  1.2794 -0.7381  1.6845
  528SOL     OW 1709   1.142   5.392   1.878  0.2480 -0.3706 -0.6211
  528SOL    HW1 1710   1.193   5.324   1.922  2.6651  1.0066 -0.9791
  528SOL    HW2 1711   1.107   5.348   1.800  1.5693 -1.2949 -0.7719
  529SOL     OW 1712   5.610   5.425   0.943  0.3770 -0.3132  0.1448
  529SOL    HW1 1713   5.644   5.424   1.033  0.8574  1.0993  0.0194
  529SOL    HW2 1714   5.540   5.490   0.943  0.3358 -0.3398 -0.4860
  530SOL     OW 1715   3.483   1.845   4.334  0.6836  0.0621  0.2079
  530SOL    HW1 1716   3.427   1.817   4.261  0.9774  0.4323 -0.1720
  530SOL    HW2 1717   3.426   1.897   4.390  0.4275 -0.3138  0.3047
  531SOL     OW 1718   2.094   1.414   0.272 -0.5823 -0.6643 -0.6805
  531SOL    HW1 1719   2.146   1.336   0.250  0.2754 -0.6811  1.0764
  531SOL    HW2 1720   2.112   1.475   0.200  2.8181 -0.2897  0.1161
  532SOL     OW 1721   0.507   1.048   3.307  0.1541 -0.3881 -0.0800
  532SOL    HW1 1722   0.506   1.002   3.390 -1.8711  0.0076  0.2203
  532SOL    HW2 1723   0.433   1.108   3.312  0.6078  0.4467 -1.7683
  533SOL     OW 1724   1.286   6.039   3.153 -0.5366 -0.5524 -0.3552
  533SOL    HW1 1725   1.360   6.016   3.209  0.1975  0.8222 -0.6499
  533SOL    HW2 1726   1.215   6.060   3.214  0.0938  0.4446  0.0928
  534SOL     OW 1727   3.476   3.890   2.967 -0.1181 -0.4064 -0.4865
  534SOL    HW1 1728   3.430   3.898   3.051  1.1440 -0.5519  0.2856
  534SOL    HW2 1729   3.474   3.978   2.929 -1.5503 -0.5381 -0.8382
  535SOL     OW 1730   2.283   5.500   1.918 -0.3912  0.0971 -0.2610
  535SOL    HW1 1731   2.331   5.578   1.945 -0.3495 -0.1801  0.5018
  535SOL    HW2 1732   2.199   5.532   1.886 -0.0391  0.5166 -0.8047
  536SOL     OW 1733   5.766   0.446   4.269 -0.0391 -0.1931 -0.2884
  536SOL    HW1 1734   5.835   0.403   4.319 -0.6830 -1.7347 -0.6134
  536SOL    HW2 1735   5.808   0.524   4.233  1.2967 -0.6427  0.1726
  537SOL     OW 1736   6.242   3.129   3.434 -0.4970 -0.0051 -0.3737
  537SOL    HW1 1737   6.181   3.055   3.438  0.5386 -0.8648  1.0716
  537SOL    HW2 1738   6.213   3.188   3.503 -0.6304  0.3972 -0.7631
  538SOL     OW 1739   3.216   3.067   3.358 -1.3091  0.2247  0.3046
  538SOL    HW1 1740   3.253   3.147   3.322  0.3057 -0.8770 -0.7351
  538SOL    HW2 1741   3.123   3.071   3.335 -0.9068  0.9152 -1.5178
  539SOL     OW 1742   4.302   0.670   2.690  0.4061 -0.2137  0.8599
  539SOL    HW1 1743   4.361   0.685   2.616  0.1169  1.6905  0.9062
  539SOL    HW2 1744   4.279   0.758   2.721 -1.5279 -0.8531  1.5818
  540SOL     OW 1745   5.508   3.230   4.460 -0.1268 -0.3668 -0.0266
  540SOL    HW1 1746   5.556   3.300   4.416  1.3659 -1.1655  0.1997
  540SOL    HW2 1747   5.515   3.155   4.401 -3.5217 -0.0201 -1.3480
  541SOL     OW 1748   4.550   1.676   0.301  0.5372 -0.0677 -0.8462
  541SOL    HW1 1749   4.479   1.692   0.240  0.6232  1.6657 -0.6102
  541SOL    HW2 1750   4.601   1.605   0.262 -0.5879 -0.4656 -1.6670
  542SOL     OW 1751   2.943   1.641   2.267  0.2906  0.9043  0.2092
  542SOL    HW1 1752   3.016   1.675   2.216  0.8194  0.0339  0.3483
  542SOL    HW2 1753   2.883   1.604   2.203  2.5150 -3.5435 -0.1150
  543SOL     OW 1754   6.159   2.681   4.006 -1.2048 -0.3446 -0.3157
  543SOL    HW1 1755   6.181   2.701   4.097 -3.3931  1.9388 -0.0870
  543SOL    HW2 1756   6.204   2.750   3.955 -0.5400 -1.2038 -0.9609
  544SOL     OW 1757   5.282   4.371   3.869  0.2758 -0.1441 -0.2208
  544SOL    HW1 1758   5.373   4.351   3.888  0.3617 -0.9906 -1.3355
  544SOL    HW2 1759   5.238   4.286   3.868 -0.1051  0.0160 -1.6198
  545SOL     OW 1760   0.637   5.158   0.140  1.0569 -0.7110  0.0681
  545SOL    HW1 1761   0.649   5.072   0.181 -0.3474  0.2085  2.9544
  545SOL    HW2 1762   0.542   5.170   0.136  1.1183  1.2137  1.4034
  546SOL     OW 1763   1.255   4.204   2.165  0.2910 -0.0866 -0.1504
  546SOL    HW1 1764   1.320   4.252   2.216 -1.1371 -0.1381  2.0125
  546SOL    HW2 1765   1.206   4.273   2.118 -0.1350  0.3708  0.8946
  547SOL     OW 1766   5.899   3.827   3.692 -0.0169 -1.1868 -0.0064
  547SOL    HW1 1767   5.952   3.806   3.615  1.2479  0.8477  0.1513
  547SOL    HW2 1768   5.921   3.918   3.712 -2.7570 -0.5294  0.8420
  548SOL     OW 1769   2.795   0.217   2.266  0.1605  0.4057 -0.1621
  548SOL    HW1 1770   2.854   0.288   2.292  0.5399  1.0724 -2.4035
  548SOL    HW2 1771   2.709   0.245   2.296  0.5378  0.9269  0.5124
  549SOL     OW 1772   3.241   0.977   2.789  0.0262  0.2473 -0.3527
  549SOL    HW1 1773   3.248   0.906   2.725  1.7914 -2.7986  2.5662
  549SOL    HW2 1774   3.168   0.951   2.845  1.2593  0.0051  1.3062
  550SOL     OW 1775   5.490   2.961   0.130  0.5415  0.7475  0.2936
  550SOL    HW1 1776   5.572   3.005   0.108  0.8882 -0.0067 -0.0244
  550SOL    HW2 1777   5.435   3.029   0.167  1.1324  1.3809  0.0537
  551SOL     OW 1778   6.402   4.605   4.258 -0.0795  0.4438  0.0873
  551SOL    HW1 1779   6.446   4.636   4.337 -2.2062  0.1285  1.5657
  551SOL    HW2 1780   6.409   4.510   4.262 -0.3650  0.4162  0.0064
  552SOL     OW 1781   0.961   2.010   2.438  0.5321 -0.1166 -0.1687
  552SOL    HW1 1782   0.970   1.931   2.491 -0.1622 -1.2741 -1.6289
  552SOL    HW2 1783   0.867   2.018   2.422  0.5417  1.2225  0.1558
  553SOL     OW 1784   0.041   0.301   4.412 -0.3861 -0.5792 -0.2389
  553SOL    HW1 1785   0.126   0.260   4.430  0.3467  0.8337 -0.2117
  553SOL    HW2 1786   0.005   0.319   4.499  0.6504  1.3357 -0.0975
  554SOL     OW 1787   1.180   5.684   2.667  0.1755 -0.3230 -0.4605
  554SOL    HW1 1788   1.106   5.708   2.722  0.2261  1.1411 -0.9378
  554SOL    HW2 1789   1.251   5.667   2.728 -0.7022 -2.8271  0.0858
  555SOL     OW 1790   2.712   4.013   2.333 -0.9771 -0.2912  0.3094
  555SOL    HW1 1791   2.712   4.056   2.419  0.1832 -0.7195  0.5543
  555SOL    HW2 1792   2.621   4.020   2.303 -0.9330  2.1525  0.3887
  556SOL     OW 1793   1.602   3.515   3.787  0.0545  0.8902  0.0052
  556SOL    HW1 1794   1.622   3.497   3.695 -0.4350  0.2176  0.0124
  556SOL    HW2 1795   1.601   3.428   3.828 -0.6174  1.0934  0.4485
  557SOL     OW 1796   4.790   5.586   2.560  0.6286 -0.0657 -0.2773
  557SOL    HW1 1797   4.743   5.560   2.481 -0.1614  1.6202 -0.4479
  557SOL    HW2 1798   4.731   5.647   2.604  1.0248 -0.9445  1.6814
  558SOL     OW 1799   3.531   5.737   2.426 -0.2495 -0.0704 -0.1154
  558SOL    HW1 1800   3.469   5.706   2.492  0.5317 -1.5053  0.0039
  558SOL    HW2 1801   3.533   5.832   2.439 -0.4031 -0.2464  1.6952
  559SOL     OW 1802   6.210   3.065   3.168 -0.1424  0.2967 -0.3772
  559SOL    HW1 1803   6.147   3.137   3.168 -0.6312 -0.0118  1.4572
  559SOL    HW2 1804   6.228   3.050   3.261 -0.9588 -2.6822 -0.5017
  560SOL     OW 1805   0.593   5.461   0.915 -0.3538 -0.9171  0.3210
  560SOL    HW1 1806   0.524   5.396   0.901  0.6259 -3.0111  3.2743
  560SOL    HW2 1807   0.665   5.432   0.859 -1.1921  0.5124 -1.7609
  561SOL     OW 1808   6.200   1.745   1.057  0.3489 -0.1499 -0.6136
  561SOL    HW1 1809   6.280   1.797   1.057  0.2880 -0.0552 -0.7010
  561SOL    HW2 1810   6.229   1.656   1.033  0.3476  0.0175 -1.2790
  562SOL     OW 1811   5.134   2.631   3.151  0.2674 -0.2543  0.3233
  562SOL    HW1 1812   5.049   2.661   3.180  0.7508  1.0053  0.5430
  562SOL    HW2 1813   5.191   2.641   3.227  0.9353  0.4218 -0.2291
  563SOL     OW 1814   2.838   4.974   1.668  0.1855  0.1050 -0.3321
  563SOL    HW1 1815   2.770   5.035   1.696  0.6618 -0.1045  1.6027
  563SOL    HW2 1816   2.897   5.026   1.614 -0.1629  0.9879  0.1051
  564SOL     OW 1817   2.741   2.278   3.313  0.2083  0.3210  0.5578
  564SOL    HW1 1818   2.737   2.361   3.359 -0.2104  0.2206  0.7110
  564SOL    HW2 1819   2.714   2.213   3.377 -0.2023  0.1577  0.2315
  565SOL     OW 1820   5.334   1.364   2.920 -0.0228 -0.1659 -0.1673
  565SOL    HW1 1821   5.306   1.330   3.005 -0.9067  0.1978 -0.2935
  565SOL    HW2 1822   5.314   1.293   2.859 -1.7536  0.4351 -0.4122
  566SOL     OW 1823   1.885   5.825   0.165 -0.1599 -0.2794 -0.5684
  566SOL    HW1 1824   1.889   5.913   0.204  1.3418  0.0887 -1.3714
  566SOL    HW2 1825   1.845   5.771   0.232 -1.0938  0.9841 -0.0116
  567SOL     OW 1826   2.442   0.382   0.517  0.2638 -0.6973  0.2936
  567SOL    HW1 1827   2.348   0.372   0.533 -0.1534  0.6611 -0.8786
  567SOL    HW2 1828   2.468   0.454   0.574 -0.0945  0.7501 -1.2256
  568SOL     OW 1829   0.595   2.304   1.324 -0.1591 -1.2227 -0.1810
  568SOL    HW1 1830   0.591   2.282   1.416 -0.9570 -0.1449  0.0799
  568SOL    HW2 1831   0.530   2.248   1.282 -0.4031 -1.1132  0.0519
  569SOL     OW 1832   5.662   5.783   1.775 -0.3007 -0.2553  0.0561
  569SOL    HW1 1833   5.633   5.852   1.715  0.6551  0.2866  0.1831
  569SOL    HW2 1834   5.653   5.822   1.862  0.2761 -0.2653  0.1289
  570SOL     OW 1835   0.207   3.689   1.460  0.3668  0.0797 -1.1368
  570SOL    HW1 1836   0.267   3.763   1.454  1.5069 -0.1686  2.4943
  570SOL    HW2 1837   0.148   3.712   1.532 -2.3736 -0.8301 -2.7759
  571SOL     OW 1838   1.789   4.217   1.116 -0.4149  0.6144 -0.2793
  571SOL    HW1 1839   1.746   4.302   1.108  0.2432  0.9297 -0.5426
  571SOL    HW2 1840   1.859   4.219   1.052  1.3937  0.9857  1.4998
  572SOL     OW 1841   2.448   2.578   3.765 -0.7579  0.2850 -0.1331
  572SOL    HW1 1842   2.414   2.659   3.803 -0.3887  0.8021 -0.8475
  572SOL    HW2 1843   2.528   2.560   3.816 -1.1563  0.0183  0.4209
  573SOL     OW 1844   4.239   5.140   2.203  0.5092  0.2323 -0.0167
  573SOL    HW1 1845   4.204   5.140   2.114 -0.5516 -0.0215  0.3685
  573SOL    HW2 1846   4.334   5.140   2.192  0.4014  0.1288 -1.1424
  574SOL     OW 1847   3.267   2.465   4.341  0.2764 -0.3461 -0.3200
  574SOL    HW1 1848   3.315   2.447   4.261  1.2742 -0.3136  0.2474
  574SOL    HW2 1849   3.319   2.531   4.387 -0.2811 -0.3435  0.3453
  575SOL     OW 1850   0.400   3.436   0.566 -0.4091 -0.5086 -0.3509
  575SOL    HW1 1851   0.398   3.384   0.486  0.7259 -0.7567 -0.2517
  575SOL    HW2 1852   0.340   3.392   0.625 -2.7536  0.6909 -1.5778
  576SOL     OW 1853   3.276   3.605   3.108 -0.1546 -0.8379  0.1658
  576SOL    HW1 1854   3.270   3.620   3.013 -1.1305  0.2497  0.3519
  576SOL    HW2 1855   3.187   3.618   3.140  0.2305 -0.7270  1.2900
  577SOL     OW 1856   4.594   0.697   2.852 -0.3958 -1.2284  0.3348
  577SOL    HW1 1857   4.615   0.697   2.758 -1.6471 -1.1335  0.0212
  577SOL    HW2 1858   4.669   0.740   2.893 -0.0908 -0.6956 -0.7037
  578SOL     OW 1859   2.664   4.733   3.080 -0.5357 -0.5292  0.2474
  578SOL    HW1 1860   2.675   4.761   2.989 -3.2740 -0.6493 -0.2897
  578SOL    HW2 1861   2.655   4.638   3.075  0.5812 -0.7036  0.8991
  579SOL     OW 1862   5.818   0.885   1.962  0.1518  0.6184  0.2673
  579SOL    HW1 1863   5.855   0.945   1.898 -2.5430  0.6579 -1.5636
  579SOL    HW2 1864   5.838   0.925   2.047  2.1527  1.6869 -0.5851
  580SOL     OW 1865   3.140   2.374   2.603  0.4006 -0.1888  0.0395
  580SOL    HW1 1866   3.208   2.310   2.585 -0.6505 -1.5126  0.4138
  580SOL    HW2 1867   3.178   2.458   2.577  1.8535 -0.9402 -0.4879
  581SOL     OW 1868   6.003   3.641   1.865  0.1821  0.0793  0.0290
  581SOL    HW1 1869   6.000   3.563   1.921 -1.0408 -0.4419 -0.6809
  581SOL    HW2 1870   6.093   3.673   1.873  1.1631 -2.1393 -0.6059
  582SOL     OW 1871   5.127   4.900   2.297 -0.3637  0.1431 -0.7727
  582SOL    HW1 1872   5.174   4.822   2.266 -1.1623 -0.1804 -1.2451
  582SOL    HW2 1873   5.188   4.943   2.357  0.2219 -0.6669 -0.7553
  583SOL     OW 1874   5.967   3.519   3.787 -0.1888 -0.0149  0.5120
  583SOL    HW1 1875   6.002   3.445   3.837 -1.6723 -0.6750  0.6792
  583SOL    HW2 1876   5.898   3.555   3.844  1.2117  2.3432  1.0027
  584SOL     OW 1877   4.928   0.226   3.057  0.2220  0.3658 -0.3978
  584SOL    HW1 1878   4.934   0.299   3.119 -0.1990 -0.5735  0.8181
  584SOL    HW2 1879   4.879   0.158   3.104  0.4478 -0.6558 -1.5394
  585SOL     OW 1880   5.588   2.472   4.132 -0.0411  0.5733 -0.1827
  585SOL    HW1 1881   5.681   2.472   4.154 -0.3777  1.2005  1.5650
  585SOL    HW2 1882   5.586   2.479   4.036  1.7901  4.6926 -0.3417
  586SOL     OW 1883   2.972   5.685   1.861 -0.1305 -1.0249  0.2472
  586SOL    HW1 1884   3.038   5.620   1.837  0.0274 -1.2932  1.2915
  586SOL    HW2 1885   3.020   5.767   1.870 -0.1953 -0.9167 -0.3154
  587SOL     OW 1886   4.861   4.718   3.762  0.3665 -0.1765  0.2598
  587SOL    HW1 1887   4.822   4.752   3.843 -0.8989 -0.5692 -0.1303
  587SOL    HW2 1888   4.856   4.623   3.772  0.8529 -0.2373 -0.0089
  588SOL     OW 1889   2.317   2.794   3.124 -0.7718  0.5742  0.3704
  588SOL    HW1 1890   2.317   2.707   3.084  0.9003  0.8173 -0.3371
  588SOL    HW2 1891   2.229   2.828   3.107 -0.5875  0.2019 -2.1784
  589SOL     OW 1892   0.512   1.828   4.115 -0.2877  0.4628  0.2721
  589SOL    HW1 1893   0.531   1.819   4.208 -0.5278 -2.1296  0.2226
  589SOL    HW2 1894   0.591   1.868   4.078  0.2587  0.5640  1.4497
  590SOL     OW 1895   1.214   4.571   4.189  0.0490  0.2505  0.1403
  590SOL    HW1 1896   1.280   4.502   4.193  4.2822  3.4997  0.2484
  590SOL    HW2 1897   1.200   4.597   4.280 -1.8208 -0.4666  0.1411
  591SOL     OW 1898   0.739   2.905   1.397  0.5504 -0.1493  0.0184
  591SOL    HW1 1899   0.751   2.820   1.439 -1.1530  0.4259  2.0373
  591SOL    HW2 1900   0.659   2.896   1.345  0.1854  0.2525  0.4870
  592SOL     OW 1901   3.056   5.687   0.510  0.4879  0.0459 -0.6506
  592SOL    HW1 1902   3.078   5.612   0.455  1.8574 -0.0222 -0.1022
  592SOL    HW2 1903   3.126   5.750   0.492 -1.0253  1.5930 -1.6874
  593SOL     OW 1904   0.616   1.969   0.005  0.2516 -0.1315  0.0264
  593SOL    HW1 1905   0.576   2.034   0.062 -1.1352 -2.8915  2.7969
  593SOL    HW2 1906   0.706   1.960   0.038  0.4208  0.2662 -0.3107
  594SOL     OW 1907   3.161   4.486   3.054 -0.1710 -0.0900 -0.2548
  594SOL    HW1 1908   3.082   4.432   3.062 -0.4643  0.4525  0.9794
  594SOL    HW2 1909   3.139   4.567   3.100  0.8855  0.3504 -0.4718
  595SOL     OW 1910   5.080   1.728   1.174  0.0025  0.7990 -0.1677
  595SOL    HW1 1911   5.121   1.793   1.117 -0.5323  0.4064 -1.0459
  595SOL    HW2 1912   5.073   1.771   1.259  0.5755  1.5106 -0.4645
  596SOL     OW 1913   5.076   2.921   0.496  0.0716  0.1803  0.9185
  596SOL    HW1 1914   5.134   2.846   0.508  0.8116 -0.2551 -2.9546
  596SOL    HW2 1915   5.133   2.997   0.504  0.7265 -0.1122 -0.3882
  597SOL     OW 1916   1.852   1.323   3.448 -0.0556  0.3031  0.3167
  597SOL    HW1 1917   1.942   1.291   3.454 -0.2715 -0.5338 -0.4192
  597SOL    HW2 1918   1.838   1.333   3.353 -1.4420 -1.8705  0.1657
  598SOL     OW 1919   4.242   1.297   0.989  0.2139  0.0354  0.5623
  598SOL    HW1 1920   4.237   1.305   1.084 -1.6408 -1.3715  0.6995
  598SOL    HW2 1921   4.243   1.202   0.973 -0.8501  0.1959 -0.8011
  599SOL     OW 1922   2.608   4.054   3.021 -0.3399  0.2412 -0.3331
  599SOL    HW1 1923   2.514   4.046   3.035 -0.1997 -0.1497  0.5134
  599SOL    HW2 1924   2.640   4.101   3.098  0.1860  0.1946 -0.5131
  600SOL     OW 1925   1.256   2.617   2.509  0.3691  0.0511 -0.5053
  600SOL    HW1 1926   1.344   2.580   2.525  0.9682  1.5256  0.0077
  600SOL    HW2 1927   1.265   2.667   2.428 -0.0897 -0.0077 -0.5970
  601SOL     OW 1928   3.799   5.957   3.702  0.5596 -0.0444  0.0206
  601SOL    HW1 1929   3.717   5.908   3.690  0.2370 -0.1365  1.9994
  601SOL    HW2 1930   3.805   5.971   3.796  2.7767  0.0941 -0.0423
  602SOL     OW 1931   6.296   5.952   1.281  0.7970 -0.3997  0.4519
  602SOL    HW1 1932   6.272   5.873   1.330 -0.5287 -0.5950 -0.3921
  602SOL    HW2 1933   6.235   5.953   1.207  2.4359  0.0369 -1.0434
  603SOL     OW 1934   1.771   2.650   3.607  0.1115  0.1105 -0.0672
  603SOL    HW1 1935   1.859   2.666   3.574  0.3790 -0.9322  0.0859
  603SOL    HW2 1936   1.758   2.556   3.598 -1.3689  0.3206 -0.9992
  604SOL     OW 1937   0.716   4.057   3.282 -0.1300  0.1188  0.5167
  604SOL    HW1 1938   0.640   3.999   3.282  0.0058 -0.3383 -2.4258
  604SOL    HW2 1939   0.747   4.056   3.373 -1.6742 -2.3091  1.2009
  605SOL     OW 1940   5.811   2.946   2.465 -0.0250 -0.4669 -0.4502
  605SOL    HW1 1941   5.794   2.961   2.558  0.7890  2.3696 -0.5935
  605SOL    HW2 1942   5.730   2.972   2.421 -0.6208 -2.3432 -0.6495
  606SOL     OW 1943   2.798   4.916   2.089 -0.5042  0.3899  0.0825
  606SOL    HW1 1944   2.817   4.836   2.137 -2.4621 -0.9236 -1.0724
  606SOL    HW2 1945   2.856   4.914   2.013 -1.8247 -1.1566 -1.0238
  607SOL     OW 1946   0.519   1.957   1.749  0.3722  0.1456  0.3809
  607SOL    HW1 1947   0.611   1.955   1.721  0.2193 -1.1443 -0.1761
  607SOL    HW2 1948   0.521   2.005   1.832  1.6793 -0.4549  0.7580
  608SOL     OW 1949   6.315   1.812   3.912  0.2159  0.5142 -0.0780
  608SOL    HW1 1950   6.226   1.777   3.920 -0.3221  1.8559  0.5031
  608SOL    HW2 1951   6.314   1.862   3.830  0.4078  0.5903 -0.0350
  609SOL     OW 1952   3.222   5.034   0.981 -0.3350 -0.0548 -0.2315
  609SOL    HW1 1953   3.185   4.978   1.050 -0.5964  2.4312  1.9759
  609SOL    HW2 1954   3.315   5.038   1.002 -0.6786  2.5427  1.8905
  610SOL     OW 1955   4.918   2.779   2.221  0.7377  0.5152  0.3385
  610SOL    HW1 1956   4.889   2.864   2.256  0.7642  0.5987  0.1610
  610SOL    HW2 1957   4.969   2.802   2.143  0.3827  0.3170  0.0406
  611SOL     OW 1958   5.753   6.025   0.597  0.5360 -0.1578  0.1347
  611SOL    HW1 1959   5.843   5.998   0.581  1.0945  1.6696 -0.2938
  611SOL    HW2 1960   5.758   6.120   0.607 -1.3832  0.0626 -0.2143
  612SOL     OW 1961   1.871   3.144   2.157  0.3333 -0.1449  0.3017
  612SOL    HW1 1962   1.882   3.062   2.205 -2.2321  0.0697  1.6277
  612SOL    HW2 1963   1.780   3.142   2.127  0.7995  1.3139 -1.6278
  613SOL     OW 1964   2.702   3.153   0.915  0.4372  0.3633 -0.1685
  613SOL    HW1 1965   2.653   3.234   0.899 -0.7219 -0.3684 -0.5991
  613SOL    HW2 1966   2.794   3.180   0.914  0.1935  1.4638 -1.7815
  614SOL     OW 1967   6.255   2.708   4.276  0.2717  0.1433  0.9160
  614SOL    HW1 1968   6.171   2.686   4.315  0.1320  0.4378  0.7894
  614SOL    HW2 1969   6.296   2.766   4.341  0.4070 -0.0555  1.0088
  615SOL     OW 1970   3.179   4.121   2.020  0.8055  0.8072 -0.0806
  615SOL    HW1 1971   3.177   4.184   2.092  1.9665  1.4647 -0.5824
  615SOL    HW2 1972   3.090   4.124   1.984  0.1995  0.5117  1.2232
  616SOL     OW 1973   3.588   4.757   3.842 -0.3877 -0.1590 -0.4575
  616SOL    HW1 1974   3.540   4.769   3.760 -1.4591 -0.1259  0.1362
  616SOL    HW2 1975   3.636   4.675   3.831 -0.6501 -0.2413 -1.0543
  617SOL     OW 1976   3.148   1.455   2.553 -0.5391 -0.4897 -0.1914
  617SOL    HW1 1977   3.089   1.419   2.620 -0.0464 -2.1075 -0.5521
  617SOL    HW2 1978   3.150   1.388   2.485 -0.8763  1.0061 -1.7965
  618SOL     OW 1979   5.022   3.867   4.506 -0.1804 -0.2280  0.2089
  618SOL    HW1 1980   5.023   3.792   4.565  1.0681 -0.3047  0.1407
  618SOL    HW2 1981   5.049   3.832   4.421 -0.0124  0.2176  0.0702
  619SOL     OW 1982   2.864   3.469   1.999 -0.3849  0.0350  0.1731
  619SOL    HW1 1983   2.829   3.383   2.023  1.2674 -0.8462 -0.2348
  619SOL    HW2 1984   2.826   3.487   1.913 -1.4168  0.1663  0.6274
  620SOL     OW 1985   1.008   2.169   0.905  0.0915 -0.0701  0.5213
  620SOL    HW1 1986   1.078   2.107   0.886  0.1827  0.5309 -1.6069
  620SOL    HW2 1987   0.965   2.184   0.820 -4.1683 -2.0408  1.7619
  621SOL     OW 1988   2.748   1.370   3.769 -0.0081 -0.1439 -0.2135
  621SOL    HW1 1989   2.684   1.323   3.714 -0.8322 -1.5592  1.7278
  621SOL    HW2 1990   2.830   1.323   3.754 -0.1439 -0.3145 -0.4472
  622SOL     OW 1991   3.000   0.195   3.693  0.0525  0.0024 -0.3825
  622SOL    HW1 1992   3.077   0.183   3.638  1.8103  0.4872  1.7111
  622SOL    HW2 1993   3.033   0.232   3.774 -2.4820  0.6170  0.5796
  623SOL     OW 1994   5.855   5.012   1.403  0.0019 -0.3516 -0.2263
  623SOL    HW1 1995   5.875   5.105   1.398  0.3906 -0.4310 -0.2022
  623SOL    HW2 1996   5.764   5.008   1.433 -0.4540  0.0331 -1.4493
  624SOL     OW 1997   5.023   4.755   4.197  0.3223  0.4140 -0.3746
  624SOL    HW1 1998   5.073   4.682   4.234  1.8792  0.6966 -1.6508
  624SOL    HW2 1999   5.020   4.821   4.266  0.0343 -0.3479  0.3631
  625SOL     OW 2000   4.851   1.075   0.819 -0.8240 -0.6255  0.4812
  625SOL    HW1 2001   4.941   1.052   0.842 -0.5588 -2.4551 -1.6668
  625SOL    HW2 2002   4.858   1.157   0.771 -1.0331  1.5522  3.6138
  626SOL     OW 2003   0.269   3.832   2.508 -0.1652 -0.1626 -0.3497
  626SOL    HW1 2004   0.337   3.897   2.530 -0.1175 -0.4543  0.4475
  626SOL    HW2 2005   0.317   3.750   2.501 -0.0882 -0.0460 -2.1921
  627SOL     OW 2006   4.958   2.145   0.977 -0.1060  0.4445 -0.1688
  627SOL    HW1 2007   4.977   2.146   1.070 -0.3138  1.3549 -0.1174
  627SOL    HW2 2008   4.892   2.076   0.966 -0.2354  0.4733  0.3835
  628SOL     OW 2009   2.726   4.857   1.258  0.3096  0.2841 -0.4070
  628SOL    HW1 2010   2.713   4.815   1.343 -0.4562  2.4444  0.6749
  628SOL    HW2 2011   2.641   4.893   1.235  0.7852  0.8177 -1.5011
  629SOL     OW 2012   4.523   2.301   1.987 -0.5970 -0.2831 -0.3140
  629SOL    HW1 2013   4.548   2.302   2.079  0.5702 -0.2395 -0.6023
  629SOL    HW2 2014   4.504   2.209   1.968 -0.5805 -0.3322 -0.0965
  630SOL     OW 2015   6.331   2.970   4.389  0.3459 -0.0709 -0.4985
  630SOL    HW1 2016   6.235   2.977   4.390  0.2682  0.2389  1.8588
  630SOL    HW2 2017   6.361   3.050   4.433  1.5910 -0.6883 -0.1299
  631SOL     OW 2018   4.859   0.726   2.587  0.4589 -0.5856  0.5842
  631SOL    HW1 2019   4.889   0.651   2.638  3.7556  0.3147  0.4549
  631SOL    HW2 2020   4.896   0.802   2.632 -0.4371  0.7244 -0.6977
  632SOL     OW 2021   2.305   2.113   4.365 -0.3972  0.3194  0.2226
  632SOL    HW1 2022   2.321   2.042   4.302 -0.0023  0.2076  0.4431
  632SOL    HW2 2023   2.213   2.135   4.353 -1.0702 -1.4308  1.3516
  633SOL     OW 2024   3.523   3.123   2.156 -0.1593 -0.0552  0.4560
  633SOL    HW1 2025   3.594   3.068   2.125  2.3162  1.5222  2.5598
  633SOL    HW2 2026   3.489   3.077   2.233 -0.7958 -0.3165  0.0410
  634SOL     OW 2027   4.863   3.973   0.408  0.1558 -0.0014  0.1660
  634SOL    HW1 2028   4.874   3.905   0.474  0.2442 -0.7507 -0.5925
  634SOL    HW2 2029   4.934   4.035   0.427 -0.6706  0.6001  1.6443
  635SOL     OW 2030   4.829   5.971   1.518 -0.1496 -0.6031 -0.1825
  635SOL    HW1 2031   4.832   5.968   1.422  0.8120  0.0564 -0.2042
  635SOL    HW2 2032   4.740   5.945   1.541 -0.4073 -0.7394 -1.2562
  636SOL     OW 2033   5.930   2.063   2.254 -0.0086 -0.2142  0.5330
  636SOL    HW1 2034   5.887   2.118   2.188  1.8309 -0.2904 -0.9100
  636SOL    HW2 2035   5.961   1.987   2.205  1.6674 -0.1629  1.3701
  637SOL     OW 2036   5.413   0.031   2.838 -0.2144  0.2214 -0.6840
  637SOL    HW1 2037   5.455   0.098   2.783 -0.0783  0.2497 -0.5480
  637SOL    HW2 2038   5.376  -0.031   2.776 -0.8051  0.6982 -0.8296
  638SOL     OW 2039   3.650   0.048   2.490 -0.1713 -0.0262 -0.0291
  638SOL    HW1 2040   3.722   0.096   2.449 -0.4763 -0.0267 -0.5846
  638SOL    HW2 2041   3.653   0.074   2.582  1.5735 -1.2737  0.3859
  639SOL     OW 2042   2.174   5.785   1.826 -0.3800  0.1070 -0.3480
  639SOL    HW1 2043   2.150   5.728   1.753 -1.6855 -0.2608  0.3046
  639SOL    HW2 2044   2.122   5.753   1.899  0.5777  0.7151  0.6555
  640SOL     OW 2045   1.990   2.813   0.097 -0.3424  0.6196  0.3603
  640SOL    HW1 2046   2.042   2.806   0.017  0.6829  0.4618  1.0084
  640SOL    HW2 2047   2.040   2.764   0.163 -0.5286  1.7315  1.3954
  641SOL     OW 2048   2.016   3.426   1.047 -0.0621  0.3685 -0.1648
  641SOL    HW1 2049   1.930   3.404   1.011 -0.6814  0.6414  1.0162
  641SOL    HW2 2050   2.059   3.477   0.979 -0.2168 -0.9701 -1.3607
  642SOL     OW 2051   5.425   5.486   2.808 -0.2241  0.6162  0.0170
  642SOL    HW1 2052   5.510   5.441   2.807  0.0629  1.1382 -0.5700
  642SOL    HW2 2053   5.364   5.423   2.771 -0.5096 -0.4481  2.0127
  643SOL     OW 2054   2.597   2.001   2.572 -0.3235 -0.2403  0.0824
  643SOL    HW1 2055   2.648   1.922   2.554 -3.4313 -2.8714  0.8858
  643SOL    HW2 2056   2.658   2.059   2.617  1.9933 -2.8036  0.8212
  644SOL     OW 2057   2.978   4.304   1.178 -0.1097  0.2776 -0.0024
  644SOL    HW1 2058   3.023   4.283   1.096 -0.5274 -0.6075 -0.0299
  644SOL    HW2 2059   2.898   4.348   1.152 -0.1436  0.1792 -0.0668
  645SOL     OW 2060   2.552   1.135   2.962 -0.3830  0.2751 -0.2792
  645SOL    HW1 2061   2.532   1.090   3.044 -2.3038  0.6139 -0.4697
  645SOL    HW2 2062   2.494   1.094   2.898  0.2639  0.7798 -1.2292
  646SOL     OW 2063   5.450   3.078   1.802 -0.1490  0.1802  0.4018
  646SOL    HW1 2064   5.412   3.061   1.716 -0.0293 -2.5129  0.6960
  646SOL    HW2 2065   5.540   3.105   1.783  0.0784 -0.9704 -0.3931
  647SOL     OW 2066   1.784   0.310   2.498 -0.3453  0.0477 -0.2147
  647SOL    HW1 2067   1.849   0.274   2.558 -0.1410 -0.1218 -0.5302
  647SOL    HW2 2068   1.802   0.267   2.414 -0.7221  0.1641 -0.3630
  648SOL     OW 2069   6.111   2.988   4.093  0.2298  0.6045  0.4078
  648SOL    HW1 2070   6.165   2.938   4.154  2.2007 -0.4942 -1.8903
  648SOL    HW2 2071   6.172   3.050   4.053 -0.7012  0.7330 -0.9532
  649SOL     OW 2072   6.036   3.865   1.109  0.6151  0.5684  0.2506
  649SOL    HW1 2073   6.062   3.957   1.118  2.2342  0.1547  0.5410
  649SOL    HW2 2074   6.062   3.825   1.192  0.4881 -0.2580 -0.0886
  650SOL     OW 2075   2.939   5.046   0.758 -0.1964 -0.3009  0.2373
  650SOL    HW1 2076   2.955   5.081   0.845  1.2681  0.7565 -0.3736
  650SOL    HW2 2077   3.013   5.076   0.706 -0.8434 -1.1482 -1.3160
  651SOL     OW 2078   2.534   0.615   3.957 -0.2696 -0.2144 -0.2341
  651SOL    HW1 2079   2.586   0.671   4.016  0.3085  0.5570 -1.4026
  651SOL    HW2 2080   2.499   0.675   3.891 -1.8935 -0.8701 -0.0612
  652SOL     OW 2081   4.895   5.384   1.673  0.2222  0.6670 -0.0514
  652SOL    HW1 2082   4.814   5.336   1.657  0.1010  0.9802 -0.3980
  652SOL    HW2 2083   4.878   5.435   1.752 -0.1102  1.1340 -0.4156
  653SOL     OW 2084   2.080   2.072   0.389  0.0707 -0.1610 -0.0375
  653SOL    HW1 2085   2.093   2.156   0.432  0.3430  0.6981 -1.6237
  653SOL    HW2 2086   2.027   2.093   0.311  1.8314 -1.0032 -1.6255
  654SOL     OW 2087   3.482   0.628   4.461  0.2335  0.0182 -0.2053
  654SOL    HW1 2088   3.389   0.613   4.479  0.0119  0.4896 -0.8521
  654SOL    HW2 2089   3.523   0.628   4.547 -0.6550  1.5395  0.3174
  655SOL     OW 2090   5.126   6.145   1.238 -0.3528  0.0474 -0.5477
  655SOL    HW1 2091   5.150   6.052   1.233  0.5733  0.2937 -1.6683
  655SOL    HW2 2092   5.080   6.161   1.156  1.7890  1.0733 -1.7281
  656SOL     OW 2093   2.937   4.304   3.432  0.2517 -0.0127  0.1255
  656SOL    HW1 2094   2.914   4.329   3.342  0.6344 -0.2570 -0.0430
  656SOL    HW2 2095   2.865   4.338   3.485 -0.5714 -0.8378 -0.3949
  657SOL     OW 2096   5.223   3.831   2.594  0.3306  0.0128  0.3512
  657SOL    HW1 2097   5.180   3.841   2.679  0.0647 -0.1518  0.2381
  657SOL    HW2 2098   5.183   3.898   2.539 -0.2968 -0.5897  0.0479
  658SOL     OW 2099   5.990   4.740   3.033 -0.1367  0.0102 -0.4645
  658SOL    HW1 2100   6.018   4.709   3.119 -0.2610 -0.2526 -0.5146
  658SOL    HW2 2101   6.070   4.771   2.991  0.0374 -0.4585 -0.4935
  659SOL     OW 2102   2.878   6.267   3.939 -0.1647  0.0016 -0.0410
  659SOL    HW1 2103   2.856   6.255   3.846 -0.2654 -1.3526  0.1239
  659SOL    HW2 2104   2.798   6.243   3.986  0.1164 -0.0632  0.4167
  660SOL     OW 2105   2.499   3.655   2.020 -0.0112  0.2070 -0.6340
  660SOL    HW1 2106   2.588   3.672   1.988  0.3583  0.7375  0.5637
  660SOL    HW2 2107   2.448   3.640   1.940  0.9564  0.8018 -1.4242
  661SOL     OW 2108   6.032   0.902   3.540 -0.5737  0.2029  0.2412
  661SOL    HW1 2109   6.012   0.846   3.465  2.4829  0.9076 -1.4499
  661SOL    HW2 2110   6.083   0.974   3.503  1.9342  0.2355  2.9674
  662SOL     OW 2111   0.419   4.604   2.175 -0.0006 -0.1431 -0.0639
  662SOL    HW1 2112   0.412   4.642   2.088 -1.3089  0.3653  0.2084
  662SOL    HW2 2113   0.329   4.579   2.197 -0.0044  0.9984  1.6436
  663SOL     OW 2114   2.874   5.959   1.673  0.3055 -0.5592 -0.1320
  663SOL    HW1 2115   2.920   5.951   1.589 -0.1977  1.7892 -0.7706
  663SOL    HW2 2116   2.941   5.985   1.735  0.5801 -1.7709  0.1272
  664SOL     OW 2117   5.562   3.204   0.460 -0.4840  0.0553  0.2694
  664SOL    HW1 2118   5.522   3.226   0.376 -0.1039 -0.0141  0.0664
  664SOL    HW2 2119   5.520   3.122   0.485  0.4221 -0.7180 -0.5734
  665SOL     OW 2120   3.113   0.720   1.141 -0.2832 -0.2472  0.1993
  665SOL    HW1 2121   3.078   0.635   1.113 -0.0486  0.0576 -1.1977
  665SOL    HW2 2122   3.133   0.765   1.059 -0.0294  1.0130  0.9069
  666SOL     OW 2123   3.443   0.752   0.495  0.2927  0.4533  0.0186
  666SOL    HW1 2124   3.513   0.812   0.468  1.3410 -0.8918 -0.4835
  666SOL    HW2 2125   3.389   0.742   0.417  0.0258  0.8268  0.1483
  667SOL     OW 2126   5.116   2.477   1.921 -0.2920  0.3258 -0.2846
  667SOL    HW1 2127   5.129   2.543   1.988 -0.1419  0.6768 -0.6515
  667SOL    HW2 2128   5.022   2.458   1.923 -0.5775  1.4698 -1.0059
  668SOL     OW 2129   4.074   1.262   1.817 -0.2154 -0.4898 -0.0206
  668SOL    HW1 2130   4.026   1.180   1.821  2.0167 -2.2163 -2.0958
  668SOL    HW2 2131   4.125   1.265   1.898  0.8527 -2.1822 -0.5259
  669SOL     OW 2132   5.761   1.993   1.896 -0.1966  0.3674  0.2335
  669SOL    HW1 2133   5.779   2.002   1.802 -0.6310 -2.7911 -0.3544
  669SOL    HW2 2134   5.665   1.989   1.901 -0.3609  2.5806  1.2686
  670SOL     OW 2135   4.924   4.729   2.814 -0.2488 -0.4032 -0.1673
  670SOL    HW1 2136   4.838   4.702   2.784 -0.6892  0.3328  0.3596
  670SOL    HW2 2137   4.981   4.655   2.793 -0.7402 -0.4223 -1.6621
  671SOL     OW 2138   2.206   1.743   0.892 -0.6163  0.0364 -0.0544
  671SOL    HW1 2139   2.227   1.824   0.940 -1.1707 -0.7611  1.7044
  671SOL    HW2 2140   2.114   1.728   0.911 -0.7141 -0.6398 -0.9743
  672SOL     OW 2141   5.422   5.054   0.635  0.2138 -0.6259 -0.0110
  672SOL    HW1 2142   5.456   5.143   0.650  1.1650 -1.1220  1.1430
  672SOL    HW2 2143   5.334   5.056   0.673 -0.6464  0.3059 -1.8036
  673SOL     OW 2144   4.439   3.895   4.351  0.2082 -0.2854  0.1797
  673SOL    HW1 2145   4.456   3.884   4.258  2.1618 -2.9961  0.5975
  673SOL    HW2 2146   4.503   3.960   4.380 -0.2259  0.3665 -0.2806
  674SOL     OW 2147   3.388   5.040   1.522 -0.0846  0.3474  0.2843
  674SOL    HW1 2148   3.371   4.967   1.463  1.7134  1.9752 -2.7956
  674SOL    HW2 2149   3.470   5.018   1.565 -0.1970  0.0839  0.3685
  675SOL     OW 2150   5.389   5.343   4.009  0.2520  0.2023 -0.3193
  675SOL    HW1 2151   5.363   5.263   3.963 -1.1617 -1.1523  2.3796
  675SOL    HW2 2152   5.307   5.390   4.024  1.0205  2.2831 -1.6957
  676SOL     OW 2153   4.588   5.624   4.328  0.7326 -0.4665  0.0313
  676SOL    HW1 2154   4.566   5.656   4.241  0.0872  0.3803  0.4796
  676SOL    HW2 2155   4.635   5.541   4.312  0.2682 -0.5456 -1.0881
  677SOL     OW 2156   5.254   0.525   4.049  0.2284 -0.3788  0.5404
  677SOL    HW1 2157   5.167   0.544   4.085  0.7464  1.6096  0.9628
  677SOL    HW2 2158   5.255   0.569   3.964  0.7385 -0.6129  0.4174
  678SOL     OW 2159   4.121   4.647   3.620 -0.6641  0.0421  0.2278
  678SOL    HW1 2160   4.213   4.666   3.639 -0.4086 -0.4726 -0.4211
  678SOL    HW2 2161   4.072   4.711   3.672  0.0772  0.8255  0.0072
  679SOL     OW 2162   6.172   4.487   3.847  0.1089 -0.1593  0.0629
  679SOL    HW1 2163   6.131   4.424   3.907  1.3145  0.8665  2.2247
  679SOL    HW2 2164   6.099   4.536   3.809 -0.7645 -1.6032 -0.2589
  680SOL     OW 2165   6.307   2.878   1.227 -0.1762  0.8071  0.4653
  680SOL    HW1 2166   6.244   2.864   1.298  0.2222 -2.7152  0.5012
  680SOL    HW2 2167   6.392   2.867   1.269  0.2701  1.5138 -0.1991
  681SOL     OW 2168   2.473   4.035   0.469  0.1149  0.4430 -0.7899
  681SOL    HW1 2169   2.431   4.063   0.387 -0.5533 -1.0533 -1.0198
  681SOL    HW2 2170   2.401   4.029   0.532 -0.1657 -1.9952 -1.1442
  682SOL     OW 2171   0.390   4.847   2.026 -0.1360  0.3946 -0.2592
  682SOL    HW1 2172   0.484   4.831   2.038 -0.3545 -0.6140  0.4213
  682SOL    HW2 2173   0.385   4.933   1.985  1.0499  1.1539  1.0105
  683SOL     OW 2174   3.894   1.321   2.433  0.2879  0.2794 -0.5663
  683SOL    HW1 2175   3.929   1.367   2.356  1.5920  1.7935  0.7901
  683SOL    HW2 2176   3.813   1.368   2.453  1.3355  1.8666  0.4823
  684SOL     OW 2177   1.708   5.053   4.277 -0.0518  0.0366  0.3597
  684SOL    HW1 2178   1.667   5.067   4.363  1.1023 -1.5479  1.2736
  684SOL    HW2 2179   1.681   4.964   4.253 -0.8000  0.6328 -1.2604
  685SOL     OW 2180   3.103   1.464   1.345  0.1835  0.5512 -0.5009
  685SOL    HW1 2181   3.053   1.477   1.265 -0.1680 -0.9262 -0.5756
  685SOL    HW2 2182   3.044   1.490   1.416 -0.8608 -1.3041 -0.5755
  686SOL     OW 2183   0.037   0.715   3.210 -0.1099 -0.0166  0.0579
  686SOL    HW1 2184  -0.051   0.691   3.181  0.2940  0.9040 -2.3830
  686SOL    HW2 2185   0.040   0.810   3.204  0.6251  0.1558  1.8088
  687SOL     OW 2186   4.902   2.479   0.636 -0.0401 -0.0642  0.0204
  687SOL    HW1 2187   4.967   2.533   0.680  0.1266 -0.6558  0.5329
  687SOL    HW2 2188   4.926   2.483   0.543 -0.0523  0.7418  0.0405
  688SOL     OW 2189   3.919   0.064   2.051 -0.6553  0.4557  0.0116
  688SOL    HW1 2190   3.913   0.058   2.146 -0.3950  0.4191  0.0268
  688SOL    HW2 2191   3.856   0.133   2.027 -2.1884 -0.8421  0.0196
  689SOL     OW 2192   5.995   2.407   0.460 -0.0692 -0.4039 -0.8311
  689SOL    HW1 2193   6.000   2.318   0.495 -0.2920  0.6312  2.5468
  689SOL    HW2 2194   6.072   2.416   0.405  1.2499 -2.1114  0.5286
  690SOL     OW 2195   3.546   5.751   1.541 -0.2542  0.4093  0.0073
  690SOL    HW1 2196   3.616   5.705   1.494 -1.3778  0.1094 -1.5488
  690SOL    HW2 2197   3.466   5.706   1.514 -1.1362  1.1863  1.1267
  691SOL     OW 2198   2.878   0.583   1.738 -0.5080 -0.4108 -0.5165
  691SOL    HW1 2199   2.872   0.660   1.795 -0.5620 -1.3164  0.8027
  691SOL    HW2 2200   2.887   0.510   1.799  0.0433 -1.4122 -1.7277
  692SOL     OW 2201   2.321   3.328   0.630  0.4505  0.1111 -0.2427
  692SOL    HW1 2202   2.360   3.391   0.571 -1.4035  1.9268  0.2341
  692SOL    HW2 2203   2.258   3.280   0.576 -0.8952  1.4395  0.0077
  693SOL     OW 2204   1.090   1.098   1.127 -0.5030  0.3619 -0.0459
  693SOL    HW1 2205   1.156   1.103   1.058 -0.6987 -2.3774 -0.6376
  693SOL    HW2 2206   1.023   1.039   1.093 -2.2107  1.2625  1.3857
  694SOL     OW 2207   2.461   5.420   4.452  0.0875  0.1191 -0.1520
  694SOL    HW1 2208   2.554   5.399   4.436  0.1255  0.2150 -0.0568
  694SOL    HW2 2209   2.420   5.409   4.366  0.3592  1.0094 -0.4179
  695SOL     OW 2210   3.693   1.232   0.659  0.1413  0.5409  0.8931
  695SOL    HW1 2211   3.700   1.275   0.744  0.7768 -0.1011  1.1897
  695SOL    HW2 2212   3.618   1.173   0.667  0.4353  0.1953  1.1526
  696SOL     OW 2213   5.618   3.010   4.331 -0.3908 -0.1051  0.1539
  696SOL    HW1 2214   5.591   2.932   4.379  0.8910 -1.4667 -1.1248
  696SOL    HW2 2215   5.594   2.991   4.240  0.2310  0.8775 -0.2478
  697SOL     OW 2216   2.811   6.076   2.422  0.2861  0.3911  0.4910
  697SOL    HW1 2217   2.828   6.022   2.345  1.0671 -0.9446  1.5047
  697SOL    HW2 2218   2.721   6.054   2.447  0.3409  0.1183  0.4607
  698SOL     OW 2219   3.190   4.485   0.486  0.1639 -0.2043 -0.9204
  698SOL    HW1 2220   3.191   4.575   0.454 -0.5796 -0.3391 -1.3877
  698SOL    HW2 2221   3.191   4.431   0.407 -3.9229 -0.5635 -1.1591
  699SOL     OW 2222   5.603   3.440   3.191  0.3437 -0.4958  0.1619
  699SOL    HW1 2223   5.580   3.516   3.244  0.0631  0.8364 -1.6537
  699SOL    HW2 2224   5.697   3.450   3.175  1.1152 -2.3938  2.3817
  700SOL     OW 2225   4.317   5.144   0.743 -0.5897 -0.1237 -0.0369
  700SOL    HW1 2226   4.323   5.205   0.816  1.0532  0.1676 -0.3239
  700SOL    HW2 2227   4.305   5.199   0.666 -2.7706 -0.4464 -0.0633
  701SOL     OW 2228   5.303   2.380   1.365  0.7549 -0.2229 -0.1131
  701SOL    HW1 2229   5.287   2.436   1.441  0.3938  0.1568 -0.4518
  701SOL    HW2 2230   5.359   2.434   1.308  0.0149  0.0060 -0.6567
  702SOL     OW 2231   6.412   0.822   2.485  0.1086  0.5917 -0.3670
  702SOL    HW1 2232   6.419   0.873   2.566  0.5693 -2.9920  2.3698
  702SOL    HW2 2233   6.321   0.794   2.482  0.4697 -0.8991  0.3306
  703SOL     OW 2234   4.708   1.848   3.501  0.7700  0.3553 -0.0257
  703SOL    HW1 2235   4.788   1.856   3.448  0.7754  1.3591  0.0926
  703SOL    HW2 2236   4.712   1.921   3.562 -1.3434  2.0047 -1.5671
  704SOL     OW 2237   0.091   4.420   2.414 -0.1402 -0.4317 -0.1921
  704SOL    HW1 2238   0.020   4.358   2.430 -0.2330 -0.9318 -2.1247
  704SOL    HW2 2239   0.159   4.394   2.477 -0.5948 -1.7891 -0.1908
  705SOL     OW 2240   1.138   6.020   1.850  0.3227 -0.0288  0.0143
  705SOL    HW1 2241   1.109   5.929   1.854  0.0907  0.0041 -0.6780
  705SOL    HW2 2242   1.223   6.020   1.894 -0.4986 -0.1899  1.7777
  706SOL     OW 2243   1.392   4.003   3.438 -0.1694  0.2489 -0.3744
  706SOL    HW1 2244   1.470   4.050   3.469 -1.2932  1.6309  0.5906
  706SOL    HW2 2245   1.383   4.030   3.347  1.4826 -1.5133 -1.2332
  707SOL     OW 2246   3.224   6.267   0.635 -0.1534 -0.3171  0.2759
  707SOL    HW1 2247   3.278   6.195   0.667  1.3384  0.0430 -1.1275
  707SOL    HW2 2248   3.219   6.329   0.708 -0.3946 -1.2615  1.0889
  708SOL     OW 2249   2.871   4.695   2.631  0.2677  0.1892 -0.7619
  708SOL    HW1 2250   2.793   4.725   2.678 -2.3441 -2.0019 -2.9711
  708SOL    HW2 2251   2.893   4.767   2.572 -0.0714  0.8584 -0.1019
  709SOL     OW 2252   5.705   0.627   3.385 -0.0343  0.2578  0.4431
  709SOL    HW1 2253   5.635   0.563   3.400 -1.2380  0.9395 -1.5152
  709SOL    HW2 2254   5.659   0.707   3.357  1.5031  1.1401  0.2182
  710SOL     OW 2255   0.471   5.754   3.422 -0.5902 -0.4264 -0.4807
  710SOL    HW1 2256   0.400   5.785   3.478  0.4704 -0.3387  0.9270
  710SOL    HW2 2257   0.494   5.668   3.457  0.9562  0.1743  0.1399
  711SOL     OW 2258   1.426   2.817   2.709  0.7180 -0.0329  0.3972
  711SOL    HW1 2259   1.367   2.780   2.774  0.7563 -0.5196  0.1687
  711SOL    HW2 2260   1.434   2.749   2.642  0.4522  0.5565 -0.2664
  712SOL     OW 2261   6.333   0.425   2.377 -0.7017 -0.2362  0.1491
  712SOL    HW1 2262   6.416   0.471   2.365 -0.9119 -0.0611 -0.9105
  712SOL    HW2 2263   6.357   0.334   2.392 -0.3013 -0.2267 -0.3559
  713SOL     OW 2264   6.066   6.397   3.633 -0.1094  0.3235  0.1007
  713SOL    HW1 2265   6.103   6.315   3.601  0.5843  0.5066  0.4087
  713SOL    HW2 2266   6.121   6.465   3.595  0.4552  0.5669  1.2753
  714SOL     OW 2267   6.406   5.551   2.366 -0.6516  0.3970  0.4946
  714SOL    HW1 2268   6.492   5.570   2.402 -0.0475  0.7830 -1.0214
  714SOL    HW2 2269   6.410   5.582   2.276 -1.7663 -1.2240 -0.1985
  715SOL     OW 2270   1.512   4.874   2.754  0.1605 -0.4351  0.0809
  715SOL    HW1 2271   1.578   4.875   2.684  1.3507  2.9727  0.8580
  715SOL    HW2 2272   1.428   4.877   2.707  0.8801  1.1112 -1.3571
  716SOL     OW 2273   0.314   0.370   3.542  0.0759 -0.1631 -0.2997
  716SOL    HW1 2274   0.386   0.336   3.594 -0.3645 -0.7029 -0.0281
  716SOL    HW2 2275   0.238   0.366   3.600 -0.1517  0.5699 -0.5148
  717SOL     OW 2276   4.047   0.422   4.367  0.4251 -0.1164 -0.1884
  717SOL    HW1 2277   4.100   0.378   4.300 -1.2661 -0.4915 -1.4195
  717SOL    HW2 2278   4.033   0.510   4.333  0.0611 -0.1037 -0.0129
  718SOL     OW 2279   2.795   3.513   2.725 -0.6364  0.2186 -1.0503
  718SOL    HW1 2280   2.852   3.552   2.659 -0.0728 -1.5298 -1.7059
  718SOL    HW2 2281   2.741   3.450   2.677 -2.2847  0.9014 -0.2445
  719SOL     OW 2282   3.582   4.987   2.893 -0.0233  0.1737  0.3358
  719SOL    HW1 2283   3.494   4.954   2.876 -0.1241 -1.5621  3.0296
  719SOL    HW2 2284   3.633   4.958   2.818 -1.5328  0.6249 -0.9781
  720SOL     OW 2285   4.530   1.551   3.401 -0.1133 -0.1898  0.2478
  720SOL    HW1 2286   4.502   1.528   3.313 -0.8378  0.3679  0.3216
  720SOL    HW2 2287   4.481   1.492   3.458 -0.5529  0.2517  0.3351
  721SOL     OW 2288   3.666   3.879   0.974 -0.3737 -0.4440 -0.2240
  721SOL    HW1 2289   3.761   3.871   0.977 -0.2541  0.1662 -1.3347
  721SOL    HW2 2290   3.637   3.860   1.064  1.0502  2.5628  1.1339
  722SOL     OW 2291   5.818   6.078   3.801  0.1549  0.0836 -0.4633
  722SOL    HW1 2292   5.771   6.158   3.827  1.5746  1.0655 -0.6628
  722SOL    HW2 2293   5.888   6.070   3.866  0.0419 -1.0359 -0.4524
  723SOL     OW 2294   3.030   2.494   2.857 -0.0868  0.4517 -0.5869
  723SOL    HW1 2295   3.076   2.450   2.785 -0.2919 -0.0246 -0.4356
  723SOL    HW2 2296   3.095   2.501   2.926 -0.6687 -2.0776  0.4197
  724SOL     OW 2297   1.614   2.392   0.007 -0.1851  0.2416 -0.3981
  724SOL    HW1 2298   1.583   2.379   0.096  1.2206  1.2344  0.3131
  724SOL    HW2 2299   1.535   2.414  -0.043 -1.1045 -0.9609  0.4027
  725SOL     OW 2300   5.085   0.030   0.424 -0.1426 -0.1030 -0.2532
  725SOL    HW1 2301   5.050   0.068   0.343  1.8089 -0.9042 -1.6356
  725SOL    HW2 2302   5.037  -0.052   0.435  0.3805 -0.6123 -1.4113
  726SOL     OW 2303   1.666   0.455   4.255  0.7649  0.1189 -0.0375
  726SOL    HW1 2304   1.639   0.363   4.264  1.6615 -0.1342  0.3215
  726SOL    HW2 2305   1.640   0.480   4.167 -0.1965 -0.2236  0.1217
  727SOL     OW 2306   4.685   4.280   4.016  0.3716 -0.4454  0.5316
  727SOL    HW1 2307   4.712   4.351   4.074 -0.0579  1.0069 -0.9064
  727SOL    HW2 2308   4.663   4.323   3.934  2.8773 -2.4471 -1.5556
  728SOL     OW 2309   0.791   6.200   1.045  0.4510 -0.0010  0.2006
  728SOL    HW1 2310   0.730   6.267   1.076 -0.5544 -1.6064  2.2120
  728SOL    HW2 2311   0.878   6.237   1.062 -0.0443  0.9125  0.9548
  729SOL     OW 2312   5.662   1.218   0.522 -0.2936  0.0288  0.3972
  729SOL    HW1 2313   5.586   1.167   0.550 -0.4474 -0.7874 -1.2525
  729SOL    HW2 2314   5.639   1.309   0.544 -0.4294 -0.4260  2.5401
  730SOL     OW 2315   4.595   3.238   0.301  0.0496  0.6851 -0.2354
  730SOL    HW1 2316   4.642   3.239   0.385 -0.3727 -1.4509  0.1361
  730SOL    HW2 2317   4.516   3.187   0.319 -0.5192  0.9398 -1.7416
  731SOL     OW 2318   0.713   3.577   1.541 -0.2247 -0.1540 -0.3317
  731SOL    HW1 2319   0.728   3.492   1.500  0.6240 -0.6061  0.7910
  731SOL    HW2 2320   0.801   3.610   1.560 -0.5585  0.5083  0.1568
  732SOL     OW 2321   3.976   2.174   4.126  0.2258  0.6750 -0.1915
  732SOL    HW1 2322   4.010   2.215   4.047  0.7342 -0.5886 -0.6896
  732SOL    HW2 2323   4.026   2.092   4.134 -1.0971 -0.1472  0.3726
  733SOL     OW 2324   2.634   0.815   0.035 -0.0925  0.6379  0.1357
  733SOL    HW1 2325   2.619   0.722   0.021 -1.3575  0.4155  2.1401
  733SOL    HW2 2326   2.727   0.822   0.053  0.1347 -0.1167 -0.6393
  734SOL     OW 2327   3.453   3.405   4.306 -0.0504 -0.9883  0.4156
  734SOL    HW1 2328   3.543   3.427   4.331 -0.3811  1.1860  0.0641
  734SOL    HW2 2329   3.400   3.436   4.380 -0.6345  0.3763 -0.4920
  735SOL     OW 2330   4.514   1.196   0.083 -0.3310  0.3074  0.2246
  735SOL    HW1 2331   4.596   1.148   0.082 -1.2636 -1.4851 -1.1667
  735SOL    HW2 2332   4.491   1.202   0.176  1.4919  1.2802  0.7028
  736SOL     OW 2333   5.763   1.386   2.088  0.1017  0.5875  0.4651
  736SOL    HW1 2334   5.792   1.304   2.127 -1.2641 -0.4399 -0.4844
  736SOL    HW2 2335   5.827   1.451   2.118  1.2251 -0.7867  1.2995
  737SOL     OW 2336   2.073   6.173   2.790  0.1354 -0.0259  0.0721
  737SOL    HW1 2337   2.165   6.149   2.774 -0.4344 -1.2647 -2.2569
  737SOL    HW2 2338   2.023   6.112   2.736 -1.9782  1.7123 -0.1883
  738SOL     OW 2339   0.304   1.528   3.027 -0.2819  0.1493 -0.1108
  738SOL    HW1 2340   0.257   1.604   2.995 -0.0296 -0.1336 -1.2328
  738SOL    HW2 2341   0.396   1.556   3.030  0.0651 -0.5115 -2.0878
  739SOL     OW 2342   0.986   1.730   1.735 -0.5949 -0.1466  0.3344
  739SOL    HW1 2343   0.977   1.653   1.680  1.0026  0.9030 -1.6863
  739SOL    HW2 2344   1.040   1.701   1.809 -0.7257 -1.1128  0.0765
  740SOL     OW 2345   6.360   3.373   0.999  0.0415 -0.4956 -0.1906
  740SOL    HW1 2346   6.340   3.309   1.068 -1.8415 -1.1626 -1.2109
  740SOL    HW2 2347   6.325   3.455   1.032 -0.2597 -0.6613 -0.0900
  741SOL     OW 2348   0.486   2.963   0.210  0.2167  0.5687  0.0311
  741SOL    HW1 2349   0.412   3.004   0.167  0.7454  1.2657 -0.2429
  741SOL    HW2 2350   0.508   2.889   0.154  0.1519  0.7627 -0.2565
  742SOL     OW 2351   0.130   4.412   2.772  0.5760  0.3621  0.0930
  742SOL    HW1 2352   0.209   4.364   2.749  0.5377 -0.3829  1.3433
  742SOL    HW2 2353   0.062   4.344   2.779  0.3218  0.6829  1.0542
  743SOL     OW 2354   5.398   5.639   4.484  0.0150 -0.5243  0.0282
  743SOL    HW1 2355   5.367   5.655   4.573  0.8538  0.1892  0.2237
  743SOL    HW2 2356   5.483   5.597   4.495 -0.6521 -2.1563 -0.4894
  744SOL     OW 2357   5.228   5.909   0.291 -0.3702 -0.3865  0.1931
  744SOL    HW1 2358   5.278   5.835   0.256 -0.1554  0.0330 -0.4093
  744SOL    HW2 2359   5.276   5.935   0.370 -0.7217 -1.1841  0.7001
  745SOL     OW 2360   6.078   0.555   4.505  0.3469  0.3001 -0.3280
  745SOL    HW1 2361   5.984   0.556   4.523  0.2136  2.8123 -0.3494
  745SOL    HW2 2362   6.085   0.521   4.416 -0.4615 -0.3602 -0.1646
  746SOL     OW 2363   1.575   3.141   2.077  0.5842 -0.7241 -0.0296
  746SOL    HW1 2364   1.607   3.079   2.011  2.3709 -0.9076  0.8843
  746SOL    HW2 2365   1.536   3.087   2.145 -1.3616 -0.5288 -0.8747
  747SOL     OW 2366   5.027   1.941   0.552  0.0273 -0.5137 -0.1774
  747SOL    HW1 2367   4.965   1.985   0.611 -0.7629 -1.4776 -0.2417
  747SOL    HW2 2368   4.972   1.900   0.486  0.7140 -1.5115 -0.1744
  748SOL     OW 2369   2.851   4.354   3.141  0.2128  0.0062 -0.1849
  748SOL    HW1 2370   2.759   4.377   3.157  0.0436 -0.3294 -0.6275
  748SOL    HW2 2371   2.871   4.395   3.056  0.6956  0.6751  0.2303
  749SOL     OW 2372   2.922   3.560   2.439  0.4760  0.3411 -0.3644
  749SOL    HW1 2373   2.930   3.656   2.435  0.2127  0.3792 -0.0681
  749SOL    HW2 2374   2.983   3.528   2.373  0.7895  0.7056 -0.2588
  750SOL     OW 2375   4.953   6.367   0.142  0.0696  0.0673  0.5681
  750SOL    HW1 2376   4.938   6.320   0.060  0.7660  0.2154  0.3437
  750SOL    HW2 2377   4.907   6.316   0.208 -0.7046  0.0753  0.0585
  751SOL     OW 2378   2.715   4.926   2.466 -0.4456 -0.0066  0.7543
  751SOL    HW1 2379   2.787   4.864   2.449 -0.6075  0.1711 -0.9692
  751SOL    HW2 2380   2.747   4.980   2.538  0.8656 -0.3725  0.5117
  752SOL     OW 2381   0.029   5.287   1.152 -0.3863  0.2020 -1.0490
  752SOL    HW1 2382   0.071   5.366   1.118 -1.3460  0.5051 -1.6172
  752SOL    HW2 2383   0.019   5.304   1.246 -0.7719  0.8792 -1.1957
  753SOL     OW 2384   5.236   0.827   0.989  0.1077  0.6115  0.3198
  753SOL    HW1 2385   5.184   0.786   1.058  0.1013  0.6087  0.3133
  753SOL    HW2 2386   5.256   0.756   0.928 -1.8574  0.9861 -0.9423
  754SOL     OW 2387   4.728   5.379   4.269 -0.4715 -0.2931  1.1717
  754SOL    HW1 2388   4.744   5.345   4.181 -1.5436  2.1237 -0.1556
  754SOL    HW2 2389   4.657   5.324   4.303 -1.4094 -0.1494 -0.3585
  755SOL     OW 2390   2.039   4.290   3.422  0.1226 -0.0276 -0.0466
  755SOL    HW1 2391   2.061   4.383   3.409  0.2788  0.2724  1.8046
  755SOL    HW2 2392   2.102   4.243   3.367 -1.2956  0.8508 -2.7822
  756SOL     OW 2393   4.034   1.754   2.661  0.1362  0.1739 -0.1063
  756SOL    HW1 2394   4.019   1.842   2.625  0.2762 -0.3736 -1.6212
  756SOL    HW2 2395   3.952   1.731   2.704  0.0581  0.9784  0.2157
  757SOL     OW 2396   3.121   4.744   1.497 -0.1322 -0.3414 -0.3702
  757SOL    HW1 2397   3.036   4.706   1.477 -0.8750  0.9704  0.0572
  757SOL    HW2 2398   3.102   4.814   1.559  1.2394  0.1309 -0.4157
  758SOL     OW 2399   5.545   4.900   1.293  0.0987  0.1179 -0.2851
  758SOL    HW1 2400   5.509   4.900   1.205  0.9856 -0.2166 -0.6704
  758SOL    HW2 2401   5.498   4.831   1.339  0.8674 -0.9716 -1.0590
  759SOL     OW 2402   2.560   6.021   2.494  0.0048  0.4297  0.3863
  759SOL    HW1 2403   2.510   6.073   2.557 -0.7046  0.7101 -0.3878
  759SOL    HW2 2404   2.571   5.936   2.537 -0.6569  0.5432  0.8068
  760SOL     OW 2405   4.611   2.726   3.910 -0.3710 -0.1074 -0.0077
  760SOL    HW1 2406   4.646   2.737   3.999  0.1249  0.1544 -0.2271
  760SOL    HW2 2407   4.642   2.803   3.863 -1.6703  0.4105 -0.1021
  761SOL     OW 2408   6.188   0.573   0.937  0.1560 -0.4324 -0.1774
  761SOL    HW1 2409   6.278   0.583   0.968 -0.1611  0.7696  0.4884
  761SOL    HW2 2410   6.140   0.542   1.014 -0.2543  0.4673 -0.0494
  762SOL     OW 2411   3.444   3.944   3.743 -0.2306 -0.4817 -0.2076
  762SOL    HW1 2412   3.497   3.873   3.781 -0.3390 -0.8150 -0.6642
  762SOL    HW2 2413   3.509   4.004   3.706 -0.1541 -0.6085 -0.2809
  763SOL     OW 2414   5.626   3.381   2.051  0.3476  0.1011  0.3962
  763SOL    HW1 2415   5.611   3.384   1.956 -3.7960 -0.9032  0.6527
  763SOL    HW2 2416   5.647   3.290   2.070  0.4686  0.1494  0.4980
  764SOL     OW 2417   6.297   3.311   4.163  0.1683 -0.0050 -0.7676
  764SOL    HW1 2418   6.312   3.244   4.097  0.0993 -0.0569 -0.7307
  764SOL    HW2 2419   6.380   3.358   4.169 -0.3216  1.2065 -2.2322
  765SOL     OW 2420   2.783   5.167   4.364 -0.1305  0.0402 -0.3630
  765SOL    HW1 2421   2.724   5.095   4.385  0.2975 -0.6264 -1.2881
  765SOL    HW2 2422   2.761   5.235   4.427 -1.2162 -0.5309 -0.0700
  766SOL     OW 2423   1.183   4.846   3.162  0.2949 -0.0597  0.2123
  766SOL    HW1 2424   1.176   4.814   3.072  1.1480  2.8078 -1.0927
  766SOL    HW2 2425   1.093   4.861   3.190  0.0389 -0.5608 -0.3151
  767SOL     OW 2426   3.630   5.720   2.159  0.7777  0.5016 -0.3104
  767SOL    HW1 2427   3.599   5.734   2.249  1.7075  0.3824  0.0543
  767SOL    HW2 2428   3.720   5.753   2.159  0.7953  0.5063 -1.2105
  768SOL     OW 2429   1.076   0.524   1.817  0.0394 -0.0381  0.1588
  768SOL    HW1 2430   1.110   0.442   1.781  3.7546  0.8505  0.8493
  768SOL    HW2 2431   1.081   0.585   1.744  0.8633  0.2667  0.4426
  769SOL     OW 2432   2.688   0.834   3.676  0.0016 -0.1404  0.4653
  769SOL    HW1 2433   2.783   0.823   3.668 -0.0835 -0.1091 -1.7699
  769SOL    HW2 2434   2.653   0.801   3.594 -1.7813  1.3121  0.5148
  770SOL     OW 2435   2.073   1.610   1.188  0.2436  0.3590  0.2045
  770SOL    HW1 2436   1.995   1.577   1.144 -0.7875  1.7516  0.8547
  770SOL    HW2 2437   2.131   1.534   1.194 -1.0233 -0.7230 -0.3547
  771SOL     OW 2438   3.820   2.576   0.895  0.0599  0.4426 -0.0727
  771SOL    HW1 2439   3.915   2.578   0.903  0.0346  0.2960  0.3601
  771SOL    HW2 2440   3.792   2.667   0.904  0.2663  0.7958 -2.1458
  772SOL     OW 2441   4.091   0.643   1.569 -0.3209  0.7307  0.8166
  772SOL    HW1 2442   4.170   0.671   1.522  0.5517 -1.3870  0.7951
  772SOL    HW2 2443   4.110   0.661   1.661  0.0758  0.5529  0.7772
  773SOL     OW 2444   4.515   3.953   1.485  0.1778  0.5253 -0.3859
  773SOL    HW1 2445   4.610   3.962   1.485  0.1749  0.8336  0.7539
  773SOL    HW2 2446   4.489   3.967   1.576 -0.6834 -2.5834  0.0865
  774SOL     OW 2447   2.058   6.005   1.510 -0.5701 -1.1154 -0.1713
  774SOL    HW1 2448   2.065   5.910   1.514  0.2314 -1.0632  1.4663
  774SOL    HW2 2449   2.148   6.036   1.503 -0.6506 -0.5021  0.9804
  775SOL     OW 2450   5.701   3.129   3.370  0.2305 -0.0791 -0.0647
  775SOL    HW1 2451   5.703   3.083   3.286  1.6309 -2.7856  1.1651
  775SOL    HW2 2452   5.619   3.178   3.369 -0.0606 -0.3142 -2.7623
  776SOL     OW 2453   0.625   2.122   0.552  0.3777 -0.3511  0.5630
  776SOL    HW1 2454   0.543   2.119   0.601 -0.8937  1.8801 -1.0795
  776SOL    HW2 2455   0.621   2.047   0.493 -2.1598  1.0676 -1.4947
  777SOL     OW 2456   6.043   0.499   0.075 -0.2194  0.0734 -0.2909
  777SOL    HW1 2457   5.953   0.467   0.083 -0.3184  0.5124  0.4967
  777SOL    HW2 2458   6.077   0.454  -0.003 -1.6424  1.1656 -1.6738
  778SOL     OW 2459   1.371   0.185   0.851  0.3342 -0.1926  0.0641
  778SOL    HW1 2460   1.350   0.107   0.901  0.2684 -0.0386  0.2795
  778SOL    HW2 2461   1.392   0.252   0.917  0.0041  0.0809 -0.1030
  779SOL     OW 2462   2.622   5.514   1.423  0.3224 -0.0903 -0.3203
  779SOL    HW1 2463   2.699   5.557   1.460 -0.0352 -0.7177  1.3275
  779SOL    HW2 2464   2.551   5.535   1.484 -1.7283  2.7994 -3.0522
  780SOL     OW 2465   4.052   1.230   0.665 -0.4668  0.0012  0.6927
  780SOL    HW1 2466   4.145   1.240   0.683 -0.4417  0.5383  0.3073
  780SOL    HW2 2467   4.010   1.298   0.718 -0.3436  2.1119 -1.5614
  781SOL     OW 2468   2.663   1.945   2.163  0.7866 -0.4915  0.0455
  781SOL    HW1 2469   2.722   1.893   2.109  2.3063  1.0851 -0.0179
  781SOL    HW2 2470   2.718   1.979   2.233 -0.9244 -1.8146  2.3133
  782SOL     OW 2471   1.332   1.952   0.117  0.0337 -0.0486 -0.1501
  782SOL    HW1 2472   1.332   1.997   0.033  1.1424  1.0173  0.3640
  782SOL    HW2 2473   1.245   1.970   0.154 -0.2862 -0.1222 -0.8406
  783SOL     OW 2474   0.881   1.958   0.001  0.0089 -0.3273  0.4838
  783SOL    HW1 2475   0.960   1.938   0.052  0.7713  0.0049 -0.4918
  783SOL    HW2 2476   0.900   2.042  -0.039 -0.5401 -0.5810 -0.3539
  784SOL     OW 2477   0.033   1.892   0.988  0.4431 -0.5671  0.2564
  784SOL    HW1 2478   0.111   1.944   0.969  0.6395 -0.0807  2.0323
  784SOL    HW2 2479   0.047   1.810   0.940  0.8471  0.3795 -1.4054
  785SOL     OW 2480   4.213   1.787   2.867  0.2617 -0.4366  0.2435
  785SOL    HW1 2481   4.179   1.745   2.787  1.1690 -1.2625  0.2485
  785SOL    HW2 2482   4.213   1.717   2.932 -1.3739  0.4429  1.3307
  786SOL     OW 2483   5.126   0.394   3.799  0.6382  0.0779  0.8940
  786SOL    HW1 2484   5.135   0.309   3.842 -1.7436 -2.3237 -2.3196
  786SOL    HW2 2485   5.180   0.388   3.721 -0.7117  0.7586 -0.1842
  787SOL     OW 2486   1.381   3.944   4.357 -0.0764 -0.1539  0.0326
  787SOL    HW1 2487   1.323   3.991   4.417  0.7365  0.4216  0.3916
  787SOL    HW2 2488   1.466   3.985   4.368  0.7927 -1.9116  0.6086
  788SOL     OW 2489   3.365   0.376   3.696  1.0415  0.1988 -0.3902
  788SOL    HW1 2490   3.369   0.321   3.617 -0.8532  0.2832 -0.6373
  788SOL    HW2 2491   3.445   0.427   3.693  2.1749 -1.4450 -0.9645
  789SOL     OW 2492   4.359   5.108   1.676 -0.3221  0.5466 -0.0620
  789SOL    HW1 2493   4.406   5.051   1.616 -0.2101  0.8472 -0.2641
  789SOL    HW2 2494   4.382   5.076   1.764  0.7276  1.0434 -0.1316
  790SOL     OW 2495   4.454   4.174   0.682  0.3279  0.1078 -0.3358
  790SOL    HW1 2496   4.527   4.134   0.730  1.3312 -1.2256 -2.6140
  790SOL    HW2 2497   4.446   4.262   0.720  2.9376  0.2328  0.3118
  791SOL     OW 2498   5.758   1.557   1.445 -0.2830 -0.0068 -0.4662
  791SOL    HW1 2499   5.805   1.543   1.363 -0.6565 -0.9108 -0.5443
  791SOL    HW2 2500   5.678   1.505   1.436 -0.1641 -0.4266  0.6151
  792SOL     OW 2501   2.121   6.275   2.007  0.4640  0.1292  0.3155
  792SOL    HW1 2502   2.209   6.266   2.045  0.3503 -1.0281  0.3959
  792SOL    HW2 2503   2.116   6.203   1.944 -0.3363  0.3424  0.1240
  793SOL     OW 2504   5.309   4.713   3.504  0.4921 -0.0491  0.1607
  793SOL    HW1 2505   5.273   4.635   3.546  2.3333 -0.0766  2.0342
  793SOL    HW2 2506   5.318   4.776   3.576  3.4039  0.1230 -0.1274
  794SOL     OW 2507   3.682   5.968   1.826 -0.0741  1.1193 -0.6364
  794SOL    HW1 2508   3.648   6.002   1.909 -0.6571 -1.4458  0.3874
  794SOL    HW2 2509   3.606   5.963   1.769 -1.3144 -2.2146  0.7845
  795SOL     OW 2510   3.649   1.784   2.541 -0.6280  0.9702 -0.3307
  795SOL    HW1 2511   3.657   1.689   2.538 -0.5936  0.8810  1.0454
  795SOL    HW2 2512   3.735   1.817   2.516 -1.3629  0.8827 -3.9548
  796SOL     OW 2513   5.408   4.688   3.246  0.1860  0.3209 -0.3747
  796SOL    HW1 2514   5.385   4.686   3.339  0.8471  0.1010 -0.2054
  796SOL    HW2 2515   5.407   4.781   3.223  0.1512  0.3876 -0.1129
  797SOL     OW 2516   2.024   5.314   1.378  0.5091  0.4778  0.1946
  797SOL    HW1 2517   2.042   5.356   1.294  1.0985  0.2226  0.1858
  797SOL    HW2 2518   1.986   5.229   1.354  0.5845  0.4465  0.1837
  798SOL     OW 2519   0.698   6.364   2.650 -0.4021 -0.1929  0.2233
  798SOL    HW1 2520   0.723   6.306   2.578  0.6620  1.5733 -0.9778
  798SOL    HW2 2521   0.778   6.413   2.669 -1.4330  1.5329  0.4692
  799SOL     OW 2522   0.275   4.082   1.818  0.1990  0.0108 -0.2868
  799SOL    HW1 2523   0.189   4.070   1.860 -0.8592  0.7916 -1.9951
  799SOL    HW2 2524   0.303   3.993   1.796 -1.7713 -0.2769 -2.4055
  800SOL     OW 2525   3.375   0.510   1.170  0.5003  0.0705  0.3794
  800SOL    HW1 2526   3.286   0.505   1.136  1.0117  0.0092 -1.0772
  800SOL    HW2 2527   3.384   0.601   1.200  0.6492  0.8914 -1.8017
  801SOL     OW 2528   2.784   3.037   1.503 -0.5959  0.1748 -0.2753
  801SOL    HW1 2529   2.773   3.085   1.421 -1.4409 -0.3821 -0.5151
  801SOL    HW2 2530   2.875   3.052   1.528 -0.8624  2.0975 -0.1887
  802SOL     OW 2531   4.389   5.100   3.321  0.0954  1.0581  0.6948
  802SOL    HW1 2532   4.478   5.133   3.304  1.3487 -2.0565 -0.2009
  802SOL    HW2 2533   4.365   5.054   3.240 -0.5481 -1.4640  2.1163
  803SOL     OW 2534   2.072   1.086   3.676 -0.3357 -0.2971  0.2480
  803SOL    HW1 2535   2.031   1.004   3.649 -0.2012 -0.5257  0.7204
  803SOL    HW2 2536   2.014   1.122   3.743 -0.5662  0.1677 -0.1864
  804SOL     OW 2537   1.012   0.917   2.035 -0.7898 -0.7524  0.4588
  804SOL    HW1 2538   1.107   0.909   2.033 -0.6728  0.1629  0.9943
  804SOL    HW2 2539   0.991   0.973   1.961 -1.2757 -3.1430 -1.4514
  805SOL     OW 2540   6.301   0.030   4.176  0.1780  0.1184 -0.2318
  805SOL    HW1 2541   6.252  -0.007   4.250  0.3208  1.1999  0.4461
  805SOL    HW2 2542   6.393   0.020   4.200  0.2598 -0.3872 -0.7233
  806SOL     OW 2543   4.149   2.991   0.038 -0.0356 -0.4609  0.0368
  806SOL    HW1 2544   4.220   2.932   0.066 -0.5693 -2.4943 -2.1979
  806SOL    HW2 2545   4.070   2.954   0.078 -0.2211 -0.3364 -0.2126
  807SOL     OW 2546   0.825   4.148   3.820 -0.8671 -0.8567  0.6071
  807SOL    HW1 2547   0.815   4.140   3.915  1.6915  0.9439  1.2400
  807SOL    HW2 2548   0.764   4.217   3.795 -1.5006 -1.2825  0.9178
  808SOL     OW 2549   6.154   1.092   3.995 -0.1809 -0.8035 -0.7918
  808SOL    HW1 2550   6.180   1.093   3.903 -1.6770  0.1792 -1.2822
  808SOL    HW2 2551   6.194   1.170   4.032 -0.2209 -0.7646 -0.8297
  809SOL     OW 2552   5.512   2.675   3.604 -0.3888 -0.6517 -0.1206
  809SOL    HW1 2553   5.548   2.588   3.623 -1.1919 -1.2588 -1.1837
  809SOL    HW2 2554   5.522   2.723   3.686  1.4595 -1.2286  0.0777
  810SOL     OW 2555   1.251   5.949   0.842  0.5531 -0.2921 -0.0915
  810SOL    HW1 2556   1.320   6.015   0.853  0.9925 -0.3973 -1.7657
  810SOL    HW2 2557   1.202   5.978   0.766  1.0237 -2.0494 -1.1816
  811SOL     OW 2558   5.432   5.914   3.391 -0.0943  0.4653  0.3829
  811SOL    HW1 2559   5.411   5.827   3.424 -1.9479 -0.0329 -1.6557
  811SOL    HW2 2560   5.523   5.907   3.363  1.3256  0.6583  3.8877
  812SOL     OW 2561   4.385   3.910   4.066  0.1812  0.0133 -0.2964
  812SOL    HW1 2562   4.335   3.913   3.984  1.2944 -1.1364 -1.0927
  812SOL    HW2 2563   4.452   3.843   4.051  1.2734  0.6896  1.0884
  813SOL     OW 2564   3.054   6.265   4.155  0.2396 -0.4565 -0.3892
  813SOL    HW1 2565   3.079   6.180   4.118 -1.4363 -0.8222 -0.8161
  813SOL    HW2 2566   3.004   6.308   4.086 -0.7828 -0.0556  0.5407
  814SOL     OW 2567   0.055   1.844   2.462  0.5507  0.1344  0.0800
  814SOL    HW1 2568   0.007   1.807   2.535  2.8503 -0.8660  1.3179
  814SOL    HW2 2569   0.090   1.768   2.415  0.6756  0.7705 -0.9104
  815SOL     OW 2570   1.601   1.994   0.988 -0.5020  0.1528 -0.4083
  815SOL    HW1 2571   1.608   1.955   1.075  0.3293 -0.3375 -0.6728
  815SOL    HW2 2572   1.673   1.956   0.939 -0.4498  1.0465 -1.0777
  816SOL     OW 2573   4.209   2.217   3.930  0.6405  0.4954  0.0233
  816SOL    HW1 2574   4.277   2.231   3.863  0.4441  1.5881  0.0102
  816SOL    HW2 2575   4.256   2.224   4.013  1.1199 -2.0515  0.1151
  817SOL     OW 2576   1.180   2.309   2.656  0.6562 -0.4720  0.1814
  817SOL    HW1 2577   1.199   2.380   2.717 -0.9739 -0.3899  0.7010
  817SOL    HW2 2578   1.104   2.265   2.694 -0.8158 -0.1108 -1.9817
  818SOL     OW 2579   1.310   2.428   3.957 -0.0822  0.5733  0.5116
  818SOL    HW1 2580   1.405   2.431   3.954 -0.0650  0.3882  0.8038
  818SOL    HW2 2581   1.284   2.507   4.004 -0.0294  0.2333  1.1294
  819SOL     OW 2582   1.152   1.523   0.457 -1.1183  0.0793 -0.1328
  819SOL    HW1 2583   1.230   1.522   0.403  0.6969 -1.7330  2.1006
  819SOL    HW2 2584   1.145   1.614   0.487 -0.4795  0.4849 -1.1053
  820SOL     OW 2585   6.179   5.820   0.209  0.1322  0.2512  0.1091
  820SOL    HW1 2586   6.129   5.899   0.229 -0.1502  0.1835 -0.2919
  820SOL    HW2 2587   6.259   5.828   0.261 -0.7901 -0.2228  1.7106
  821SOL     OW 2588   2.037   0.363   3.199 -0.3517  0.0002  0.4195
  821SOL    HW1 2589   2.051   0.368   3.104 -1.4661  0.5486  0.2438
  821SOL    HW2 2590   2.124   0.351   3.236  0.1903  0.3946 -0.6412
  822SOL     OW 2591   3.056   3.047   1.556  0.3380  0.0615 -0.3091
  822SOL    HW1 2592   3.125   3.035   1.491  1.1227 -0.7946  0.6026
  822SOL    HW2 2593   3.091   3.113   1.616 -0.8630  1.7300 -1.2902
  823SOL     OW 2594   1.829   2.818   2.795  0.4251  0.2252  0.5006
  823SOL    HW1 2595   1.923   2.803   2.803  0.5812 -1.5266 -2.1960
  823SOL    HW2 2596   1.789   2.733   2.811 -0.9512  1.0534  2.2926
  824SOL     OW 2597   4.826   1.263   4.387  0.2673  0.6338  0.4820
  824SOL    HW1 2598   4.899   1.305   4.340  0.2743 -0.2054 -0.3152
  824SOL    HW2 2599   4.852   1.171   4.393 -0.4458  0.4435  0.7598
  825SOL     OW 2600   5.176   0.342   2.761  0.5211  0.0436 -0.0308
  825SOL    HW1 2601   5.171   0.428   2.802  1.4804  0.0922  0.0288
  825SOL    HW2 2602   5.256   0.345   2.708 -0.2423 -0.2941 -1.2847
  826SOL     OW 2603   4.581   2.296   2.254 -0.2632  0.3746  0.1889
  826SOL    HW1 2604   4.674   2.312   2.271 -0.2420  1.2914 -0.6286
  826SOL    HW2 2605   4.535   2.364   2.302 -0.5159 -0.0121  0.5044
  827SOL     OW 2606   0.396   2.333   3.535 -0.2195 -0.2040 -0.9409
  827SOL    HW1 2607   0.467   2.326   3.599 -0.2181  1.1859 -0.7283
  827SOL    HW2 2608   0.319   2.354   3.587 -0.6272 -0.8775 -1.2503
  828SOL     OW 2609   3.995   3.992   3.738  0.1146 -0.2917  0.2445
  828SOL    HW1 2610   4.026   4.027   3.655 -0.2577 -0.2434  0.1211
  828SOL    HW2 2611   3.951   4.066   3.781  0.1064 -0.3752  0.3833
  829SOL     OW 2612   0.046   3.451   3.863  0.3455  0.3541 -0.8819
  829SOL    HW1 2613  -0.033   3.489   3.824  0.4014  0.5357 -0.8214
  829SOL    HW2 2614   0.057   3.367   3.818  1.2087  1.1558 -2.3158
  830SOL     OW 2615   6.216   6.097   0.239  0.1565  0.1267 -0.0504
  830SOL    HW1 2616   6.258   6.087   0.153 -0.5645 -0.0752 -0.3957
  830SOL    HW2 2617   6.277   6.151   0.289  0.7885 -0.0924 -0.5494
  831SOL     OW 2618   2.374   4.849   0.315  0.4422 -0.3304  0.6595
  831SOL    HW1 2619   2.425   4.799   0.379  2.0796 -0.4238 -0.5730
  831SOL    HW2 2620   2.382   4.799   0.234 -0.7005  0.2813  0.1132
  832SOL     OW 2621   5.263   1.448   4.231 -0.1148 -0.3559  0.0358
  832SOL    HW1 2622   5.203   1.456   4.305  1.4922  1.4075  1.3490
  832SOL    HW2 2623   5.212   1.479   4.156 -1.1524  0.0677  0.8557
  833SOL     OW 2624   3.064   1.355   0.029 -0.2200 -0.2277 -0.0054
  833SOL    HW1 2625   3.092   1.445   0.010  1.4596 -0.7040 -0.0455
  833SOL    HW2 2626   3.005   1.333  -0.044 -0.7207  0.8296  0.0390
  834SOL     OW 2627   0.587   4.537   0.171  0.4483  0.6111 -0.1053
  834SOL    HW1 2628   0.594   4.568   0.081 -0.3407 -1.6856 -1.1239
  834SOL    HW2 2629   0.545   4.609   0.218  0.0392  1.5861 -1.7837
  835SOL     OW 2630   1.535   1.444   4.345  0.6367 -0.0662 -0.1059
  835SOL    HW1 2631   1.446   1.435   4.379  0.3958 -1.1789 -0.9300
  835SOL    HW2 2632   1.585   1.479   4.419 -0.2832 -0.3201  0.6802
  836SOL     OW 2633   0.970   1.980   3.844 -0.2122  0.4329  0.1406
  836SOL    HW1 2634   1.002   1.892   3.865  1.1540  0.9710  0.5404
  836SOL    HW2 2635   0.949   1.977   3.751  0.6959 -0.0865 -0.0636
  837SOL     OW 2636   2.368   5.613   3.642  0.0484 -0.5161 -0.3218
  837SOL    HW1 2637   2.282   5.574   3.629 -0.4835  0.6291 -0.4288
  837SOL    HW2 2638   2.369   5.689   3.585  1.2867 -0.6992 -0.6022
  838SOL     OW 2639   1.758   6.384   4.427 -0.4874 -0.4652  0.0412
  838SOL    HW1 2640   1.728   6.415   4.512  1.6229 -0.7150  0.9972
  838SOL    HW2 2641   1.827   6.320   4.447 -0.8024 -1.5529 -1.8741
  839SOL     OW 2642   1.317   1.342   1.792 -0.2403  0.4279  0.1110
  839SOL    HW1 2643   1.370   1.413   1.756  0.2127 -0.1546 -0.4181
  839SOL    HW2 2644   1.289   1.374   1.878 -0.5241  1.4617 -0.3379
  840SOL     OW 2645   1.537   2.803   2.996 -0.3508  0.2804 -0.4160
  840SOL    HW1 2646   1.444   2.783   2.986 -1.1000  2.6613  0.2766
  840SOL    HW2 2647   1.538   2.890   3.038  2.1572  1.1911 -1.9298
  841SOL     OW 2648   1.209   3.029   2.745 -0.1949 -0.3490 -0.3292
  841SOL    HW1 2649   1.120   2.998   2.728 -0.3549 -2.2882  2.5388
  841SOL    HW2 2650   1.261   2.996   2.672 -1.5803 -0.3985 -1.3748
  842SOL     OW 2651   0.509   6.256   0.320  0.0097 -0.1254 -0.2888
  842SOL    HW1 2652   0.505   6.186   0.386 -0.3898  1.0227  0.9953
  842SOL    HW2 2653   0.570   6.223   0.255  0.0852 -1.5357  0.4023
  843SOL     OW 2654   5.410   4.715   2.082  0.7431  0.6992 -0.1119
  843SOL    HW1 2655   5.486   4.677   2.039  0.4610  1.0006 -0.9206
  843SOL    HW2 2656   5.423   4.696   2.175  0.5871 -1.4451 -0.4200
  844SOL     OW 2657   2.691   6.367   1.152 -0.2740 -0.1817 -0.7251
  844SOL    HW1 2658   2.768   6.423   1.149 -0.3323 -0.1064 -0.8727
  844SOL    HW2 2659   2.649   6.388   1.235  0.2858 -0.7981 -0.2698
  845SOL     OW 2660   3.584   6.063   2.091 -0.0801  0.2562 -0.4281
  845SOL    HW1 2661   3.623   6.040   2.175 -0.6035  0.3034 -0.1648
  845SOL    HW2 2662   3.492   6.035   2.098  0.0409 -0.4493 -1.2587
  846SOL     OW 2663   3.682   0.233   0.268 -0.3500 -0.1292  0.4046
  846SOL    HW1 2664   3.718   0.217   0.181  0.2279  0.9773  0.4052
  846SOL    HW2 2665   3.743   0.294   0.309  0.6693 -2.2575  2.4907
  847SOL     OW 2666   5.061   6.091   1.715 -0.3057  0.0995 -0.1895
  847SOL    HW1 2667   5.050   6.000   1.686 -3.3501 -0.4249  1.6906
  847SOL    HW2 2668   5.005   6.142   1.655 -0.6466  0.2475  0.2421
  848SOL     OW 2669   4.384   4.628   1.337  0.2990  0.2628  0.0549
  848SOL    HW1 2670   4.320   4.669   1.279  0.0193 -1.9726 -1.4689
  848SOL    HW2 2671   4.337   4.616   1.420 -0.5230  0.5142 -0.3502
  849SOL     OW 2672   2.500   3.519   1.083  0.0668  0.1794  0.4902
  849SOL    HW1 2673   2.593   3.527   1.102 -0.2933 -0.4304  3.6276
  849SOL    HW2 2674   2.478   3.430   1.112 -1.3485 -0.2764 -1.5651
  850SOL     OW 2675   4.572   3.989   2.588 -0.1536  0.4721 -0.1884
  850SOL    HW1 2676   4.519   3.996   2.668 -1.2164 -1.2727 -0.6414
  850SOL    HW2 2677   4.656   4.028   2.612  0.4370 -1.8582  2.6072
  851SOL     OW 2678   4.386   0.923   1.674  0.1406 -0.0938 -0.1466
  851SOL    HW1 2679   4.416   0.923   1.765  1.6179  0.4877 -0.5624
  851SOL    HW2 2680   4.310   0.981   1.673 -0.7038 -1.0822  0.8794
  852SOL     OW 2681   2.670   5.431   1.161 -0.1196  0.4852  0.2317
  852SOL    HW1 2682   2.744   5.477   1.121 -1.8640  3.2522 -0.4060
  852SOL    HW2 2683   2.683   5.443   1.256  0.9996 -0.6423  0.2707
  853SOL     OW 2684   1.644   3.397   2.117  0.1526 -0.0909 -0.2902
  853SOL    HW1 2685   1.637   3.358   2.204 -1.8027 -0.2885 -0.4455
  853SOL    HW2 2686   1.604   3.332   2.059  1.0904  0.1906 -1.3271
  854SOL     OW 2687   2.920   5.560   0.731 -0.0154 -0.2594  0.3927
  854SOL    HW1 2688   2.842   5.533   0.682 -1.1247 -0.0402  1.8937
  854SOL    HW2 2689   2.973   5.607   0.667 -1.2228 -0.2078 -0.6601
  855SOL     OW 2690   1.014   6.248   0.108 -0.2931  0.6778  0.2304
  855SOL    HW1 2691   1.055   6.330   0.134 -3.3329  2.1741  1.3396
  855SOL    HW2 2692   1.028   6.189   0.183 -1.0179  1.5534  1.1041
  856SOL     OW 2693   2.656   0.969   1.755 -0.2857 -0.4091 -0.1019
  856SOL    HW1 2694   2.665   1.027   1.830 -0.8530  1.7932 -1.5303
  856SOL    HW2 2695   2.636   1.028   1.682 -0.3191 -2.4071 -1.8986
  857SOL     OW 2696   4.630   0.789   1.087  0.7196  0.5054  0.2742
  857SOL    HW1 2697   4.707   0.755   1.042  0.2720  0.6354 -0.6231
  857SOL    HW2 2698   4.561   0.789   1.021  0.0429  0.7602  0.9481
  858SOL     OW 2699   6.412   4.313   3.768  0.2102  0.0790  0.6987
  858SOL    HW1 2700   6.415   4.396   3.816  0.6414 -0.0777  0.9589
  858SOL    HW2 2701   6.319   4.288   3.769  0.2179  0.0020  1.6115
  859SOL     OW 2702   0.650   1.289   3.537 -0.2546  0.5212 -0.3373
  859SOL    HW1 2703   0.597   1.212   3.560  1.4377 -0.8117 -0.5060
  859SOL    HW2 2704   0.638   1.349   3.612 -0.4764 -0.5675  0.5558
  860SOL     OW 2705   4.119   1.203   2.535 -0.2126 -0.0189  0.2267
  860SOL    HW1 2706   4.049   1.229   2.474  1.2736 -0.1214 -1.7314
  860SOL    HW2 2707   4.158   1.285   2.563 -0.8318  0.0236  1.0485
  861SOL     OW 2708   5.134   4.912   0.603  0.2393  0.0823  0.2413
  861SOL    HW1 2709   5.082   4.833   0.616  1.5112 -0.5880  2.4254
  861SOL    HW2 2710   5.159   4.938   0.692 -0.6440  3.4329 -0.2258
  862SOL     OW 2711   2.451   2.993   1.132 -0.3997 -0.3524  0.3262
  862SOL    HW1 2712   2.514   3.003   1.061  0.8091 -1.6536  1.1013
  862SOL    HW2 2713   2.455   3.075   1.180 -0.9723  0.4125 -0.8422
  863SOL     OW 2714   2.958   6.193   0.610  0.1225  0.0772  0.0275
  863SOL    HW1 2715   2.946   6.285   0.587  1.4341  0.2726 -0.0402
  863SOL    HW2 2716   3.050   6.187   0.639  0.2888 -1.3322 -0.6031
  864SOL     OW 2717   1.019   3.729   3.807 -0.5260 -0.7922 -0.5814
  864SOL    HW1 2718   0.944   3.731   3.866  0.5014  0.2563  0.8284
  864SOL    HW2 2719   1.028   3.819   3.775 -0.9587 -1.2929 -2.3250
  865SOL     OW 2720   3.499   4.861   0.765  0.2836 -0.4064  0.1728
  865SOL    HW1 2721   3.516   4.924   0.695 -0.2265  0.3835  0.7295
  865SOL    HW2 2722   3.413   4.885   0.800  0.6220 -0.6114  1.2281
  866SOL     OW 2723   4.364   2.549   2.063  0.0571  0.0208  0.0896
  866SOL    HW1 2724   4.272   2.534   2.084 -0.0007 -0.1455 -0.2785
  866SOL    HW2 2725   4.392   2.470   2.015  0.2187  0.3341 -0.3462
  867SOL     OW 2726   5.511   4.411   0.738 -0.1274  0.0041 -0.6405
  867SOL    HW1 2727   5.509   4.438   0.830 -1.2884 -0.5721 -0.4684
  867SOL    HW2 2728   5.565   4.478   0.695  1.8528 -0.5446  0.6866
  868SOL     OW 2729   2.579   2.030   4.150 -0.7872 -0.2076 -0.0612
  868SOL    HW1 2730   2.492   1.991   4.142 -1.0110  0.0634  0.8279
  868SOL    HW2 2731   2.581   2.065   4.239  0.5624 -1.0332  0.2912
  869SOL     OW 2732   1.147   6.324   1.457  0.1362  0.3137  0.3728
  869SOL    HW1 2733   1.224   6.282   1.420 -0.7043 -2.6274  1.4053
  869SOL    HW2 2734   1.150   6.414   1.425  3.9467  0.4875  0.3882
  870SOL     OW 2735   3.770   2.648   1.367  0.3145 -0.2043 -0.2364
  870SOL    HW1 2736   3.788   2.554   1.367  0.8343 -0.1077 -0.2356
  870SOL    HW2 2737   3.782   2.675   1.458 -1.4210 -0.4115  0.1269
  871SOL     OW 2738   6.283   2.265   1.966 -0.0633 -0.3626  0.0707
  871SOL    HW1 2739   6.198   2.245   1.925  0.4493  0.1215 -1.3534
  871SOL    HW2 2740   6.312   2.181   2.002 -1.1472 -0.5278  0.6327
  872SOL     OW 2741   5.244   1.635   3.774 -0.5540 -0.4357 -0.2851
  872SOL    HW1 2742   5.326   1.589   3.755 -0.6992 -1.0714  0.5353
  872SOL    HW2 2743   5.267   1.698   3.843 -0.4285  0.5549 -1.1755
  873SOL     OW 2744   2.516   1.978   2.889 -0.6259 -0.1582 -0.2763
  873SOL    HW1 2745   2.564   1.943   2.964 -1.6419 -0.3326  0.3353
  873SOL    HW2 2746   2.556   2.063   2.872 -1.2533  0.5726  1.4339
  874SOL     OW 2747   1.773   4.353   1.627 -0.4204  0.4607 -0.2529
  874SOL    HW1 2748   1.848   4.412   1.619  1.0249 -0.9124  1.4209
  874SOL    HW2 2749   1.794   4.280   1.569  0.3732 -0.5753  1.2058
  875SOL     OW 2750   2.214   1.050   2.192 -0.3675 -0.1651 -0.8970
  875SOL    HW1 2751   2.196   0.965   2.151  0.5129 -1.7824  1.5774
  875SOL    HW2 2752   2.307   1.066   2.174  0.0387 -0.9124  0.2896
  876SOL     OW 2753   3.388   1.223   1.832 -0.4575  0.5118 -1.2109
  876SOL    HW1 2754   3.357   1.247   1.919 -0.6246 -2.5200 -0.2167
  876SOL    HW2 2755   3.399   1.307   1.786  0.8323  2.4630  2.0180
  877SOL     OW 2756   5.426   3.437   2.260 -0.0277  0.1119  0.0781
  877SOL    HW1 2757   5.488   3.444   2.187 -0.6444  0.7124 -0.4106
  877SOL    HW2 2758   5.350   3.487   2.232 -0.8498 -0.8010  0.5502
  878SOL     OW 2759   5.031   1.951   3.556  0.1830 -0.1395  0.3545
  878SOL    HW1 2760   5.106   2.002   3.586  0.5181 -0.1489 -0.4063
  878SOL    HW2 2761   5.067   1.865   3.534 -0.3540 -0.6966  1.5032
  879SOL     OW 2762   4.383   2.385   1.444  0.0451 -0.1184 -0.3391
  879SOL    HW1 2763   4.294   2.389   1.409 -0.5497  0.6216  1.0577
  879SOL    HW2 2764   4.423   2.468   1.419  0.3811 -0.4721 -1.0096
  880SOL     OW 2765   5.226   1.512   2.134 -0.3969  0.0482 -0.4331
  880SOL    HW1 2766   5.291   1.443   2.120 -1.7793 -2.1474  2.1106
  880SOL    HW2 2767   5.269   1.574   2.192 -0.2535 -1.1953  0.9364
  881SOL     OW 2768   0.301   1.969   0.067 -0.1257  0.1120  0.8377
  881SOL    HW1 2769   0.377   2.024   0.086  0.3346  0.2340 -0.9934
  881SOL    HW2 2770   0.304   1.956  -0.027 -1.6964 -0.9386  0.8613
  882SOL     OW 2771   4.229   0.992   1.942  0.1315 -0.7953  0.6706
  882SOL    HW1 2772   4.275   0.947   2.013  2.9498 -0.9523 -0.9775
  882SOL    HW2 2773   4.245   1.085   1.958 -0.7742 -0.6784  1.0656
  883SOL     OW 2774   1.536   5.013   1.227 -0.2028 -0.1324  0.8002
  883SOL    HW1 2775   1.510   5.095   1.186 -0.0118  0.3119  1.5400
  883SOL    HW2 2776   1.611   4.984   1.175 -2.1961 -1.7049 -1.7183
  884SOL     OW 2777   2.550   5.319   0.094  0.1799 -0.1895  0.2103
  884SOL    HW1 2778   2.467   5.365   0.088  0.5542  0.8409  1.7950
  884SOL    HW2 2779   2.527   5.233   0.130 -0.2116  0.1217  0.7287
  885SOL     OW 2780   5.936   0.950   2.861  0.5246  0.3106  0.0366
  885SOL    HW1 2781   5.902   0.909   2.940  0.6766  0.7903  0.3604
  885SOL    HW2 2782   5.895   1.037   2.859 -1.8413 -0.6053 -1.9664
  886SOL     OW 2783   5.560   1.394   2.542 -0.3950  0.2225 -0.1279
  886SOL    HW1 2784   5.652   1.413   2.521  0.1090 -1.8778 -0.3334
  886SOL    HW2 2785   5.512   1.471   2.512  1.2770  1.5175  0.1673
  887SOL     OW 2786   0.528   4.649   4.210 -0.0247  0.0809 -0.3938
  887SOL    HW1 2787   0.560   4.598   4.285  0.4162  2.6109  1.4139
  887SOL    HW2 2788   0.433   4.649   4.220 -0.3009 -2.0888 -1.8488
  888SOL     OW 2789   1.673   1.683   0.527 -0.2222 -0.3241 -0.2769
  888SOL    HW1 2790   1.711   1.768   0.501 -1.2977  0.3266  0.1622
  888SOL    HW2 2791   1.736   1.618   0.495  0.4395  0.6143 -0.9852
  889SOL     OW 2792   4.540   3.331   2.866 -0.4633 -0.0446  0.7223
  889SOL    HW1 2793   4.555   3.410   2.917 -0.3470  0.4956 -0.0961
  889SOL    HW2 2794   4.628   3.298   2.846 -0.5024 -0.1795  0.7739
  890SOL     OW 2795   5.995   4.505   0.243 -0.3487 -0.7482  0.4763
  890SOL    HW1 2796   5.996   4.431   0.183 -1.4615 -0.5221  0.1335
  890SOL    HW2 2797   5.962   4.469   0.326  1.6314 -1.1663  1.1913
  891SOL     OW 2798   4.082   2.655   0.905  0.4450 -0.3606 -0.5403
  891SOL    HW1 2799   4.065   2.681   0.995  1.1530 -1.7024  0.0446
  891SOL    HW2 2800   4.163   2.603   0.910  1.5095  0.9060 -2.2187
  892SOL     OW 2801   5.945   4.467   4.401 -0.5286 -0.2264 -0.1034
  892SOL    HW1 2802   5.984   4.381   4.387  0.1737  0.3340 -2.3552
  892SOL    HW2 2803   5.851   4.449   4.404 -0.4174 -1.0708 -0.7523
  893SOL     OW 2804   0.489   3.562   1.298  0.3434  0.0434 -0.1554
  893SOL    HW1 2805   0.396   3.545   1.283  0.3381 -0.6718  0.5725
  893SOL    HW2 2806   0.490   3.631   1.365  0.3636  0.7668 -0.8651
  894SOL     OW 2807   4.701   1.690   3.113 -0.2037  0.1812 -0.2739
  894SOL    HW1 2808   4.639   1.625   3.146 -0.0422 -0.4302 -1.1222
  894SOL    HW2 2809   4.785   1.667   3.154 -0.0279 -0.5039 -0.9752
  895SOL     OW 2810   2.477   1.259   2.508 -0.0064  0.5926  0.4440
  895SOL    HW1 2811   2.502   1.177   2.467  0.1702  0.7747  0.1790
  895SOL    HW2 2812   2.531   1.325   2.464 -1.1846  1.0600 -0.4117
  896SOL     OW 2813   1.364   3.489   0.909  0.1683  0.1358  0.7200
  896SOL    HW1 2814   1.383   3.474   1.001  1.7647  0.7069  0.5460
  896SOL    HW2 2815   1.382   3.582   0.895 -1.7864  0.5258  0.1566
  897SOL     OW 2816   4.055   0.885   0.325  0.1200  0.0967 -0.3901
  897SOL    HW1 2817   4.041   0.980   0.334  1.7655  0.2773  1.6590
  897SOL    HW2 2818   3.980   0.846   0.370  0.2329  0.5068  0.1698
  898SOL     OW 2819   5.753   3.514   3.575 -0.3958 -0.1171 -0.1999
  898SOL    HW1 2820   5.788   3.439   3.527 -0.6041 -0.4890  0.2091
  898SOL    HW2 2821   5.814   3.525   3.648 -0.3279  0.1585 -0.2971
  899SOL     OW 2822   4.290   2.931   2.108  0.0118 -0.5008  0.4173
  899SOL    HW1 2823   4.378   2.899   2.126 -0.4498 -1.2924  1.4456
  899SOL    HW2 2824   4.304   3.013   2.060  1.3797  0.5974  2.4007
  900SOL     OW 2825   2.098   4.416   3.110  0.0499 -0.4035 -0.0256
  900SOL    HW1 2826   2.007   4.388   3.103 -0.1528  0.4066 -1.1376
  900SOL    HW2 2827   2.094   4.499   3.158  0.4614 -1.2883  1.7000
  901SOL     OW 2828   5.015   2.575   4.443  0.1808  0.5771 -0.2263
  901SOL    HW1 2829   5.031   2.603   4.533 -0.1751  1.3497 -0.3861
  901SOL    HW2 2830   5.087   2.612   4.393  2.2291 -2.3623  0.0650
  902SOL     OW 2831   2.521   4.942   0.885 -0.0675 -0.2059 -0.0390
  902SOL    HW1 2832   2.520   5.026   0.931 -0.0180 -0.0360 -0.3428
  902SOL    HW2 2833   2.545   4.965   0.795 -0.4677 -0.4936 -0.2244
  903SOL     OW 2834   6.324   2.693   3.542  0.5863 -0.3071 -0.2339
  903SOL    HW1 2835   6.342   2.655   3.456  0.4672  1.6194 -1.1984
  903SOL    HW2 2836   6.314   2.617   3.600  1.3738 -1.6771 -1.7433
  904SOL     OW 2837   0.989   2.356   1.711  0.1440  0.1451  0.1667
  904SOL    HW1 2838   1.038   2.431   1.678 -1.6717  0.9562 -0.9735
  904SOL    HW2 2839   1.008   2.355   1.805  0.2980  1.9987  0.2258
  905SOL     OW 2840   1.259   0.087   2.296  0.3021 -0.3084 -0.0493
  905SOL    HW1 2841   1.316   0.018   2.260  1.6378  0.8455 -0.3578
  905SOL    HW2 2842   1.319   0.159   2.313 -1.1760  1.3648 -1.2253
  906SOL     OW 2843   6.193   3.937   3.268  0.0596 -0.3302  0.1682
  906SOL    HW1 2844   6.270   3.892   3.233  1.5622  1.4134  0.8932
  906SOL    HW2 2845   6.150   3.974   3.191  1.8808  1.3612 -0.2073
  907SOL     OW 2846   2.916   0.777   0.020 -0.1727 -0.2660  0.3395
  907SOL    HW1 2847   2.937   0.683   0.017 -0.6145 -0.4303  1.3889
  907SOL    HW2 2848   2.942   0.804   0.108 -0.5603  0.4748  0.2379
  908SOL     OW 2849   6.116   4.133   3.443 -0.4648 -0.6929 -0.4078
  908SOL    HW1 2850   6.134   4.097   3.356  1.9585  1.1946 -0.8869
  908SOL    HW2 2851   6.188   4.102   3.497 -0.9707 -0.4089  0.4722
  909SOL     OW 2852   2.368   1.779   3.625  0.4132  0.0509  0.2400
  909SOL    HW1 2853   2.327   1.820   3.702 -0.2388  0.7480 -0.4429
  909SOL    HW2 2854   2.365   1.685   3.643  0.0507  0.1860  0.9580
  910SOL     OW 2855   0.375   2.443   1.020 -0.3467 -0.5278  0.4957
  910SOL    HW1 2856   0.379   2.538   1.011 -0.0940 -0.3750  1.8513
  910SOL    HW2 2857   0.467   2.416   1.030  0.1229 -1.4445 -3.2648
  911SOL     OW 2858   3.676   0.724   3.595 -0.0146  0.3374 -0.4210
  911SOL    HW1 2859   3.598   0.780   3.592 -1.0243 -0.8871  0.5844
  911SOL    HW2 2860   3.711   0.736   3.683  0.1618 -0.0873 -0.4295
  912SOL     OW 2861   5.003   0.246   0.669  0.7132  0.1868 -0.2842
  912SOL    HW1 2862   5.034   0.198   0.593  1.5602 -0.8276  0.6454
  912SOL    HW2 2863   4.932   0.193   0.704 -0.7217  1.3912 -1.1335
  913SOL     OW 2864   2.268   2.829   4.338  0.6402 -0.3994  0.1628
  913SOL    HW1 2865   2.279   2.788   4.424  0.4470 -4.1206 -1.2090
  913SOL    HW2 2866   2.258   2.922   4.356  0.5656 -0.8641  4.1019
  914SOL     OW 2867   4.943   0.013   4.147  0.7680 -0.6639  0.0991
  914SOL    HW1 2868   5.009   0.077   4.173  1.3271 -1.3690  0.4895
  914SOL    HW2 2869   4.993  -0.060   4.110  0.0816 -0.3668 -1.5799
  915SOL     OW 2870   5.525   4.519   2.275 -0.0953  0.2328 -0.2877
  915SOL    HW1 2871   5.618   4.515   2.254 -0.1796  1.5627 -1.1413
  915SOL    HW2 2872   5.483   4.460   2.213  0.1902 -0.9987  0.6143
  916SOL     OW 2873   4.996   2.310   4.413 -0.3927  0.0229  0.3071
  916SOL    HW1 2874   4.982   2.300   4.319  2.8210 -0.6031 -0.3629
  916SOL    HW2 2875   4.990   2.405   4.428 -0.7207  0.1591 -0.5746
  917SOL     OW 2876   4.077   4.050   0.832  0.2030 -0.1718 -0.0627
  917SOL    HW1 2877   4.136   4.108   0.880  0.5446 -0.2457 -0.3819
  917SOL    HW2 2878   4.014   4.108   0.789 -0.4289 -0.1295  0.8741
  918SOL     OW 2879   1.580   4.973   1.883  0.3465 -0.2626  0.4634
  918SOL    HW1 2880   1.591   5.045   1.822  1.2627  0.7239  1.6844
  918SOL    HW2 2881   1.536   4.905   1.832 -0.5745  1.1278 -0.7557
  919SOL     OW 2882   1.692   4.731   2.205  0.1745 -0.2445  0.2035
  919SOL    HW1 2883   1.628   4.686   2.260 -1.5626  1.6386 -0.0348
  919SOL    HW2 2884   1.726   4.663   2.147 -1.5717 -1.4149  0.4107
  920SOL     OW 2885   2.670   1.756   4.088 -0.3343 -0.5806  0.7324
  920SOL    HW1 2886   2.714   1.768   4.004 -1.3993 -1.2682  0.0292
  920SOL    HW2 2887   2.638   1.843   4.111 -0.5983 -0.4888  0.0720
  921SOL     OW 2888   6.415   5.606   1.344 -0.3973  0.0751  0.7056
  921SOL    HW1 2889   6.496   5.656   1.356 -0.4403 -0.0610  1.7235
  921SOL    HW2 2890   6.414   5.544   1.417 -0.8979 -0.6691  0.1052
  922SOL     OW 2891   1.370   3.984   0.299 -0.0648  0.3979  0.0054
  922SOL    HW1 2892   1.444   4.010   0.354 -0.3891  1.2729  0.0499
  922SOL    HW2 2893   1.407   3.918   0.240  0.3879 -0.2881  0.9844
  923SOL     OW 2894   6.241   0.012   2.326 -0.1433  0.6044  0.2271
  923SOL    HW1 2895   6.304   0.039   2.394 -0.6411  0.2342  0.8613
  923SOL    HW2 2896   6.191  -0.059   2.367 -1.4408  1.3314  0.0061
  924SOL     OW 2897   6.078   0.495   1.195 -0.6448 -0.5763  0.0873
  924SOL    HW1 2898   6.074   0.400   1.183  0.6173 -0.7581  0.8343
  924SOL    HW2 2899   6.125   0.507   1.277 -2.0809  0.6994  0.8083
  925SOL     OW 2900   3.215   4.025   2.413  0.1649  0.3582  0.0646
  925SOL    HW1 2901   3.163   3.965   2.360 -0.4051  0.9645 -0.0858
  925SOL    HW2 2902   3.301   3.983   2.419  0.4880  0.5758 -1.9104
  926SOL     OW 2903   1.400   6.070   0.504 -0.0273  0.6927  0.7763
  926SOL    HW1 2904   1.422   6.090   0.595  0.2049  0.4231  0.7835
  926SOL    HW2 2905   1.476   6.022   0.472 -0.3578  0.2660  0.6192
  927SOL     OW 2906   3.159   3.064   0.282  0.1339  0.9655 -0.0011
  927SOL    HW1 2907   3.205   3.011   0.348  0.5284  0.3874 -0.7092
  927SOL    HW2 2908   3.098   3.118   0.333 -0.6599 -0.5120  0.7499
  928SOL     OW 2909   3.884   2.395   4.313  0.2980  0.1779 -0.3714
  928SOL    HW1 2910   3.951   2.405   4.381 -1.5694 -0.6007  1.8515
  928SOL    HW2 2911   3.855   2.484   4.295  0.6449  0.3877  0.0631
  929SOL     OW 2912   6.264   2.555   3.306  0.2075  0.4385  0.2611
  929SOL    HW1 2913   6.255   2.542   3.212  1.8607  1.1625 -0.0665
  929SOL    HW2 2914   6.181   2.593   3.333 -0.4783 -0.2029 -0.7915
  930SOL     OW 2915   3.118   2.895   4.490  0.5190 -0.0675 -0.4157
  930SOL    HW1 2916   3.024   2.896   4.473  0.5902  0.2888 -0.8013
  930SOL    HW2 2917   3.151   2.821   4.440  0.3225 -0.7973  0.4677
  931SOL     OW 2918   6.087   3.052   0.134  0.2606 -0.1964 -0.1686
  931SOL    HW1 2919   6.171   3.025   0.173  2.1499  3.3597 -0.9140
  931SOL    HW2 2920   6.044   3.102   0.203 -1.4560 -1.9250  0.1809
  932SOL     OW 2921   0.899   2.576   3.811  0.0994 -0.3777  0.3566
  932SOL    HW1 2922   0.985   2.617   3.805  0.3683 -0.6767  1.6585
  932SOL    HW2 2923   0.845   2.627   3.751  0.7678  0.9344  0.7739
  933SOL     OW 2924   5.780   2.802   0.116  0.4443  0.2843  0.9621
  933SOL    HW1 2925   5.751   2.711   0.124 -0.5685  0.6585  3.0344
  933SOL    HW2 2926   5.873   2.800   0.138  1.6616 -0.5462 -2.7695
  934SOL     OW 2927   4.619   4.696   2.707 -0.1177 -0.8182  0.4732
  934SOL    HW1 2928   4.572   4.656   2.633  0.9071 -0.4995 -0.4005
  934SOL    HW2 2929   4.660   4.622   2.752  1.6904 -0.9338 -1.0738
  935SOL     OW 2930   1.325   2.599   1.096 -0.0888 -0.0250  0.3492
  935SOL    HW1 2931   1.380   2.662   1.051 -0.0175 -0.9299 -0.9387
  935SOL    HW2 2932   1.316   2.526   1.034  0.6680 -1.7729  2.0594
  936SOL     OW 2933   1.834   6.132   0.260 -0.5042 -0.1541  0.3679
  936SOL    HW1 2934   1.888   6.190   0.206 -0.6881 -0.5513 -0.2545
  936SOL    HW2 2935   1.749   6.131   0.216 -0.2711 -1.5737 -0.1642
  937SOL     OW 2936   2.850   2.343   2.078 -0.1317  0.2387  0.0995
  937SOL    HW1 2937   2.886   2.273   2.133  1.0104  0.5029 -0.2533
  937SOL    HW2 2938   2.879   2.424   2.120 -1.9001  0.5929  0.8154
  938SOL     OW 2939   4.044   5.389   3.996 -0.1069  0.3740 -0.4445
  938SOL    HW1 2940   4.001   5.474   3.987  0.9655  0.8925 -1.1542
  938SOL    HW2 2941   4.010   5.336   3.923  0.3385  0.7420 -0.9349
  939SOL     OW 2942   1.290   5.822   3.712  0.8347 -0.4725  0.1567
  939SOL    HW1 2943   1.212   5.792   3.758 -2.4676 -0.0666 -4.0427
  939SOL    HW2 2944   1.338   5.742   3.691 -1.5765 -1.7665 -1.3778
  940SOL     OW 2945   0.779   0.282   1.038 -0.4690  0.2810 -0.1487
  940SOL    HW1 2946   0.724   0.345   1.085  1.5690  0.1710  2.9755
  940SOL    HW2 2947   0.737   0.197   1.054 -0.3093  0.3551  0.7886
  941SOL     OW 2948   6.373   1.240   2.440 -0.4142 -0.0032 -0.0336
  941SOL    HW1 2949   6.423   1.257   2.360 -0.7494 -1.0024 -0.4958
  941SOL    HW2 2950   6.440   1.227   2.508  0.1938 -2.6920 -0.9103
  942SOL     OW 2951   1.443   3.314   2.526 -0.3201 -0.3387 -0.0386
  942SOL    HW1 2952   1.516   3.282   2.579 -2.1439 -2.2334  1.7120
  942SOL    HW2 2953   1.468   3.294   2.436  0.0572 -4.6206  0.5997
  943SOL     OW 2954   2.937   4.982   3.247  0.1752  0.1306 -0.5766
  943SOL    HW1 2955   2.954   4.918   3.178 -0.4900 -0.0570 -0.5836
  943SOL    HW2 2956   2.994   4.956   3.319 -1.2106 -1.5312  0.0653
  944SOL     OW 2957   3.742   1.120   1.626 -0.3885 -0.1809 -0.4968
  944SOL    HW1 2958   3.665   1.100   1.574  0.5389 -2.7564 -1.2116
  944SOL    HW2 2959   3.710   1.122   1.716 -1.8165  3.1934 -0.7688
  945SOL     OW 2960   4.484   3.106   4.432  0.4466 -0.3411 -0.2240
  945SOL    HW1 2961   4.440   3.057   4.362  1.5658 -1.2308 -0.3571
  945SOL    HW2 2962   4.418   3.168   4.462 -0.2590 -0.2829 -1.7011
  946SOL     OW 2963   1.873   4.170   4.497 -0.0202 -0.5881  0.0660
  946SOL    HW1 2964   1.936   4.172   4.425 -0.7705 -0.6808 -0.6196
  946SOL    HW2 2965   1.926   4.157   4.575  0.9823  1.0054 -0.2589
  947SOL     OW 2966   3.995   5.814   1.233  0.1983  0.0221  0.2787
  947SOL    HW1 2967   3.982   5.722   1.209  1.2201  0.0948 -0.7588
  947SOL    HW2 2968   4.058   5.846   1.169 -0.3002  1.5280  0.4711
  948SOL     OW 2969   3.766   2.862   2.868 -0.0156  0.3623 -0.6466
  948SOL    HW1 2970   3.818   2.943   2.868  1.3322 -0.2375 -3.4007
  948SOL    HW2 2971   3.809   2.806   2.933 -0.1639  1.3578  0.3734
  949SOL     OW 2972   0.835   4.149   0.589  0.2074 -0.1651  0.1957
  949SOL    HW1 2973   0.789   4.137   0.506  0.7446 -1.2128  0.0232
  949SOL    HW2 2974   0.788   4.221   0.631 -0.3799  0.0762 -0.7942
  950SOL     OW 2975   0.276   4.698   1.034 -0.3748  0.1793  0.2249
  950SOL    HW1 2976   0.255   4.615   0.992 -0.4607  0.4987 -0.3965
  950SOL    HW2 2977   0.278   4.678   1.128 -1.4257 -0.2983  0.1732
  951SOL     OW 2978   2.712   3.984   2.003  0.0448 -0.6877 -0.1102
  951SOL    HW1 2979   2.765   3.918   2.046  0.0364  0.2843  1.5843
  951SOL    HW2 2980   2.665   3.937   1.934 -0.5778 -2.6426  1.4729
  952SOL     OW 2981   0.863   4.443   3.776 -0.4540 -0.2331 -0.0943
  952SOL    HW1 2982   0.911   4.466   3.856 -0.5386  0.0998 -0.1387
  952SOL    HW2 2983   0.784   4.496   3.779 -0.9842 -1.0032  0.1344
  953SOL     OW 2984   0.272   5.845   3.227 -0.1095 -0.1646 -0.0071
  953SOL    HW1 2985   0.187   5.889   3.220 -0.4372 -0.0402  2.6107
  953SOL    HW2 2986   0.332   5.912   3.259  0.2334 -0.8079  0.7950
  954SOL     OW 2987   1.803   1.906   0.438 -0.0322  0.7242 -0.5971
  954SOL    HW1 2988   1.887   1.947   0.420 -1.1910  3.4227 -0.7780
  954SOL    HW2 2989   1.759   1.965   0.499 -1.2971 -1.3603  0.7891
  955SOL     OW 2990   2.545   2.615   1.138  0.0636 -0.4283 -0.6428
  955SOL    HW1 2991   2.502   2.620   1.053 -2.7653  0.3424  0.5730
  955SOL    HW2 2992   2.576   2.524   1.144  0.0347 -0.6096 -2.2929
  956SOL     OW 2993   5.962   0.293   4.376  0.1094 -0.1906 -0.3992
  956SOL    HW1 2994   6.039   0.259   4.331 -0.7527 -0.7893 -1.5440
  956SOL    HW2 2995   5.904   0.217   4.385 -0.0433  0.0462  1.2051
  957SOL     OW 2996   0.416   5.851   4.093 -0.4136  0.0995 -0.2465
  957SOL    HW1 2997   0.478   5.780   4.111 -1.8126 -1.1704 -0.0633
  957SOL    HW2 2998   0.439   5.880   4.005 -0.6637 -1.6227 -0.9581
  958SOL     OW 2999   4.067   4.728   0.710  0.3677  0.2800  0.1582
  958SOL    HW1 3000   3.986   4.704   0.664 -0.0481  0.9851  0.4777
  958SOL    HW2 3001   4.109   4.792   0.653 -0.5893  1.8341  1.0582
  959SOL     OW 3002   4.211   4.265   0.911 -0.0057 -0.1182  0.3455
  959SOL    HW1 3003   4.184   4.324   0.981 -0.5239 -0.2754  0.2901
  959SOL    HW2 3004   4.294   4.229   0.941 -0.9361 -1.3947  1.6682
  960SOL     OW 3005   4.416   0.604   1.991  0.0133 -0.1674  0.0266
  960SOL    HW1 3006   4.440   0.516   2.020 -1.3135  0.0143  2.1821
  960SOL    HW2 3007   4.439   0.607   1.898  2.4084 -1.8854  0.3954
  961SOL     OW 3008   3.135   3.336   2.981 -0.4197 -0.5232 -0.0324
  961SOL    HW1 3009   3.175   3.409   2.934 -1.9625  0.4007 -0.0399
  961SOL    HW2 3010   3.053   3.372   3.016 -0.5294 -1.8554  1.2679
  962SOL     OW 3011   3.566   0.374   1.989 -0.5113  0.0231 -0.4631
  962SOL    HW1 3012   3.614   0.446   1.948 -0.9797  0.8480  0.3591
  962SOL    HW2 3013   3.547   0.314   1.918 -1.0962  1.2640 -1.4270
  963SOL     OW 3014   0.644   4.163   3.001  0.0565  0.2350 -0.0713
  963SOL    HW1 3015   0.686   4.171   2.915  1.1607  1.6854  0.5208
  963SOL    HW2 3016   0.674   4.079   3.034 -2.8773 -2.0638 -2.1772
  964SOL     OW 3017   2.775   0.135   4.474  0.4216 -0.0153 -0.1718
  964SOL    HW1 3018   2.701   0.121   4.533  2.0694 -1.8659  1.7140
  964SOL    HW2 3019   2.779   0.055   4.421  0.8087  0.2969 -0.6331
  965SOL     OW 3020   0.633   5.469   2.184  0.1996  0.8824 -0.2223
  965SOL    HW1 3021   0.672   5.383   2.168  2.2231  1.7525 -0.5895
  965SOL    HW2 3022   0.664   5.523   2.112  0.7262  2.3831  1.0293
  966SOL     OW 3023   3.268   4.092   4.504  0.3447 -0.1946  0.2458
  966SOL    HW1 3024   3.180   4.098   4.542  1.3908  1.5530  3.0730
  966SOL    HW2 3025   3.271   4.006   4.462 -2.3781 -0.7352  0.7982
  967SOL     OW 3026   4.218   6.315   0.296  0.4544 -0.0110 -0.3909
  967SOL    HW1 3027   4.170   6.384   0.250 -1.0043 -2.1013 -2.4601
  967SOL    HW2 3028   4.287   6.288   0.235  0.0854 -1.2437 -0.3141
  968SOL     OW 3029   2.984   3.234   0.431 -0.0044 -0.1745  0.1178
  968SOL    HW1 3030   2.906   3.199   0.473 -1.1110  0.9601 -0.8528
  968SOL    HW2 3031   2.956   3.316   0.392  1.4569 -0.1420 -1.0454
  969SOL     OW 3032   4.436   4.387   3.482 -0.6045  0.2257  0.4190
  969SOL    HW1 3033   4.359   4.440   3.464 -1.9440 -1.0514  1.8427
  969SOL    HW2 3034   4.457   4.405   3.574  1.0575  0.7748 -0.0008
  970SOL     OW 3035   2.330   4.313   3.014  0.6162 -0.4497  0.1234
  970SOL    HW1 3036   2.256   4.347   3.065  0.9343 -0.0942  0.3564
  970SOL    HW2 3037   2.330   4.364   2.934  0.4793 -0.6005  0.0255
  971SOL     OW 3038   0.012   1.438   3.109  0.2602 -0.2405 -0.1783
  971SOL    HW1 3039   0.088   1.496   3.102  0.8026 -0.9728 -0.5787
  971SOL    HW2 3040  -0.063   1.496   3.102  0.6852  0.7895  1.9430
  972SOL     OW 3041   4.478   0.247   3.115 -0.0851 -0.0303 -0.4966
  972SOL    HW1 3042   4.551   0.305   3.133  0.0740 -0.0711 -0.9977
  972SOL    HW2 3043   4.481   0.182   3.186  0.1808  0.1406 -0.3489
  973SOL     OW 3044   5.139   6.375   4.475 -0.1621  0.3841 -0.5379
  973SOL    HW1 3045   5.225   6.347   4.507  0.0835  0.7474 -0.8691
  973SOL    HW2 3046   5.158   6.437   4.405 -0.6922  1.0821 -0.0886
  974SOL     OW 3047   3.449   6.169   1.355 -0.0605  0.1079  0.2339
  974SOL    HW1 3048   3.442   6.099   1.291 -0.3630 -0.0083  0.3930
  974SOL    HW2 3049   3.499   6.238   1.309 -2.5893  1.2458 -1.2276
  975SOL     OW 3050   4.044   1.281   4.439 -0.4425 -0.2880 -0.5519
  975SOL    HW1 3051   4.106   1.329   4.494 -2.5425  1.0826  0.9752
  975SOL    HW2 3052   4.051   1.322   4.353  0.8367 -0.3588 -0.5205
  976SOL     OW 3053   1.276   3.936   2.191  0.7631 -0.4446 -0.5642
  976SOL    HW1 3054   1.336   3.930   2.117  1.1747  0.7196 -0.3583
  976SOL    HW2 3055   1.253   4.028   2.197  1.0409 -0.4125  0.9828
  977SOL     OW 3056   5.777   1.975   0.989 -0.3230  0.0465  0.1449
  977SOL    HW1 3057   5.806   1.976   0.898 -1.2182 -0.4595 -0.1726
  977SOL    HW2 3058   5.828   2.044   1.032  1.5713 -0.9795 -0.2555
  978SOL     OW 3059   5.185   4.992   3.338  0.2585 -0.9490  0.4462
  978SOL    HW1 3060   5.102   4.947   3.356 -1.4211  0.8960 -1.4664
  978SOL    HW2 3061   5.199   5.047   3.416 -2.1343  0.8257 -0.1214
  979SOL     OW 3062   0.822   1.382   2.662  0.2528  0.0610  0.3491
  979SOL    HW1 3063   0.911   1.384   2.695 -0.2468  0.8733  1.7936
  979SOL    HW2 3064   0.789   1.294   2.684  1.0140 -0.7637 -1.3743
  980SOL     OW 3065   4.395   6.137   2.406 -0.1150  0.3004 -0.2672
  980SOL    HW1 3066   4.458   6.198   2.367 -0.9317  2.1871  1.0548
  980SOL    HW2 3067   4.423   6.130   2.498 -1.8299  1.4530  0.4550
  981SOL     OW 3068   1.305   2.151   3.840  0.1215 -0.6024 -0.0384
  981SOL    HW1 3069   1.242   2.176   3.907  1.1326  0.2490  0.6723
  981SOL    HW2 3070   1.255   2.147   3.759 -0.7907  0.3118  0.4373
  982SOL     OW 3071   1.303   6.107   0.153 -0.2575 -0.0433 -0.6364
  982SOL    HW1 3072   1.283   6.179   0.093  0.1022 -1.3369 -2.5130
  982SOL    HW2 3073   1.219   6.084   0.192 -0.8289  0.0287 -1.7435
  983SOL     OW 3074   0.513   3.809   1.485 -0.1505 -0.0556  0.2368
  983SOL    HW1 3075   0.497   3.837   1.575 -1.1285  0.4403 -0.0692
  983SOL    HW2 3076   0.582   3.868   1.454  0.3696 -0.3895  0.7231
  984SOL     OW 3077   0.700   1.463   1.112  0.0672 -0.1721  0.0506
  984SOL    HW1 3078   0.636   1.507   1.055 -0.0625 -1.3592 -0.8021
  984SOL    HW2 3079   0.690   1.370   1.091 -0.0315 -0.7135  2.0985
  985SOL     OW 3080   6.249   3.549   2.091  0.6031  0.1344 -0.1630
  985SOL    HW1 3081   6.165   3.572   2.131  0.4373 -1.0224  0.2154
  985SOL    HW2 3082   6.266   3.460   2.121  1.7714  0.1943 -0.5743
  986SOL     OW 3083   0.970   0.687   0.971  0.3112 -0.3744 -0.0939
  986SOL    HW1 3084   1.012   0.731   0.896  2.6347 -3.9832 -1.4220
  986SOL    HW2 3085   0.900   0.747   0.997  1.9168  3.1733 -2.3641
  987SOL     OW 3086   3.663   5.795   0.394  0.4387  0.2587  0.1973
  987SOL    HW1 3087   3.631   5.875   0.436  2.6079  2.0392 -1.1162
  987SOL    HW2 3088   3.586   5.759   0.349 -0.4326  2.4871 -0.3561
  988SOL     OW 3089   5.228   3.614   3.995  0.2075 -0.2384 -0.3534
  988SOL    HW1 3090   5.140   3.590   3.968 -0.4617  1.3466  0.1628
  988SOL    HW2 3091   5.262   3.668   3.923 -0.5040  1.6655  0.5827
  989SOL     OW 3092   1.298   2.090   2.097  0.0238 -0.0422  0.4879
  989SOL    HW1 3093   1.209   2.063   2.075 -0.2466 -0.0435  1.4693
  989SOL    HW2 3094   1.320   2.156   2.031 -0.2522 -0.8494 -0.4459
  990SOL     OW 3095   1.333   5.513   3.321 -0.0395  0.0715  0.0739
  990SOL    HW1 3096   1.249   5.473   3.299  0.1317 -0.7273  0.8153
  990SOL    HW2 3097   1.390   5.440   3.344  0.2281  0.7089  1.6794
  991SOL     OW 3098   5.688   4.702   2.011 -0.6198  0.1915 -0.1868
  991SOL    HW1 3099   5.777   4.735   1.996 -1.0593  1.3769 -0.3386
  991SOL    HW2 3100   5.701   4.623   2.064  0.5334  0.1416 -0.4836
  992SOL     OW 3101   2.939   0.618   0.281  0.4786 -0.1640 -0.3326
  992SOL    HW1 3102   2.998   0.683   0.319  0.0043  0.7269 -1.0349
  992SOL    HW2 3103   2.931   0.551   0.348  0.7253  0.6733  0.5782
  993SOL     OW 3104   1.289   2.088   3.567 -0.1383  0.2442 -0.2192
  993SOL    HW1 3105   1.257   1.999   3.549 -0.5075  0.6401 -1.8952
  993SOL    HW2 3106   1.245   2.142   3.501  0.5301  1.5853  0.3778
  994SOL     OW 3107   0.350   3.247   1.476 -0.3696  0.2208 -0.3849
  994SOL    HW1 3108   0.332   3.340   1.491  2.2831  1.0913 -1.3755
  994SOL    HW2 3109   0.427   3.246   1.419 -0.1313 -2.6227 -0.3290
  995SOL     OW 3110   5.159   5.189   4.525 -0.1661  0.3626  0.2004
  995SOL    HW1 3111   5.090   5.254   4.527 -0.7979 -0.2935  0.8434
  995SOL    HW2 3112   5.230   5.226   4.578  1.0406  2.0581 -2.2253
  996SOL     OW 3113   3.410   2.369   4.137  0.0228  0.0194 -0.1438
  996SOL    HW1 3114   3.408   2.303   4.067  1.0577  0.7590 -0.9406
  996SOL    HW2 3115   3.502   2.375   4.162 -0.2472  0.1988  0.8931
  997SOL     OW 3116   2.287   0.948   1.117 -0.5279  0.1477  0.0104
  997SOL    HW1 3117   2.338   0.868   1.131 -0.7165  0.0544  0.1562
  997SOL    HW2 3118   2.288   0.993   1.201  0.5830  0.8943 -0.3588
  998SOL     OW 3119   1.535   6.220   3.355 -0.0224  0.2344  0.6343
  998SOL    HW1 3120   1.624   6.219   3.391  1.0974 -2.1559 -1.5943
  998SOL    HW2 3121   1.517   6.129   3.333 -2.1979  0.8798 -0.9333
  999SOL     OW 3122   0.440   3.381   4.065 -0.7069 -0.7704 -0.1031
  999SOL    HW1 3123   0.414   3.420   3.982 -0.5563  2.0298  0.9379
  999SOL    HW2 3124   0.372   3.316   4.083 -1.8579 -0.0986 -1.5413
 1000SOL     OW 3125   4.737   5.085   2.163  0.3696  0.0141  0.2863
 1000SOL    HW1 3126   4.813   5.128   2.203 -0.1549  0.2224  1.1066
 1000SOL    HW2 3127   4.672   5.155   2.155  0.2420 -0.1659 -0.3845
 1001SOL     OW 3128   1.089   0.975   0.703 -0.5225  0.4237  0.1150
 1001SOL    HW1 3129   1.005   0.968   0.749 -1.3887 -0.6014 -1.4447
 1001SOL    HW2 3130   1.142   0.904   0.739 -0.7670  0.3316  0.3019
 1002SOL     OW 3131   2.326   5.207   2.725 -0.0391 -0.2728  0.1356
 1002SOL    HW1 3132   2.386   5.132   2.721  0.9003  0.3247  1.5341
 1002SOL    HW2 3133   2.351   5.253   2.805 -1.9506  0.4146  0.4245
 1003SOL     OW 3134   4.362   2.913   3.022 -0.4744 -0.1011 -0.3849
 1003SOL    HW1 3135   4.435   2.905   2.961  0.8608 -0.3146  1.1088
 1003SOL    HW2 3136   4.294   2.855   2.987  0.4749 -0.7232 -1.3017
 1004SOL     OW 3137   3.033   3.831   0.676  0.1949 -0.6556  0.0874
 1004SOL    HW1 3138   3.020   3.753   0.622  0.1549  1.1467 -2.9722
 1004SOL    HW2 3139   2.951   3.880   0.668  0.7234  0.3806  0.5926
 1005SOL     OW 3140   3.302   0.650   3.126 -0.1043  0.1566 -0.0039
 1005SOL    HW1 3141   3.296   0.743   3.147  0.0210  0.0653  0.4458
 1005SOL    HW2 3142   3.215   0.628   3.092  0.5608  1.0869 -2.9926
 1006SOL     OW 3143   5.334   0.908   0.680  0.2126  0.1090 -0.0534
 1006SOL    HW1 3144   5.384   0.960   0.742 -0.2395 -0.4872  0.8605
 1006SOL    HW2 3145   5.317   0.826   0.727  1.1021 -0.9882 -1.4976
 1007SOL     OW 3146   2.002   1.363   2.415  0.3971 -0.2641 -0.1819
 1007SOL    HW1 3147   2.094   1.379   2.436  0.3028  0.0035  0.0361
 1007SOL    HW2 3148   2.002   1.341   2.321  0.5139  1.3688 -0.6331
 1008SOL     OW 3149   2.194   4.282   1.738 -0.3113  0.0326  0.5125
 1008SOL    HW1 3150   2.163   4.273   1.829 -0.2017 -1.5478  0.4524
 1008SOL    HW2 3151   2.284   4.315   1.747 -0.3026 -0.0953  0.9796
 1009SOL     OW 3152   6.116   0.148   0.226 -0.1229 -0.0191  0.8700
 1009SOL    HW1 3153   6.121   0.229   0.277  0.5632  0.8508 -0.4788
 1009SOL    HW2 3154   6.206   0.129   0.201 -0.4181 -0.4977  0.1118
 1010SOL     OW 3155   5.285   5.356   3.647  0.1838  0.3284 -0.3130
 1010SOL    HW1 3156   5.350   5.356   3.717 -1.9586  1.6600  2.0142
 1010SOL    HW2 3157   5.279   5.264   3.620  1.1730 -0.2867  1.2728
 1011SOL     OW 3158   0.220   2.274   1.670  0.2812 -0.5262 -0.3912
 1011SOL    HW1 3159   0.125   2.276   1.675  0.2599  0.8283 -0.6420
 1011SOL    HW2 3160   0.240   2.194   1.622 -0.9019  0.3473 -2.6166
 1012SOL     OW 3161   2.809   5.101   2.640  0.0426  0.0875 -0.1130
 1012SOL    HW1 3162   2.816   5.197   2.635 -0.9000  0.2635  1.1432
 1012SOL    HW2 3163   2.883   5.075   2.695 -0.8173  0.3831  1.2965
 1013SOL     OW 3164   0.663   2.102   2.755  0.5755 -0.1707 -0.1243
 1013SOL    HW1 3165   0.705   2.099   2.840  1.8574 -0.2115 -0.7121
 1013SOL    HW2 3166   0.593   2.036   2.760 -0.1876  0.6369  1.2335
 1014SOL     OW 3167   0.249   5.426   2.097 -0.6306 -0.5476 -0.5422
 1014SOL    HW1 3168   0.176   5.364   2.101 -1.1782  0.0050 -1.3750
 1014SOL    HW2 3169   0.208   5.512   2.107 -0.0946 -0.2257 -0.9913
 1015SOL     OW 3170   0.800   2.516   0.815  0.2330  0.0016 -0.1339
 1015SOL    HW1 3171   0.833   2.540   0.729  0.7632  0.1593  0.1066
 1015SOL    HW2 3172   0.723   2.572   0.827  0.3457  0.2104 -0.3672
 1016SOL     OW 3173   3.846   0.457   0.376  0.5194 -0.5773 -0.0307
 1016SOL    HW1 3174   3.842   0.463   0.472 -0.7450 -1.8761  0.0480
 1016SOL    HW2 3175   3.934   0.490   0.355  0.9519 -0.5002  1.5779
 1017SOL     OW 3176   1.375   1.897   3.858 -0.1876  0.8926  0.2521
 1017SOL    HW1 3177   1.362   1.992   3.853 -1.4680  0.7217 -0.4488
 1017SOL    HW2 3178   1.287   1.861   3.871  0.2316 -0.2163  0.2337
 1018SOL     OW 3179   1.768   5.972   1.455 -0.0145 -0.2373  0.2436
 1018SOL    HW1 3180   1.858   5.995   1.430  0.2163 -0.4677  0.8311
 1018SOL    HW2 3181   1.720   5.970   1.372  0.4872  0.0418 -0.0609
 1019SOL     OW 3182   3.255   0.254   2.184 -0.2081  0.0222  0.3815
 1019SOL    HW1 3183   3.276   0.346   2.168  1.1257 -0.3297 -0.1719
 1019SOL    HW2 3184   3.166   0.244   2.151 -0.5636  1.1964  0.8737
 1020SOL     OW 3185   3.767   1.213   1.285 -0.2893 -0.7673  0.0588
 1020SOL    HW1 3186   3.704   1.195   1.215 -0.8968  1.7145 -0.2085
 1020SOL    HW2 3187   3.727   1.283   1.336  1.2503 -0.7416  1.3724
 1021SOL     OW 3188   0.679   5.725   2.325  0.4888 -0.1304  0.9410
 1021SOL    HW1 3189   0.621   5.747   2.251  1.9240  0.3369 -0.1500
 1021SOL    HW2 3190   0.703   5.634   2.311  0.2633 -0.2325  1.2118
 1022SOL     OW 3191   0.796   3.762   2.735 -0.2961 -0.4031 -0.1339
 1022SOL    HW1 3192   0.763   3.732   2.650  0.8658 -0.2781 -0.6641
 1022SOL    HW2 3193   0.891   3.762   2.725 -0.0315 -1.5836  1.5864
 1023SOL     OW 3194   2.204   1.992   2.286 -0.1443 -0.8993  0.6515
 1023SOL    HW1 3195   2.244   2.036   2.361 -1.2329  2.0769 -0.2116
 1023SOL    HW2 3196   2.278   1.967   2.231  0.7107  1.0345  0.7589
 1024SOL     OW 3197   3.734   5.621   1.377  0.5127  0.1432 -0.5008
 1024SOL    HW1 3198   3.704   5.533   1.400  0.5651 -0.1013 -1.2824
 1024SOL    HW2 3199   3.809   5.606   1.319  1.0222  0.7209 -0.0079
 1025SOL     OW 3200   5.609   0.377   0.351  0.6800  0.2697 -0.3910
 1025SOL    HW1 3201   5.594   0.283   0.360  0.3982  0.4105  2.1518
 1025SOL    HW2 3202   5.701   0.385   0.328  0.6880 -0.6012 -0.7513
 1026SOL     OW 3203   3.913   0.215   3.728  0.0003 -0.4674 -0.7237
 1026SOL    HW1 3204   3.947   0.268   3.656  0.0978 -1.2357 -1.2753
 1026SOL    HW2 3205   3.818   0.212   3.712  0.1277 -1.5933 -1.5573
 1027SOL     OW 3206   5.924   0.039   0.984  0.3767 -0.7775 -1.4234
 1027SOL    HW1 3207   5.843   0.013   1.028  0.8718  1.6569  1.6828
 1027SOL    HW2 3208   5.896   0.071   0.898 -1.7317 -1.2333 -1.0179
 1028SOL     OW 3209   3.495   2.866   2.979 -0.3368 -0.3009  0.3868
 1028SOL    HW1 3210   3.553   2.906   2.913 -0.4754 -2.5833 -1.3563
 1028SOL    HW2 3211   3.409   2.863   2.937 -0.6508 -1.0199  1.0363
 1029SOL     OW 3212   4.138   6.269   3.053 -0.1605  0.4538  0.7102
 1029SOL    HW1 3213   4.161   6.176   3.052 -0.2847  0.3398  2.3532
 1029SOL    HW2 3214   4.106   6.287   2.965 -0.1762 -1.0657  0.3488
 1030SOL     OW 3215   0.321   0.766   1.331 -0.0230  0.2627 -0.4731
 1030SOL    HW1 3216   0.255   0.698   1.341  0.9156 -0.6538 -0.0844
 1030SOL    HW2 3217   0.368   0.767   1.414  0.7906  0.4797 -0.9091
 1031SOL     OW 3218   5.404   3.387   1.156  0.2759 -0.0853 -0.1797
 1031SOL    HW1 3219   5.497   3.370   1.141  0.1856  0.5165 -1.8260
 1031SOL    HW2 3220   5.364   3.381   1.069 -1.0952  0.4732  0.3566
 1032SOL     OW 3221   0.138   5.833   4.140  0.2288  0.2094  0.0137
 1032SOL    HW1 3222   0.228   5.806   4.124  0.5945  0.1254  1.8651
 1032SOL    HW2 3223   0.140   5.928   4.135  0.7700  0.3048  1.3190
 1033SOL     OW 3224   2.349   1.838   2.719 -0.3355 -0.7145 -0.4123
 1033SOL    HW1 3225   2.278   1.897   2.746  0.5044 -0.6957  2.3939
 1033SOL    HW2 3226   2.425   1.868   2.770  0.5442 -3.1931 -0.0250
 1034SOL     OW 3227   3.021   0.154   1.790  0.2753 -0.7349 -0.2900
 1034SOL    HW1 3228   2.996   0.072   1.834 -1.6145 -0.5436 -0.8196
 1034SOL    HW2 3229   3.052   0.126   1.704 -1.0088 -0.9526 -0.7359
 1035SOL     OW 3230   5.192   4.508   0.759 -0.3394 -0.1945 -0.0718
 1035SOL    HW1 3231   5.187   4.426   0.710  0.3607 -2.0319  2.4915
 1035SOL    HW2 3232   5.271   4.551   0.726  1.3364 -2.3810  0.6134
 1036SOL     OW 3233   3.169   4.164   3.084 -0.3838  0.2065  0.0276
 1036SOL    HW1 3234   3.091   4.114   3.109 -0.0278  0.0524  0.8882
 1036SOL    HW2 3235   3.237   4.098   3.070 -0.3472  0.3518 -0.5285
 1037SOL     OW 3236   2.819   4.433   1.915  0.2302  0.5893 -0.3416
 1037SOL    HW1 3237   2.905   4.452   1.952 -0.1014  0.7675  0.3676
 1037SOL    HW2 3238   2.813   4.337   1.918  0.2284  0.5961  0.0468
 1038SOL     OW 3239   2.784   4.456   4.004 -0.2193 -0.2412 -0.4113
 1038SOL    HW1 3240   2.778   4.535   4.057  2.2866  0.6954 -1.2555
 1038SOL    HW2 3241   2.859   4.408   4.039 -0.2713 -1.0770 -1.3349
 1039SOL     OW 3242   1.877   1.052   3.035  0.2226 -0.2501  0.1951
 1039SOL    HW1 3243   1.854   1.005   3.114 -0.5169 -0.4770 -0.1378
 1039SOL    HW2 3244   1.825   1.132   3.038  1.4368  0.5735  0.7375
 1040SOL     OW 3245   0.462   2.889   3.366 -0.2088  0.3722 -0.1926
 1040SOL    HW1 3246   0.485   2.826   3.435  0.5536  0.9244  0.0900
 1040SOL    HW2 3247   0.367   2.889   3.365 -0.2349 -0.0763  0.4689
 1041SOL     OW 3248   4.904   3.560   3.171  0.5020  0.3585 -0.0587
 1041SOL    HW1 3249   4.926   3.574   3.263  2.2573  1.9194 -0.5792
 1041SOL    HW2 3250   4.853   3.637   3.146  1.8488  1.0984 -0.7810
 1042SOL     OW 3251   0.103   6.305   0.301 -0.0153 -0.4238  0.1305
 1042SOL    HW1 3252   0.124   6.298   0.394  0.2715  2.3849  0.4686
 1042SOL    HW2 3253   0.099   6.215   0.270  1.3240 -1.4985  2.5200
 1043SOL     OW 3254   2.257   0.925   0.186 -0.4856  0.0282 -0.4360
 1043SOL    HW1 3255   2.179   0.870   0.190 -0.4190 -0.2839 -2.0710
 1043SOL    HW2 3256   2.326   0.872   0.226 -1.0585  0.3118  1.0354
 1044SOL     OW 3257   1.228   1.830   3.568 -0.2476  0.1668 -0.2493
 1044SOL    HW1 3258   1.158   1.806   3.508 -0.1475 -1.3888  0.1672
 1044SOL    HW2 3259   1.190   1.821   3.655  0.0392  0.9062 -0.0267
 1045SOL     OW 3260   5.101   0.230   1.328  0.1308  0.1326  0.7162
 1045SOL    HW1 3261   5.165   0.276   1.382  0.5460 -0.1815  0.5070
 1045SOL    HW2 3262   5.016   0.261   1.360  0.3886  0.9437  0.6582
 1046SOL     OW 3263   2.249   0.255   0.143 -0.6066  0.2654 -0.4127
 1046SOL    HW1 3264   2.196   0.220   0.072 -0.7511 -0.7610  0.1723
 1046SOL    HW2 3265   2.316   0.188   0.159  1.0556  1.5748 -1.2473
 1047SOL     OW 3266   5.255   0.632   3.496  0.1981  0.1113  0.5927
 1047SOL    HW1 3267   5.204   0.691   3.552  1.4970  0.2713  1.6957
 1047SOL    HW2 3268   5.265   0.680   3.414  0.1594  0.8795  1.0149
 1048SOL     OW 3269   6.288   2.567   0.111  0.0509  0.6192  0.5048
 1048SOL    HW1 3270   6.283   2.559   0.206 -4.6550  0.1647  0.6797
 1048SOL    HW2 3271   6.251   2.653   0.092 -0.6658  0.0715 -0.8597
 1049SOL     OW 3272   1.489   3.879   2.912  0.5763 -0.3511  0.0538
 1049SOL    HW1 3273   1.582   3.861   2.925  0.3270 -1.3368  0.7252
 1049SOL    HW2 3274   1.473   3.860   2.820  0.8827 -1.0130  0.1297
 1050SOL     OW 3275   4.293   3.351   4.397 -0.0441  0.1035 -0.0566
 1050SOL    HW1 3276   4.264   3.340   4.488  0.7311 -2.1717  0.0663
 1050SOL    HW2 3277   4.351   3.427   4.399 -0.4957  0.4648  1.2008
 1051SOL     OW 3278   4.153   2.705   3.393 -0.0079 -0.3490 -0.0857
 1051SOL    HW1 3279   4.061   2.724   3.413  0.2348  0.1915  0.5774
 1051SOL    HW2 3280   4.182   2.780   3.341  0.1883 -0.2839  0.1166
 1052SOL     OW 3281   4.644   5.133   0.168  0.1861  0.2694 -0.0638
 1052SOL    HW1 3282   4.596   5.059   0.203 -1.3312  0.9128 -0.6078
 1052SOL    HW2 3283   4.667   5.186   0.244  0.5329 -0.3201  0.2525
 1053SOL     OW 3284   2.111   4.400   3.748  0.3862 -0.4412 -0.0809
 1053SOL    HW1 3285   2.082   4.426   3.835  0.9119  0.0458 -0.0323
 1053SOL    HW2 3286   2.087   4.308   3.740  1.4388 -0.8761  1.0884
 1054SOL     OW 3287   2.730   0.619   0.590  0.1796 -0.4842 -0.0288
 1054SOL    HW1 3288   2.640   0.603   0.616  0.5948 -1.0285  1.2469
 1054SOL    HW2 3289   2.741   0.568   0.510 -0.2945 -1.5536  0.5419
 1055SOL     OW 3290   1.804   4.966   1.114 -0.5594  0.1704 -0.1835
 1055SOL    HW1 3291   1.824   5.026   1.043 -1.6497  0.2051 -0.4988
 1055SOL    HW2 3292   1.880   4.970   1.172 -1.3113  3.5273  1.0160
 1056SOL     OW 3293   5.921   5.128   2.844  0.3997  0.5464  0.4687
 1056SOL    HW1 3294   5.956   5.129   2.934 -0.3469  0.3143  0.7815
 1056SOL    HW2 3295   5.919   5.220   2.818 -0.7135  0.8060  1.2691
 1057SOL     OW 3296   1.361   5.371   0.469  0.0512 -0.1877  0.0862
 1057SOL    HW1 3297   1.390   5.288   0.431 -2.3135 -1.0168 -0.2569
 1057SOL    HW2 3298   1.384   5.437   0.403  1.9849 -0.4655  0.3654
 1058SOL     OW 3299   0.414   0.405   1.352 -0.5585 -0.4279 -0.0178
 1058SOL    HW1 3300   0.345   0.377   1.413  1.5766  0.3137  3.2722
 1058SOL    HW2 3301   0.444   0.489   1.387  2.3017 -0.9337 -0.7415
 1059SOL     OW 3302   3.392   3.513   2.143  0.4523 -0.1722  0.1517
 1059SOL    HW1 3303   3.457   3.582   2.143 -0.3526  0.6556  1.0771
 1059SOL    HW2 3304   3.327   3.541   2.078 -0.8172  1.0246  1.7475
 1060SOL     OW 3305   1.271   2.740   2.226 -0.4815 -0.2424 -0.2317
 1060SOL    HW1 3306   1.307   2.764   2.141 -1.0697 -0.7027 -0.6304
 1060SOL    HW2 3307   1.182   2.711   2.207 -0.1470 -1.8477  0.3054
 1061SOL     OW 3308   2.008   5.942   3.188  0.2451 -0.1753 -0.4465
 1061SOL    HW1 3309   1.933   5.889   3.216  0.4609 -1.0233 -1.3695
 1061SOL    HW2 3310   2.035   5.989   3.267 -1.1163  0.0093 -0.0337
 1062SOL     OW 3311   2.110   4.662   3.646  0.2077  0.3249  0.1871
 1062SOL    HW1 3312   2.057   4.703   3.714 -0.0664 -0.2817  0.3559
 1062SOL    HW2 3313   2.141   4.580   3.686  1.8818  0.9599  0.3606
 1063SOL     OW 3314   3.720   3.487   0.389 -0.3140  0.2186 -0.1350
 1063SOL    HW1 3315   3.798   3.502   0.336 -0.8306 -1.5312 -1.5647
 1063SOL    HW2 3316   3.652   3.462   0.326 -1.7569  0.6035  1.1474
 1064SOL     OW 3317   2.730   2.224   0.843  0.0761  0.2804  0.6988
 1064SOL    HW1 3318   2.737   2.269   0.927  3.1798 -1.0570  1.4058
 1064SOL    HW2 3319   2.752   2.133   0.862  1.0751 -0.0808 -1.5276
 1065SOL     OW 3320   1.439   0.027   4.493  0.2853 -0.4437 -0.3694
 1065SOL    HW1 3321   1.425  -0.066   4.510  0.7479 -0.6866 -1.1956
 1065SOL    HW2 3322   1.494   0.056   4.566  3.1113 -1.6879 -1.6612
 1066SOL     OW 3323   1.258   2.184   1.827 -0.4744  1.4191 -0.0649
 1066SOL    HW1 3324   1.178   2.223   1.863 -0.5756 -0.1405  1.6744
 1066SOL    HW2 3325   1.227   2.119   1.764 -0.9282 -0.6107  1.9846
 1067SOL     OW 3326   2.848   0.135   4.172  0.5928 -0.2391 -1.2074
 1067SOL    HW1 3327   2.863   0.148   4.079 -0.7526 -0.0611 -1.4314
 1067SOL    HW2 3328   2.864   0.041   4.186  2.6649  0.0153 -1.1622
 1068SOL     OW 3329   4.452   0.483   2.936 -0.1177 -0.3227 -0.1509
 1068SOL    HW1 3330   4.477   0.565   2.894 -1.6120 -0.8218 -2.3245
 1068SOL    HW2 3331   4.512   0.418   2.900 -0.3808 -0.5293 -0.2194
 1069SOL     OW 3332   2.042   2.955   1.621  0.5096 -0.0815  0.0599
 1069SOL    HW1 3333   2.045   2.870   1.665 -0.0072  0.3202  0.9150
 1069SOL    HW2 3334   2.131   2.967   1.587  0.9735 -0.3882  1.0856
 1070SOL     OW 3335   3.805   1.902   3.818  0.0625 -0.2385 -0.0979
 1070SOL    HW1 3336   3.849   1.840   3.875  0.6587  0.7658  0.5982
 1070SOL    HW2 3337   3.846   1.986   3.837 -1.8251  0.7217  0.2955
 1071SOL     OW 3338   4.126   5.651   0.800 -0.1595  0.1058 -0.1141
 1071SOL    HW1 3339   4.122   5.595   0.723 -1.1389 -1.7975  1.1720
 1071SOL    HW2 3340   4.169   5.598   0.867  0.8429  1.7443  0.6704
 1072SOL     OW 3341   0.719   0.799   3.887 -0.3070  0.2082 -0.0772
 1072SOL    HW1 3342   0.709   0.748   3.807 -0.6376 -0.7943  0.5671
 1072SOL    HW2 3343   0.779   0.747   3.941  0.4097  1.1721  0.1003
 1073SOL     OW 3344   4.369   1.816   2.287  0.1638 -0.0006  0.0269
 1073SOL    HW1 3345   4.389   1.903   2.319  2.2262 -0.7114  1.0287
 1073SOL    HW2 3346   4.299   1.784   2.344  0.2671  0.5508  0.4752
 1074SOL     OW 3347   4.718   4.185   0.278  0.4853  0.3061 -0.3488
 1074SOL    HW1 3348   4.736   4.147   0.193 -0.8866 -1.8960  0.1903
 1074SOL    HW2 3349   4.744   4.118   0.341  0.0404  1.2059  0.8886
 1075SOL     OW 3350   1.993   2.368   1.132  0.6842 -0.0451 -0.0659
 1075SOL    HW1 3351   1.939   2.395   1.206 -0.3869 -0.8281 -0.5007
 1075SOL    HW2 3352   2.043   2.293   1.165  0.5099 -0.1391 -0.0092
 1076SOL     OW 3353   2.087   1.221   3.068  0.2935  0.2353 -0.2013
 1076SOL    HW1 3354   2.015   1.159   3.067  0.3510  0.1584  0.2086
 1076SOL    HW2 3355   2.058   1.293   3.012  0.2218 -0.1518 -0.6710
 1077SOL     OW 3356   4.286   1.016   2.381 -0.3879  0.2524  0.0461
 1077SOL    HW1 3357   4.198   0.997   2.350  0.0046  0.9520 -1.7433
 1077SOL    HW2 3358   4.275   1.090   2.441 -1.0562 -0.1451  0.4357
 1078SOL     OW 3359   0.242   6.028   2.634  0.5272  0.3431  0.8165
 1078SOL    HW1 3360   0.261   6.115   2.667  3.0768  0.0680  0.5194
 1078SOL    HW2 3361   0.263   5.969   2.707  1.3241 -0.0622  0.2950
 1079SOL     OW 3362   6.229   1.347   2.139  0.1286 -0.1213  0.2607
 1079SOL    HW1 3363   6.322   1.352   2.162  0.6222  2.4624 -1.4013
 1079SOL    HW2 3364   6.183   1.378   2.217  1.0953  1.9390  0.1666
 1080SOL     OW 3365   5.772   1.089   2.597  0.4257 -0.4171  0.4547
 1080SOL    HW1 3366   5.832   1.158   2.624  0.8210 -0.5168 -0.1416
 1080SOL    HW2 3367   5.713   1.078   2.672  0.7928  0.0750  0.8278
 1081SOL     OW 3368   5.425   1.127   2.047  0.2175 -0.4882 -0.2354
 1081SOL    HW1 3369   5.470   1.044   2.061 -1.9950 -1.7446  0.6677
 1081SOL    HW2 3370   5.333   1.107   2.063 -0.6511  1.9170 -1.1932
 1082SOL     OW 3371   4.507   5.888   3.820  0.2994  0.4035 -0.0193
 1082SOL    HW1 3372   4.474   5.954   3.881  1.8533 -1.1256  2.8895
 1082SOL    HW2 3373   4.429   5.843   3.788 -0.6697  0.6672  1.7442
 1083SOL     OW 3374   3.284   4.886   1.319  0.1399 -0.7645 -0.2654
 1083SOL    HW1 3375   3.233   4.820   1.366 -0.6012  0.0039  0.0649
 1083SOL    HW2 3376   3.295   4.851   1.231  0.2100 -1.5396  0.0368
 1084SOL     OW 3377   5.002   0.524   4.211  0.0360  0.4664 -0.3569
 1084SOL    HW1 3378   4.924   0.472   4.191  0.6773 -0.9071  0.4586
 1084SOL    HW2 3379   5.018   0.508   4.304  0.9605  1.1861 -0.3715
 1085SOL     OW 3380   0.445   5.840   0.110 -0.1588 -0.2047  0.0491
 1085SOL    HW1 3381   0.492   5.850   0.193 -1.4085 -0.7976  0.8947
 1085SOL    HW2 3382   0.428   5.746   0.103 -0.0280 -0.1804 -0.9421
 1086SOL     OW 3383   2.310   4.778   3.489  0.1231 -0.5170 -0.2622
 1086SOL    HW1 3384   2.261   4.855   3.459  0.2847 -0.7991 -1.3233
 1086SOL    HW2 3385   2.253   4.738   3.555 -0.6492 -0.3093 -0.7696
 1087SOL     OW 3386   2.287   5.832   0.077 -0.0269 -0.4672 -0.2711
 1087SOL    HW1 3387   2.373   5.813   0.040  1.1746 -0.3469  2.0697
 1087SOL    HW2 3388   2.294   5.806   0.169 -2.6031 -0.6383  0.0303
 1088SOL     OW 3389   2.090   1.997   2.781  0.3704 -0.5733  0.6256
 1088SOL    HW1 3390   1.997   2.021   2.779  1.0626  3.1591  0.4966
 1088SOL    HW2 3391   2.119   2.017   2.869  1.4387  0.9834  0.0064
 1089SOL     OW 3392   5.369   6.252   4.453 -0.7645 -0.3206  0.0572
 1089SOL    HW1 3393   5.347   6.263   4.360 -1.3471 -1.9646 -0.0617
 1089SOL    HW2 3394   5.348   6.160   4.472  1.7253 -0.8155  1.1733
 1090SOL     OW 3395   1.479   2.291   0.698 -0.3931  0.1107  0.2694
 1090SOL    HW1 3396   1.488   2.370   0.645 -0.6814  0.1897  0.3358
 1090SOL    HW2 3397   1.388   2.266   0.688 -0.3347 -0.1370  0.3590
 1091SOL     OW 3398   0.292   0.539   1.691  0.2544  0.3879 -0.8898
 1091SOL    HW1 3399   0.211   0.489   1.700  1.6537 -1.9251  0.9737
 1091SOL    HW2 3400   0.281   0.613   1.751  0.1699 -1.1113  1.1385
 1092SOL     OW 3401   3.456   0.467   0.504  0.4075 -0.0681 -0.2412
 1092SOL    HW1 3402   3.506   0.453   0.584 -0.2509  0.1846  0.2359
 1092SOL    HW2 3403   3.453   0.563   0.494 -1.4751  0.0800  0.7942
 1093SOL     OW 3404   5.298   2.263   4.365  0.3534 -0.2786  0.1726
 1093SOL    HW1 3405   5.291   2.311   4.282  0.4993 -1.4769 -0.5846
 1093SOL    HW2 3406   5.227   2.298   4.418 -0.2202  0.0191 -0.7350
 1094SOL     OW 3407   2.727   6.285   3.692 -0.3267 -0.4323  0.6236
 1094SOL    HW1 3408   2.657   6.241   3.740 -2.3714 -0.0190 -1.6317
 1094SOL    HW2 3409   2.695   6.374   3.678  1.9702  0.7610  1.7236
 1095SOL     OW 3410   0.702   0.604   2.685 -0.3483 -0.0589 -0.1089
 1095SOL    HW1 3411   0.658   0.645   2.611 -2.0895  0.0447  0.8775
 1095SOL    HW2 3412   0.646   0.624   2.760  1.2631 -0.2431  1.2414
 1096SOL     OW 3413   3.881   3.430   4.165 -0.2959  0.1413  0.5896
 1096SOL    HW1 3414   3.962   3.386   4.192  0.2970 -1.0427 -2.3565
 1096SOL    HW2 3415   3.811   3.372   4.192 -0.2833  0.9585  2.7675
 1097SOL     OW 3416   4.258   6.368   1.996 -0.3859  0.2051 -0.2165
 1097SOL    HW1 3417   4.331   6.330   1.947 -0.2850  0.7292 -0.4879
 1097SOL    HW2 3418   4.188   6.378   1.931 -1.2130 -1.4707  0.2712
 1098SOL     OW 3419   2.769   4.110   4.085  0.6213  0.9960 -0.5085
 1098SOL    HW1 3420   2.734   4.198   4.093  0.1625  0.7481  0.4266
 1098SOL    HW2 3421   2.807   4.090   4.170  0.3149  0.1314 -0.5485
 1099SOL     OW 3422   0.278   2.959   3.000 -0.1048 -0.6778  0.4148
 1099SOL    HW1 3423   0.353   2.900   2.993 -0.9312 -1.7185 -2.7824
 1099SOL    HW2 3424   0.202   2.903   2.988 -1.1429  0.7105 -0.0700
 1100SOL     OW 3425   0.066   1.556   3.918 -0.1396  0.0327  0.2013
 1100SOL    HW1 3426   0.048   1.480   3.862 -0.2817  0.6854 -0.6918
 1100SOL    HW2 3427  -0.008   1.614   3.903  0.0577  0.4284  0.7282
 1101SOL     OW 3428   2.799   4.011   0.674 -0.0278 -0.2665 -0.0931
 1101SOL    HW1 3429   2.751   4.071   0.617 -0.5443 -0.1149  0.4796
 1101SOL    HW2 3430   2.858   4.068   0.724  0.5733 -0.4211 -0.5952
 1102SOL     OW 3431   0.492   3.379   2.661  0.1091 -0.3759  0.0500
 1102SOL    HW1 3432   0.461   3.389   2.751  0.0961 -0.9408  0.1103
 1102SOL    HW2 3433   0.573   3.329   2.668 -1.0407 -2.5044 -0.3849
 1103SOL     OW 3434   4.883   0.229   1.018 -0.1512 -0.0133  1.0193
 1103SOL    HW1 3435   4.870   0.318   0.986 -0.1390 -0.9437 -2.3217
 1103SOL    HW2 3436   4.978   0.222   1.032 -0.0549  0.2960  0.5402
 1104SOL     OW 3437   1.312   5.751   0.448 -0.5583 -0.2176  0.7699
 1104SOL    HW1 3438   1.389   5.786   0.403 -0.6195 -0.7439  0.2148
 1104SOL    HW2 3439   1.348   5.685   0.508 -0.5970 -0.9953 -0.0183
 1105SOL     OW 3440   0.806   3.310   3.860 -0.0601  0.1638 -0.3225
 1105SOL    HW1 3441   0.720   3.290   3.824  0.3137  0.0250 -1.2158
 1105SOL    HW2 3442   0.789   3.360   3.939 -0.9572 -0.0292 -0.3776
 1106SOL     OW 3443   5.412   5.762   2.793  0.0977  0.6904  0.4834
 1106SOL    HW1 3444   5.332   5.798   2.756  0.5191  0.2613 -0.9463
 1106SOL    HW2 3445   5.396   5.668   2.799  0.1518  0.7144  1.1604
 1107SOL     OW 3446   1.192   3.089   3.564  0.1286  0.0017  0.2192
 1107SOL    HW1 3447   1.233   3.149   3.626  0.4162 -0.2225  0.2494
 1107SOL    HW2 3448   1.103   3.079   3.596  0.0233  0.5482  0.1147
 1108SOL     OW 3449   6.187   6.145   2.887 -0.2474  0.8022  0.2949
 1108SOL    HW1 3450   6.207   6.073   2.948 -1.8043 -1.7458 -1.7723
 1108SOL    HW2 3451   6.093   6.160   2.898 -0.4859  0.5549 -1.0927
 1109SOL     OW 3452   0.996   0.578   3.122  0.3241 -0.5747  0.0974
 1109SOL    HW1 3453   1.070   0.537   3.077  1.0811  0.9466 -0.1788
 1109SOL    HW2 3454   0.919   0.536   3.085  0.8866  0.2854 -2.4321
 1110SOL     OW 3455   3.404   4.375   3.728  1.2258 -0.0456  0.0330
 1110SOL    HW1 3456   3.311   4.394   3.728  1.0296 -0.8177 -1.1895
 1110SOL    HW2 3457   3.439   4.424   3.654  1.7409 -0.0356  0.2720
 1111SOL     OW 3458   5.402   6.322   1.904  0.0445  0.0220  0.3879
 1111SOL    HW1 3459   5.359   6.237   1.893 -2.0429  0.8882  0.8230
 1111SOL    HW2 3460   5.463   6.329   1.831 -1.8024 -0.7253 -1.3927
 1112SOL     OW 3461   1.964   2.168   3.286  0.3635  0.2750 -0.1914
 1112SOL    HW1 3462   1.963   2.203   3.376  0.5992 -2.0284  0.8583
 1112SOL    HW2 3463   1.876   2.132   3.274  0.4293  0.3051 -0.7788
 1113SOL     OW 3464   4.687   1.413   2.022  0.4610 -0.2216 -0.0632
 1113SOL    HW1 3465   4.740   1.391   2.098 -0.8438 -0.3845  0.8525
 1113SOL    HW2 3466   4.647   1.330   1.996  0.0997  0.0147 -0.2793
 1114SOL     OW 3467   5.337   3.723   2.138  0.6182  0.1918 -0.0730
 1114SOL    HW1 3468   5.261   3.686   2.183 -0.7606  1.9862 -0.7192
 1114SOL    HW2 3469   5.394   3.752   2.209  0.2897 -0.3813  0.4455
 1115SOL     OW 3470   3.765   0.702   0.280  0.2245 -0.1854  0.2065
 1115SOL    HW1 3471   3.697   0.747   0.330 -0.6956 -0.5109 -0.6815
 1115SOL    HW2 3472   3.769   0.614   0.317 -0.1793 -0.3063 -0.0264
 1116SOL     OW 3473   2.915   4.152   1.911  0.4986  0.2009  0.4962
 1116SOL    HW1 3474   2.840   4.099   1.938  0.4988  0.7424  1.6709
 1116SOL    HW2 3475   2.925   4.134   1.817 -1.7829  0.8970 -0.0087
 1117SOL     OW 3476   5.293   5.398   1.106 -0.9880 -0.6170 -0.1882
 1117SOL    HW1 3477   5.356   5.462   1.141 -0.9237 -1.2826  1.0193
 1117SOL    HW2 3478   5.213   5.449   1.092 -0.0107  0.5430 -2.9044
 1118SOL     OW 3479   3.031   2.047   1.468  0.0678 -0.5034  0.4352
 1118SOL    HW1 3480   3.038   2.095   1.386  0.8785  0.0578  0.8016
 1118SOL    HW2 3481   3.017   2.114   1.534 -1.5874 -1.0161  0.6932
 1119SOL     OW 3482   5.271   3.143   2.784  0.4767 -0.2329  0.0519
 1119SOL    HW1 3483   5.266   3.150   2.689 -0.4435 -1.3504 -0.0198
 1119SOL    HW2 3484   5.224   3.220   2.817 -1.1387 -0.9057 -0.4753
 1120SOL     OW 3485   5.577   0.756   3.132 -0.0684  1.1923  0.1456
 1120SOL    HW1 3486   5.512   0.802   3.079 -0.2337  0.5422 -0.2409
 1120SOL    HW2 3487   5.564   0.664   3.111 -0.8466  0.7704  2.0967
 1121SOL     OW 3488   4.616   3.067   4.143 -0.3405 -0.4774 -0.1326
 1121SOL    HW1 3489   4.527   3.052   4.174 -0.4114 -0.1372 -0.1666
 1121SOL    HW2 3490   4.638   2.987   4.096 -0.8367 -0.3512 -0.6043
 1122SOL     OW 3491   0.192   3.451   2.437  0.9459  0.6296  0.2319
 1122SOL    HW1 3492   0.136   3.527   2.421 -0.3828 -0.1939  0.6245
 1122SOL    HW2 3493   0.176   3.429   2.529  0.1866 -0.9094 -0.2101
 1123SOL     OW 3494   5.216   3.095   4.346 -0.1321 -0.7646  0.2241
 1123SOL    HW1 3495   5.206   3.189   4.333 -2.1112 -0.8842  0.2052
 1123SOL    HW2 3496   5.276   3.067   4.277  0.7956  0.4912  0.4549
 1124SOL     OW 3497   4.530   4.541   3.197 -0.3705  0.2612  0.1262
 1124SOL    HW1 3498   4.506   4.500   3.280  0.9595  0.2151  0.5380
 1124SOL    HW2 3499   4.616   4.579   3.213 -0.2749  0.6653 -1.1093
 1125SOL     OW 3500   3.760   2.657   4.384 -0.2566 -0.1355 -0.3851
 1125SOL    HW1 3501   3.737   2.636   4.475  0.9996 -0.1722 -0.0328
 1125SOL    HW2 3502   3.680   2.640   4.334 -0.5357 -1.7713  0.4726
 1126SOL     OW 3503   2.715   6.252   3.349 -0.7724 -0.3957 -0.0362
 1126SOL    HW1 3504   2.765   6.233   3.269 -1.2525  0.4383 -0.5671
 1126SOL    HW2 3505   2.733   6.344   3.367  1.2320 -1.0442  2.2539
 1127SOL     OW 3506   4.763   1.266   3.476 -0.2871  0.4877 -0.2038
 1127SOL    HW1 3507   4.754   1.343   3.531  0.3641  0.0546  0.5455
 1127SOL    HW2 3508   4.736   1.193   3.532  1.4362 -0.0923 -0.0182
 1128SOL     OW 3509   0.585   1.408   0.151  0.1116 -0.4752  0.7714
 1128SOL    HW1 3510   0.620   1.483   0.103 -0.9861  1.6426  2.8863
 1128SOL    HW2 3511   0.543   1.354   0.084  0.9020  0.7965 -0.8841
 1129SOL     OW 3512   5.553   1.726   4.077 -0.2119  0.3970  0.2892
 1129SOL    HW1 3513   5.628   1.714   4.018 -0.5620  0.4714 -0.1856
 1129SOL    HW2 3514   5.592   1.747   4.161  0.2988  1.2077 -0.1206
 1130SOL     OW 3515   0.709   4.977   3.610  0.5538 -0.1940 -0.2503
 1130SOL    HW1 3516   0.619   4.978   3.576  0.4424  0.5370  0.0274
 1130SOL    HW2 3517   0.744   4.892   3.583 -0.1205 -0.3684 -0.6228
 1131SOL     OW 3518   4.042   0.918   2.256 -0.1029 -0.2840 -0.0232
 1131SOL    HW1 3519   4.074   0.845   2.202  0.9885  1.1203 -1.4638
 1131SOL    HW2 3520   3.977   0.961   2.201 -0.2296  0.2254  0.5150
 1132SOL     OW 3521   1.127   0.539   0.173 -0.3428 -0.0737 -0.0088
 1132SOL    HW1 3522   1.192   0.490   0.224  1.6520  0.3059 -1.9127
 1132SOL    HW2 3523   1.175   0.613   0.137 -2.2049  0.9866 -0.5994
 1133SOL     OW 3524   5.708   2.200   2.063  0.5135  0.2033 -0.1037
 1133SOL    HW1 3525   5.730   2.131   1.999  1.8200  0.3720  0.1119
 1133SOL    HW2 3526   5.700   2.279   2.010  1.0207  0.2352 -0.1476
 1134SOL     OW 3527   2.156   3.541   0.851  0.5094 -0.1753 -0.6187
 1134SOL    HW1 3528   2.145   3.636   0.854 -0.0945 -0.2215  1.1088
 1134SOL    HW2 3529   2.228   3.527   0.790  1.1005  1.4387 -0.3991
 1135SOL     OW 3530   0.284   1.227   1.782 -0.2414 -0.2587  0.0583
 1135SOL    HW1 3531   0.297   1.322   1.776  1.0985 -0.4529 -1.7140
 1135SOL    HW2 3532   0.285   1.197   1.692  2.7958 -2.2481  0.4685
 1136SOL     OW 3533   3.365   2.993   1.532  0.2431  0.4470 -0.1936
 1136SOL    HW1 3534   3.426   2.928   1.496  1.0155  0.8135  0.3787
 1136SOL    HW2 3535   3.293   2.996   1.470  0.6301 -0.2865 -0.7074
 1137SOL     OW 3536   4.985   2.990   1.677  0.4053  0.4082  0.3576
 1137SOL    HW1 3537   4.986   2.894   1.683  1.6993  0.4323  1.0481
 1137SOL    HW2 3538   4.952   3.019   1.762  0.7927  0.5716  0.4561
 1138SOL     OW 3539   4.381   0.720   0.155 -0.7045  0.5334  0.8753
 1138SOL    HW1 3540   4.347   0.678   0.076 -0.6670  1.8320  0.1091
 1138SOL    HW2 3541   4.404   0.809   0.127 -0.8784  1.1210  2.4007
 1139SOL     OW 3542   1.902   5.916   2.400  0.3992  0.1321 -0.0036
 1139SOL    HW1 3543   1.950   5.836   2.423  0.6040  0.5336  1.0915
 1139SOL    HW2 3544   1.941   5.944   2.317 -0.9682 -1.8714 -1.4920
 1140SOL     OW 3545   2.573   5.901   1.691  0.3261  0.2520 -0.2611
 1140SOL    HW1 3546   2.657   5.931   1.727  0.3826  0.8179 -0.8491
 1140SOL    HW2 3547   2.588   5.892   1.597  0.4682 -2.1281 -0.1437
 1141SOL     OW 3548   6.053   2.241   1.787 -0.7075  0.1714 -0.3074
 1141SOL    HW1 3549   6.079   2.312   1.728  1.2188  0.0060  0.2401
 1141SOL    HW2 3550   6.001   2.182   1.731 -0.9184  1.1412 -1.2026
 1142SOL     OW 3551   5.240   3.055   3.565  0.3648  0.0390 -0.3879
 1142SOL    HW1 3552   5.192   3.092   3.639  1.0878  1.1040 -0.4159
 1142SOL    HW2 3553   5.195   3.089   3.488  0.2978 -0.1425 -0.4297
 1143SOL     OW 3554   3.266   4.785   3.954 -0.2421 -0.0631 -0.1377
 1143SOL    HW1 3555   3.231   4.822   3.872  0.6914 -0.1779 -0.6153
 1143SOL    HW2 3556   3.324   4.853   3.987 -1.8806  0.7478  1.4188
 1144SOL     OW 3557   1.566   1.375   1.026 -0.0622 -0.0811  0.0397
 1144SOL    HW1 3558   1.507   1.315   1.072 -2.4604  1.8427 -0.0647
 1144SOL    HW2 3559   1.556   1.353   0.933 -0.0517 -0.2225  0.0729
 1145SOL     OW 3560   1.330   3.047   1.433 -0.0241 -0.9573 -0.3442
 1145SOL    HW1 3561   1.283   3.118   1.389 -1.1383 -0.5982  1.2615
 1145SOL    HW2 3562   1.376   3.001   1.362  0.2805  0.9713 -1.5474
 1146SOL     OW 3563   2.491   3.376   2.100  0.0665 -0.1159 -0.0172
 1146SOL    HW1 3564   2.556   3.319   2.061 -1.5219 -0.8297 -1.9738
 1146SOL    HW2 3565   2.512   3.463   2.067  0.3947 -0.2294 -0.1113
 1147SOL     OW 3566   1.719   6.079   4.263 -0.3928  0.0156  0.2615
 1147SOL    HW1 3567   1.648   6.037   4.215  0.0344  0.9421 -1.3148
 1147SOL    HW2 3568   1.766   6.131   4.198  2.2309 -1.0895  0.9685
 1148SOL     OW 3569   4.996   2.502   2.867  0.1223 -0.1899  0.2483
 1148SOL    HW1 3570   5.051   2.528   2.793  0.3590 -1.8303 -0.2304
 1148SOL    HW2 3571   5.037   2.542   2.943  0.7465  0.3307 -0.3372
 1149SOL     OW 3572   2.827   2.669   2.756 -0.0913  0.3127  0.6292
 1149SOL    HW1 3573   2.773   2.592   2.736  1.9780 -0.7573 -2.2617
 1149SOL    HW2 3574   2.903   2.634   2.803  0.4920  0.6781 -0.0000
 1150SOL     OW 3575   1.744   1.069   2.468  0.3598 -0.3145 -0.5340
 1150SOL    HW1 3576   1.823   1.045   2.516  1.1477  0.0264 -1.5780
 1150SOL    HW2 3577   1.769   1.060   2.376 -1.0444 -0.8796 -0.9100
 1151SOL     OW 3578   0.047   2.509   4.182  0.1494  0.4558 -0.5433
 1151SOL    HW1 3579   0.130   2.465   4.200  0.1271  1.0681  1.4742
 1151SOL    HW2 3580   0.047   2.585   4.240 -1.5838  0.7963 -0.8907
 1152SOL     OW 3581   4.848   0.501   0.267 -0.2021 -0.1674 -0.3216
 1152SOL    HW1 3582   4.879   0.563   0.333  0.0302  1.1880 -1.5904
 1152SOL    HW2 3583   4.753   0.498   0.278 -0.0971 -0.7290  0.6434
 1153SOL     OW 3584   5.019   0.768   4.104  0.1939  0.4138 -0.4907
 1153SOL    HW1 3585   5.110   0.792   4.121  0.1285  0.9020 -0.8095
 1153SOL    HW2 3586   5.004   0.691   4.159  0.7405  0.4421 -0.2932
 1154SOL     OW 3587   0.636   5.081   4.450  0.2036 -0.0299  0.1259
 1154SOL    HW1 3588   0.696   5.087   4.376 -0.8095  1.7073 -0.6938
 1154SOL    HW2 3589   0.558   5.038   4.415 -1.1549  2.6364 -0.7046
 1155SOL     OW 3590   0.460   1.094   3.628 -0.6157 -0.2585 -0.0189
 1155SOL    HW1 3591   0.420   1.026   3.683  0.1914 -1.0856 -0.4061
 1155SOL    HW2 3592   0.395   1.164   3.627 -1.9540 -1.4148 -0.4088
 1156SOL     OW 3593   1.299   1.427   0.676 -0.4076 -0.1537 -0.1424
 1156SOL    HW1 3594   1.230   1.414   0.742  0.2170 -0.2343  0.5176
 1156SOL    HW2 3595   1.251   1.451   0.596 -1.2038 -0.3181  0.2622
 1157SOL     OW 3596   1.201   5.722   3.076  0.5694  0.4387  0.5185
 1157SOL    HW1 3597   1.253   5.753   3.151  3.4570 -1.1578 -0.5196
 1157SOL    HW2 3598   1.251   5.751   2.999 -0.9600 -0.0206 -0.7490
 1158SOL     OW 3599   1.568   0.358   3.680 -0.5649  0.0985  0.3928
 1158SOL    HW1 3600   1.503   0.304   3.726 -1.4236 -0.0260 -0.8856
 1158SOL    HW2 3601   1.572   0.321   3.592  1.5685 -0.1308  0.4930
 1159SOL     OW 3602   3.528   2.178   3.275  0.1048 -0.6380 -0.2395
 1159SOL    HW1 3603   3.554   2.243   3.340 -0.2141 -1.8080  1.1675
 1159SOL    HW2 3604   3.469   2.225   3.216 -0.7904  0.1772  1.2020
 1160SOL     OW 3605   3.740   1.470   2.131 -0.1345  0.2374  0.8209
 1160SOL    HW1 3606   3.762   1.559   2.106  1.4315 -0.1416  0.6163
 1160SOL    HW2 3607   3.711   1.428   2.050  1.0552  0.0707  0.4506
 1161SOL     OW 3608   0.776   0.071   1.756  1.2785 -0.2490 -0.4426
 1161SOL    HW1 3609   0.815   0.130   1.821  1.0586  1.7608 -1.9273
 1161SOL    HW2 3610   0.720   0.013   1.807  0.9121  1.3395  1.1931
 1162SOL     OW 3611   5.454   6.055   1.326  0.2544  0.4766  0.0941
 1162SOL    HW1 3612   5.529   6.011   1.286  0.4655 -1.4222  2.1883
 1162SOL    HW2 3613   5.378   6.012   1.287  0.2145  1.5565 -1.1412
 1163SOL     OW 3614   4.200   0.817   4.367 -0.7789  0.0410  0.1560
 1163SOL    HW1 3615   4.161   0.762   4.299 -0.6767  0.9770 -0.7107
 1163SOL    HW2 3616   4.125   0.848   4.419 -0.8297 -0.9366  0.7154
 1164SOL     OW 3617   2.860   1.894   3.603  0.3882 -0.2688 -0.3366
 1164SOL    HW1 3618   2.859   1.910   3.508 -1.0586 -1.0254 -0.5094
 1164SOL    HW2 3619   2.828   1.804   3.612  2.4795 -1.0447  0.8174
 1165SOL     OW 3620   2.530   2.972   0.830 -0.1702  0.1485 -0.6236
 1165SOL    HW1 3621   2.612   3.004   0.867  0.2136 -0.0060 -1.3043
 1165SOL    HW2 3622   2.523   3.016   0.745 -0.6923  0.0077 -0.6629
 1166SOL     OW 3623   0.888   5.019   3.824 -0.0469 -0.2558  0.3559
 1166SOL    HW1 3624   0.892   4.967   3.904  1.6182  0.2372  0.6769
 1166SOL    HW2 3625   0.828   4.971   3.767  1.1816 -2.4650  0.6808
 1167SOL     OW 3626   2.553   5.778   0.039 -0.1948 -0.3040 -0.7257
 1167SOL    HW1 3627   2.602   5.800   0.118  0.2659  0.3329 -1.1721
 1167SOL    HW2 3628   2.581   5.689   0.017 -0.0769 -0.3580 -0.3613
 1168SOL     OW 3629   1.002   5.264   3.125 -0.0767  0.1904 -0.6240
 1168SOL    HW1 3630   0.927   5.204   3.127  0.1009 -0.0909  1.2101
 1168SOL    HW2 3631   1.009   5.297   3.215  2.0463  0.1143 -0.6573
 1169SOL     OW 3632   4.762   4.981   1.842  0.1173  0.3024 -0.0105
 1169SOL    HW1 3633   4.782   5.075   1.839  0.7120  0.2895  1.4596
 1169SOL    HW2 3634   4.822   4.947   1.909 -0.8385 -0.9182  0.2879
 1170SOL     OW 3635   4.307   0.367   2.253 -0.5094 -0.7712  0.4271
 1170SOL    HW1 3636   4.287   0.301   2.187  0.9413  1.2831 -2.5241
 1170SOL    HW2 3637   4.259   0.445   2.224 -0.4361  0.1454  2.4158
 1171SOL     OW 3638   4.381   1.182   3.988 -0.1252 -0.6722 -0.6317
 1171SOL    HW1 3639   4.443   1.113   3.966  0.4609 -0.1935 -0.5368
 1171SOL    HW2 3640   4.436   1.258   4.010 -0.7247  0.0698 -1.4884
 1172SOL     OW 3641   1.130   1.861   0.897  0.4608 -0.2289 -0.5960
 1172SOL    HW1 3642   1.105   1.875   0.989  2.0597 -1.3782  0.1157
 1172SOL    HW2 3643   1.210   1.810   0.902 -0.5568 -2.4182 -2.6661
 1173SOL     OW 3644   4.620   4.904   0.311  0.4455  0.2774 -0.4992
 1173SOL    HW1 3645   4.579   4.922   0.395  0.6852 -0.2266 -0.2645
 1173SOL    HW2 3646   4.712   4.887   0.332  0.8930  1.6885 -1.0480
 1174SOL     OW 3647   4.337   5.900   0.321 -0.0312 -0.2416 -0.2024
 1174SOL    HW1 3648   4.385   5.845   0.259  1.8923  1.3285 -0.2968
 1174SOL    HW2 3649   4.273   5.946   0.267  0.0267 -0.5737 -0.5669
 1175SOL     OW 3650   3.241   6.125   4.479 -0.2070 -0.0104 -0.2590
 1175SOL    HW1 3651   3.192   6.090   4.404  0.4072 -1.7294  0.0754
 1175SOL    HW2 3652   3.204   6.080   4.555  1.1498 -0.5679  0.1119
 1176SOL     OW 3653   4.149   4.211   3.649 -0.1424  0.0049  0.0583
 1176SOL    HW1 3654   4.135   4.161   3.568  1.9159 -4.0163  1.6537
 1176SOL    HW2 3655   4.235   4.184   3.680 -0.5001  1.6579  3.3615
 1177SOL     OW 3656   4.583   4.909   2.874 -0.1756 -0.3891 -0.6254
 1177SOL    HW1 3657   4.608   4.893   2.965  2.5313  2.2404 -0.6206
 1177SOL    HW2 3658   4.572   4.821   2.836 -2.4322 -1.6747  2.2267
 1178SOL     OW 3659   4.689   1.704   4.503  0.3063  0.5944  0.2383
 1178SOL    HW1 3660   4.775   1.705   4.545  0.4320 -1.0553  0.1871
 1178SOL    HW2 3661   4.627   1.690   4.574  0.5870 -3.1649  0.1810
 1179SOL     OW 3662   1.085   4.100   0.474  0.3309 -0.1444  0.3626
 1179SOL    HW1 3663   0.997   4.124   0.447  0.5765  4.0671  1.7953
 1179SOL    HW2 3664   1.126   4.066   0.394 -1.7168  0.9686 -1.3658
 1180SOL     OW 3665   4.020   4.756   2.027  0.8719  0.1651  0.5984
 1180SOL    HW1 3666   4.105   4.793   2.051 -0.2044  2.6006  1.2718
 1180SOL    HW2 3667   3.959   4.830   2.034 -0.9371 -0.6673 -2.4432
 1181SOL     OW 3668   4.024   5.432   3.201  0.3907  0.1042  0.2767
 1181SOL    HW1 3669   3.996   5.389   3.281 -0.1016  1.7085  1.0415
 1181SOL    HW2 3670   4.113   5.399   3.185  0.3540 -0.5353  1.2648
 1182SOL     OW 3671   0.683   5.725   4.335 -0.2286 -0.3807 -0.6049
 1182SOL    HW1 3672   0.676   5.645   4.282 -0.6334 -0.5038 -0.3746
 1182SOL    HW2 3673   0.750   5.704   4.401 -0.4781 -0.6095 -0.4190
 1183SOL     OW 3674   5.825   5.530   2.332  0.0278 -0.9097  0.1107
 1183SOL    HW1 3675   5.914   5.562   2.327 -0.1726 -0.2291  0.6618
 1183SOL    HW2 3676   5.784   5.558   2.250  0.1582 -0.7169  0.1126
 1184SOL     OW 3677   3.269   3.710   0.945  0.4404 -0.4133  0.6930
 1184SOL    HW1 3678   3.247   3.755   1.027 -1.8787  0.0879 -0.0576
 1184SOL    HW2 3679   3.215   3.631   0.946 -2.9567  1.4045 -1.7668
 1185SOL     OW 3680   6.211   3.919   0.194 -0.5852  0.4925  0.1543
 1185SOL    HW1 3681   6.151   3.856   0.155 -1.4077  0.5149  1.2710
 1185SOL    HW2 3682   6.187   3.921   0.287  1.4419  0.1921  0.7977
 1186SOL     OW 3683   5.646   6.190   3.418  0.2708 -0.5976  0.0467
 1186SOL    HW1 3684   5.649   6.162   3.327 -0.8832 -2.5454  0.4766
 1186SOL    HW2 3685   5.718   6.143   3.460  0.4277 -0.1810  0.2567
 1187SOL     OW 3686   5.250   3.281   1.939  0.3482 -0.2439 -0.1235
 1187SOL    HW1 3687   5.259   3.364   1.892  2.6390 -0.4957 -0.3365
 1187SOL    HW2 3688   5.299   3.218   1.885 -0.8182 -1.6436  0.3255
 1188SOL     OW 3689   1.214   0.294   1.740  0.0547  0.0125 -0.3292
 1188SOL    HW1 3690   1.217   0.227   1.809  1.9507  0.0444 -0.2666
 1188SOL    HW2 3691   1.262   0.368   1.777 -0.9466  0.9635 -0.8536
 1189SOL     OW 3692   4.574   3.846   1.856 -0.7498  0.2057 -0.2145
 1189SOL    HW1 3693   4.641   3.861   1.922 -1.4581 -1.2782  0.9896
 1189SOL    HW2 3694   4.606   3.771   1.806 -1.0929  0.0716 -0.2383
 1190SOL     OW 3695   0.671   2.896   4.446  0.3423 -0.3549 -0.0219
 1190SOL    HW1 3696   0.733   2.926   4.513  2.4555 -0.4335 -1.7305
 1190SOL    HW2 3697   0.651   2.974   4.395  0.5560 -0.6400 -0.5626
 1191SOL     OW 3698   5.222   4.130   3.145 -0.6237 -0.5558 -0.5604
 1191SOL    HW1 3699   5.270   4.101   3.068  0.1147  0.4522 -0.5194
 1191SOL    HW2 3700   5.221   4.226   3.139 -0.9501 -0.4674  0.4376
 1192SOL     OW 3701   4.103   5.571   0.413 -0.0940 -0.3502 -0.4614
 1192SOL    HW1 3702   4.128   5.602   0.326 -2.6851 -1.7842 -1.9399
 1192SOL    HW2 3703   4.045   5.639   0.446  2.1154  1.0391  1.1719
 1193SOL     OW 3704   1.649   1.643   2.264 -0.9024 -0.1375  0.0923
 1193SOL    HW1 3705   1.694   1.564   2.232 -0.9185  0.0830 -0.4924
 1193SOL    HW2 3706   1.707   1.676   2.333 -0.6683 -0.4087  0.0341
 1194SOL     OW 3707   0.200   3.364   2.699 -0.1650 -0.3921  0.4506
 1194SOL    HW1 3708   0.130   3.299   2.699  0.3099 -0.9791 -0.9993
 1194SOL    HW2 3709   0.271   3.324   2.749  0.6543 -1.7450 -1.5448
 1195SOL     OW 3710   3.199   1.609   3.020 -0.3483  0.2705 -0.7703
 1195SOL    HW1 3711   3.257   1.585   2.948 -0.2924 -0.5557 -0.4630
 1195SOL    HW2 3712   3.217   1.545   3.088  0.2056  1.4904  0.3394
 1196SOL     OW 3713   4.738   6.016   3.322  0.4221 -0.0320  0.3432
 1196SOL    HW1 3714   4.776   6.103   3.335  1.5053 -0.3088 -0.6255
 1196SOL    HW2 3715   4.813   5.961   3.298 -0.5956 -0.3232 -3.2205
 1197SOL     OW 3716   1.553   4.825   1.610  0.2396 -0.0647 -0.0804
 1197SOL    HW1 3717   1.621   4.893   1.603  0.3629  0.0027  1.3276
 1197SOL    HW2 3718   1.483   4.857   1.553  0.9039  0.4441 -0.6678
 1198SOL     OW 3719   3.424   6.018   1.122 -0.1489 -0.1716  0.0959
 1198SOL    HW1 3720   3.392   6.021   1.032  0.8389 -0.4869 -0.2926
 1198SOL    HW2 3721   3.471   5.935   1.128 -0.3184 -0.2312  0.9638
 1199SOL     OW 3722   4.132   6.045   3.935  0.0610  0.4746  0.2698
 1199SOL    HW1 3723   4.098   6.128   3.902  0.1432 -0.1578 -1.6386
 1199SOL    HW2 3724   4.220   6.066   3.966 -0.5372  1.3729  1.5688
 1200SOL     OW 3725   2.928   5.629   3.076  0.0906 -0.3003 -0.2379
 1200SOL    HW1 3726   2.849   5.591   3.114 -1.0737  0.6792 -1.5076
 1200SOL    HW2 3727   3.000   5.586   3.123 -1.1453 -1.8995  0.3515
 1201SOL     OW 3728   0.474   1.068   1.927  0.1839 -0.1257 -0.3578
 1201SOL    HW1 3729   0.412   1.130   1.888  0.3811  0.8905  0.8249
 1201SOL    HW2 3730   0.560   1.107   1.912  0.3751 -0.4930 -0.2346
 1202SOL     OW 3731   5.848   5.597   3.060 -0.2040  0.1406  0.0728
 1202SOL    HW1 3732   5.847   5.511   3.102 -1.1261  0.7503  1.4704
 1202SOL    HW2 3733   5.759   5.630   3.071  0.5028  1.9770  1.2327
 1203SOL     OW 3734   4.479   5.317   4.431  0.3422 -0.3257 -0.2643
 1203SOL    HW1 3735   4.451   5.300   4.341 -0.7465 -0.0205 -0.0158
 1203SOL    HW2 3736   4.424   5.390   4.460  2.3030  1.2453 -0.1028
 1204SOL     OW 3737   2.102   6.207   0.662  0.3625 -0.1674  0.9795
 1204SOL    HW1 3738   2.108   6.155   0.741 -0.8618  0.1000  1.2862
 1204SOL    HW2 3739   2.043   6.158   0.605  0.8587 -0.1260  0.4024
 1205SOL     OW 3740   2.933   0.110   0.737  0.2014 -0.2325 -0.4304
 1205SOL    HW1 3741   2.850   0.132   0.779 -0.7965 -1.4573 -1.5886
 1205SOL    HW2 3742   2.918   0.125   0.644  1.1568 -0.8307 -0.7140
 1206SOL     OW 3743   0.882   1.962   0.377 -0.2950 -0.0224  0.6522
 1206SOL    HW1 3744   0.789   1.939   0.383 -0.5010  0.7831  0.7229
 1206SOL    HW2 3745   0.928   1.886   0.413 -0.6578 -2.1319 -2.5820
 1207SOL     OW 3746   4.236   1.902   1.874  0.0512 -0.4730  0.5045
 1207SOL    HW1 3747   4.161   1.960   1.885  1.0420  1.0468 -0.0192
 1207SOL    HW2 3748   4.213   1.823   1.923 -0.8805  0.8592  2.4982
 1208SOL     OW 3749   1.827   3.875   2.490  0.0845  0.2887  0.3418
 1208SOL    HW1 3750   1.766   3.803   2.505 -0.1288  0.8455  3.0358
 1208SOL    HW2 3751   1.910   3.832   2.470 -0.3209 -0.6368  0.5394
 1209SOL     OW 3752   5.245   2.189   3.943 -0.3326 -0.2788  0.4737
 1209SOL    HW1 3753   5.286   2.133   4.008  0.3623 -0.2590  0.0772
 1209SOL    HW2 3754   5.275   2.277   3.965 -0.5552 -0.1979  0.4604
 1210SOL     OW 3755   1.919   6.178   3.007 -0.0143 -0.0685  0.2451
 1210SOL    HW1 3756   1.943   6.113   3.073 -1.1045 -0.9125 -0.1160
 1210SOL    HW2 3757   1.986   6.170   2.939 -0.6369 -1.6638 -0.3010
 1211SOL     OW 3758   5.918   1.151   3.057 -0.3273  0.2547 -0.1392
 1211SOL    HW1 3759   5.964   1.228   3.022 -0.7235  0.8552  0.6131
 1211SOL    HW2 3760   5.986   1.084   3.064  0.2547  0.8499  0.1282
 1212SOL     OW 3761   1.232   6.210   2.916  0.7309  0.2391  0.2170
 1212SOL    HW1 3762   1.236   6.304   2.935  0.8857  0.1068  0.8827
 1212SOL    HW2 3763   1.305   6.173   2.965  0.7886 -0.2074 -0.1964
 1213SOL     OW 3764   5.307   0.776   0.046  0.2532  0.2872 -0.3065
 1213SOL    HW1 3765   5.256   0.711  -0.002  0.7956 -0.2966 -0.1103
 1213SOL    HW2 3766   5.294   0.754   0.138 -0.7123  1.3471 -0.1363
 1214SOL     OW 3767   0.371   5.182   0.107  0.2563 -0.3750  0.1719
 1214SOL    HW1 3768   0.324   5.199   0.189  2.1948  0.8705  1.1918
 1214SOL    HW2 3769   0.337   5.248   0.046 -1.9995 -1.9942 -0.5743
 1215SOL     OW 3770   1.680   5.213   3.990 -0.0610  0.1058 -0.3871
 1215SOL    HW1 3771   1.718   5.245   4.072  0.2295 -0.0714 -0.4504
 1215SOL    HW2 3772   1.695   5.119   3.991  1.4056  0.2624 -1.3547
 1216SOL     OW 3773   1.730   4.634   1.237 -0.5317 -0.1035 -0.3260
 1216SOL    HW1 3774   1.718   4.607   1.328  0.4039  0.7934  0.1099
 1216SOL    HW2 3775   1.661   4.699   1.222 -0.9633 -0.5696 -0.4237
 1217SOL     OW 3776   4.959   5.893   4.536 -0.0391  0.2225  0.3077
 1217SOL    HW1 3777   4.918   5.834   4.599 -1.3431  2.0874  1.4070
 1217SOL    HW2 3778   5.040   5.921   4.579  0.4719 -0.5190 -0.1224
 1218SOL     OW 3779   0.034   1.953   2.214  0.3739 -0.2040 -0.1433
 1218SOL    HW1 3780   0.066   1.912   2.294 -0.1896 -0.4179 -0.0196
 1218SOL    HW2 3781   0.043   2.047   2.228  1.8602 -0.2477 -0.4984
 1219SOL     OW 3782   3.887   0.171   2.575  0.1192 -0.1168  0.1666
 1219SOL    HW1 3783   3.936   0.156   2.655  1.5831 -1.2662 -0.8341
 1219SOL    HW2 3784   3.901   0.264   2.555 -0.0685  0.1226  1.0678
 1220SOL     OW 3785   3.474   1.085   1.524 -0.0379 -0.4498 -0.5252
 1220SOL    HW1 3786   3.383   1.113   1.512  0.3055  0.3590 -1.6127
 1220SOL    HW2 3787   3.473   1.035   1.606 -1.1992  0.7217  0.2691
 1221SOL     OW 3788   3.880   2.287   0.902 -0.4156 -0.0934  0.0027
 1221SOL    HW1 3789   3.811   2.242   0.854 -1.0595  0.8484 -0.0111
 1221SOL    HW2 3790   3.842   2.372   0.925  0.3687  0.0403  0.9411
 1222SOL     OW 3791   3.848   1.450   4.295 -0.6654 -0.5574 -0.2657
 1222SOL    HW1 3792   3.853   1.435   4.201  0.5172  0.2275 -0.3607
 1222SOL    HW2 3793   3.939   1.462   4.323 -0.9790 -0.7811  0.9893
 1223SOL     OW 3794   1.142   1.671   1.952 -0.1089 -0.4090 -0.3179
 1223SOL    HW1 3795   1.209   1.739   1.943  0.0957 -0.6731 -0.8599
 1223SOL    HW2 3796   1.191   1.592   1.973 -0.3678 -0.3496  0.6175
 1224SOL     OW 3797   5.273   3.835   1.090 -0.0546 -0.6674 -0.7245
 1224SOL    HW1 3798   5.306   3.767   1.032  1.2045 -1.4596  0.7436
 1224SOL    HW2 3799   5.204   3.878   1.040  1.0368 -1.0956 -2.8397
 1225SOL     OW 3800   2.052   3.019   4.128 -0.1085 -0.0648  0.4534
 1225SOL    HW1 3801   2.084   3.102   4.163 -1.0545  0.4985  0.0621
 1225SOL    HW2 3802   2.112   2.998   4.056  1.4362 -0.8768  1.8500
 1226SOL     OW 3803   0.398   3.118   2.788  0.0711  0.1003  0.0690
 1226SOL    HW1 3804   0.485   3.097   2.824  0.0442 -0.9057 -0.3844
 1226SOL    HW2 3805   0.338   3.063   2.837 -0.3658  0.9664  0.5419
 1227SOL     OW 3806   0.227   3.146   1.198 -0.2634 -0.1441  0.4667
 1227SOL    HW1 3807   0.223   3.236   1.168  1.6179 -0.1810 -0.1969
 1227SOL    HW2 3808   0.286   3.103   1.136  2.5196 -0.6978  3.0412
 1228SOL     OW 3809   2.804   3.273   2.527  0.3843 -0.1289  0.0929
 1228SOL    HW1 3810   2.788   3.334   2.455  1.0385  0.5354  0.4829
 1228SOL    HW2 3811   2.894   3.292   2.555  0.7025 -1.4307  0.0944
 1229SOL     OW 3812   5.822   3.764   2.726 -0.6141 -0.5372  0.0450
 1229SOL    HW1 3813   5.819   3.681   2.774  0.4837  0.2297  1.6177
 1229SOL    HW2 3814   5.770   3.824   2.779  2.2496  0.8794  1.7664
 1230SOL     OW 3815   5.606   1.059   3.680  0.1493  0.0614  0.0947
 1230SOL    HW1 3816   5.625   1.127   3.745  0.9598  1.7418 -1.6801
 1230SOL    HW2 3817   5.524   1.020   3.708  1.2936 -0.7253  3.0681
 1231SOL     OW 3818   2.469   0.448   0.242 -0.3221  0.2013  0.6186
 1231SOL    HW1 3819   2.484   0.379   0.178 -1.1072  1.3060 -0.8717
 1231SOL    HW2 3820   2.476   0.404   0.327  1.4612 -1.2075 -0.1379
 1232SOL     OW 3821   5.539   0.586   0.009 -0.0421 -0.3908 -0.1315
 1232SOL    HW1 3822   5.485   0.509   0.027 -1.9171  0.5394 -1.2313
 1232SOL    HW2 3823   5.567   0.575  -0.082 -0.6322  0.3528 -0.4209
 1233SOL     OW 3824   4.198   0.726   1.801 -0.3638 -0.0432  0.4880
 1233SOL    HW1 3825   4.286   0.693   1.781 -0.2946  0.0913  0.5684
 1233SOL    HW2 3826   4.212   0.795   1.866 -0.6629 -1.1414  1.8199
 1234SOL     OW 3827   6.326   1.739   3.254 -0.0641  0.5927  0.5393
 1234SOL    HW1 3828   6.274   1.703   3.183 -0.0795  0.5412  0.5769
 1234SOL    HW2 3829   6.274   1.721   3.333  0.5553 -0.5227  0.7300
 1235SOL     OW 3830   3.778   4.699   1.104  0.1654 -0.3028 -0.0034
 1235SOL    HW1 3831   3.813   4.610   1.094 -1.6017 -1.2515  1.2248
 1235SOL    HW2 3832   3.720   4.694   1.180 -0.3548  1.8310 -0.1239
 1236SOL     OW 3833   4.997   0.757   0.707 -0.4106 -0.1802 -0.2741
 1236SOL    HW1 3834   5.031   0.801   0.785 -0.2242  1.6386 -1.2860
 1236SOL    HW2 3835   4.972   0.670   0.738  0.9649 -0.0599  1.4904
 1237SOL     OW 3836   1.906   2.981   1.176  0.4205  0.0956  0.6344
 1237SOL    HW1 3837   1.883   3.010   1.088  0.1788 -0.0954  0.6308
 1237SOL    HW2 3838   1.850   3.034   1.233  1.0682  0.7172  0.7228
 1238SOL     OW 3839   6.049   1.419   0.294 -0.6100 -0.0470 -0.5200
 1238SOL    HW1 3840   6.097   1.437   0.213 -0.4647 -1.5093 -0.8088
 1238SOL    HW2 3841   5.970   1.373   0.266 -1.0027  0.2001  0.1253
 1239SOL     OW 3842   1.034   5.220   0.774 -0.0920  0.0547 -0.0552
 1239SOL    HW1 3843   0.991   5.242   0.692 -0.3458  2.1760  0.5154
 1239SOL    HW2 3844   1.118   5.265   0.769  0.0634 -0.1353  0.6667
 1240SOL     OW 3845   0.612   2.841   1.961 -0.5792 -0.1743 -0.1103
 1240SOL    HW1 3846   0.611   2.781   1.887  0.9271 -1.8029  1.0244
 1240SOL    HW2 3847   0.684   2.902   1.943  0.9750 -1.6324  0.6030
 1241SOL     OW 3848   1.335   1.367   2.959  0.0876  0.5068 -0.4777
 1241SOL    HW1 3849   1.277   1.413   3.021  0.2512 -0.5191  0.4965
 1241SOL    HW2 3850   1.283   1.293   2.928  0.5801  0.0434 -0.2231
 1242SOL     OW 3851   4.525   3.407   3.702 -0.4630 -0.0969  0.2042
 1242SOL    HW1 3852   4.532   3.329   3.758 -3.3551 -1.6048 -1.0593
 1242SOL    HW2 3853   4.431   3.417   3.687 -0.0877  1.9135 -2.0592
 1243SOL     OW 3854   6.289   3.667   4.493 -0.5321  0.0412  0.4110
 1243SOL    HW1 3855   6.338   3.724   4.434  2.5368 -0.9744  1.6036
 1243SOL    HW2 3856   6.219   3.630   4.439 -0.5319  2.1850 -1.3203
 1244SOL     OW 3857   3.935   5.549   3.695 -0.4016 -0.1046  0.2042
 1244SOL    HW1 3858   3.923   5.454   3.695 -0.4833 -0.0960 -0.0264
 1244SOL    HW2 3859   3.856   5.583   3.737 -0.9126 -0.0841 -0.7125
 1245SOL     OW 3860   1.923   5.427   0.215 -0.3278  0.1775 -0.2351
 1245SOL    HW1 3861   1.959   5.451   0.301  3.5496 -3.0445 -0.3539
 1245SOL    HW2 3862   1.962   5.490   0.154 -1.7585  1.4791  0.0843
 1246SOL     OW 3863   2.830   6.029   0.405 -0.0253  0.7088 -0.2710
 1246SOL    HW1 3864   2.868   6.056   0.321 -1.8345  2.0060 -0.7813
 1246SOL    HW2 3865   2.869   6.089   0.468  0.9198  0.0908 -0.2216
 1247SOL     OW 3866   6.189   1.616   2.419  0.0492 -0.1517 -0.4541
 1247SOL    HW1 3867   6.186   1.702   2.461 -1.0479 -0.1531 -0.4847
 1247SOL    HW2 3868   6.180   1.553   2.490 -1.8193 -0.1535 -0.5948
 1248SOL     OW 3869   5.063   5.076   1.901  0.2865  0.0210  0.4470
 1248SOL    HW1 3870   5.111   4.995   1.885  0.8520 -0.1361  2.4271
 1248SOL    HW2 3871   5.082   5.130   1.824  1.6992 -0.9142  0.0637
 1249SOL     OW 3872   1.294   2.057   4.495 -0.2637  0.1407 -0.1070
 1249SOL    HW1 3873   1.344   2.040   4.575 -1.0773 -0.6721  0.2576
 1249SOL    HW2 3874   1.360   2.087   4.432  0.8533 -1.5206  0.1412
 1250SOL     OW 3875   0.899   2.755   1.075 -0.3015  0.7291 -0.7304
 1250SOL    HW1 3876   0.964   2.765   1.144  0.1187  1.8237 -1.2262
 1250SOL    HW2 3877   0.883   2.661   1.069 -1.3932  0.6125  1.7295
 1251SOL     OW 3878   6.035   5.237   1.634  0.2087  0.0427 -0.1518
 1251SOL    HW1 3879   6.097   5.267   1.568  1.8570  1.0423  1.6368
 1251SOL    HW2 3880   5.960   5.296   1.625  0.8331  0.8235 -0.5030
 1252SOL     OW 3881   5.000   4.658   0.574 -0.0207  0.5142 -0.0294
 1252SOL    HW1 3882   4.918   4.626   0.610  0.6237 -0.1719  0.9379
 1252SOL    HW2 3883   5.068   4.615   0.626  0.9785  0.5519 -1.2050
 1253SOL     OW 3884   1.212   2.811   3.497 -0.3287  0.0993  0.1704
 1253SOL    HW1 3885   1.283   2.822   3.434 -0.3745  0.2571  0.1464
 1253SOL    HW2 3886   1.190   2.899   3.525 -0.8193  0.0929 -0.1663
 1254SOL     OW 3887   3.895   2.121   1.479 -0.2329  0.1726  0.3323
 1254SOL    HW1 3888   3.871   2.192   1.539 -0.6972  0.1993  0.1251
 1254SOL    HW2 3889   3.959   2.069   1.527 -1.6177 -0.6384  1.4472
 1255SOL     OW 3890   5.494   2.545   1.576 -0.1203  0.2144 -0.3376
 1255SOL    HW1 3891   5.570   2.499   1.540 -1.2716 -0.3889 -2.2962
 1255SOL    HW2 3892   5.495   2.631   1.534 -0.5573  0.1724 -0.4404
 1256SOL     OW 3893   0.270   1.295   3.647 -0.2542  0.2259  0.8256
 1256SOL    HW1 3894   0.221   1.310   3.566  1.0403  0.4386  0.0351
 1256SOL    HW2 3895   0.274   1.381   3.688  0.2855  0.4316  0.3731
 1257SOL     OW 3896   1.027   3.816   0.595 -0.2535  0.6682  0.2971
 1257SOL    HW1 3897   1.119   3.836   0.574  0.6700 -2.6002  0.1173
 1257SOL    HW2 3898   0.978   3.855   0.523  0.4860  4.2265  1.3415
 1258SOL     OW 3899   4.202   4.742   0.464 -0.0552 -0.4266 -0.0482
 1258SOL    HW1 3900   4.292   4.722   0.437  0.3831 -0.3612  1.2215
 1258SOL    HW2 3901   4.159   4.657   0.471  0.3695 -0.5973  0.7309
 1259SOL     OW 3902   5.650   1.057   1.154 -0.2604  0.1510 -0.2465
 1259SOL    HW1 3903   5.644   1.149   1.179  0.4173  0.8925 -2.3563
 1259SOL    HW2 3904   5.703   1.017   1.222 -0.7617  1.2456  0.8627
 1260SOL     OW 3905   1.814   4.158   1.397  0.0539 -0.1113  0.2534
 1260SOL    HW1 3906   1.834   4.067   1.420  1.4647  0.2821  0.8236
 1260SOL    HW2 3907   1.838   4.166   1.305 -0.1405 -0.3161  0.1819
 1261SOL     OW 3908   0.935   4.467   4.446  0.3047 -0.2691 -0.1091
 1261SOL    HW1 3909   0.904   4.406   4.380 -1.3325 -1.0392  1.2148
 1261SOL    HW2 3910   0.899   4.552   4.419 -1.9078 -0.8666  0.5379
 1262SOL     OW 3911   4.957   1.794   0.123 -0.3336  0.2806  0.4563
 1262SOL    HW1 3912   4.985   1.716   0.074  1.9237 -0.7642  2.9157
 1262SOL    HW2 3913   4.872   1.817   0.084  0.0600 -1.7112 -2.2117
 1263SOL     OW 3914   6.069   0.433   1.935  0.0058 -0.2318  0.0770
 1263SOL    HW1 3915   6.149   0.424   1.986  1.6267  3.6836 -1.0654
 1263SOL    HW2 3916   6.002   0.458   1.999  1.3132  2.0011  0.7590
 1264SOL     OW 3917   5.889   3.485   1.457  1.0343 -0.4794 -0.0918
 1264SOL    HW1 3918   5.958   3.479   1.524  0.4804 -0.1254  0.5377
 1264SOL    HW2 3919   5.935   3.469   1.374  1.3998 -3.3668  0.4592
 1265SOL     OW 3920   3.754   5.433   0.646  0.3142 -0.2385  0.5962
 1265SOL    HW1 3921   3.803   5.391   0.576  0.5958 -0.2876  0.8210
 1265SOL    HW2 3922   3.686   5.370   0.670 -0.1135 -0.0149  0.0225
 1266SOL     OW 3923   5.442   1.655   3.485 -0.2332  0.0643  0.2577
 1266SOL    HW1 3924   5.489   1.587   3.436 -2.1541  0.4580 -2.5733
 1266SOL    HW2 3925   5.503   1.728   3.489  1.1238 -0.9921  1.5280
 1267SOL     OW 3926   4.236   4.148   2.625 -0.0459  0.0435 -0.1472
 1267SOL    HW1 3927   4.203   4.232   2.658  1.2807 -0.0513  1.7768
 1267SOL    HW2 3928   4.331   4.157   2.629  0.1910 -0.9233 -1.8502
 1268SOL     OW 3929   3.717   0.896   1.152 -0.0843 -0.3665 -0.5643
 1268SOL    HW1 3930   3.651   0.958   1.122  1.0437 -0.0449 -2.8448
 1268SOL    HW2 3931   3.668   0.818   1.178 -1.3809  0.2431 -1.0109
 1269SOL     OW 3932   4.765   1.059   2.410 -0.0225  0.1607  0.1833
 1269SOL    HW1 3933   4.853   1.097   2.417 -0.3570  0.8607  0.8770
 1269SOL    HW2 3934   4.733   1.054   2.500 -0.6385 -0.2399 -0.0397
 1270SOL     OW 3935   6.226   1.430   0.698  0.2852  0.2955 -0.5158
 1270SOL    HW1 3936   6.170   1.368   0.653  1.8627 -0.7821 -1.1917
 1270SOL    HW2 3937   6.315   1.397   0.683  1.0905  1.4866  1.0290
 1271SOL     OW 3938   0.564   3.869   0.432  0.6614  0.1777 -0.3359
 1271SOL    HW1 3939   0.526   3.804   0.492  0.9485  0.5699  0.2908
 1271SOL    HW2 3940   0.585   3.819   0.353  0.5735 -0.4272  0.0065
 1272SOL     OW 3941   5.228   5.333   0.568 -0.1335  0.1986 -0.4779
 1272SOL    HW1 3942   5.194   5.326   0.658  1.9346 -0.2870  0.3778
 1272SOL    HW2 3943   5.206   5.422   0.541 -2.3327 -0.1632 -0.2622
 1273SOL     OW 3944   0.908   3.685   3.195  0.4171  0.2658 -0.1902
 1273SOL    HW1 3945   0.816   3.658   3.186  0.0841  1.4852 -0.8799
 1273SOL    HW2 3946   0.923   3.686   3.289 -1.0368  2.1498  0.1529
 1274SOL     OW 3947   2.339   0.425   1.826 -0.3809  0.0701 -0.2202
 1274SOL    HW1 3948   2.368   0.374   1.901 -0.3077  0.6988  0.1902
 1274SOL    HW2 3949   2.415   0.479   1.802 -0.6169  0.3750 -0.3010
 1275SOL     OW 3950   5.027   6.186   4.042  0.1333  0.7346 -0.4214
 1275SOL    HW1 3951   5.101   6.165   3.986 -0.3752  1.9965 -1.6897
 1275SOL    HW2 3952   5.052   6.152   4.128  2.3146  1.3241 -0.6885
 1276SOL     OW 3953   1.068   5.551   3.540 -0.0303  0.3715  0.1044
 1276SOL    HW1 3954   1.015   5.602   3.479  1.0862  1.9201  0.3076
 1276SOL    HW2 3955   1.099   5.476   3.489 -1.3779  0.0673 -0.3508
 1277SOL     OW 3956   1.120   5.336   3.405  0.1928 -0.8542 -0.0388
 1277SOL    HW1 3957   1.051   5.297   3.458 -0.1481 -0.6718 -0.3341
 1277SOL    HW2 3958   1.188   5.269   3.399 -0.5829 -1.6194 -0.9469
 1278SOL     OW 3959   6.045   1.437   2.924  0.1299  0.0446  0.2226
 1278SOL    HW1 3960   6.104   1.504   2.956  0.0652 -0.5938  1.8811
 1278SOL    HW2 3961   5.985   1.483   2.865  0.4566  1.2924  0.8140
 1279SOL     OW 3962   4.311   3.413   1.988 -0.0802  0.0750 -0.4771
 1279SOL    HW1 3963   4.221   3.384   1.994  0.1248 -0.4926  0.0449
 1279SOL    HW2 3964   4.305   3.502   1.953 -0.7773 -0.2550 -1.2602
 1280SOL     OW 3965   4.434   3.173   3.459  0.0436  0.6987 -0.1063
 1280SOL    HW1 3966   4.382   3.127   3.524  0.7820 -2.3890 -1.3204
 1280SOL    HW2 3967   4.375   3.186   3.385  0.2516 -0.2804 -0.4795
 1281SOL     OW 3968   1.922   6.091   1.068  0.1871  0.2097  0.5935
 1281SOL    HW1 3969   1.909   5.997   1.080 -0.6923  0.0956 -0.8113
 1281SOL    HW2 3970   2.015   6.105   1.087  0.5822 -1.1251 -0.0837
 1282SOL     OW 3971   0.607   5.160   0.533  0.6422  0.0676 -0.3112
 1282SOL    HW1 3972   0.554   5.104   0.477  0.4342 -0.5319  0.4577
 1282SOL    HW2 3973   0.607   5.116   0.618  2.4143 -0.0108 -0.2755
 1283SOL     OW 3974   0.715   6.130   1.592  0.0983 -0.0661 -0.0872
 1283SOL    HW1 3975   0.739   6.143   1.501 -2.8755  2.2809 -0.8724
 1283SOL    HW2 3976   0.779   6.181   1.642  1.4833 -0.9900 -0.7925
 1284SOL     OW 3977   1.452   4.414   3.722 -0.5477  0.7353 -0.5964
 1284SOL    HW1 3978   1.390   4.472   3.765 -1.4021 -1.9243  2.6866
 1284SOL    HW2 3979   1.399   4.341   3.691  0.6129  0.5301 -2.4028
 1285SOL     OW 3980   0.188   0.801   0.214 -1.0138  0.1931  0.0350
 1285SOL    HW1 3981   0.214   0.709   0.218 -0.4800  0.3249  2.1116
 1285SOL    HW2 3982   0.174   0.818   0.121  0.4417 -1.5430 -0.6256
 1286SOL     OW 3983   5.611   5.022   1.533 -0.2156 -0.2066  0.3861
 1286SOL    HW1 3984   5.536   5.002   1.477 -0.5466  0.0691  0.7145
 1286SOL    HW2 3985   5.578   5.089   1.593  0.6147  0.7378 -0.1615
 1287SOL     OW 3986   4.580   3.820   0.495  0.1789  0.4840  0.6712
 1287SOL    HW1 3987   4.620   3.894   0.542 -0.6186  2.1150 -0.9335
 1287SOL    HW2 3988   4.507   3.860   0.446 -2.1911 -1.8788  1.7763
 1288SOL     OW 3989   0.853   1.298   4.095  0.3682  0.4862  0.1496
 1288SOL    HW1 3990   0.816   1.219   4.056  0.9713  0.9209 -1.4458
 1288SOL    HW2 3991   0.939   1.270   4.128  0.6385  0.4848 -0.5326
 1289SOL     OW 3992   3.997   2.805   0.698 -0.0426  0.1457 -0.3634
 1289SOL    HW1 3993   4.027   2.739   0.761  3.2021  0.8725 -0.7843
 1289SOL    HW2 3994   4.047   2.883   0.720 -0.5467  1.1828 -2.4044
 1290SOL     OW 3995   5.038   0.805   1.168 -0.0002 -0.2300  0.4783
 1290SOL    HW1 3996   4.977   0.736   1.142  0.7382 -0.1206 -2.1535
 1290SOL    HW2 3997   5.071   0.777   1.254 -2.1201 -1.3454  1.0718
 1291SOL     OW 3998   4.206   0.763   0.701  1.0757  0.3198  0.1925
 1291SOL    HW1 3999   4.281   0.744   0.758  0.4721 -0.6609  0.7201
 1291SOL    HW2 4000   4.177   0.850   0.728  2.3751  1.0198 -0.4714
 1292SOL     OW 4001   1.404   3.300   0.721 -0.2989 -0.2855 -0.2231
 1292SOL    HW1 4002   1.412   3.215   0.764 -0.3942 -1.2183 -1.8674
 1292SOL    HW2 4003   1.384   3.361   0.791  0.2842 -1.5126  1.1178
 1293SOL     OW 4004   3.478   0.916   1.718 -0.4069 -0.8486  0.0803
 1293SOL    HW1 4005   3.411   0.853   1.690  1.3229 -2.1006 -1.8552
 1293SOL    HW2 4006   3.440   0.959   1.795 -2.9003 -2.2162 -0.1715
 1294SOL     OW 4007   0.006   1.597   1.989 -0.2124  0.4017  0.2042
 1294SOL    HW1 4008   0.065   1.655   1.942  2.4338 -0.9462  1.4397
 1294SOL    HW2 4009   0.015   1.623   2.081 -3.0772  1.2106  0.4388
 1295SOL     OW 4010   2.177   1.069   2.472  0.4448  0.0739  0.5495
 1295SOL    HW1 4011   2.237   0.998   2.494 -0.7297 -1.2460 -0.1909
 1295SOL    HW2 4012   2.181   1.076   2.376  1.5613  2.0705  0.6149
 1296SOL     OW 4013   0.851   3.894   0.396  0.3459 -0.1467  0.1174
 1296SOL    HW1 4014   0.825   3.924   0.309  1.0704  1.8902  0.4932
 1296SOL    HW2 4015   0.768   3.872   0.439 -0.0520 -0.8669 -0.9465
 1297SOL     OW 4016   4.912   2.282   4.141  0.6672  0.7818  0.8711
 1297SOL    HW1 4017   4.830   2.234   4.153  0.6501  1.0158  1.8485
 1297SOL    HW2 4018   4.941   2.258   4.053  0.0726 -0.1071  0.8896
 1298SOL     OW 4019   3.189   0.278   1.430  0.2357  0.0490  0.0059
 1298SOL    HW1 4020   3.141   0.351   1.468  1.3707  1.1180 -0.4626
 1298SOL    HW2 4021   3.276   0.314   1.412  0.6981 -1.2942 -0.7010
 1299SOL     OW 4022   2.144   0.686   3.143 -0.5140  0.1671 -0.4342
 1299SOL    HW1 4023   2.122   0.645   3.227 -0.1119  0.5355 -0.1438
 1299SOL    HW2 4024   2.228   0.647   3.119  1.3222  2.5934  1.1535
 1300SOL     OW 4025   4.036   3.655   4.240 -0.8412  0.2255  0.7811
 1300SOL    HW1 4026   3.962   3.599   4.214 -1.6544  1.0111  1.2894
 1300SOL    HW2 4027   4.062   3.698   4.159  0.5794 -1.6277  0.0949
 1301SOL     OW 4028   2.586   3.837   1.789  0.2083  0.0139 -0.3370
 1301SOL    HW1 4029   2.498   3.798   1.785 -0.2879  1.0380 -2.4416
 1301SOL    HW2 4030   2.571   3.930   1.773  1.5204  0.8274  2.2128
 1302SOL     OW 4031   4.933   2.178   1.498 -0.3887 -0.0632 -0.0164
 1302SOL    HW1 4032   4.981   2.126   1.562  0.9913 -0.6162 -1.3797
 1302SOL    HW2 4033   4.853   2.129   1.482 -0.4678 -0.2255  0.7918
 1303SOL     OW 4034   3.703   2.660   4.090  0.0564 -0.6236  0.2198
 1303SOL    HW1 4035   3.620   2.694   4.055 -1.1490 -1.8714  1.5872
 1303SOL    HW2 4036   3.709   2.571   4.056  0.0278 -1.0539  1.2612
 1304SOL     OW 4037   4.718   5.635   3.461  0.2351 -0.3142  0.0390
 1304SOL    HW1 4038   4.808   5.650   3.490  0.2050 -0.4523  0.2089
 1304SOL    HW2 4039   4.699   5.545   3.487  0.5395 -0.8068 -1.2910
 1305SOL     OW 4040   3.350   5.702   2.629  0.2725  1.0422  0.4302
 1305SOL    HW1 4041   3.380   5.659   2.710  1.1735 -1.0907 -0.8639
 1305SOL    HW2 4042   3.279   5.758   2.658 -0.1785 -0.3763  2.6152
 1306SOL     OW 4043   5.440   1.297   1.688 -0.1317 -0.2271  0.0115
 1306SOL    HW1 4044   5.508   1.270   1.749 -1.0997  0.2585  1.4128
 1306SOL    HW2 4045   5.479   1.371   1.640  0.9618 -1.1780 -0.6709
 1307SOL     OW 4046   6.345   0.145   2.801  0.8418  0.1094 -0.2011
 1307SOL    HW1 4047   6.419   0.088   2.779  1.3201  1.1945 -1.9044
 1307SOL    HW2 4048   6.384   0.233   2.807 -0.0948  0.5099  0.5480
 1308SOL     OW 4049   4.640   3.249   0.595  0.7860  0.4752  0.3892
 1308SOL    HW1 4050   4.576   3.192   0.637  3.5492 -0.7876  3.8941
 1308SOL    HW2 4051   4.610   3.338   0.612 -0.3570 -0.0330  1.2202
 1309SOL     OW 4052   0.325   5.623   3.846 -0.6633  0.0526 -0.0700
 1309SOL    HW1 4053   0.416   5.636   3.871 -0.9500  2.5528  0.2596
 1309SOL    HW2 4054   0.309   5.530   3.858  0.8884 -0.0635  3.3797
 1310SOL     OW 4055   3.845   0.503   1.066 -0.1415 -0.1666  0.2856
 1310SOL    HW1 4056   3.876   0.544   1.146 -1.0311  1.5589 -0.1459
 1310SOL    HW2 4057   3.878   0.560   0.996  0.8926 -1.7866 -0.6748
 1311SOL     OW 4058   2.501   1.690   3.109 -0.7645 -0.0285 -0.1562
 1311SOL    HW1 4059   2.514   1.632   3.034 -0.4834  0.6457 -0.6413
 1311SOL    HW2 4060   2.410   1.720   3.101 -1.2436 -1.1286  0.6461
 1312SOL     OW 4061   5.226   0.749   3.833 -0.2227 -0.1476  0.4531
 1312SOL    HW1 4062   5.239   0.785   3.921 -2.5093 -0.4872  1.0522
 1312SOL    HW2 4063   5.149   0.795   3.800  0.3095 -0.3461 -1.2534
 1313SOL     OW 4064   5.338   4.722   2.715 -0.1763  0.4641  0.5289
 1313SOL    HW1 4065   5.430   4.698   2.725 -0.4032 -0.0382  1.7166
 1313SOL    HW2 4066   5.330   4.746   2.622  0.2774 -3.3831 -0.8576
 1314SOL     OW 4067   6.189   5.091   3.265  0.7668  0.4404 -0.2018
 1314SOL    HW1 4068   6.284   5.101   3.253  0.6759  2.6735 -0.0247
 1314SOL    HW2 4069   6.154   5.088   3.176  0.9722  0.8523 -0.3053
 1315SOL     OW 4070   3.791   1.706   2.822 -0.1372 -0.6018  0.8966
 1315SOL    HW1 4071   3.727   1.754   2.876  0.7784  0.4197  1.1492
 1315SOL    HW2 4072   3.755   1.618   2.815 -1.0869 -0.3322  1.8354
 1316SOL     OW 4073   5.948   4.847   0.873  0.1487 -0.2908 -0.0876
 1316SOL    HW1 4074   5.946   4.851   0.777 -0.7564  0.3212 -0.0756
 1316SOL    HW2 4075   5.859   4.871   0.899  0.6576  0.6792  0.9247
 1317SOL     OW 4076   0.077   2.781   2.958 -0.0325  0.1943 -0.9531
 1317SOL    HW1 4077   0.002   2.803   3.013  0.5158  0.1229 -0.1296
 1317SOL    HW2 4078   0.060   2.692   2.929 -0.3330  0.2289 -0.8943
 1318SOL     OW 4079   4.317   3.683   0.692  0.2096 -0.3337  0.3215
 1318SOL    HW1 4080   4.329   3.771   0.726  2.6959 -0.5721  0.4343
 1318SOL    HW2 4081   4.349   3.687   0.602  0.3250 -1.0935  0.3115
 1319SOL     OW 4082   4.780   2.837   4.124  0.2419  0.0089 -0.3378
 1319SOL    HW1 4083   4.788   2.831   4.220 -0.0584  0.5861 -0.2712
 1319SOL    HW2 4084   4.869   2.859   4.094 -0.1264  2.7038  0.0831
 1320SOL     OW 4085   5.407   3.970   4.040 -0.1152  0.3060 -0.7866
 1320SOL    HW1 4086   5.369   4.057   4.024 -1.2379  0.8098  2.7049
 1320SOL    HW2 4087   5.460   3.982   4.119  0.3116 -2.0524 -0.5706
 1321SOL     OW 4088   1.975   1.415   3.765  0.0402 -0.0425  0.0159
 1321SOL    HW1 4089   1.898   1.365   3.737  1.4625 -1.6573 -1.5216
 1321SOL    HW2 4090   2.034   1.350   3.803  0.9070  1.0056  0.5712
 1322SOL     OW 4091   2.315   4.918   2.890  0.7040 -0.0633  0.2216
 1322SOL    HW1 4092   2.266   4.991   2.929  0.0067  1.3459 -2.7091
 1322SOL    HW2 4093   2.383   4.898   2.954 -2.0042 -0.4830  3.5502
 1323SOL     OW 4094   0.318   3.001   4.326 -0.0813 -0.6758 -0.2613
 1323SOL    HW1 4095   0.388   3.011   4.391 -0.8328  2.9225  0.3986
 1323SOL    HW2 4096   0.365   2.990   4.243  1.1780 -0.3079  0.3461
 1324SOL     OW 4097   2.681   2.553   0.241 -0.1139 -0.3083  0.4269
 1324SOL    HW1 4098   2.705   2.514   0.157 -1.3306  1.2668 -0.7834
 1324SOL    HW2 4099   2.664   2.478   0.299  0.7728 -1.4535 -0.7051
 1325SOL     OW 4100   5.526   4.787   4.375  0.0073  0.0659  0.0885
 1325SOL    HW1 4101   5.551   4.706   4.420  0.2152  0.0293 -0.0902
 1325SOL    HW2 4102   5.592   4.851   4.401 -0.5447  0.3828  0.7891
 1326SOL     OW 4103   4.771   4.252   1.406 -0.2693 -0.0126 -0.2363
 1326SOL    HW1 4104   4.811   4.324   1.455 -0.7486 -0.2488  0.5390
 1326SOL    HW2 4105   4.678   4.273   1.404 -0.7851 -1.4738  1.7508
 1327SOL     OW 4106   5.688   6.306   2.068  0.4013 -0.4550  0.5440
 1327SOL    HW1 4107   5.672   6.399   2.050 -0.9859 -0.5376  1.1110
 1327SOL    HW2 4108   5.767   6.285   2.017  0.8952  1.0661  0.5764
 1328SOL     OW 4109   6.009   6.384   3.925  0.2973 -0.0507 -0.8096
 1328SOL    HW1 4110   5.927   6.406   3.970 -0.4074 -3.2860  0.0273
 1328SOL    HW2 4111   6.004   6.430   3.842 -1.2294  1.6540  0.0803
 1329SOL     OW 4112   5.498   2.979   3.488  0.1847 -0.7186  0.0308
 1329SOL    HW1 4113   5.531   2.893   3.463 -1.7833 -1.7286  0.4476
 1329SOL    HW2 4114   5.404   2.964   3.502 -1.3004  2.1971 -3.5674
 1330SOL     OW 4115   5.193   5.192   4.243 -0.1597  0.1645  0.3065
 1330SOL    HW1 4116   5.196   5.167   4.335 -0.8712  0.5611  0.4550
 1330SOL    HW2 4117   5.145   5.275   4.242  1.1240  0.9611 -0.2806
 1331SOL     OW 4118   2.983   2.762   0.859 -0.7733  0.2560 -0.3868
 1331SOL    HW1 4119   3.001   2.854   0.837  1.2679  0.3087  0.9636
 1331SOL    HW2 4120   3.065   2.730   0.896 -1.3487 -2.2121 -0.9377
 1332SOL     OW 4121   4.591   1.255   2.975 -0.4131 -0.0867  0.4641
 1332SOL    HW1 4122   4.668   1.248   2.918  0.4798  0.1120  1.5629
 1332SOL    HW2 4123   4.628   1.265   3.063 -1.7131  0.1053  1.0303
 1333SOL     OW 4124   0.636   1.938   4.395 -0.5564 -0.3661  0.1580
 1333SOL    HW1 4125   0.717   1.988   4.403  0.2142 -0.5227 -3.3353
 1333SOL    HW2 4126   0.653   1.857   4.443  0.8509  0.0946  0.5279
 1334SOL     OW 4127   5.398   3.836   1.345 -0.5101 -0.2932  0.5441
 1334SOL    HW1 4128   5.453   3.759   1.330  1.3078  1.0780 -0.8124
 1334SOL    HW2 4129   5.349   3.848   1.264 -0.5978  0.0813  0.6462
 1335SOL     OW 4130   4.898   6.259   1.951 -0.2402  0.3710  0.6607
 1335SOL    HW1 4131   4.980   6.224   1.917  0.0485 -0.9642  2.4200
 1335SOL    HW2 4132   4.834   6.189   1.937 -0.7272  0.8121  0.6097
 1336SOL     OW 4133   4.799   5.118   4.420 -0.3286  0.2675 -0.1561
 1336SOL    HW1 4134   4.709   5.084   4.416 -0.7401  1.1619  0.7339
 1336SOL    HW2 4135   4.839   5.087   4.339 -1.0116 -1.2775  0.0142
 1337SOL     OW 4136   0.446   5.149   1.919  0.2002 -0.6014  0.4780
 1337SOL    HW1 4137   0.527   5.181   1.878  0.6194 -1.5768  0.4981
 1337SOL    HW2 4138   0.395   5.113   1.846 -2.1489  3.2856 -0.3978
 1338SOL     OW 4139   2.104   4.458   1.031 -0.8332 -0.8710 -0.6786
 1338SOL    HW1 4140   2.149   4.538   1.004  1.1741 -1.7980 -0.4639
 1338SOL    HW2 4141   2.073   4.476   1.120  0.0189 -0.4613 -0.4456
 1339SOL     OW 4142   3.105   3.887   2.186  0.1282  0.3708  0.0349
 1339SOL    HW1 4143   3.152   3.835   2.121  1.6497  1.8006 -0.1536
 1339SOL    HW2 4144   3.105   3.976   2.150  1.0536  1.2417  1.9214
 1340SOL     OW 4145   0.709   3.767   3.490  0.2619  0.1210  0.5166
 1340SOL    HW1 4146   0.713   3.858   3.521  0.7327  0.6255 -0.8689
 1340SOL    HW2 4147   0.799   3.748   3.462 -0.4027  0.9333 -3.3727
 1341SOL     OW 4148   1.260   4.512   1.989 -0.0403  0.0974 -0.0281
 1341SOL    HW1 4149   1.315   4.566   1.933  1.0727  0.0777  0.9586
 1341SOL    HW2 4150   1.266   4.553   2.075  0.5402 -1.3053  0.6742
 1342SOL     OW 4151   4.213   0.340   0.792 -0.4209  0.6547 -0.0080
 1342SOL    HW1 4152   4.131   0.330   0.742  0.4340  0.1712 -1.4160
 1342SOL    HW2 4153   4.273   0.278   0.752  0.1319 -0.5189  2.2832
 1343SOL     OW 4154   2.050   1.876   3.338 -0.2081 -0.0849 -0.6407
 1343SOL    HW1 4155   2.110   1.937   3.380 -0.8758 -0.6359  1.3474
 1343SOL    HW2 4156   1.999   1.839   3.410  0.1886 -3.0613 -1.5939
 1344SOL     OW 4157   4.173   6.033   2.928 -0.0859  0.2574  0.4400
 1344SOL    HW1 4158   4.177   5.938   2.941  0.8817  0.4948  3.0644
 1344SOL    HW2 4159   4.250   6.053   2.874 -0.6877 -0.4336 -0.7465
 1345SOL     OW 4160   4.822   2.686   1.031  0.4273 -0.1014 -0.1256
 1345SOL    HW1 4161   4.835   2.621   0.962 -0.5431 -0.9887  0.4586
 1345SOL    HW2 4162   4.880   2.657   1.102 -0.9357 -1.2172  0.6473
 1346SOL     OW 4163   4.754   5.370   3.730 -0.0332  0.5461 -0.4417
 1346SOL    HW1 4164   4.698   5.359   3.653 -0.5286  0.7978 -0.1311
 1346SOL    HW2 4165   4.842   5.375   3.695 -0.0905 -0.7869 -0.8729
 1347SOL     OW 4166   3.862   3.631   0.830  0.2199  0.3700 -0.1274
 1347SOL    HW1 4167   3.921   3.609   0.758 -0.2852 -0.3384 -0.3459
 1347SOL    HW2 4168   3.775   3.636   0.790  0.1884  2.4377 -0.0178
 1348SOL     OW 4169   6.221   3.732   4.166 -0.2243  0.2271 -0.4501
 1348SOL    HW1 4170   6.168   3.734   4.087 -1.7307 -1.6533  0.3733
 1348SOL    HW2 4171   6.207   3.645   4.203  0.3240  0.9998  1.9238
 1349SOL     OW 4172   0.853   2.045   1.116 -0.0889 -0.4927  0.0264
 1349SOL    HW1 4173   0.923   2.088   1.068  0.7505  0.5063  1.9249
 1349SOL    HW2 4174   0.778   2.045   1.056  0.6065  1.3654 -0.9868
 1350SOL     OW 4175   4.100   3.209   3.099  0.8729 -0.0044  0.1298
 1350SOL    HW1 4176   4.130   3.263   3.026  0.3677 -0.2728 -0.2885
 1350SOL    HW2 4177   4.005   3.208   3.090  0.7150  0.6506  1.2912
 1351SOL     OW 4178   0.988   0.186   2.984  0.0231  0.0593  0.2013
 1351SOL    HW1 4179   0.982   0.127   3.060  0.7597 -0.9753 -0.4851
 1351SOL    HW2 4180   0.936   0.262   3.009 -0.0820 -0.3998  1.5875
 1352SOL     OW 4181   6.132   3.992   4.193 -0.4433  0.1189 -0.9089
 1352SOL    HW1 4182   6.150   4.029   4.107 -0.0963  0.6817 -0.6067
 1352SOL    HW2 4183   6.165   3.903   4.189  0.5249  0.4678 -1.0376
 1353SOL     OW 4184   0.156   4.955   4.273  0.5788 -0.1826 -0.2543
 1353SOL    HW1 4185   0.169   5.047   4.296 -0.0274  0.1618 -1.1771
 1353SOL    HW2 4186   0.099   4.958   4.196  0.9040 -1.3158 -0.5662
 1354SOL     OW 4187   1.640   2.328   4.470 -0.5492  0.3065 -0.3906
 1354SOL    HW1 4188   1.604   2.287   4.549  1.1726 -0.7564 -0.0506
 1354SOL    HW2 4189   1.611   2.272   4.398  2.6125 -2.6899  0.1299
 1355SOL     OW 4190   0.587   3.300   0.801  0.0418 -0.5235  0.2184
 1355SOL    HW1 4191   0.546   3.234   0.745  0.5055 -0.2334 -0.4871
 1355SOL    HW2 4192   0.680   3.279   0.799 -0.0141 -1.4268  2.1267
 1356SOL     OW 4193   3.349   5.192   2.223  0.0001 -0.4828  0.0090
 1356SOL    HW1 4194   3.439   5.214   2.199  0.3728  0.2052  1.7222
 1356SOL    HW2 4195   3.294   5.247   2.167  0.7024 -0.0268 -0.2526
 1357SOL     OW 4196   3.587   3.000   3.386  0.2823 -0.1748  0.1434
 1357SOL    HW1 4197   3.568   3.040   3.301 -1.2409 -1.0350  0.0096
 1357SOL    HW2 4198   3.594   2.907   3.368  0.2756 -0.3389  0.9105
 1358SOL     OW 4199   6.237   4.711   2.371 -0.1443  0.3885  0.2244
 1358SOL    HW1 4200   6.321   4.748   2.398 -0.0325  0.1040  0.2795
 1358SOL    HW2 4201   6.259   4.645   2.305 -0.1249 -0.9285  1.4367
 1359SOL     OW 4202   2.221   0.775   3.515  0.2973  0.1815 -0.2724
 1359SOL    HW1 4203   2.166   0.726   3.454 -2.1345  3.6037 -1.4574
 1359SOL    HW2 4204   2.163   0.796   3.588  0.8925  1.6400 -0.1515
 1360SOL     OW 4205   2.388   4.062   1.419 -0.4097 -0.0131  0.3933
 1360SOL    HW1 4206   2.344   4.005   1.356  0.2820 -2.1578  1.6370
 1360SOL    HW2 4207   2.366   4.151   1.390 -0.7262 -0.7918 -2.3769
 1361SOL     OW 4208   1.158   1.630   1.403  0.0360  0.1235  0.1150
 1361SOL    HW1 4209   1.103   1.628   1.481 -2.3353 -2.9877 -1.1932
 1361SOL    HW2 4210   1.212   1.551   1.410  0.5442  0.3490 -0.9063
 1362SOL     OW 4211   6.335   4.945   1.644 -0.2638  0.1567 -0.9602
 1362SOL    HW1 4212   6.315   4.944   1.550 -1.6282 -1.9589 -0.7781
 1362SOL    HW2 4213   6.252   4.924   1.687 -0.0651  2.4757  0.9447
 1363SOL     OW 4214   2.421   5.208   3.199  0.0563  0.1997  0.1145
 1363SOL    HW1 4215   2.510   5.240   3.214 -0.0577  0.4085  0.3567
 1363SOL    HW2 4216   2.379   5.215   3.284 -0.3318  0.5482 -0.0969
 1364SOL     OW 4217   3.166   5.439   2.729  0.2688 -0.0430 -0.6027
 1364SOL    HW1 4218   3.252   5.398   2.736 -0.6625 -2.1554  0.0210
 1364SOL    HW2 4219   3.161   5.498   2.804  0.9122 -0.4760 -0.2069
 1365SOL     OW 4220   4.070   1.538   0.426 -0.6242  0.5559  0.0116
 1365SOL    HW1 4221   4.111   1.456   0.453 -0.9899  0.1299 -0.6706
 1365SOL    HW2 4222   4.110   1.558   0.342 -2.3238 -0.3408 -1.1334
 1366SOL     OW 4223   1.666   2.107   2.110 -0.2127  0.3516  0.4670
 1366SOL    HW1 4224   1.761   2.103   2.114 -0.0274  1.4304 -0.9871
 1366SOL    HW2 4225   1.636   2.057   2.186  1.4834 -0.4677  0.6884
 1367SOL     OW 4226   3.276   2.486   3.777 -0.0188 -0.5121 -0.2238
 1367SOL    HW1 4227   3.231   2.415   3.731 -0.6799 -1.1660  1.2936
 1367SOL    HW2 4228   3.272   2.461   3.870 -1.6379  2.1982  0.6569
 1368SOL     OW 4229   2.808   1.650   3.129 -0.2929  0.1399  0.5824
 1368SOL    HW1 4230   2.723   1.686   3.155 -0.6951  0.6289 -1.1134
 1368SOL    HW2 4231   2.871   1.694   3.186 -1.1217  0.1529  1.5420
 1369SOL     OW 4232   2.952   2.548   2.249 -0.0656 -0.2379 -0.0521
 1369SOL    HW1 4233   2.877   2.593   2.287 -0.2211 -1.1158  0.7645
 1369SOL    HW2 4234   3.014   2.618   2.228 -0.8434  0.4525 -0.1718
 1370SOL     OW 4235   5.851   4.643   2.565 -0.1302  0.0088 -0.2596
 1370SOL    HW1 4236   5.811   4.633   2.479 -0.3836  0.8405 -0.2543
 1370SOL    HW2 4237   5.785   4.688   2.618 -0.4066 -1.3995  0.7202
 1371SOL     OW 4238   2.339   6.412   3.631 -0.2150 -0.4303  0.2503
 1371SOL    HW1 4239   2.335   6.505   3.612 -0.5343 -0.7387 -1.4668
 1371SOL    HW2 4240   2.414   6.403   3.690  0.7601  0.7623 -0.7046
 1372SOL     OW 4241   0.692   5.975   2.031  0.3625 -0.6951 -0.0485
 1372SOL    HW1 4242   0.616   6.030   2.049  1.7843  1.5910 -0.2799
 1372SOL    HW2 4243   0.655   5.891   2.003 -2.0375 -1.1883  3.3581
 1373SOL     OW 4244   1.382   3.720   4.213 -0.1060  0.4115  0.2232
 1373SOL    HW1 4245   1.378   3.803   4.260 -1.3363  1.0785 -0.9354
 1373SOL    HW2 4246   1.305   3.720   4.157  0.5278 -0.9413 -0.7647
 1374SOL     OW 4247   6.279   0.512   1.472 -0.4413  0.4020 -0.0458
 1374SOL    HW1 4248   6.266   0.532   1.564  0.5898 -2.4688  0.9400
 1374SOL    HW2 4249   6.263   0.418   1.465  1.9734 -0.0656 -2.2097
 1375SOL     OW 4250   5.539   4.195   1.155  0.7415  0.3173  0.1195
 1375SOL    HW1 4251   5.451   4.194   1.116  0.7852 -0.6606  0.0153
 1375SOL    HW2 4252   5.530   4.253   1.231 -0.3481 -0.7377  0.8653
 1376SOL     OW 4253   1.802   0.775   3.213  0.0293 -0.1355 -0.3498
 1376SOL    HW1 4254   1.798   0.690   3.171  1.3778 -0.6167  0.3650
 1376SOL    HW2 4255   1.711   0.799   3.228 -0.3943 -1.3656 -0.7403
 1377SOL     OW 4256   1.999   5.600   1.935  0.1536 -0.2167 -0.0088
 1377SOL    HW1 4257   1.906   5.618   1.924  0.3435  0.3712 -0.8211
 1377SOL    HW2 4258   2.007   5.567   2.025 -0.9580 -1.1665 -0.2156
 1378SOL     OW 4259   2.552   4.667   2.447 -0.2932  0.2451  0.5622
 1378SOL    HW1 4260   2.468   4.633   2.415  0.6598 -1.0963 -0.7724
 1378SOL    HW2 4261   2.529   4.749   2.491 -2.3899 -0.5103  1.1090
 1379SOL     OW 4262   0.688   3.021   3.695  0.2689  0.8558  0.2004
 1379SOL    HW1 4263   0.665   3.112   3.677  0.2230  0.6446 -0.9195
 1379SOL    HW2 4264   0.604   2.977   3.711  0.2693  0.9458  0.4622
 1380SOL     OW 4265   4.084   4.207   2.278 -0.2631  0.2236  0.2418
 1380SOL    HW1 4266   4.141   4.263   2.226 -0.8973 -1.3945 -2.6238
 1380SOL    HW2 4267   4.128   4.122   2.277 -1.2850 -0.3407  0.6119
 1381SOL     OW 4268   3.262   2.671   0.134  0.6280  0.0561  1.3119
 1381SOL    HW1 4269   3.325   2.702   0.200 -1.2334  1.8163  2.5305
 1381SOL    HW2 4270   3.177   2.677   0.178 -0.6418 -0.0344 -0.8420
 1382SOL     OW 4271   6.038   0.742   1.491  0.2037 -0.2939 -0.1278
 1382SOL    HW1 4272   5.957   0.702   1.522 -1.0186  0.7300 -1.6794
 1382SOL    HW2 4273   6.068   0.796   1.564 -0.6966 -0.4744  0.4026
 1383SOL     OW 4274   4.821   3.543   2.659 -0.1016 -0.0267 -0.1066
 1383SOL    HW1 4275   4.799   3.579   2.745 -2.6365  0.3392 -0.7336
 1383SOL    HW2 4276   4.895   3.595   2.628  0.7388 -0.0105  1.6838
 1384SOL     OW 4277   2.364   2.342   0.411 -0.1360  0.4765  0.8956
 1384SOL    HW1 4278   2.357   2.294   0.494 -2.5135  2.3500  2.0238
 1384SOL    HW2 4279   2.459   2.353   0.398  0.5600 -2.8539  1.3037
 1385SOL     OW 4280   1.038   1.694   0.136 -0.1241  0.2876 -0.1957
 1385SOL    HW1 4281   0.954   1.698   0.182 -0.4939 -1.6532 -0.5209
 1385SOL    HW2 4282   1.093   1.641   0.193 -0.2428 -1.2352 -1.3596
 1386SOL     OW 4283   5.022   5.519   1.072  0.4942 -0.1971 -0.1682
 1386SOL    HW1 4284   4.951   5.550   1.128 -0.3243 -1.7723 -0.2009
 1386SOL    HW2 4285   4.985   5.521   0.983  0.7517 -0.3499 -0.2815
 1387SOL     OW 4286   5.833   1.921   3.166 -0.1054  0.8462  0.2721
 1387SOL    HW1 4287   5.740   1.939   3.150  0.3134  1.5572 -1.9458
 1387SOL    HW2 4288   5.879   1.958   3.091  1.6687 -2.4855 -0.6975
 1388SOL     OW 4289   1.517   6.337   2.452  0.3569  0.1207  0.0022
 1388SOL    HW1 4290   1.457   6.368   2.521 -0.7697  1.2235 -1.3417
 1388SOL    HW2 4291   1.601   6.327   2.497 -0.3611  0.4544  1.5943
 1389SOL     OW 4292   4.536   6.073   0.380  0.1099 -0.7545  0.1431
 1389SOL    HW1 4293   4.458   6.021   0.360 -0.8706  1.0239 -1.3450
 1389SOL    HW2 4294   4.576   6.090   0.295  1.0845 -0.1243  0.6856
 1390SOL     OW 4295   5.635   0.702   3.885 -0.0459  0.0888  0.5961
 1390SOL    HW1 4296   5.584   0.690   3.806 -1.3053  1.0095  1.1964
 1390SOL    HW2 4297   5.695   0.773   3.864 -0.6472  0.6017  0.5539
 1391SOL     OW 4298   0.959   0.855   4.113 -0.1308 -0.2410 -0.1350
 1391SOL    HW1 4299   0.894   0.852   4.183  0.4344 -0.4669  0.3946
 1391SOL    HW2 4300   1.032   0.904   4.150 -0.0866  0.2209 -0.8058
 1392SOL     OW 4301   1.097   2.221   4.370  0.3782 -0.4835  0.1854
 1392SOL    HW1 4302   1.167   2.188   4.428 -0.5593 -0.2781  1.5144
 1392SOL    HW2 4303   1.123   2.190   4.283  0.7061 -2.8972  0.9771
 1393SOL     OW 4304   0.571   0.693   0.202  0.2845  0.3027 -0.4088
 1393SOL    HW1 4305   0.550   0.718   0.112  0.2179  1.5218 -0.0920
 1393SOL    HW2 4306   0.592   0.776   0.245  1.2893 -0.3566  0.4604
 1394SOL     OW 4307   2.883   2.143   2.277 -0.1636  0.2387  0.4228
 1394SOL    HW1 4308   2.867   2.203   2.350 -1.7259 -1.5656  1.7858
 1394SOL    HW2 4309   2.967   2.102   2.298  1.5448  2.4361 -1.1220
 1395SOL     OW 4310   3.916   4.729   2.540 -0.1378 -0.3793 -0.0850
 1395SOL    HW1 4311   3.976   4.724   2.615 -0.1263 -0.3540 -0.0927
 1395SOL    HW2 4312   3.955   4.793   2.482 -0.2173 -0.2986 -0.0492
 1396SOL     OW 4313   2.015   2.261   3.529  0.0478  0.1969 -0.1968
 1396SOL    HW1 4314   2.073   2.287   3.601  0.5423  0.3465 -0.6364
 1396SOL    HW2 4315   1.930   2.299   3.551  0.0604 -0.1816  0.5568
 1397SOL     OW 4316   0.255   3.549   2.107  0.2173 -0.2394 -0.0824
 1397SOL    HW1 4317   0.274   3.532   2.015  0.5713  0.7661 -0.2196
 1397SOL    HW2 4318   0.247   3.462   2.146 -1.5246 -0.7630 -1.3337
 1398SOL     OW 4319   1.222   0.805   0.859  0.0801 -0.7163  0.2229
 1398SOL    HW1 4320   1.292   0.801   0.923  0.1028 -0.0678  0.2539
 1398SOL    HW2 4321   1.206   0.714   0.835 -0.4460 -1.0643  1.6987
 1399SOL     OW 4322   1.998   0.768   2.935  0.2927 -0.2698 -0.3635
 1399SOL    HW1 4323   1.973   0.859   2.952 -1.5065 -0.7002 -0.2658
 1399SOL    HW2 4324   2.040   0.739   3.016 -2.3114 -0.4360  1.1521
 1400SOL     OW 4325   2.157   1.975   1.530  0.2520 -0.4060 -0.5488
 1400SOL    HW1 4326   2.228   1.948   1.588 -0.4060 -2.6993 -0.5953
 1400SOL    HW2 4327   2.176   1.931   1.447 -1.3633 -1.4868 -0.4246
 1401SOL     OW 4328   4.041   4.357   1.898  0.5398 -0.1527 -0.2302
 1401SOL    HW1 4329   3.973   4.291   1.912 -0.3518  0.5288 -1.0634
 1401SOL    HW2 4330   4.107   4.339   1.966 -1.1080 -0.0006  1.5809
 1402SOL     OW 4331   2.901   5.029   0.054 -0.5793 -0.1051  0.2759
 1402SOL    HW1 4332   2.897   5.106   0.111 -1.9910  1.2650 -1.4244
 1402SOL    HW2 4333   2.965   5.052  -0.013  0.9438 -1.6133  1.0649
 1403SOL     OW 4334   3.762   0.708   3.859 -0.2123 -0.2578 -0.6805
 1403SOL    HW1 4335   3.795   0.752   3.937  0.4191 -1.0526 -0.4622
 1403SOL    HW2 4336   3.668   0.700   3.874 -0.0157 -1.1624  0.4595
 1404SOL     OW 4337   2.554   2.769   0.418 -0.5081 -0.0709 -0.5174
 1404SOL    HW1 4338   2.586   2.684   0.388 -2.4862 -2.1724  2.2653
 1404SOL    HW2 4339   2.623   2.802   0.475  1.1552  1.5459 -3.0356
 1405SOL     OW 4340   1.253   0.024   2.641 -0.0688 -0.1444 -0.2233
 1405SOL    HW1 4341   1.285   0.056   2.725  0.0120  2.8196 -1.1723
 1405SOL    HW2 4342   1.296   0.079   2.575  0.1433 -2.4599 -2.3628
 1406SOL     OW 4343   3.559   3.586   3.121  0.0800 -0.4815 -0.3048
 1406SOL    HW1 4344   3.558   3.606   3.215  0.9312 -2.4728  0.2435
 1406SOL    HW2 4345   3.467   3.577   3.097 -0.1513  0.0451  0.3169
 1407SOL     OW 4346   4.681   0.430   3.122 -0.2166 -0.1283  0.2140
 1407SOL    HW1 4347   4.672   0.524   3.137  1.0237 -0.1737  1.8425
 1407SOL    HW2 4348   4.676   0.420   3.027  0.7304  1.7493 -0.1288
 1408SOL     OW 4349   4.534   1.645   2.411 -0.4109  0.2722 -0.1648
 1408SOL    HW1 4350   4.477   1.715   2.379 -1.0855 -1.2032 -2.7144
 1408SOL    HW2 4351   4.621   1.684   2.412 -0.9550  1.5935  0.3054
 1409SOL     OW 4352   2.760   5.882   2.913  0.2426 -0.1237 -0.1540
 1409SOL    HW1 4353   2.855   5.877   2.901  0.7252  0.6343  2.2409
 1409SOL    HW2 4354   2.740   5.976   2.910 -0.6090 -0.2912 -1.1948
 1410SOL     OW 4355   3.271   2.871   0.435  0.2266  0.0598 -0.2319
 1410SOL    HW1 4356   3.331   2.881   0.509  0.8950  0.7366 -0.8256
 1410SOL    HW2 4357   3.326   2.840   0.363 -0.6989 -2.3800 -0.0924
 1411SOL     OW 4358   6.105   1.131   2.388 -0.0390  0.3484 -0.0414
 1411SOL    HW1 4359   6.183   1.175   2.423 -0.5990  0.1920  1.5559
 1411SOL    HW2 4360   6.130   1.039   2.383  0.0166  0.3594  0.0226
 1412SOL     OW 4361   5.659   5.230   0.041 -0.0510  0.3765  0.4902
 1412SOL    HW1 4362   5.738   5.272   0.008 -0.0700  0.1809  0.1922
 1412SOL    HW2 4363   5.597   5.234  -0.032  0.0555 -0.4588  0.3281
 1413SOL     OW 4364   2.181   2.546   0.477  0.1467 -0.1354 -0.4635
 1413SOL    HW1 4365   2.238   2.474   0.450 -0.5704 -0.2622 -1.7927
 1413SOL    HW2 4366   2.210   2.567   0.566  2.2426 -0.2078 -1.0187
 1414SOL     OW 4367   6.210   1.250   0.433 -0.3765  0.5524 -0.1455
 1414SOL    HW1 4368   6.295   1.290   0.416 -0.0106 -0.1068  0.0681
 1414SOL    HW2 4369   6.147   1.322   0.423  0.1596  0.9657 -0.6868
 1415SOL     OW 4370   3.860   5.154   0.219 -0.4377  0.0888  0.2789
 1415SOL    HW1 4371   3.890   5.229   0.168 -0.2438 -1.1863 -1.7181
 1415SOL    HW2 4372   3.772   5.137   0.185  0.3324 -1.8378 -1.1285
 1416SOL     OW 4373   4.312   6.261   3.719  0.1995  0.4272  0.0320
 1416SOL    HW1 4374   4.228   6.305   3.704 -0.7701 -1.3209 -0.2709
 1416SOL    HW2 4375   4.311   6.187   3.657  1.7709  0.0764  0.3490
 1417SOL     OW 4376   1.257   6.067   4.418 -0.3137 -0.1113  0.0508
 1417SOL    HW1 4377   1.233   6.142   4.363 -0.4984 -0.0083  0.2687
 1417SOL    HW2 4378   1.313   6.105   4.486  0.5209 -0.3521 -0.4739
 1418SOL     OW 4379   6.279   5.064   0.095  0.6383  0.4292 -0.1074
 1418SOL    HW1 4380   6.188   5.078   0.071  0.4528 -0.0653  0.2728
 1418SOL    HW2 4381   6.316   5.152   0.105  0.2171  0.6308 -0.2921
 1419SOL     OW 4382   5.172   3.126   1.324 -0.0898 -0.6768  0.8749
 1419SOL    HW1 4383   5.086   3.091   1.349 -0.1256 -0.5173  0.9783
 1419SOL    HW2 4384   5.168   3.219   1.348 -0.4371 -0.3027 -0.4855
 1420SOL     OW 4385   0.041   1.660   3.542 -0.2774 -0.2820  0.7072
 1420SOL    HW1 4386  -0.045   1.688   3.574 -0.2771 -0.5033  0.9106
 1420SOL    HW2 4387   0.021   1.595   3.475 -0.3025 -1.8798  2.1220
 1421SOL     OW 4388   5.970   1.065   0.964 -0.2618 -0.0600  0.3506
 1421SOL    HW1 4389   6.066   1.069   0.956  0.0191  0.8937  2.6590
 1421SOL    HW2 4390   5.949   0.973   0.954  0.9386 -0.3482  0.1342
 1422SOL     OW 4391   1.233   6.095   3.737  0.1904 -0.2119  0.1925
 1422SOL    HW1 4392   1.209   6.137   3.654 -3.2773  0.5118  1.2349
 1422SOL    HW2 4393   1.237   6.002   3.717 -1.7554 -0.1933 -0.7474
 1423SOL     OW 4394   0.957   3.339   1.344 -0.9170  0.5748  0.0441
 1423SOL    HW1 4395   0.954   3.391   1.263 -0.3212 -0.8827 -1.0027
 1423SOL    HW2 4396   0.933   3.250   1.316 -1.0715  0.0843  1.5618
 1424SOL     OW 4397   6.275   0.035   3.896 -0.9474 -0.0464 -0.1432
 1424SOL    HW1 4398   6.297   0.043   3.988 -0.0857  0.7078 -0.3751
 1424SOL    HW2 4399   6.209  -0.034   3.892 -0.8797 -0.2129  1.0045
 1425SOL     OW 4400   1.719   0.269   0.816 -0.3374 -0.4720 -0.0620
 1425SOL    HW1 4401   1.638   0.274   0.867 -1.8211 -2.9248 -1.7611
 1425SOL    HW2 4402   1.708   0.333   0.746 -1.0530 -1.0372 -0.4907
 1426SOL     OW 4403   4.426   2.899   3.603 -0.2570 -0.3722 -0.0005
 1426SOL    HW1 4404   4.406   2.805   3.598 -0.3316 -0.4123  0.8082
 1426SOL    HW2 4405   4.347   2.938   3.640 -0.2441  0.0243 -0.3810
 1427SOL     OW 4406   3.970   1.324   2.132 -0.0710 -0.2669 -0.0294
 1427SOL    HW1 4407   3.918   1.244   2.127 -0.7604 -0.0549  1.9701
 1427SOL    HW2 4408   3.905   1.394   2.135  0.3913  0.1531  0.6629
 1428SOL     OW 4409   5.252   0.352   3.555  0.2611  0.5428 -0.5267
 1428SOL    HW1 4410   5.251   0.443   3.524 -0.7385 -0.1266 -2.8986
 1428SOL    HW2 4411   5.230   0.300   3.478 -0.1265 -1.6920  0.9100
 1429SOL     OW 4412   5.325   0.127   3.078  0.5222 -0.4021 -0.8021
 1429SOL    HW1 4413   5.325   0.091   2.990 -1.5241  0.8830 -1.4535
 1429SOL    HW2 4414   5.261   0.075   3.126  1.2644 -0.7792 -0.1641
 1430SOL     OW 4415   0.421   2.484   1.550 -0.1698 -0.2397  0.8638
 1430SOL    HW1 4416   0.340   2.438   1.572 -0.1230  0.1485  2.0057
 1430SOL    HW2 4417   0.489   2.417   1.550 -0.5861 -0.8176 -1.3759
 1431SOL     OW 4418   4.903   4.303   0.664 -0.6055 -0.1024 -0.3874
 1431SOL    HW1 4419   4.967   4.319   0.595  0.0388 -1.8056 -0.3044
 1431SOL    HW2 4420   4.842   4.377   0.659 -0.5589 -0.0619 -2.7153
 1432SOL     OW 4421   6.198   1.401   2.579  0.2135  0.2117  0.3836
 1432SOL    HW1 4422   6.238   1.332   2.527  0.8770  0.0401  1.0998
 1432SOL    HW2 4423   6.241   1.397   2.664 -2.5542 -1.3016  2.0312
 1433SOL     OW 4424   3.371   6.097   3.256 -0.0411  0.2617 -0.0099
 1433SOL    HW1 4425   3.430   6.099   3.331 -0.1199 -1.0082  0.1324
 1433SOL    HW2 4426   3.428   6.074   3.182 -0.3311 -1.4376  0.2043
 1434SOL     OW 4427   0.564   4.882   1.770  0.7166  0.9149 -0.0536
 1434SOL    HW1 4428   0.628   4.951   1.786  0.6258  1.5417 -1.8899
 1434SOL    HW2 4429   0.607   4.823   1.708  0.3994 -0.0908  0.6455
 1435SOL     OW 4430   4.597   2.314   0.916  0.3222  0.1743 -0.3020
 1435SOL    HW1 4431   4.605   2.220   0.901  0.8998  0.0626  0.5293
 1435SOL    HW2 4432   4.575   2.351   0.831 -2.1120 -0.9164 -0.3196
 1436SOL     OW 4433   4.619   3.383   4.385  0.0749 -0.1095  0.0460
 1436SOL    HW1 4434   4.561   3.328   4.333 -1.4158 -1.4490  2.6696
 1436SOL    HW2 4435   4.705   3.340   4.380 -0.3089 -0.8573 -0.4013
 1437SOL     OW 4436   5.742   4.194   1.554 -0.6587  0.2778 -0.2070
 1437SOL    HW1 4437   5.762   4.137   1.480  3.1115 -0.4454  0.9442
 1437SOL    HW2 4438   5.692   4.138   1.615 -1.1551 -0.1172 -0.9473
 1438SOL     OW 4439   0.053   6.029   1.550 -0.3734 -0.1844  0.1860
 1438SOL    HW1 4440  -0.036   6.021   1.515 -0.5027  1.0901  0.1446
 1438SOL    HW2 4441   0.044   6.012   1.643 -0.8481  0.7966  0.3410
 1439SOL     OW 4442   4.320   0.436   4.046 -0.0302  0.2779 -0.4730
 1439SOL    HW1 4443   4.394   0.462   4.101  1.4953 -0.5130 -1.9668
 1439SOL    HW2 4444   4.257   0.398   4.107 -0.4248  3.0341  1.2199
 1440SOL     OW 4445   1.980   2.574   4.441 -0.2634 -0.1574 -0.0989
 1440SOL    HW1 4446   2.075   2.571   4.439 -0.1237  0.9255 -2.5359
 1440SOL    HW2 4447   1.957   2.645   4.381 -2.5987 -1.5619 -1.1561
 1441SOL     OW 4448   5.903   1.754   1.101 -0.0288 -0.1063  0.0209
 1441SOL    HW1 4449   5.983   1.750   1.049 -0.3198  0.2127 -0.4646
 1441SOL    HW2 4450   5.852   1.825   1.061  0.5015  1.4585  1.8310
 1442SOL     OW 4451   3.179   0.628   0.585 -0.2393 -0.2536  0.2592
 1442SOL    HW1 4452   3.160   0.540   0.551  0.5906 -0.6713  0.8062
 1442SOL    HW2 4453   3.262   0.652   0.544 -1.2258  1.0516 -1.2249
 1443SOL     OW 4454   3.145   1.348   1.741 -0.7197 -0.2126 -0.0439
 1443SOL    HW1 4455   3.154   1.422   1.800  3.0639  1.5835 -2.1272
 1443SOL    HW2 4456   3.171   1.272   1.793 -1.8139  0.3314  1.4443
 1444SOL     OW 4457   1.093   5.362   2.861 -0.1743 -0.1967 -0.1027
 1444SOL    HW1 4458   1.030   5.321   2.920 -1.0614  0.2905 -0.6638
 1444SOL    HW2 4459   1.043   5.430   2.815  1.0297  1.0301  0.2482
 1445SOL     OW 4460   5.422   5.068   3.820 -0.4347  0.1108  0.0153
 1445SOL    HW1 4461   5.510   5.102   3.832 -0.3813 -0.4383  1.8419
 1445SOL    HW2 4462   5.412   5.003   3.889 -2.1687 -0.0817 -0.3207
 1446SOL     OW 4463   2.141   5.701   4.236 -0.0174 -0.2432  0.2687
 1446SOL    HW1 4464   2.132   5.638   4.165 -0.3239 -0.8582  0.8267
 1446SOL    HW2 4465   2.117   5.785   4.197  0.4950 -0.4455 -0.5195
 1447SOL     OW 4466   3.598   4.049   4.124 -0.0777 -0.0086 -0.2445
 1447SOL    HW1 4467   3.600   4.046   4.219 -0.6299  1.2260 -0.1481
 1447SOL    HW2 4468   3.506   4.065   4.102  0.3348  3.3056 -0.6746
 1448SOL     OW 4469   1.714   6.067   0.698  0.5965  0.0450 -0.0576
 1448SOL    HW1 4470   1.751   6.127   0.763  0.1404  0.2237  0.0462
 1448SOL    HW2 4471   1.709   5.983   0.744 -0.4754  0.3471  0.4378
 1449SOL     OW 4472   4.369   5.913   1.527 -0.2468  0.1105 -0.7402
 1449SOL    HW1 4473   4.287   5.866   1.517  1.3838 -3.2782 -1.1270
 1449SOL    HW2 4474   4.369   5.977   1.456 -2.0214 -0.6631 -1.5645
 1450SOL     OW 4475   6.080   2.044   2.676  0.0913 -0.9456 -0.3336
 1450SOL    HW1 4476   6.147   2.014   2.616  0.4887 -1.1422  0.1914
 1450SOL    HW2 4477   6.123   2.112   2.729 -0.2592 -0.7493 -0.2903
 1451SOL     OW 4478   0.661   0.700   2.297  0.0634 -0.3212 -0.3543
 1451SOL    HW1 4479   0.685   0.783   2.256 -1.5016  0.0708 -0.6276
 1451SOL    HW2 4480   0.638   0.724   2.387  1.6992 -0.8799  0.2937
 1452SOL     OW 4481   3.906   6.255   3.463  0.4991 -0.6532 -0.0855
 1452SOL    HW1 4482   4.000   6.267   3.454  0.3162  0.7042 -0.6731
 1452SOL    HW2 4483   3.891   6.254   3.558  0.9689  1.1424  0.0975
 1453SOL     OW 4484   5.385   1.088   2.761 -0.1524 -0.1339 -0.3394
 1453SOL    HW1 4485   5.333   1.020   2.804 -1.4946  0.5443 -0.8055
 1453SOL    HW2 4486   5.391   1.059   2.670  1.2392 -0.7110 -0.1224
 1454SOL     OW 4487   2.276   0.997   3.820  0.8022 -0.2116 -0.3071
 1454SOL    HW1 4488   2.271   1.034   3.908  1.5263  0.3396 -0.4857
 1454SOL    HW2 4489   2.217   1.052   3.768  0.7007 -0.2760 -0.2626
 1455SOL     OW 4490   5.452   0.300   1.088  0.6631 -0.1587  0.1917
 1455SOL    HW1 4491   5.514   0.280   1.017  0.2582  0.1522 -0.2620
 1455SOL    HW2 4492   5.409   0.217   1.106 -1.2667  0.1986 -1.9265
 1456SOL     OW 4493   2.163   2.341   2.131 -0.1989  0.7930  0.0953
 1456SOL    HW1 4494   2.250   2.311   2.155 -0.5020 -0.5675 -0.3171
 1456SOL    HW2 4495   2.148   2.304   2.044 -2.0602 -1.2326  1.0804
 1457SOL     OW 4496   5.952   5.660   0.357  0.5566 -0.5503 -0.0435
 1457SOL    HW1 4497   6.003   5.707   0.292 -1.8900 -0.0276 -1.8650
 1457SOL    HW2 4498   5.945   5.721   0.431  0.1663  0.6367 -0.9980
 1458SOL     OW 4499   5.686   0.103   0.063  0.6527 -0.0249 -0.0769
 1458SOL    HW1 4500   5.702   0.020   0.017 -3.1192 -1.0741 -0.2218
 1458SOL    HW2 4501   5.633   0.154   0.001  1.5140  1.8974  0.6152
 1459SOL     OW 4502   1.632   2.993   2.703 -0.3171 -0.2422  0.0329
 1459SOL    HW1 4503   1.550   2.945   2.715  0.3824 -1.6631 -0.4579
 1459SOL    HW2 4504   1.693   2.951   2.764  0.2140  0.3697 -0.0580
 1460SOL     OW 4505   5.077   3.941   0.896 -0.8605  0.3462 -0.4539
 1460SOL    HW1 4506   5.093   3.909   0.807  4.4229  2.1524 -0.8214
 1460SOL    HW2 4507   5.046   4.030   0.884  1.0493  1.0472 -0.8214
 1461SOL     OW 4508   0.981   5.442   0.423 -0.2408 -0.6848 -0.1396
 1461SOL    HW1 4509   0.911   5.484   0.373 -2.5023 -0.2944  2.8584
 1461SOL    HW2 4510   1.056   5.500   0.411 -1.5786  1.1213 -0.5702
 1462SOL     OW 4511   1.162   4.345   0.174 -0.4788 -0.0801 -0.2439
 1462SOL    HW1 4512   1.132   4.345   0.265  0.0076 -2.4538  0.0634
 1462SOL    HW2 4513   1.255   4.322   0.179 -0.7077 -1.5879 -1.2688
 1463SOL     OW 4514   1.187   0.121   0.479  0.1226  0.3246 -0.4739
 1463SOL    HW1 4515   1.279   0.145   0.493  0.1042  0.1650 -0.0332
 1463SOL    HW2 4516   1.144   0.146   0.561  0.0873 -1.1247  0.0040
 1464SOL     OW 4517   3.096   1.537   1.940  0.0014 -0.0644  0.3539
 1464SOL    HW1 4518   3.122   1.595   2.011 -1.5116  1.7584 -0.4241
 1464SOL    HW2 4519   3.019   1.491   1.974  0.0410 -0.1772  0.2947
 1465SOL     OW 4520   4.976   5.645   2.282  0.4059  0.0070 -0.0937
 1465SOL    HW1 4521   4.994   5.662   2.374 -0.0527  2.2349 -0.2894
 1465SOL    HW2 4522   5.063   5.641   2.241  0.6022 -0.7003  0.3644
 1466SOL     OW 4523   5.242   4.844   1.877 -0.2928 -0.3043  0.3334
 1466SOL    HW1 4524   5.202   4.757   1.875  0.1692 -0.5276  0.5152
 1466SOL    HW2 4525   5.322   4.833   1.929  1.3329 -0.4492 -1.8633
 1467SOL     OW 4526   1.440   2.972   3.394  0.0120 -0.0084  1.2860
 1467SOL    HW1 4527   1.518   2.925   3.423  0.2950 -0.1217  0.3944
 1467SOL    HW2 4528   1.414   3.025   3.470  1.3086  0.4986  1.4280
 1468SOL     OW 4529   1.920   3.214   1.563  0.0777  0.4456  0.0832
 1468SOL    HW1 4530   1.968   3.132   1.576  1.6676  1.1895 -0.5952
 1468SOL    HW2 4531   1.888   3.238   1.650 -0.1535 -0.7099  0.3430
 1469SOL     OW 4532   5.044   6.014   3.609 -0.0830  0.0416 -0.4479
 1469SOL    HW1 4533   5.035   6.106   3.632  0.4786  0.1248 -0.5472
 1469SOL    HW2 4534   5.099   5.976   3.677  0.7107  0.0592 -1.0551
 1470SOL     OW 4535   0.013   3.846   4.338  0.4060 -0.5402  0.2768
 1470SOL    HW1 4536  -0.006   3.936   4.313 -0.9776 -0.5435  1.0729
 1470SOL    HW2 4537   0.028   3.800   4.256 -1.5750 -0.0970 -0.4390
 1471SOL     OW 4538   3.373   2.626   3.390  0.2317  0.0288 -0.2595
 1471SOL    HW1 4539   3.362   2.700   3.331 -1.3610 -0.5417 -0.7831
 1471SOL    HW2 4540   3.328   2.651   3.470 -0.1581 -0.2792 -0.3746
 1472SOL     OW 4541   4.773   3.269   1.942 -0.3057 -0.2301 -0.3675
 1472SOL    HW1 4542   4.802   3.293   1.854 -0.2118 -0.1300 -0.3099
 1472SOL    HW2 4543   4.801   3.178   1.953 -4.4149 -2.2860 -2.3175
 1473SOL     OW 4544   4.018   2.219   2.308  0.0958  0.4609 -0.3536
 1473SOL    HW1 4545   4.024   2.136   2.262 -2.4094  0.0234 -0.2020
 1473SOL    HW2 4546   4.108   2.241   2.330  0.9424 -2.1108 -0.5450
 1474SOL     OW 4547   2.803   2.754   1.955 -0.1298  0.4641 -0.3245
 1474SOL    HW1 4548   2.847   2.828   1.912 -2.4578  1.2308 -1.7227
 1474SOL    HW2 4549   2.796   2.688   1.886  0.3163 -0.3630  0.3884
 1475SOL     OW 4550   3.981   3.718   3.615  0.2770 -0.5275  0.7211
 1475SOL    HW1 4551   3.993   3.798   3.666 -1.5058 -0.4180  1.1032
 1475SOL    HW2 4552   4.009   3.741   3.527  3.0620 -0.5985  1.3894
 1476SOL     OW 4553   5.807   3.466   0.369 -0.4470 -0.0246  0.3047
 1476SOL    HW1 4554   5.874   3.424   0.422 -0.7860  0.1451  0.8789
 1476SOL    HW2 4555   5.819   3.560   0.385 -0.3049  0.0541 -0.2252
 1477SOL     OW 4556   3.112   0.864   1.983 -0.3679 -0.3647 -0.3979
 1477SOL    HW1 4557   3.119   0.912   2.066  0.8416 -0.6097 -0.3250
 1477SOL    HW2 4558   3.018   0.848   1.973 -0.7247  1.1592  0.0431
 1478SOL     OW 4559   6.094   6.268   4.298 -0.3201  0.2924 -0.0698
 1478SOL    HW1 4560   6.014   6.316   4.321 -0.6418 -0.1572 -0.2228
 1478SOL    HW2 4561   6.095   6.194   4.358  0.0801  0.3929  0.0489
 1479SOL     OW 4562   5.009   5.826   4.049 -0.0258 -0.4540 -0.0445
 1479SOL    HW1 4563   4.971   5.750   4.005 -1.0918 -1.5732  2.4083
 1479SOL    HW2 4564   4.944   5.895   4.039 -0.4510 -0.8239  0.1193
 1480SOL     OW 4565   5.377   2.395   1.801  0.1372 -0.6790 -0.3374
 1480SOL    HW1 4566   5.363   2.424   1.711  0.2195  0.2831 -0.0676
 1480SOL    HW2 4567   5.297   2.422   1.847  0.7876  0.4683  0.2171
 1481SOL     OW 4568   0.813   1.678   0.306  0.4211  0.1915  0.6618
 1481SOL    HW1 4569   0.731   1.696   0.261 -0.0045  0.1119  1.3724
 1481SOL    HW2 4570   0.789   1.667   0.398  1.3087  0.7550  0.9926
 1482SOL     OW 4571   4.130   1.299   0.189  0.1767  0.6201  0.2797
 1482SOL    HW1 4572   4.140   1.268   0.100  2.5759  0.6159  0.4198
 1482SOL    HW2 4573   4.117   1.220   0.242 -0.9254  0.5997  0.0329
 1483SOL     OW 4574   3.296   1.548   0.264  0.0313 -0.0237  0.2011
 1483SOL    HW1 4575   3.354   1.559   0.340 -1.0628  0.4498  1.0230
 1483SOL    HW2 4576   3.302   1.632   0.218  0.3358 -0.1418  0.0182
 1484SOL     OW 4577   1.223   3.347   1.350 -0.1072  0.8003  0.1922
 1484SOL    HW1 4578   1.128   3.335   1.342 -0.1508  0.4227  1.0749
 1484SOL    HW2 4579   1.246   3.400   1.274 -0.6632 -0.9556 -1.3569
 1485SOL     OW 4580   2.953   5.261   3.215 -0.0728 -0.3030 -0.2029
 1485SOL    HW1 4581   2.996   5.175   3.222  2.6235  0.7327  4.2465
 1485SOL    HW2 4582   3.022   5.319   3.183 -0.3941  0.5792  0.6031
 1486SOL     OW 4583   1.063   4.958   0.594 -0.1936 -0.5656  0.5589
 1486SOL    HW1 4584   1.002   5.032   0.584 -1.0828 -1.2261  0.8334
 1486SOL    HW2 4585   1.115   4.959   0.513  0.3174  0.7574  0.8378
 1487SOL     OW 4586   4.293   5.988   3.182  0.4348 -0.0924 -0.7494
 1487SOL    HW1 4587   4.204   5.956   3.193  0.8640 -0.9208  0.7805
 1487SOL    HW2 4588   4.311   5.976   3.088 -1.0130  0.0671 -1.0997
 1488SOL     OW 4589   5.602   5.473   0.535  0.0352  0.2308 -0.5630
 1488SOL    HW1 4590   5.633   5.542   0.594 -3.0023  0.3997  1.2443
 1488SOL    HW2 4591   5.664   5.474   0.462  1.9275  2.7109  0.7685
 1489SOL     OW 4592   2.910   6.131   2.047 -0.4329 -0.9030 -0.2023
 1489SOL    HW1 4593   2.829   6.086   2.025  0.1589 -2.2683  0.1722
 1489SOL    HW2 4594   2.970   6.060   2.072  0.2398  0.1723  1.5845
 1490SOL     OW 4595   1.890   1.936   3.098 -0.2027  0.2331  0.2297
 1490SOL    HW1 4596   1.821   1.901   3.154  0.8981 -2.1741  0.3367
 1490SOL    HW2 4597   1.953   1.974   3.159 -0.9318  1.6254  0.1911
 1491SOL     OW 4598   2.028   0.828   3.697 -0.2276 -0.0237 -0.1585
 1491SOL    HW1 4599   1.960   0.760   3.703  1.3323 -1.8131 -0.6983
 1491SOL    HW2 4600   2.053   0.844   3.788 -1.7261  1.2246  0.1278
 1492SOL     OW 4601   0.693   5.269   3.655 -0.4630  0.7210 -0.1642
 1492SOL    HW1 4602   0.714   5.176   3.641 -0.6535  0.5875  0.3808
 1492SOL    HW2 4603   0.762   5.300   3.713 -1.4062  0.4195  1.2015
 1493SOL     OW 4604   0.448   0.480   2.414 -0.9228 -0.1457  1.0801
 1493SOL    HW1 4605   0.388   0.521   2.476 -0.3744  1.8756  0.4483
 1493SOL    HW2 4606   0.472   0.551   2.353  0.4430 -1.3722  0.0299
 1494SOL     OW 4607   0.696   0.736   3.332  0.3586  0.0348 -0.0036
 1494SOL    HW1 4608   0.669   0.676   3.262  0.0025 -0.7255  0.7516
 1494SOL    HW2 4609   0.618   0.744   3.388  1.1993 -1.0866  1.4655
 1495SOL     OW 4610   4.681   0.360   2.860 -0.6300  0.0821  0.6131
 1495SOL    HW1 4611   4.662   0.337   2.769  0.2651  0.6393  0.2597
 1495SOL    HW2 4612   4.757   0.418   2.855 -0.3155 -0.1800  1.7491
 1496SOL     OW 4613   3.924   3.821   0.119  0.6042  0.2399 -0.5757
 1496SOL    HW1 4614   3.993   3.849   0.059 -0.0819  0.0144 -1.4986
 1496SOL    HW2 4615   3.951   3.856   0.204  2.2245 -0.4420 -0.7330
 1497SOL     OW 4616   2.180   4.007   2.522  0.2612  0.0330 -0.3072
 1497SOL    HW1 4617   2.205   3.920   2.553 -0.1473 -0.0171 -0.0986
 1497SOL    HW2 4618   2.263   4.052   2.507  0.5335  0.3156  1.5793
 1498SOL     OW 4619   1.436   0.010   3.534 -0.0067 -1.4166  0.3014
 1498SOL    HW1 4620   1.447  -0.071   3.485  1.6323 -1.3503  0.4518
 1498SOL    HW2 4621   1.520   0.023   3.579 -1.0418 -0.9291  2.3194
 1499SOL     OW 4622   3.971   3.224   0.011  0.0818 -0.1022 -0.1625
 1499SOL    HW1 4623   3.899   3.176  -0.030 -1.3103  1.6541 -0.0310
 1499SOL    HW2 4624   4.032   3.156   0.039 -0.6226 -1.6148 -1.8682
 1500SOL     OW 4625   4.703   2.314   0.589  0.1276 -0.9427  0.2584
 1500SOL    HW1 4626   4.775   2.377   0.590 -2.1794  2.2768 -0.3126
 1500SOL    HW2 4627   4.640   2.352   0.527 -1.5331 -4.2143 -0.4982
 1501SOL     OW 4628   2.479   2.600   4.482  0.0744  0.8070 -0.3951
 1501SOL    HW1 4629   2.485   2.572   4.573  1.6760  0.2517 -0.6089
 1501SOL    HW2 4630   2.470   2.519   4.431  2.6214  0.6434 -0.8701
 1502SOL     OW 4631   0.613   1.297   2.163  0.2785 -0.8966 -0.6369
 1502SOL    HW1 4632   0.592   1.386   2.135  0.4968 -0.0785  1.4255
 1502SOL    HW2 4633   0.686   1.270   2.107  0.0704  0.1299 -1.4470
 1503SOL     OW 4634   5.904   2.566   0.233  0.1842  0.0447  0.8841
 1503SOL    HW1 4635   5.834   2.505   0.259 -0.5067  0.2887 -0.2550
 1503SOL    HW2 4636   5.941   2.597   0.316  0.6945 -2.0067  1.5312
 1504SOL     OW 4637   5.869   4.571   2.855 -0.2014  0.4389  0.3379
 1504SOL    HW1 4638   5.924   4.611   2.923  1.9385 -0.1038 -0.8786
 1504SOL    HW2 4639   5.915   4.589   2.773 -1.7760 -0.3119 -0.8178
 1505SOL     OW 4640   5.596   4.283   3.541  0.3802  0.3094  0.1072
 1505SOL    HW1 4641   5.613   4.305   3.450 -2.6786  2.3125 -0.2841
 1505SOL    HW2 4642   5.633   4.357   3.590 -2.2720  2.2327 -0.3109
 1506SOL     OW 4643   1.183   0.057   4.447 -0.0717  0.1129 -0.9993
 1506SOL    HW1 4644   1.278   0.046   4.447  0.1112  1.1977 -2.1167
 1506SOL    HW2 4645   1.160   0.075   4.538  0.5756 -1.3615 -0.4824
 1507SOL     OW 4646   2.437   5.318   1.766 -0.4379  0.1669 -0.0293
 1507SOL    HW1 4647   2.410   5.374   1.839  0.4651  1.9229 -0.9256
 1507SOL    HW2 4648   2.369   5.330   1.700 -0.5899 -0.3842  0.0171
 1508SOL     OW 4649   1.655   0.301   2.893  0.0789 -0.2517 -0.2478
 1508SOL    HW1 4650   1.724   0.330   2.953  0.1957 -0.2184 -0.3979
 1508SOL    HW2 4651   1.698   0.238   2.835  0.1855  0.3392 -0.8411
 1509SOL     OW 4652   3.007   3.053   0.740 -0.1213 -0.0559 -0.0509
 1509SOL    HW1 4653   2.946   3.030   0.670 -0.8825  2.3262 -0.3423
 1509SOL    HW2 4654   3.086   3.080   0.695  2.6022 -5.0338  0.2603
 1510SOL     OW 4655   5.112   3.948   4.028  0.1284 -0.0629  0.0562
 1510SOL    HW1 4656   5.045   3.887   4.059  1.2311 -2.1157 -1.0959
 1510SOL    HW2 4657   5.189   3.928   4.082  1.1359 -1.4393 -1.6564
 1511SOL     OW 4658   4.378   0.881   2.152  0.3093  0.2331 -0.6805
 1511SOL    HW1 4659   4.345   0.791   2.159 -1.4691  0.4135 -3.4377
 1511SOL    HW2 4660   4.342   0.925   2.229 -0.2407 -1.0479 -0.1384
 1512SOL     OW 4661   1.042   5.022   2.940 -0.1483  0.2060 -0.0259
 1512SOL    HW1 4662   1.049   4.952   2.875  1.7353  1.1122 -0.9880
 1512SOL    HW2 4663   0.968   5.075   2.910 -1.7460 -1.3130  0.8326
 1513SOL     OW 4664   4.096   3.961   2.492 -0.2210  0.2754 -0.1322
 1513SOL    HW1 4665   4.157   3.939   2.423  0.5309 -0.7003  0.7858
 1513SOL    HW2 4666   4.131   4.042   2.531 -0.5511  0.7278 -0.7460
 1514SOL     OW 4667   4.347   4.533   1.023  0.2053  0.4560 -0.1161
 1514SOL    HW1 4668   4.268   4.539   1.078  0.7229  0.5799  0.6568
 1514SOL    HW2 4669   4.337   4.603   0.959  0.2134  1.2729  0.7308
 1515SOL     OW 4670   1.350   4.170   1.868 -0.6518  0.0751  0.2538
 1515SOL    HW1 4671   1.327   4.240   1.928  0.0126  1.7440 -1.2756
 1515SOL    HW2 4672   1.364   4.213   1.784 -2.2280 -2.1286 -1.4032
 1516SOL     OW 4673   1.876   1.189   0.248 -0.8405  0.4353 -0.2677
 1516SOL    HW1 4674   1.906   1.280   0.252 -0.4406  0.3603 -1.2249
 1516SOL    HW2 4675   1.795   1.192   0.197 -0.7838  0.2438 -0.3726
 1517SOL     OW 4676   2.858   1.604   3.550  0.5744 -0.0048 -0.3394
 1517SOL    HW1 4677   2.787   1.551   3.513 -2.0641  1.2496  2.1516
 1517SOL    HW2 4678   2.891   1.551   3.622  0.2354  0.4342  0.1466
 1518SOL     OW 4679   1.848   4.807   4.496  0.1963 -0.2587  0.1646
 1518SOL    HW1 4680   1.918   4.827   4.435  0.5681 -0.1109  0.6299
 1518SOL    HW2 4681   1.855   4.712   4.510 -0.6610 -0.5236 -0.9366
 1519SOL     OW 4682   4.338   0.035   2.942  0.0436 -0.7885 -0.6588
 1519SOL    HW1 4683   4.285   0.000   3.014  1.1093 -1.2600 -0.0520
 1519SOL    HW2 4684   4.398   0.097   2.984  0.4963 -0.8590 -1.1705
 1520SOL     OW 4685   4.495   5.958   1.123 -0.6076 -0.2052 -0.0501
 1520SOL    HW1 4686   4.520   5.882   1.071 -0.9441  0.2391 -0.9005
 1520SOL    HW2 4687   4.575   6.009   1.132 -0.5730 -0.2223 -0.2550
 1521SOL     OW 4688   0.066   2.792   1.531 -0.2262 -0.2266  0.1229
 1521SOL    HW1 4689   0.122   2.850   1.479 -1.0609  2.4194  1.7778
 1521SOL    HW2 4690   0.070   2.708   1.485  1.5788  0.9075 -2.2740
 1522SOL     OW 4691   2.633   6.091   2.051 -0.3862  0.2022 -0.2493
 1522SOL    HW1 4692   2.568   6.040   2.003 -1.2138  1.2822 -0.3550
 1522SOL    HW2 4693   2.585   6.132   2.123  0.7242 -0.9920  1.3241
 1523SOL     OW 4694   0.305   6.291   3.015  0.4647  0.4257 -0.1299
 1523SOL    HW1 4695   0.349   6.207   3.034  1.1047  0.2714 -1.9327
 1523SOL    HW2 4696   0.212   6.270   3.013  0.3636  0.3263  1.7456
 1524SOL     OW 4697   3.817   1.977   1.936  0.0168  0.3209 -0.0321
 1524SOL    HW1 4698   3.764   2.053   1.959  0.1716  0.3974  0.0736
 1524SOL    HW2 4699   3.906   2.002   1.957  0.1003  0.2013 -0.2305
 1525SOL     OW 4700   0.768   0.398   3.844 -0.5127  0.0917 -0.5427
 1525SOL    HW1 4701   0.862   0.390   3.861 -0.6811 -0.5449  0.1980
 1525SOL    HW2 4702   0.760   0.475   3.788  0.2887  1.3494  0.9152
 1526SOL     OW 4703   3.254   5.802   3.244  0.4303 -0.1393  0.5767
 1526SOL    HW1 4704   3.319   5.854   3.292 -0.1274  1.0348  0.1317
 1526SOL    HW2 4705   3.285   5.800   3.154 -0.1395  0.4657  0.3505
 1527SOL     OW 4706   5.901   5.666   3.334 -0.1375  0.8695 -0.1694
 1527SOL    HW1 4707   5.811   5.649   3.363 -0.0459  0.4006 -0.1413
 1527SOL    HW2 4708   5.927   5.585   3.290  0.3410  0.9335 -0.0070
 1528SOL     OW 4709   5.905   4.337   1.886  0.6015  0.4459  0.1120
 1528SOL    HW1 4710   5.962   4.353   1.962  1.4318  0.9266 -0.5738
 1528SOL    HW2 4711   5.960   4.289   1.824 -0.3269 -0.7207  0.1257
 1529SOL     OW 4712   4.459   4.936   2.292  0.3387 -0.1641 -0.0904
 1529SOL    HW1 4713   4.541   4.889   2.307  0.1024 -0.1921  1.4135
 1529SOL    HW2 4714   4.471   5.020   2.335 -0.2695  0.0058 -0.2356
 1530SOL     OW 4715   5.903   2.467   4.203  0.7262  0.2307  0.2965
 1530SOL    HW1 4716   5.996   2.446   4.194  1.2137  1.8342  0.7398
 1530SOL    HW2 4717   5.882   2.444   4.293  0.5422 -0.5350  0.0719
 1531SOL     OW 4718   2.479   3.783   0.344  0.1042 -0.3759 -0.5502
 1531SOL    HW1 4719   2.480   3.871   0.380  2.2107 -0.7294  0.5681
 1531SOL    HW2 4720   2.391   3.750   0.364  0.1045  0.5723  1.5194
 1532SOL     OW 4721   2.709   1.109   3.542 -0.7066  0.4224  0.0130
 1532SOL    HW1 4722   2.714   1.028   3.593  0.0895  1.0381  0.9826
 1532SOL    HW2 4723   2.771   1.096   3.470 -2.1394 -0.6158 -1.1585
 1533SOL     OW 4724   2.968   0.425   2.375 -0.3836  0.1065 -0.6337
 1533SOL    HW1 4725   3.050   0.465   2.345 -0.7405  1.1978 -0.2570
 1533SOL    HW2 4726   2.928   0.492   2.431 -0.8157 -0.9806  0.4360
 1534SOL     OW 4727   4.267   5.351   1.792 -0.3745 -0.2957 -0.0349
 1534SOL    HW1 4728   4.212   5.421   1.756  0.6305  1.1185  0.9470
 1534SOL    HW2 4729   4.268   5.284   1.724 -2.4677 -0.0033 -0.4995
 1535SOL     OW 4730   2.604   3.121   4.392 -0.4214  0.4180 -0.0994
 1535SOL    HW1 4731   2.575   3.036   4.359  1.6627 -1.0684  1.3075
 1535SOL    HW2 4732   2.671   3.149   4.330 -0.3609  0.4600 -0.0160
 1536SOL     OW 4733   2.099   2.134   1.211 -0.1210  0.6458  0.5936
 1536SOL    HW1 4734   2.018   2.092   1.241 -0.0202  0.8880  1.2255
 1536SOL    HW2 4735   2.144   2.159   1.291  0.8545  0.0175  0.2830
 1537SOL     OW 4736   0.561   4.252   2.627  0.3957 -0.5841  0.5805
 1537SOL    HW1 4737   0.584   4.212   2.543  0.2943 -0.9489  0.7222
 1537SOL    HW2 4738   0.644   4.253   2.676  0.7258  0.6922  0.0686
 1538SOL     OW 4739   2.683   2.699   1.648  0.4386 -0.2715  0.3645
 1538SOL    HW1 4740   2.667   2.657   1.563 -0.6934 -0.4677  0.6431
 1538SOL    HW2 4741   2.700   2.626   1.707 -1.1805 -0.3938  0.7754
 1539SOL     OW 4742   2.207   3.720   0.495  0.4727  0.3404 -0.4744
 1539SOL    HW1 4743   2.157   3.684   0.422  0.5344 -0.8243  0.0203
 1539SOL    HW2 4744   2.140   3.741   0.561  0.5538 -1.7091  0.3990
 1540SOL     OW 4745   1.156   6.399   3.395  0.6627 -0.2281  0.0677
 1540SOL    HW1 4746   1.102   6.467   3.437  1.4391  0.9886 -0.7837
 1540SOL    HW2 4747   1.135   6.406   3.302  1.6836 -0.2719 -0.1881
 1541SOL     OW 4748   3.974   0.960   1.837 -0.8937  0.3548 -1.0951
 1541SOL    HW1 4749   4.049   0.960   1.896 -2.0177 -1.4244  0.5837
 1541SOL    HW2 4750   3.992   0.889   1.775 -1.1555 -0.0788 -0.6861
 1542SOL     OW 4751   2.586   3.742   0.053  0.3244 -0.2897  0.9200
 1542SOL    HW1 4752   2.565   3.818  -0.002 -1.5690 -0.4001  1.3327
 1542SOL    HW2 4753   2.544   3.762   0.137 -0.5603 -1.8897  0.9374
 1543SOL     OW 4754   5.878   2.660   2.347 -0.2544 -0.0073  0.4191
 1543SOL    HW1 4755   5.795   2.688   2.385 -0.4909 -0.2411  0.0881
 1543SOL    HW2 4756   5.943   2.719   2.384 -0.6983  0.8362 -0.0920
 1544SOL     OW 4757   2.620   5.819   4.223  0.1929  0.4122 -0.2214
 1544SOL    HW1 4758   2.594   5.786   4.308 -0.0154 -0.1983 -0.5139
 1544SOL    HW2 4759   2.550   5.880   4.199  0.4691  0.9224  0.2224
 1545SOL     OW 4760   2.876   2.601   1.091 -0.2825  0.3831 -0.0914
 1545SOL    HW1 4761   2.884   2.505   1.086  0.5604  0.4615 -0.5520
 1545SOL    HW2 4762   2.889   2.630   1.001  2.1724  1.0689  0.3296
 1546SOL     OW 4763   5.491   0.203   4.289 -0.1655 -0.2528 -0.1668
 1546SOL    HW1 4764   5.577   0.184   4.251  0.6024 -1.6754  1.9245
 1546SOL    HW2 4765   5.508   0.271   4.354 -0.8447  0.0722 -0.3095
 1547SOL     OW 4766   5.688   2.672   0.691 -0.2093  0.1096  0.1501
 1547SOL    HW1 4767   5.722   2.596   0.739  1.6335  1.8390  1.9881
 1547SOL    HW2 4768   5.638   2.721   0.756  1.1233  1.8438 -0.0025
 1548SOL     OW 4769   5.494   1.445   1.437 -0.3001  0.2305 -0.2994
 1548SOL    HW1 4770   5.424   1.507   1.414  0.1302  0.3230 -1.4961
 1548SOL    HW2 4771   5.468   1.363   1.397 -0.5394 -0.2305  0.7263
 1549SOL     OW 4772   3.194   0.228   2.441  0.1385  0.0113  0.5212
 1549SOL    HW1 4773   3.245   0.238   2.361 -0.7000  1.1072  0.0870
 1549SOL    HW2 4774   3.154   0.313   2.455  0.1590 -0.1738  2.0633
 1550SOL     OW 4775   3.792   4.718   1.637 -0.3164  0.0406 -0.0843
 1550SOL    HW1 4776   3.831   4.632   1.654  0.2633  0.5396  1.4054
 1550SOL    HW2 4777   3.864   4.771   1.604 -0.7172 -0.0515 -1.1904
 1551SOL     OW 4778   3.043   3.351   1.683  0.0434 -0.3310  0.7650
 1551SOL    HW1 4779   3.127   3.307   1.675 -0.3817 -1.0897  0.1771
 1551SOL    HW2 4780   3.010   3.356   1.593  0.3668  1.9092  0.6420
 1552SOL     OW 4781   0.780   0.036   4.162 -0.4869 -0.1445 -0.1627
 1552SOL    HW1 4782   0.855   0.075   4.117 -0.6165  0.3955  0.0820
 1552SOL    HW2 4783   0.820  -0.024   4.226 -0.0979  1.5907  1.4021
 1553SOL     OW 4784   2.621   3.405   4.062 -0.3278 -0.4652  0.1031
 1553SOL    HW1 4785   2.640   3.315   4.032  0.2699 -0.8365  1.4216
 1553SOL    HW2 4786   2.593   3.451   3.984  0.2732 -1.5600 -0.8234
 1554SOL     OW 4787   3.849   0.561   0.650  0.4273  0.0940  0.3663
 1554SOL    HW1 4788   3.905   0.572   0.726 -0.3908  0.5704  0.9331
 1554SOL    HW2 4789   3.769   0.522   0.684  0.5003 -0.8685 -0.4692
 1555SOL     OW 4790   5.622   3.166   2.636  0.1688  0.2825 -0.7217
 1555SOL    HW1 4791   5.685   3.131   2.699  1.3708  0.6926 -1.6177
 1555SOL    HW2 4792   5.577   3.089   2.602  1.4522 -0.2756 -1.3110
 1556SOL     OW 4793   3.169   3.581   1.787 -0.2990  0.2092 -0.9234
 1556SOL    HW1 4794   3.103   3.522   1.752  0.0523 -0.1466 -1.0028
 1556SOL    HW2 4795   3.199   3.632   1.711 -0.0348 -0.0755 -1.0163
 1557SOL     OW 4796   3.068   4.626   0.791  0.2486  0.8434  0.0956
 1557SOL    HW1 4797   3.135   4.684   0.756  1.5040 -0.3466  0.3584
 1557SOL    HW2 4798   2.987   4.676   0.785  0.9141  1.8714 -1.4733
 1558SOL     OW 4799   4.525   5.765   4.105 -0.1958  0.7140 -0.5128
 1558SOL    HW1 4800   4.430   5.772   4.101 -0.2357  0.3197 -0.3044
 1558SOL    HW2 4801   4.548   5.716   4.026 -0.3138 -0.5435  0.1962
 1559SOL     OW 4802   6.141   2.503   1.654 -0.4107 -0.2614 -0.1322
 1559SOL    HW1 4803   6.232   2.524   1.674 -0.8755  1.6595  0.3797
 1559SOL    HW2 4804   6.101   2.587   1.633 -2.3307 -0.8260  0.7760
 1560SOL     OW 4805   4.928   6.226   0.432  0.3819 -0.3677  0.0589
 1560SOL    HW1 4806   4.887   6.164   0.372 -0.8239 -0.5650  1.0067
 1560SOL    HW2 4807   4.869   6.228   0.508  1.4980  0.3366  0.9679
 1561SOL     OW 4808   3.656   5.988   4.188  0.0612  0.0547  0.9315
 1561SOL    HW1 4809   3.672   6.073   4.231 -1.6657 -0.0800  2.0356
 1561SOL    HW2 4810   3.584   5.950   4.238  0.9352 -2.2280  0.6663
 1562SOL     OW 4811   5.789   3.908   2.383  0.2079  0.4431  0.4967
 1562SOL    HW1 4812   5.704   3.921   2.425 -1.9349 -0.9738 -2.6167
 1562SOL    HW2 4813   5.825   3.830   2.426 -1.2689 -0.3026  0.5132
 1563SOL     OW 4814   3.423   2.122   3.903  0.4959 -0.3136 -0.7498
 1563SOL    HW1 4815   3.415   2.145   3.810 -2.2896 -0.5751 -0.7403
 1563SOL    HW2 4816   3.363   2.048   3.915  0.8438 -0.3826  1.2607
 1564SOL     OW 4817   1.564   2.195   3.979  0.3940 -0.4424  0.2066
 1564SOL    HW1 4818   1.504   2.156   3.915  2.8536 -1.6342 -1.7079
 1564SOL    HW2 4819   1.543   2.150   4.061 -1.5719 -0.3749 -0.1433
 1565SOL     OW 4820   0.172   2.644   2.311 -0.1397 -0.1508  0.0366
 1565SOL    HW1 4821   0.257   2.670   2.277  0.3886 -0.9116  0.6886
 1565SOL    HW2 4822   0.180   2.653   2.406 -0.7190 -0.4031  0.1216
 1566SOL     OW 4823   3.854   4.205   3.849 -0.8125  0.1661  0.4101
 1566SOL    HW1 4824   3.867   4.238   3.938  0.1958  0.1491  0.2943
 1566SOL    HW2 4825   3.899   4.269   3.793 -0.3303 -0.4803  0.0324
 1567SOL     OW 4826   2.855   1.739   0.686 -0.4034 -0.1591 -0.1425
 1567SOL    HW1 4827   2.865   1.709   0.596  0.3092  0.4491 -0.2788
 1567SOL    HW2 4828   2.761   1.753   0.696 -0.5183 -0.4653 -0.7071
 1568SOL     OW 4829   6.035   4.968   0.371 -0.3909 -0.3104  0.2961
 1568SOL    HW1 4830   6.124   4.939   0.393 -0.5671 -0.8608  0.3197
 1568SOL    HW2 4831   6.028   4.952   0.277 -1.7084 -4.1225  0.6977
 1569SOL     OW 4832   0.072   3.945   1.955  0.5439  0.3736  0.2882
 1569SOL    HW1 4833  -0.021   3.958   1.975  0.2451 -0.6710 -0.2635
 1569SOL    HW2 4834   0.111   3.921   2.039  0.0659 -0.2933  0.3395
 1570SOL     OW 4835   3.056   0.547   3.070 -0.4439  0.3503  0.1017
 1570SOL    HW1 4836   2.991   0.569   3.138 -1.0913 -2.2988  0.5449
 1570SOL    HW2 4837   3.019   0.583   2.990 -0.7186  1.7528  0.7856
 1571SOL     OW 4838   2.119   2.825   2.772  0.8796 -0.5889 -0.1121
 1571SOL    HW1 4839   2.117   2.909   2.726 -4.1240 -0.0684 -0.0902
 1571SOL    HW2 4840   2.169   2.843   2.852  2.4178  1.3149 -1.3059
 1572SOL     OW 4841   5.184   1.503   0.863 -0.0386 -0.6015  0.1982
 1572SOL    HW1 4842   5.129   1.505   0.785  0.2151 -0.8155  0.0098
 1572SOL    HW2 4843   5.269   1.537   0.833 -0.6024  1.9387  0.9464
 1573SOL     OW 4844   4.303   4.952   4.412 -0.0427 -0.2206 -0.6449
 1573SOL    HW1 4845   4.213   4.972   4.385 -0.3754 -0.2777  0.3500
 1573SOL    HW2 4846   4.297   4.936   4.506  0.8640 -1.1467 -0.7119
 1574SOL     OW 4847   0.857   1.143   0.551  0.0061  0.0114  0.0069
 1574SOL    HW1 4848   0.772   1.116   0.588 -1.0223 -0.2200 -2.2088
 1574SOL    HW2 4849   0.838   1.223   0.502  1.0780 -0.0481 -0.5666
 1575SOL     OW 4850   4.090   3.297   4.237  0.1214  0.2235 -0.2527
 1575SOL    HW1 4851   4.074   3.205   4.256  0.5719 -0.7798 -3.4433
 1575SOL    HW2 4852   4.171   3.318   4.284  0.0007 -0.9819  0.5759
 1576SOL     OW 4853   1.518   5.269   0.853  0.4570 -0.1637 -0.2592
 1576SOL    HW1 4854   1.430   5.290   0.821  0.1155 -0.5156  0.4074
 1576SOL    HW2 4855   1.562   5.353   0.860 -0.2107  0.1480  0.4526
 1577SOL     OW 4856   4.226   2.010   0.748  0.4832  0.2677  0.0216
 1577SOL    HW1 4857   4.163   1.945   0.779  0.3854  0.5831  0.5102
 1577SOL    HW2 4858   4.224   2.079   0.815  3.0204 -0.6887  1.3538
 1578SOL     OW 4859   1.372   4.764   2.387 -0.2049  0.3306 -0.6822
 1578SOL    HW1 4860   1.459   4.747   2.421 -0.2393 -0.0122 -0.7565
 1578SOL    HW2 4861   1.348   4.849   2.423  0.0070  0.2554 -0.3568
 1579SOL     OW 4862   5.595   4.548   4.496  0.0612  0.4073  0.3081
 1579SOL    HW1 4863   5.575   4.461   4.462 -0.7647 -0.0810  1.8564
 1579SOL    HW2 4864   5.554   4.551   4.582 -0.3369  2.5028  0.1649
 1580SOL     OW 4865   3.220   1.798   3.205  0.4823  0.2713 -0.3078
 1580SOL    HW1 4866   3.211   1.759   3.118  1.1959  1.9269 -1.2202
 1580SOL    HW2 4867   3.286   1.867   3.194  0.4258  0.7219  1.5038
 1581SOL     OW 4868   3.344   1.825   2.476  0.6007 -0.1591  0.1628
 1581SOL    HW1 4869   3.418   1.855   2.527  0.8641 -0.0708 -0.2679
 1581SOL    HW2 4870   3.363   1.851   2.386 -0.1957  0.3371  0.1150
 1582SOL     OW 4871   5.189   1.439   1.151  0.3035  0.6000 -0.5354
 1582SOL    HW1 4872   5.147   1.442   1.065  1.2693  0.4291 -1.0362
 1582SOL    HW2 4873   5.190   1.529   1.182  0.9678  0.8421 -1.2294
 1583SOL     OW 4874   5.820   4.955   4.007  0.0776  0.2916  0.0396
 1583SOL    HW1 4875   5.872   4.920   3.935 -0.8758 -0.7326 -0.2042
 1583SOL    HW2 4876   5.884   5.001   4.062  1.5322 -1.8286  0.3936
 1584SOL     OW 4877   5.340   1.831   3.940 -0.5593  0.0169 -0.0991
 1584SOL    HW1 4878   5.427   1.802   3.967 -0.4702  0.4561  0.0966
 1584SOL    HW2 4879   5.306   1.879   4.015  0.0629  2.0996 -1.0188
 1585SOL     OW 4880   5.033   4.532   3.379 -0.1705  0.1878  0.5850
 1585SOL    HW1 4881   5.012   4.448   3.420 -0.9467  0.0114 -0.1280
 1585SOL    HW2 4882   5.129   4.533   3.374 -0.1269 -0.4127  1.0865
 1586SOL     OW 4883   1.169   6.275   0.764 -0.3733  0.1027 -0.0922
 1586SOL    HW1 4884   1.099   6.211   0.751  1.0148 -1.7166  0.6040
 1586SOL    HW2 4885   1.227   6.265   0.689  0.7054 -0.7265  0.7911
 1587SOL     OW 4886   0.827   2.093   2.128  0.6942 -0.1534 -0.1264
 1587SOL    HW1 4887   0.802   2.185   2.113  1.1068  0.6911  2.9837
 1587SOL    HW2 4888   0.820   2.052   2.042 -0.1506  2.6098 -1.6152
 1588SOL     OW 4889   3.809   3.604   1.336 -0.2364 -0.3293 -0.5926
 1588SOL    HW1 4890   3.816   3.567   1.248 -2.9223 -2.3640 -0.2322
 1588SOL    HW2 4891   3.826   3.530   1.394  0.1014  0.6127  0.5892
 1589SOL     OW 4892   2.074   2.442   0.813 -1.0801 -0.0895  0.1952
 1589SOL    HW1 4893   1.991   2.487   0.799 -1.6496 -0.9157  0.6832
 1589SOL    HW2 4894   2.049   2.350   0.822 -0.1357 -0.3252  0.6051
 1590SOL     OW 4895   0.962   2.996   3.711 -0.3100 -0.2252 -0.8349
 1590SOL    HW1 4896   0.868   3.012   3.717 -0.4846 -1.1643 -0.8281
 1590SOL    HW2 4897   0.992   2.998   3.802 -0.1800  0.7523 -0.8780
 1591SOL     OW 4898   0.547   4.064   4.095  0.0127 -0.0252 -0.5872
 1591SOL    HW1 4899   0.486   4.124   4.053 -1.0564 -0.1045  0.7209
 1591SOL    HW2 4900   0.630   4.111   4.096 -0.9275  1.9364  1.1383
 1592SOL     OW 4901   0.924   3.169   0.565  0.2042 -0.3964  0.2168
 1592SOL    HW1 4902   0.933   3.243   0.505 -0.4555  0.6542  1.3353
 1592SOL    HW2 4903   0.874   3.204   0.639 -1.6501 -2.3903  0.0868
 1593SOL     OW 4904   0.406   5.696   0.786 -0.4478 -0.3650 -0.4765
 1593SOL    HW1 4905   0.326   5.648   0.811 -1.9424  2.2218  0.4545
 1593SOL    HW2 4906   0.376   5.786   0.771  2.2224  0.6144 -0.9467
 1594SOL     OW 4907   3.407   5.530   0.783 -0.6339 -0.0086  0.1869
 1594SOL    HW1 4908   3.457   5.574   0.852 -1.4767  0.1269  0.7409
 1594SOL    HW2 4909   3.395   5.597   0.716  2.5637 -0.8050 -1.5722
 1595SOL     OW 4910   2.687   3.767   1.146  0.2937  0.4579  0.0661
 1595SOL    HW1 4911   2.627   3.800   1.213  0.8812 -1.7541  1.9191
 1595SOL    HW2 4912   2.630   3.745   1.072 -0.7313  0.9315  0.6664
 1596SOL     OW 4913   4.070   3.241   2.014  0.8880 -0.3089 -0.1231
 1596SOL    HW1 4914   4.007   3.172   1.997 -0.2113  0.3569  0.9330
 1596SOL    HW2 4915   4.066   3.255   2.109 -0.5981  2.5235 -0.3707
 1597SOL     OW 4916   1.340   2.741   1.930  0.7838 -0.0642 -0.0752
 1597SOL    HW1 4917   1.263   2.719   1.878 -0.3059  1.9392  0.4872
 1597SOL    HW2 4918   1.390   2.801   1.875  0.5813  0.6224  0.4650
 1598SOL     OW 4919   6.021   3.413   1.231  0.0501  0.1563  0.3457
 1598SOL    HW1 4920   6.076   3.467   1.174  0.3176  0.3629  0.7858
 1598SOL    HW2 4921   5.953   3.379   1.173  0.2385  0.4627 -0.0701
 1599SOL     OW 4922   2.952   2.912   2.870 -0.1934 -0.6861 -0.8102
 1599SOL    HW1 4923   2.936   2.991   2.818  0.1206 -2.0106 -3.2080
 1599SOL    HW2 4924   2.880   2.853   2.847 -0.2087 -1.3190  0.6082
 1600SOL     OW 4925   1.219   2.205   3.298 -0.0712 -0.1884 -0.0931
 1600SOL    HW1 4926   1.227   2.285   3.349  0.0771 -0.8275  0.9507
 1600SOL    HW2 4927   1.276   2.218   3.222  1.7241 -0.0921  1.1368
 1601SOL     OW 4928   4.117   4.932   0.278 -0.2874 -0.8174  0.2673
 1601SOL    HW1 4929   4.025   4.928   0.302 -0.4230 -1.6561 -0.3201
 1601SOL    HW2 4930   4.157   4.856   0.319  0.3746  0.0241  1.2965
 1602SOL     OW 4931   3.353   5.301   1.777  0.3094  0.4435  0.1626
 1602SOL    HW1 4932   3.297   5.224   1.787 -0.4945  1.0463  0.5351
 1602SOL    HW2 4933   3.437   5.274   1.814  0.1062 -0.3189  0.0917
 1603SOL     OW 4934   1.131   2.966   4.372  0.0289  0.0753 -0.3066
 1603SOL    HW1 4935   1.098   2.973   4.283 -0.8766  0.3214  0.0239
 1603SOL    HW2 4936   1.204   2.905   4.366  0.1568  0.2894 -1.2501
 1604SOL     OW 4937   2.907   4.768   0.008  0.6254 -0.5669  0.1226
 1604SOL    HW1 4938   2.862   4.754  -0.075  1.8510 -2.0878 -0.3855
 1604SOL    HW2 4939   2.900   4.862   0.024 -0.0114 -0.2852 -1.4757
 1605SOL     OW 4940   5.074   0.432   4.463 -0.0737 -0.4750  0.4705
 1605SOL    HW1 4941   5.121   0.446   4.545 -0.2630 -0.2564  0.5448
 1605SOL    HW2 4942   4.987   0.403   4.490 -0.1260 -0.4385  0.3437
 1606SOL     OW 4943   4.588   2.917   0.331  0.2261 -0.3635 -0.3455
 1606SOL    HW1 4944   4.669   2.914   0.384  0.4457 -2.8188 -0.5902
 1606SOL    HW2 4945   4.518   2.918   0.396  0.4929 -0.8153 -0.0328
 1607SOL     OW 4946   3.119   4.347   3.823 -0.4320 -0.6632 -0.2742
 1607SOL    HW1 4947   3.176   4.372   3.896 -0.5662  0.1061 -0.4109
 1607SOL    HW2 4948   3.073   4.428   3.801  0.7550 -0.4083 -2.2469
 1608SOL     OW 4949   2.985   1.734   3.325  0.0178  0.0328  0.6897
 1608SOL    HW1 4950   2.981   1.652   3.373  0.6665 -0.2018  0.3712
 1608SOL    HW2 4951   3.076   1.742   3.299 -0.3851 -0.1852 -1.0448
 1609SOL     OW 4952   3.711   0.180   1.741 -0.3662 -0.2280 -0.1455
 1609SOL    HW1 4953   3.696   0.112   1.807 -1.2095  0.6894  0.6765
 1609SOL    HW2 4954   3.723   0.132   1.659 -0.1576 -1.3800  0.5151
 1610SOL     OW 4955   5.504   5.234   2.165 -0.2831 -0.0457 -0.3526
 1610SOL    HW1 4956   5.459   5.218   2.082  1.0615  0.4669 -1.2446
 1610SOL    HW2 4957   5.439   5.212   2.231 -1.6712  0.1860 -1.5224
 1611SOL     OW 4958   0.601   1.539   2.725  0.1057 -0.0536  0.2276
 1611SOL    HW1 4959   0.670   1.485   2.686  1.4079  2.4779 -1.5844
 1611SOL    HW2 4960   0.599   1.513   2.817  2.9134 -0.9170  0.2324
 1612SOL     OW 4961   5.556   3.200   1.434 -0.1108  0.7794  0.3778
 1612SOL    HW1 4962   5.569   3.282   1.481  0.3417  0.9633 -0.0503
 1612SOL    HW2 4963   5.485   3.156   1.481 -0.4773  1.4867  0.5085
 1613SOL     OW 4964   2.754   2.161   3.983  0.2483  0.0431  0.1589
 1613SOL    HW1 4965   2.796   2.116   3.909 -2.4289 -0.0718 -1.5874
 1613SOL    HW2 4966   2.709   2.092   4.030 -1.0323  0.4224 -0.4195
 1614SOL     OW 4967   1.930   2.919   2.348 -0.6332  0.5481  0.3372
 1614SOL    HW1 4968   1.994   2.964   2.404 -0.7708  0.6727  0.3979
 1614SOL    HW2 4969   1.975   2.840   2.319  0.3456  1.5543 -1.2774
 1615SOL     OW 4970   1.497   2.275   3.064  0.1394 -0.3655 -0.0684
 1615SOL    HW1 4971   1.476   2.331   3.139  1.6993 -0.7893  0.7767
 1615SOL    HW2 4972   1.585   2.301   3.039 -0.7702  0.7981 -2.8466
 1616SOL     OW 4973   6.412   4.113   3.092 -0.4968  0.5137 -0.2572
 1616SOL    HW1 4974   6.381   4.029   3.058  0.8784  1.0676 -3.7671
 1616SOL    HW2 4975   6.458   4.090   3.173 -1.1633 -1.8891 -0.3912
 1617SOL     OW 4976   5.328   4.877   4.181 -0.0581  0.1347  0.3541
 1617SOL    HW1 4977   5.362   4.869   4.270 -2.1532 -1.8593  1.1721
 1617SOL    HW2 4978   5.346   4.793   4.140 -1.9829 -0.2688  0.1572
 1618SOL     OW 4979   5.284   2.645   2.664  0.1042  0.3920  0.3508
 1618SOL    HW1 4980   5.244   2.731   2.675 -0.9261  0.2883 -1.7140
 1618SOL    HW2 4981   5.278   2.627   2.570  0.9332 -1.6415  0.5825
 1619SOL     OW 4982   5.960   4.547   1.090  0.3194  0.1243 -0.1870
 1619SOL    HW1 4983   5.915   4.607   1.149 -0.4443 -0.3938 -0.2119
 1619SOL    HW2 4984   6.019   4.602   1.039  2.6334  0.4380  2.3762
 1620SOL     OW 4985   0.826   1.136   2.330 -0.0967 -0.5432 -0.7821
 1620SOL    HW1 4986   0.755   1.200   2.329 -0.6459 -1.1303 -0.4578
 1620SOL    HW2 4987   0.785   1.054   2.303  0.4319 -0.9189 -0.4809
 1621SOL     OW 4988   0.630   0.145   3.891  0.8611  0.0617 -0.0025
 1621SOL    HW1 4989   0.694   0.095   3.940  0.8539 -0.7174 -0.7439
 1621SOL    HW2 4990   0.665   0.234   3.890  0.5781  0.2742  1.8481
 1622SOL     OW 4991   0.265   0.140   2.619  0.1121  0.3065  0.4541
 1622SOL    HW1 4992   0.284   0.175   2.532 -1.4671  0.1916  0.0043
 1622SOL    HW2 4993   0.224   0.055   2.603 -0.3158  0.3307  1.2955
 1623SOL     OW 4994   4.037   5.582   2.281 -0.3939 -0.2000 -0.1185
 1623SOL    HW1 4995   3.988   5.636   2.219  1.4257  1.6149 -0.1993
 1623SOL    HW2 4996   4.052   5.640   2.356 -0.2371 -1.4214  0.8592
 1624SOL     OW 4997   5.098   1.393   3.669 -0.3726 -0.4416  0.2365
 1624SOL    HW1 4998   5.047   1.361   3.595 -0.0652 -1.1435  0.3192
 1624SOL    HW2 4999   5.108   1.487   3.652 -1.8646 -0.2078  0.3264
 1625SOL     OW 5000   2.131   4.579   2.022  0.3381 -0.1930  0.6006
 1625SOL    HW1 5001   2.219   4.612   2.006 -0.1791  0.8454 -0.4799
 1625SOL    HW2 5002   2.114   4.599   2.114  0.8351  0.6755  0.5265
 1626SOL     OW 5003   2.598   5.375   2.075 -0.3538 -0.9165 -0.3587
 1626SOL    HW1 5004   2.631   5.448   2.127  0.1325 -0.2959 -1.4876
 1626SOL    HW2 5005   2.637   5.297   2.116  0.6719 -0.3880 -0.2722
 1627SOL     OW 5006   1.218   4.260   3.919  0.0783 -0.2293  0.4359
 1627SOL    HW1 5007   1.241   4.202   3.992 -2.1644 -0.8505  0.8090
 1627SOL    HW2 5008   1.217   4.203   3.843  0.5607 -0.0203  0.2700
 1628SOL     OW 5009   5.240   2.696   0.518  0.0720 -0.0429  0.5114
 1628SOL    HW1 5010   5.237   2.629   0.451  0.5833 -1.3436  1.6920
 1628SOL    HW2 5011   5.267   2.650   0.598  0.7358  1.6096  1.3577
 1629SOL     OW 5012   2.179   1.478   3.313 -0.3863  0.1586  0.6309
 1629SOL    HW1 5013   2.224   1.414   3.369 -0.5194  0.4267  1.0561
 1629SOL    HW2 5014   2.128   1.531   3.374 -1.1162  0.0010  0.1844
 1630SOL     OW 5015   6.290   1.083   4.382  0.5677 -0.0151  0.1447
 1630SOL    HW1 5016   6.233   1.025   4.431 -1.8570  1.6356 -0.3199
 1630SOL    HW2 5017   6.344   1.025   4.328  0.5526 -1.7694  1.8196
 1631SOL     OW 5018   4.309   2.903   2.423 -0.1399  0.0356  0.1660
 1631SOL    HW1 5019   4.236   2.904   2.361  0.6162 -0.5079 -0.7805
 1631SOL    HW2 5020   4.357   2.984   2.403  0.4943 -0.4777 -0.4867
 1632SOL     OW 5021   0.859   4.871   4.069 -0.6483 -0.2863 -0.1224
 1632SOL    HW1 5022   0.916   4.796   4.051 -0.1185  0.0583  0.0658
 1632SOL    HW2 5023   0.887   4.902   4.155 -1.2886 -0.2478  0.0817
 1633SOL     OW 5024   4.706   1.352   1.492 -0.3272  0.7368  0.3681
 1633SOL    HW1 5025   4.752   1.329   1.573 -0.5723 -0.7581  0.1352
 1633SOL    HW2 5026   4.758   1.312   1.422 -1.2603  0.1043 -0.0073
 1634SOL     OW 5027   4.540   5.869   3.204  0.1226 -0.1715  0.0261
 1634SOL    HW1 5028   4.454   5.897   3.234  0.0493 -0.8961  0.5534
 1634SOL    HW2 5029   4.601   5.930   3.246 -0.0306 -0.7154  1.1345
 1635SOL     OW 5030   3.698   3.658   2.236  0.5443 -0.0964  0.0622
 1635SOL    HW1 5031   3.779   3.704   2.211  0.4905 -0.3460 -0.6259
 1635SOL    HW2 5032   3.711   3.569   2.203  0.6905 -0.6411  1.4709
 1636SOL     OW 5033   1.826   0.203   3.218 -0.3411 -0.3396  0.6660
 1636SOL    HW1 5034   1.827   0.151   3.138  0.2229 -1.4639  1.3539
 1636SOL    HW2 5035   1.892   0.271   3.204  0.2808 -0.9682  0.4318
 1637SOL     OW 5036   4.594   1.875   1.896 -0.0873  0.0042  0.2106
 1637SOL    HW1 5037   4.502   1.850   1.892  0.1968 -1.1256  0.0516
 1637SOL    HW2 5038   4.628   1.831   1.974  0.4100  0.0625  0.0372
 1638SOL     OW 5039   1.071   0.670   3.363 -0.4002  0.1979 -0.5283
 1638SOL    HW1 5040   1.048   0.626   3.281  1.9862 -1.0055 -0.7267
 1638SOL    HW2 5041   1.043   0.609   3.431  1.4736 -1.0750 -0.7478
 1639SOL     OW 5042   2.700   5.695   4.498  0.6932 -0.1514 -0.4230
 1639SOL    HW1 5043   2.724   5.733   4.583 -0.6055  0.7952 -0.4209
 1639SOL    HW2 5044   2.607   5.674   4.506  0.4033  0.4072 -1.7453
 1640SOL     OW 5045   1.920   5.165   3.465 -0.3676 -0.8485 -0.0294
 1640SOL    HW1 5046   1.851   5.216   3.507  0.8358 -0.0079  1.0418
 1640SOL    HW2 5047   1.874   5.116   3.397 -2.0340 -0.4479  0.7022
 1641SOL     OW 5048   6.320   4.627   0.018  0.2610 -0.4474  0.0671
 1641SOL    HW1 5049   6.381   4.701   0.013  0.3531 -0.5587 -0.7479
 1641SOL    HW2 5050   6.271   4.641   0.099 -0.0042  0.7269 -0.2638
 1642SOL     OW 5051   5.484   0.057   3.665 -0.2768  0.2455 -0.3939
 1642SOL    HW1 5052   5.393   0.048   3.637 -0.4512 -0.1252  0.2356
 1642SOL    HW2 5053   5.534   0.004   3.602 -0.5857 -0.1002 -0.3571
 1643SOL     OW 5054   6.217   3.511   1.395 -0.2923  0.3774 -0.3864
 1643SOL    HW1 5055   6.148   3.463   1.350 -1.3853  2.0902 -0.7308
 1643SOL    HW2 5056   6.187   3.518   1.486 -0.9526  1.6175 -0.6564
 1644SOL     OW 5057   3.683   0.187   2.186 -0.1062 -0.0642 -0.4030
 1644SOL    HW1 5058   3.633   0.243   2.127 -1.9382  1.0956  1.9148
 1644SOL    HW2 5059   3.654   0.098   2.165  0.1082  0.1479 -1.8062
 1645SOL     OW 5060   4.521   4.139   3.210 -0.2569  0.5447 -0.4204
 1645SOL    HW1 5061   4.477   4.075   3.153  1.5569  0.1350 -1.5126
 1645SOL    HW2 5062   4.554   4.206   3.150  0.8584  0.6372  0.2455
 1646SOL     OW 5063   4.184   3.183   1.459 -0.3359  0.4110 -0.4421
 1646SOL    HW1 5064   4.132   3.243   1.405 -1.2285  0.2009  0.1342
 1646SOL    HW2 5065   4.140   3.098   1.449 -0.0199  0.1910 -0.0425
 1647SOL     OW 5066   2.179   3.655   1.590  0.5026  0.4958 -0.0845
 1647SOL    HW1 5067   2.109   3.596   1.560  0.6486  0.2010  0.1478
 1647SOL    HW2 5068   2.137   3.741   1.593  0.9022  0.9666 -2.8881
 1648SOL     OW 5069   1.279   4.887   2.619  0.5554  0.1996 -0.2700
 1648SOL    HW1 5070   1.224   4.825   2.666  0.5806  1.3673  1.4872
 1648SOL    HW2 5071   1.232   4.970   2.623  0.4298  0.3823 -2.7009
 1649SOL     OW 5072   5.750   1.867   1.537  0.1938 -0.1144  0.0853
 1649SOL    HW1 5073   5.708   1.781   1.544 -0.0567  0.0746  1.9239
 1649SOL    HW2 5074   5.816   1.856   1.468  0.2822 -1.8293  0.3463
 1650SOL     OW 5075   4.293   2.173   3.438  0.1942 -0.1439  0.3313
 1650SOL    HW1 5076   4.335   2.096   3.400 -1.1911 -0.1118 -1.5848
 1650SOL    HW2 5077   4.349   2.246   3.412 -1.0621 -0.0032 -2.8859
 1651SOL     OW 5078   3.223   3.259   1.218  0.0561 -0.1790 -0.2446
 1651SOL    HW1 5079   3.318   3.274   1.210  0.0541 -0.5989 -3.1559
 1651SOL    HW2 5080   3.216   3.167   1.244  0.7017 -1.0895 -2.7016
 1652SOL     OW 5081   1.221   0.488   1.424  0.5659 -0.0262 -0.2642
 1652SOL    HW1 5082   1.254   0.543   1.354  0.1363  1.3510  0.5415
 1652SOL    HW2 5083   1.127   0.485   1.411  0.4490  0.4438  0.3379
 1653SOL     OW 5084   2.697   4.975   3.427  0.5320  0.0999 -0.3549
 1653SOL    HW1 5085   2.623   4.947   3.482  2.2918 -0.9699  1.7473
 1653SOL    HW2 5086   2.733   4.894   3.391  1.6929  0.3668  0.1409
 1654SOL     OW 5087   5.831   2.199   3.293  0.1812 -0.1319  0.7527
 1654SOL    HW1 5088   5.751   2.158   3.260  0.7656 -0.6865 -0.0360
 1654SOL    HW2 5089   5.827   2.289   3.262 -0.2551 -0.0724  0.9590
 1655SOL     OW 5090   2.647   2.190   2.015 -0.3667 -0.1219 -0.2842
 1655SOL    HW1 5091   2.722   2.243   2.042 -1.3420  1.2209  0.0137
 1655SOL    HW2 5092   2.660   2.106   2.060  1.8480 -0.7020 -1.6815
 1656SOL     OW 5093   5.613   2.802   3.302  0.2887  0.0192 -0.2589
 1656SOL    HW1 5094   5.704   2.783   3.326 -0.3522 -1.7510  1.2154
 1656SOL    HW2 5095   5.615   2.814   3.207  1.8610 -1.6950 -0.5547
 1657SOL     OW 5096   5.482   0.272   1.757  0.3296 -0.0356 -0.0912
 1657SOL    HW1 5097   5.489   0.365   1.777 -1.6786  0.9941 -2.8908
 1657SOL    HW2 5098   5.570   0.247   1.726  0.6279  1.3119 -0.4424
 1658SOL     OW 5099   0.439   1.961   2.787  0.5173 -0.5300 -0.1686
 1658SOL    HW1 5100   0.375   1.954   2.715 -0.0919  0.5568  0.2305
 1658SOL    HW2 5101   0.388   1.943   2.866  0.6635  0.4408  0.1647
 1659SOL     OW 5102   0.688   4.321   0.769  0.3465 -0.3766 -0.6047
 1659SOL    HW1 5103   0.728   4.257   0.828  1.9604  1.6173  0.7646
 1659SOL    HW2 5104   0.671   4.398   0.825 -1.2111  0.5629 -2.1467
 1660SOL     OW 5105   6.085   4.011   0.715  0.4061 -0.2945  0.1269
 1660SOL    HW1 5106   6.008   4.053   0.753  0.2182 -0.6150  0.1114
 1660SOL    HW2 5107   6.142   3.993   0.790 -0.1705 -1.3558  0.3540
 1661SOL     OW 5108   5.471   5.943   0.078 -0.3900  0.7752 -0.0210
 1661SOL    HW1 5109   5.483   5.849   0.089 -1.6451  0.3675 -1.3887
 1661SOL    HW2 5110   5.546   5.982   0.122  1.3124 -0.9520 -1.0585
 1662SOL     OW 5111   2.574   4.161   3.754 -0.3364 -0.4802  0.4274
 1662SOL    HW1 5112   2.537   4.126   3.835 -0.6734 -0.0175  0.4842
 1662SOL    HW2 5113   2.552   4.096   3.687 -0.9393 -0.3921  0.5292
 1663SOL     OW 5114   5.076   4.559   0.989  0.0749  0.3713 -0.0548
 1663SOL    HW1 5115   5.099   4.507   0.912 -0.3598  2.0519 -1.4532
 1663SOL    HW2 5116   5.135   4.635   0.986  0.3725  0.2901  1.5956
 1664SOL     OW 5117   1.343   3.480   3.475  0.1830  0.2827 -0.1915
 1664SOL    HW1 5118   1.315   3.419   3.406 -0.5176  1.2796 -0.8348
 1664SOL    HW2 5119   1.417   3.527   3.438  0.0039  0.6042 -0.1507
 1665SOL     OW 5120   2.873   2.249   1.624  0.0351  0.2955  0.8316
 1665SOL    HW1 5121   2.811   2.187   1.664  0.2084 -0.8202 -0.4857
 1665SOL    HW2 5122   2.929   2.276   1.697 -0.9741  0.0835  1.7519
 1666SOL     OW 5123   0.681   3.138   1.531  0.3306  0.3077 -0.2027
 1666SOL    HW1 5124   0.695   3.053   1.490  4.6610  0.4502  0.0020
 1666SOL    HW2 5125   0.656   3.196   1.458 -3.4343 -0.8273 -0.2422
 1667SOL     OW 5126   0.791   6.004   2.650  0.0081  0.3985 -0.6350
 1667SOL    HW1 5127   0.725   5.936   2.661 -0.1727  0.8067  2.1992
 1667SOL    HW2 5128   0.761   6.054   2.574 -2.2129 -0.1964 -0.2821
 1668SOL     OW 5129   0.135   1.351   3.393 -0.1968 -0.0678 -0.1324
 1668SOL    HW1 5130   0.085   1.387   3.319 -0.2669 -0.6192 -0.3583
 1668SOL    HW2 5131   0.226   1.355   3.363 -0.2991 -1.2756 -0.7054
 1669SOL     OW 5132   4.642   2.238   4.221  0.2879 -0.0366  0.1836
 1669SOL    HW1 5133   4.554   2.238   4.259  0.1504 -1.5502 -0.0166
 1669SOL    HW2 5134   4.631   2.201   4.133  1.0759  0.0923  0.0097
 1670SOL     OW 5135   0.982   6.066   2.958  0.1173  0.0364 -0.1501
 1670SOL    HW1 5136   0.950   6.150   2.990  0.6814 -0.5918  2.4940
 1670SOL    HW2 5137   1.075   6.081   2.940 -0.1778  0.3632 -1.6572
 1671SOL     OW 5138   6.009   3.523   3.353 -0.2419  0.2601 -0.0707
 1671SOL    HW1 5139   5.966   3.453   3.402 -1.7722  1.0310 -0.2044
 1671SOL    HW2 5140   5.957   3.532   3.273  0.8988  0.4913 -0.8268
 1672SOL     OW 5141   1.011   2.664   4.407  0.4499  0.0659 -0.3224
 1672SOL    HW1 5142   1.025   2.695   4.318  2.3867  2.4219  0.5702
 1672SOL    HW2 5143   0.938   2.718   4.440  0.1079 -0.4031 -0.2856
 1673SOL     OW 5144   5.438   4.064   1.557  0.0342 -0.1348  0.0050
 1673SOL    HW1 5145   5.518   4.031   1.597  0.9734  2.0899  0.2506
 1673SOL    HW2 5146   5.414   3.997   1.493  0.3170 -2.2943  1.9101
 1674SOL     OW 5147   2.776   5.931   0.713 -0.5140 -0.8893  0.2670
 1674SOL    HW1 5148   2.737   6.006   0.758  1.8297 -0.9957  3.1016
 1674SOL    HW2 5149   2.829   5.971   0.643 -1.0554 -0.1915  0.2293
 1675SOL     OW 5150   5.831   3.220   1.095  0.6970  0.5184  0.0338
 1675SOL    HW1 5151   5.923   3.197   1.090  0.5570 -0.5880  1.5129
 1675SOL    HW2 5152   5.793   3.158   1.156 -1.7780 -1.3803 -2.8386
 1676SOL     OW 5153   3.552   4.705   3.056  0.1119  0.0299  0.0370
 1676SOL    HW1 5154   3.622   4.646   3.030 -0.8862 -1.5752  0.7394
 1676SOL    HW2 5155   3.543   4.765   2.981  2.7636  1.0041  0.2684
 1677SOL     OW 5156   0.226   0.765   3.414 -0.3849 -0.6738 -0.2665
 1677SOL    HW1 5157   0.161   0.729   3.475 -2.3521  1.8758 -0.5283
 1677SOL    HW2 5158   0.198   0.734   3.328  1.3450 -2.8123 -0.2382
 1678SOL     OW 5159   2.297   3.095   1.863  0.2144  0.6489 -0.0501
 1678SOL    HW1 5160   2.389   3.119   1.875  0.8413 -1.6381  0.7703
 1678SOL    HW2 5161   2.296   3.045   1.781 -0.4009  1.0176 -0.2786
 1679SOL     OW 5162   4.881   2.774   1.371 -0.3760 -0.5379  0.0767
 1679SOL    HW1 5163   4.821   2.784   1.445  0.4987  0.2476  0.7241
 1679SOL    HW2 5164   4.849   2.696   1.324 -2.9695  0.7507 -0.6723
 1680SOL     OW 5165   5.086   4.401   2.998 -0.1357 -0.0555  0.5858
 1680SOL    HW1 5166   5.075   4.465   2.928 -2.0739  0.7232  1.4454
 1680SOL    HW2 5167   5.162   4.432   3.048  0.0815  0.4993 -0.0608
 1681SOL     OW 5168   3.908   2.677   3.057  0.1466 -0.1914 -0.2948
 1681SOL    HW1 5169   3.995   2.696   3.024 -0.0870 -0.9066 -1.4238
 1681SOL    HW2 5170   3.882   2.757   3.103  0.8625  0.5591 -1.1119
 1682SOL     OW 5171   3.569   6.088   3.453 -0.2952 -0.0292 -0.0738
 1682SOL    HW1 5172   3.515   6.083   3.532 -1.1289 -0.7371 -0.6571
 1682SOL    HW2 5173   3.608   6.176   3.457  1.5411 -0.7383  2.2345
 1683SOL     OW 5174   1.783   1.823   3.843  0.4309  0.0455  0.2486
 1683SOL    HW1 5175   1.708   1.871   3.808 -0.2313 -0.7656  0.4785
 1683SOL    HW2 5176   1.747   1.737   3.867  1.2087 -0.0240  1.3216
 1684SOL     OW 5177   4.375   4.542   0.598 -0.1172  0.1429 -0.3724
 1684SOL    HW1 5178   4.290   4.496   0.592 -0.2754  0.4319 -0.3708
 1684SOL    HW2 5179   4.436   4.484   0.552 -0.2930 -0.1182 -0.2866
 1685SOL     OW 5180   4.673   0.458   0.607 -0.4268 -0.4032  0.1426
 1685SOL    HW1 5181   4.708   0.522   0.546  1.8677 -0.6339  1.0390
 1685SOL    HW2 5182   4.600   0.418   0.560  0.7763 -0.1817 -2.2194
 1686SOL     OW 5183   5.063   2.138   0.341  0.6667 -0.4150  0.1655
 1686SOL    HW1 5184   5.155   2.161   0.328  0.5016 -0.0306 -0.4401
 1686SOL    HW2 5185   5.063   2.075   0.413  1.6251 -1.9762 -1.0746
 1687SOL     OW 5186   0.080   6.040   3.170  0.0756  0.0215 -0.7076
 1687SOL    HW1 5187   0.090   6.124   3.213  0.0995 -0.6039  0.6141
 1687SOL    HW2 5188  -0.003   6.046   3.123 -1.6229 -0.1164  1.8654
 1688SOL     OW 5189   4.473   1.456   0.957  0.0773 -0.5429 -0.0640
 1688SOL    HW1 5190   4.402   1.405   0.995  0.4868  0.0230  1.6584
 1688SOL    HW2 5191   4.552   1.411   0.985  0.4235  0.5231  0.7863
 1689SOL     OW 5192   5.717   5.696   0.668  0.2487  0.0133 -0.6694
 1689SOL    HW1 5193   5.803   5.729   0.642  0.0084  1.0824 -0.2342
 1689SOL    HW2 5194   5.663   5.775   0.677 -0.2702 -0.4471  0.8616
 1690SOL     OW 5195   0.857   2.489   0.249 -0.3776  0.1012 -0.2797
 1690SOL    HW1 5196   0.835   2.495   0.156 -0.9674  1.2072 -0.0976
 1690SOL    HW2 5197   0.881   2.578   0.274 -0.3519 -0.1480  0.6562
 1691SOL     OW 5198   2.548   0.716   3.051  0.3232 -0.1399  0.4668
 1691SOL    HW1 5199   2.557   0.637   3.104 -0.8692 -0.5136  0.1875
 1691SOL    HW2 5200   2.495   0.775   3.105  0.2194  0.0030  0.2125
 1692SOL     OW 5201   2.557   1.496   4.067 -0.3685 -0.3858  0.1514
 1692SOL    HW1 5202   2.527   1.571   4.016  0.8042  0.4023  0.5326
 1692SOL    HW2 5203   2.619   1.533   4.130 -0.9189 -1.4721  1.4246
 1693SOL     OW 5204   4.141   3.358   2.344  0.1976 -0.0131 -0.0446
 1693SOL    HW1 5205   4.236   3.363   2.331 -0.0354  2.0568 -2.6283
 1693SOL    HW2 5206   4.110   3.448   2.333 -2.2312 -0.8415 -3.1716
 1694SOL     OW 5207   0.409   0.096   4.080  0.2915 -0.0942  0.0200
 1694SOL    HW1 5208   0.472   0.109   4.151  0.8695 -1.6047 -0.1391
 1694SOL    HW2 5209   0.457   0.119   4.001  0.7891 -1.4325 -0.1202
 1695SOL     OW 5210   6.377   5.160   3.746  0.2413 -0.7698 -0.1665
 1695SOL    HW1 5211   6.414   5.153   3.658 -1.8997 -1.1395 -1.1662
 1695SOL    HW2 5212   6.404   5.246   3.776  1.5841 -0.8841 -0.8600
 1696SOL     OW 5213   1.632   5.851   2.878 -0.8917 -0.1189  0.7100
 1696SOL    HW1 5214   1.617   5.941   2.850  0.4902  0.4382  1.5195
 1696SOL    HW2 5215   1.726   5.838   2.866 -0.6412 -0.6602  2.5872
 1697SOL     OW 5216   6.142   3.537   0.315  0.0190  0.3148  0.0791
 1697SOL    HW1 5217   6.134   3.473   0.385  0.7346  0.9059  0.7327
 1697SOL    HW2 5218   6.212   3.503   0.260 -0.9075 -0.4345 -0.7147
 1698SOL     OW 5219   0.275   5.766   3.610 -0.7477  0.1037  0.2307
 1698SOL    HW1 5220   0.309   5.700   3.671  2.0027 -0.3950 -1.4793
 1698SOL    HW2 5221   0.224   5.715   3.546 -0.4384 -0.0388  0.0913
 1699SOL     OW 5222   5.166   5.644   1.501 -0.7914 -0.2450  0.1513
 1699SOL    HW1 5223   5.225   5.697   1.446 -0.2467 -1.0343 -0.0631
 1699SOL    HW2 5224   5.134   5.705   1.567  1.0304  0.0630  0.8811
 1700SOL     OW 5225   4.050   2.559   2.360  0.1205 -0.6402 -0.0363
 1700SOL    HW1 5226   4.126   2.535   2.414 -0.3099 -0.3461  0.7403
 1700SOL    HW2 5227   3.997   2.614   2.418  0.3655  1.0219 -1.2585
 1701SOL     OW 5228   0.532   2.469   4.072  0.3938 -0.3516  0.4782
 1701SOL    HW1 5229   0.522   2.395   4.132  0.8113 -0.4737  0.4050
 1701SOL    HW2 5230   0.604   2.444   4.014  0.2191 -0.0908  0.1391
 1702SOL     OW 5231   2.264   1.209   0.191 -0.0491  0.1764  0.4770
 1702SOL    HW1 5232   2.237   1.117   0.196  0.7419 -0.0725  0.5033
 1702SOL    HW2 5233   2.353   1.209   0.227  0.6230  0.6549 -1.0030
 1703SOL     OW 5234   6.291   1.319   4.128  0.5441 -0.1095  0.4152
 1703SOL    HW1 5235   6.326   1.336   4.041 -1.2515  2.3834 -0.0309
 1703SOL    HW2 5236   6.366   1.324   4.186  1.5999 -0.4351 -0.8433
 1704SOL     OW 5237   4.022   0.401   2.458 -0.2524  0.0656  0.3343
 1704SOL    HW1 5238   4.078   0.371   2.530 -0.8835 -0.4193  0.6391
 1704SOL    HW2 5239   4.041   0.494   2.451 -0.0471  0.0852  1.0093
 1705SOL     OW 5240   5.753   1.980   2.774  0.2320 -0.2014  0.2751
 1705SOL    HW1 5241   5.796   1.991   2.689  2.4953 -1.9942  0.9762
 1705SOL    HW2 5242   5.823   1.989   2.838 -0.9660 -0.8976  1.8202
 1706SOL     OW 5243   4.582   2.871   2.873 -0.2341 -0.4797 -0.5999
 1706SOL    HW1 5244   4.609   2.792   2.921  2.9159  0.8549  0.3647
 1706SOL    HW2 5245   4.575   2.842   2.782 -1.8508 -2.2511 -0.0424
 1707SOL     OW 5246   1.684   6.111   1.254 -0.0315  0.2251 -0.2684
 1707SOL    HW1 5247   1.646   6.176   1.313  0.7682  0.0855  0.4452
 1707SOL    HW2 5248   1.777   6.132   1.252  0.5171 -1.5461  0.9885
 1708SOL     OW 5249   0.971   3.652   3.456  0.1474 -0.0955  0.0877
 1708SOL    HW1 5250   1.052   3.699   3.474  1.3237 -0.0245 -3.6732
 1708SOL    HW2 5251   0.976   3.574   3.512  2.3410  0.3232  0.6694
 1709SOL     OW 5252   5.877   5.751   1.457  0.1872 -0.8375  0.5054
 1709SOL    HW1 5253   5.943   5.756   1.526 -0.8308  0.5366  1.4797
 1709SOL    HW2 5254   5.918   5.696   1.390  2.6281  0.4786  0.6752
 1710SOL     OW 5255   1.403   3.741   0.842 -0.6256  0.1307  0.5272
 1710SOL    HW1 5256   1.494   3.765   0.826 -1.0010  0.2736 -2.3973
 1710SOL    HW2 5257   1.355   3.824   0.844 -0.8116  0.0239  1.4094
 1711SOL     OW 5258   4.870   5.573   0.804 -0.6421  0.1780 -0.2565
 1711SOL    HW1 5259   4.854   5.586   0.711  0.8515 -0.1649 -0.6166
 1711SOL    HW2 5260   4.860   5.479   0.818 -1.9214  0.3374  0.2186
 1712SOL     OW 5261   3.562   3.589   4.093  0.0098  0.0452 -0.2041
 1712SOL    HW1 5262   3.534   3.507   4.134  1.4896 -0.9362 -0.9678
 1712SOL    HW2 5263   3.579   3.648   4.167  2.4654 -1.5989  0.8234
 1713SOL     OW 5264   2.078   0.107   1.130  0.8209  0.1402 -0.2964
 1713SOL    HW1 5265   1.989   0.074   1.147  1.2009 -0.2991  1.1265
 1713SOL    HW2 5266   2.077   0.196   1.163  1.1654 -0.2274  0.7938
 1714SOL     OW 5267   2.434   0.556   2.226 -0.1505  0.4276 -0.0922
 1714SOL    HW1 5268   2.420   0.609   2.147  0.4079  1.5051  0.4889
 1714SOL    HW2 5269   2.463   0.619   2.292  0.8737 -0.6704  0.5661
 1715SOL     OW 5270   0.040   5.640   2.099 -0.0638  0.4089  0.7546
 1715SOL    HW1 5271  -0.046   5.623   2.062  0.9465 -1.2498 -1.2578
 1715SOL    HW2 5272   0.066   5.726   2.065  0.3315 -0.5406 -1.7258
 1716SOL     OW 5273   5.686   5.962   2.006 -0.1900 -0.6179  0.4315
 1716SOL    HW1 5274   5.778   5.954   1.981 -0.3638  0.3676 -0.7280
 1716SOL    HW2 5275   5.679   6.049   2.047 -1.0522  0.9415 -2.4833
 1717SOL     OW 5276   2.340   5.567   2.812  0.2465 -0.2285  0.1584
 1717SOL    HW1 5277   2.394   5.540   2.738  0.7032 -0.9870  0.7460
 1717SOL    HW2 5278   2.361   5.505   2.881  0.3825  0.8881  1.1719
 1718SOL     OW 5279   3.027   6.073   2.631 -0.2876 -0.5888 -0.2537
 1718SOL    HW1 5280   3.084   6.148   2.614 -0.9959  0.1320  0.4062
 1718SOL    HW2 5281   2.953   6.085   2.572 -0.3392 -0.8617 -0.2476
 1719SOL     OW 5282   4.972   3.936   3.660 -0.4003 -0.5737  0.2537
 1719SOL    HW1 5283   5.056   3.980   3.654 -0.3599 -0.5359  0.9420
 1719SOL    HW2 5284   4.935   3.942   3.572  0.4965 -0.9686 -0.1794
 1720SOL     OW 5285   3.507   2.153   1.677  0.3106  0.2408  0.0262
 1720SOL    HW1 5286   3.432   2.166   1.618 -1.6796 -0.6789  2.0289
 1720SOL    HW2 5287   3.521   2.058   1.677  1.7610  0.4158 -0.5111
 1721SOL     OW 5288   5.549   2.747   0.301 -0.3439  0.4447 -0.1500
 1721SOL    HW1 5289   5.598   2.816   0.256 -0.5874  1.5618  1.1804
 1721SOL    HW2 5290   5.479   2.793   0.348 -1.3959 -0.8717 -0.2895
 1722SOL     OW 5291   3.335   3.570   0.730  0.5504  0.1595 -0.3948
 1722SOL    HW1 5292   3.330   3.649   0.783  1.7035  1.5794 -2.1268
 1722SOL    HW2 5293   3.320   3.498   0.791 -1.4169  1.6811  1.1697
 1723SOL     OW 5294   6.109   1.610   2.162 -0.4761  0.1124 -0.0259
 1723SOL    HW1 5295   6.039   1.674   2.169 -1.5023 -0.9890  0.5912
 1723SOL    HW2 5296   6.162   1.623   2.241 -0.6776  0.2009  0.0939
 1724SOL     OW 5297   5.142   4.644   3.930 -0.1662 -0.1141  0.2779
 1724SOL    HW1 5298   5.099   4.627   4.014  0.9136 -0.8754  0.7124
 1724SOL    HW2 5299   5.192   4.565   3.912  1.8123  0.9904  0.3086
 1725SOL     OW 5300   4.672   0.849   3.805 -0.2106  0.1598 -0.2173
 1725SOL    HW1 5301   4.589   0.810   3.777  0.4495 -0.4886 -1.4732
 1725SOL    HW2 5302   4.649   0.907   3.877 -1.6922 -0.2644 -0.2886
 1726SOL     OW 5303   1.818   4.301   0.532 -0.0441 -0.2115 -0.0291
 1726SOL    HW1 5304   1.886   4.362   0.561  0.6052 -1.3843  1.1293
 1726SOL    HW2 5305   1.740   4.356   0.522 -0.0143  0.6738  2.7383
 1727SOL     OW 5306   1.603   0.304   3.388 -0.0191  0.3588  0.2597
 1727SOL    HW1 5307   1.513   0.310   3.357 -0.3007  2.6591  1.1204
 1727SOL    HW2 5308   1.653   0.274   3.313 -1.1470  1.9619 -1.2843
 1728SOL     OW 5309   4.810   0.862   2.935 -0.3852  0.4431  0.2164
 1728SOL    HW1 5310   4.817   0.955   2.957  0.0935  1.1789 -2.4007
 1728SOL    HW2 5311   4.874   0.848   2.865 -0.3535 -1.9353  0.5328
 1729SOL     OW 5312   6.285   4.440   3.429  0.0904 -0.0019 -0.3562
 1729SOL    HW1 5313   6.281   4.505   3.359 -0.6569  0.7839  0.3552
 1729SOL    HW2 5314   6.206   4.387   3.417 -0.8252  1.0124  0.6082
 1730SOL     OW 5315   2.519   0.684   2.460  0.0838 -0.0807 -0.8088
 1730SOL    HW1 5316   2.506   0.628   2.537  0.1481  0.7790 -0.1360
 1730SOL    HW2 5317   2.611   0.674   2.438  0.0680 -0.3289 -0.7670
 1731SOL     OW 5318   2.850   0.062   0.440  0.3663 -0.0214 -0.9632
 1731SOL    HW1 5319   2.761   0.076   0.473 -0.2205 -0.0275 -2.3966
 1731SOL    HW2 5320   2.839   0.003   0.366  1.6648 -0.4970 -0.8287
 1732SOL     OW 5321   1.516   5.058   3.176  0.1474  0.5609  0.4244
 1732SOL    HW1 5322   1.430   5.095   3.158  0.0241  0.5392  0.9514
 1732SOL    HW2 5323   1.505   4.964   3.163  0.4346  0.6621 -0.8113
 1733SOL     OW 5324   5.587   4.876   1.790 -0.1549 -0.2322  0.1342
 1733SOL    HW1 5325   5.567   4.938   1.720 -1.1126 -0.2689  0.3557
 1733SOL    HW2 5326   5.607   4.931   1.866 -0.0279 -0.2001  0.0789
 1734SOL     OW 5327   2.862   4.125   1.339 -0.1000 -0.0615  0.2037
 1734SOL    HW1 5328   2.777   4.166   1.323  0.6853  1.3070 -1.0002
 1734SOL    HW2 5329   2.925   4.186   1.300  1.5642 -0.4161  2.0591
 1735SOL     OW 5330   2.055   3.621   4.208  0.8356 -0.0171 -0.1940
 1735SOL    HW1 5331   2.084   3.539   4.249 -2.0211 -0.3731  1.6262
 1735SOL    HW2 5332   2.093   3.617   4.120  1.7637 -2.7474  0.1262
 1736SOL     OW 5333   0.480   1.538   2.112  0.8388 -0.1790  0.1214
 1736SOL    HW1 5334   0.491   1.597   2.038  1.5006 -0.2020  0.1828
 1736SOL    HW2 5335   0.469   1.595   2.188  4.0229  0.1323  0.6421
 1737SOL     OW 5336   5.809   5.367   3.192 -0.4863  0.4987  0.2489
 1737SOL    HW1 5337   5.848   5.363   3.280 -1.3321  1.4634  0.7069
 1737SOL    HW2 5338   5.716   5.346   3.206 -0.9393  1.9898 -0.1506
 1738SOL     OW 5339   0.063   1.166   1.282 -0.0891  0.0967 -0.2814
 1738SOL    HW1 5340   0.041   1.226   1.211  0.0943 -0.2779 -0.6656
 1738SOL    HW2 5341   0.014   1.086   1.263  1.0936 -0.5514 -0.8413
 1739SOL     OW 5342   0.662   3.043   3.419  0.0777  0.2762 -0.6234
 1739SOL    HW1 5343   0.568   3.035   3.399  0.1858 -0.7386 -0.8321
 1739SOL    HW2 5344   0.667   3.043   3.514 -0.3297  3.7073 -0.3405
 1740SOL     OW 5345   1.450   4.603   0.275 -0.4017 -0.4615  0.1276
 1740SOL    HW1 5346   1.436   4.600   0.370  0.2681 -0.6171  0.2333
 1740SOL    HW2 5347   1.517   4.671   0.263 -0.6219 -0.3064 -0.2532
 1741SOL     OW 5348   5.430   5.588   1.292 -0.0829  0.5851  0.0161
 1741SOL    HW1 5349   5.373   5.646   1.240 -0.5196 -0.2683 -0.5012
 1741SOL    HW2 5350   5.484   5.648   1.344 -2.3316  1.5061  1.6025
 1742SOL     OW 5351   1.457   0.215   4.282 -0.1928  0.0311  0.0396
 1742SOL    HW1 5352   1.378   0.266   4.302 -0.1600  0.3864 -0.7041
 1742SOL    HW2 5353   1.465   0.154   4.356 -1.7771 -0.7633 -0.3580
 1743SOL     OW 5354   4.250   3.353   2.931 -0.6730  0.0293  0.3944
 1743SOL    HW1 5355   4.344   3.361   2.913 -0.7474 -1.9327 -1.8406
 1743SOL    HW2 5356   4.210   3.420   2.875 -0.6008 -1.6973 -1.9975
 1744SOL     OW 5357   5.585   2.708   2.382  0.1908  0.7008 -0.0659
 1744SOL    HW1 5358   5.569   2.731   2.290  1.2699  0.9150 -0.2246
 1744SOL    HW2 5359   5.554   2.618   2.390 -0.5274  0.8929 -0.4513
 1745SOL     OW 5360   6.040   3.361   0.518  0.2664 -0.6058  0.2700
 1745SOL    HW1 5361   6.027   3.427   0.586 -0.0404 -0.6418  0.2513
 1745SOL    HW2 5362   6.034   3.277   0.564  1.1489 -0.6253  0.3775
 1746SOL     OW 5363   0.770   2.688   0.602  0.1119  0.4789  0.2131
 1746SOL    HW1 5364   0.678   2.674   0.580  0.5191 -1.5042 -0.7344
 1746SOL    HW2 5365   0.772   2.774   0.643 -2.3602  0.1163  1.5429
 1747SOL     OW 5366   2.439   1.588   3.376 -0.1104  0.6913 -0.1980
 1747SOL    HW1 5367   2.387   1.652   3.424  0.1602  1.1910 -0.5509
 1747SOL    HW2 5368   2.437   1.619   3.286 -1.7288 -0.9470 -0.8387
 1748SOL     OW 5369   5.896   5.901   2.318 -0.1105 -0.2696  0.1256
 1748SOL    HW1 5370   5.957   5.857   2.259  0.1955 -0.3918  0.5223
 1748SOL    HW2 5371   5.939   5.984   2.340  0.7565 -1.0629  1.7428
 1749SOL     OW 5372   0.854   5.147   2.558  0.1234 -0.3597 -0.0081
 1749SOL    HW1 5373   0.781   5.113   2.505 -0.3726  0.3324  0.2062
 1749SOL    HW2 5374   0.812   5.184   2.635  0.4678  1.7804 -0.7265
 1750SOL     OW 5375   2.109   4.748   1.655  0.2237 -0.0665 -0.1314
 1750SOL    HW1 5376   2.201   4.732   1.635  0.3927 -0.0282  0.5609
 1750SOL    HW2 5377   2.111   4.817   1.722 -0.2958 -0.1979  0.0273
 1751SOL     OW 5378   0.005   1.338   1.867 -0.0478 -0.2035  0.2981
 1751SOL    HW1 5379   0.040   1.423   1.893 -0.3138  0.4984 -1.3890
 1751SOL    HW2 5380   0.082   1.283   1.851  0.2036  0.2791 -0.2104
 1752SOL     OW 5381   5.872   0.674   1.197 -0.2147 -0.1384 -0.3487
 1752SOL    HW1 5382   5.802   0.627   1.242 -0.1476  1.0171  1.1088
 1752SOL    HW2 5383   5.948   0.616   1.203 -0.1224  0.0514  1.4214
 1753SOL     OW 5384   0.949   0.450   1.399  0.1877  0.1941 -0.4100
 1753SOL    HW1 5385   0.955   0.379   1.336 -0.2802 -0.6503  0.4420
 1753SOL    HW2 5386   0.877   0.425   1.457  0.6042  0.9089  0.4758
 1754SOL     OW 5387   0.896   0.714   4.491  0.1331 -0.2271  0.3103
 1754SOL    HW1 5388   0.859   0.792   4.449  0.7492 -0.7965 -1.5010
 1754SOL    HW2 5389   0.925   0.660   4.418  0.5590 -1.7610  1.5196
 1755SOL     OW 5390   0.345   3.039   1.915  0.0406  0.0232  0.4567
 1755SOL    HW1 5391   0.314   2.952   1.940 -1.7583  0.5090  0.2379
 1755SOL    HW2 5392   0.333   3.043   1.820  1.0256  0.2133  0.3233
 1756SOL     OW 5393   3.846   4.300   2.479  0.1421 -0.3025  0.8904
 1756SOL    HW1 5394   3.786   4.239   2.436 -0.1695 -0.8461  2.0065
 1756SOL    HW2 5395   3.931   4.256   2.477 -0.1528 -1.0008  2.0130
 1757SOL     OW 5396   3.626   2.451   1.877 -0.2523  0.0999  0.6188
 1757SOL    HW1 5397   3.547   2.468   1.826 -0.5709  0.4910  1.2161
 1757SOL    HW2 5398   3.594   2.413   1.959  0.3113 -1.6772  0.1164
 1758SOL     OW 5399   2.132   5.699   3.357 -0.6289 -0.0310 -0.3034
 1758SOL    HW1 5400   2.194   5.748   3.303 -1.4201 -0.2567 -1.5174
 1758SOL    HW2 5401   2.108   5.759   3.427  1.7401 -0.3240  0.9430
 1759SOL     OW 5402   1.096   0.891   1.390  0.2455  0.5334  0.2872
 1759SOL    HW1 5403   1.150   0.887   1.469  0.9233  2.1389 -0.0040
 1759SOL    HW2 5404   1.124   0.816   1.337 -0.3297 -0.6623  1.5673
 1760SOL     OW 5405   2.429   0.037   0.165 -0.2666 -0.0546 -0.4489
 1760SOL    HW1 5406   2.465  -0.047   0.194 -1.1986 -0.7114 -1.0630
 1760SOL    HW2 5407   2.378   0.015   0.087 -2.4895  0.6257  0.6563
 1761SOL     OW 5408   4.620   0.175   2.384 -0.2661 -0.0369  0.2998
 1761SOL    HW1 5409   4.589   0.258   2.420  1.6681  0.3822  1.2351
 1761SOL    HW2 5410   4.684   0.143   2.448 -2.3135 -3.4428  1.2088
 1762SOL     OW 5411   1.259   1.779   2.477  0.7274  0.5379 -0.3343
 1762SOL    HW1 5412   1.198   1.851   2.466  1.2053  1.0741  0.3476
 1762SOL    HW2 5413   1.207   1.709   2.516  0.5901  1.0812  0.4953
 1763SOL     OW 5414   6.408   5.592   3.199 -0.2566 -0.4572 -0.3442
 1763SOL    HW1 5415   6.415   5.661   3.133  0.7697  0.2015  0.3914
 1763SOL    HW2 5416   6.394   5.639   3.282 -2.9393 -1.2780 -0.1193
 1764SOL     OW 5417   6.203   2.476   2.136  0.9002 -0.0607  0.2695
 1764SOL    HW1 5418   6.274   2.460   2.074  0.8594 -2.2820  0.6080
 1764SOL    HW2 5419   6.126   2.435   2.095  0.1439  0.9610  0.5752
 1765SOL     OW 5420   0.018   4.956   3.302 -0.4835 -0.8471  0.3367
 1765SOL    HW1 5421  -0.020   4.886   3.250  0.8412 -0.0569 -1.9866
 1765SOL    HW2 5422   0.082   4.912   3.358  1.3817 -1.6177 -2.0642
 1766SOL     OW 5423   3.265   1.260   1.441 -0.4057  0.2117  0.0912
 1766SOL    HW1 5424   3.208   1.311   1.384  0.6806 -0.2821 -1.5898
 1766SOL    HW2 5425   3.328   1.323   1.475 -0.8702  0.4561  0.5308
 1767SOL     OW 5426   4.715   1.452   0.002  0.0889 -0.0124  0.0645
 1767SOL    HW1 5427   4.687   1.528  -0.050  1.4013 -0.1917 -0.9962
 1767SOL    HW2 5428   4.724   1.381  -0.062 -2.5043 -1.6459  1.1717
 1768SOL     OW 5429   2.382   3.458   4.347  0.1268  0.0729 -0.1067
 1768SOL    HW1 5430   2.288   3.442   4.361  0.4168 -0.3953  2.0262
 1768SOL    HW2 5431   2.402   3.414   4.264 -1.2495 -1.3365  0.2035
 1769SOL     OW 5432   1.581   5.470   2.847 -0.2543 -0.1381 -0.2856
 1769SOL    HW1 5433   1.659   5.471   2.792  0.5871 -0.7296  0.7987
 1769SOL    HW2 5434   1.556   5.378   2.852 -0.6823 -0.0190 -0.1784
 1770SOL     OW 5435   4.709   4.456   4.240 -0.0620 -0.9033  0.3922
 1770SOL    HW1 5436   4.684   4.548   4.254  1.2073 -0.3465 -0.5605
 1770SOL    HW2 5437   4.691   4.413   4.324 -0.4121  0.2896  0.9733
 1771SOL     OW 5438   1.302   1.093   1.663 -0.2489 -0.4249  0.1232
 1771SOL    HW1 5439   1.303   1.176   1.711 -0.5439 -1.1026  1.3962
 1771SOL    HW2 5440   1.268   1.116   1.576  0.1909  0.8522  0.2454
 1772SOL     OW 5441   0.067   5.681   3.911  0.3709 -0.0894 -0.3991
 1772SOL    HW1 5442   0.149   5.661   3.866  0.1757  0.3963 -0.9939
 1772SOL    HW2 5443   0.093   5.728   3.990  0.6864 -0.3610 -0.3410
 1773SOL     OW 5444   3.770   5.619   0.075 -0.2514  0.0727  0.1770
 1773SOL    HW1 5445   3.745   5.592  -0.014 -1.9917  1.5433  0.1133
 1773SOL    HW2 5446   3.713   5.567   0.132 -1.3359  1.2146  0.2090
 1774SOL     OW 5447   1.655   2.789   0.925  0.3634 -0.0626  0.4799
 1774SOL    HW1 5448   1.581   2.849   0.935 -1.4433 -1.5164 -2.0439
 1774SOL    HW2 5449   1.655   2.737   1.005 -1.3500  0.0544  0.6237
 1775SOL     OW 5450   1.806   0.102   2.723  0.0346 -0.2706 -0.2624
 1775SOL    HW1 5451   1.769   0.022   2.684  0.2405 -0.7440  0.4712
 1775SOL    HW2 5452   1.823   0.078   2.814 -1.5664  1.1191  0.5251
 1776SOL     OW 5453   2.963   1.409   4.329  0.4973  0.0953 -0.3852
 1776SOL    HW1 5454   2.979   1.328   4.281 -0.5390 -0.1063 -0.4278
 1776SOL    HW2 5455   3.016   1.401   4.408 -0.8471 -1.4510  0.4835
 1777SOL     OW 5456   2.240   1.281   3.544  0.2469 -0.3733 -0.2672
 1777SOL    HW1 5457   2.193   1.229   3.609  0.0568 -1.1661 -1.0060
 1777SOL    HW2 5458   2.207   1.250   3.460  1.2606 -0.1433 -0.7813
 1778SOL     OW 5459   4.633   0.406   3.814  0.2506 -0.7576 -0.4164
 1778SOL    HW1 5460   4.709   0.439   3.768 -0.5375 -0.9153 -1.9498
 1778SOL    HW2 5461   4.588   0.484   3.846 -0.7138 -0.3113 -2.5530
 1779SOL     OW 5462   1.908   3.935   1.517  0.3753 -0.7091  0.1082
 1779SOL    HW1 5463   1.884   3.984   1.596 -0.8620 -0.4007 -0.4133
 1779SOL    HW2 5464   1.892   3.843   1.540 -3.0927 -0.5318 -0.5666
 1780SOL     OW 5465   1.403   0.701   2.598 -0.0787 -0.1311 -0.2024
 1780SOL    HW1 5466   1.389   0.611   2.571 -0.5760 -0.2720  0.4680
 1780SOL    HW2 5467   1.489   0.724   2.563  1.6159 -1.9026  2.1328
 1781SOL     OW 5468   4.341   4.643   4.387 -0.0715  0.5602  0.1184
 1781SOL    HW1 5469   4.437   4.651   4.390 -0.1248  1.1520  1.0236
 1781SOL    HW2 5470   4.309   4.733   4.395 -0.6980  0.2810  1.1004
 1782SOL     OW 5471   3.219   1.526   3.841  0.3069 -0.0259 -0.1419
 1782SOL    HW1 5472   3.268   1.449   3.810  0.4197  0.4561 -1.2605
 1782SOL    HW2 5473   3.217   1.517   3.936 -0.4412 -1.8835 -0.2434
 1783SOL     OW 5474   4.051   2.709   4.286 -0.2374  0.0813  0.2212
 1783SOL    HW1 5475   4.079   2.797   4.311  0.6692 -0.4911  1.4893
 1783SOL    HW2 5476   3.969   2.695   4.333  1.1494 -0.7599  2.8263
 1784SOL     OW 5477   0.665   3.710   2.496  0.2280  0.3694  0.6262
 1784SOL    HW1 5478   0.575   3.676   2.493  0.2497  0.0892  1.9224
 1784SOL    HW2 5479   0.713   3.653   2.435 -0.6458  1.3587 -1.1683
 1785SOL     OW 5480   5.429   2.554   4.364 -0.2694 -0.1279 -0.4673
 1785SOL    HW1 5481   5.448   2.579   4.455 -1.2284 -1.1075  0.0415
 1785SOL    HW2 5482   5.470   2.469   4.353  2.5971  1.1676 -2.0530
 1786SOL     OW 5483   3.028   4.350   1.520 -0.7115  0.1822  0.3513
 1786SOL    HW1 5484   3.069   4.369   1.436 -0.6590 -2.2138 -0.3188
 1786SOL    HW2 5485   3.100   4.333   1.580 -0.5860 -1.7224 -0.2074
 1787SOL     OW 5486   3.387   1.849   3.586 -0.0566  0.2428  0.4381
 1787SOL    HW1 5487   3.414   1.895   3.665  0.7065  0.9668 -0.2154
 1787SOL    HW2 5488   3.465   1.847   3.531 -0.5427 -0.3333 -0.2691
 1788SOL     OW 5489   1.907   2.153   0.196  0.0351  0.4161 -0.0211
 1788SOL    HW1 5490   1.921   2.243   0.166 -1.3526  0.5683 -0.3011
 1788SOL    HW2 5491   1.821   2.129   0.164 -0.4113 -0.3809  1.5494
 1789SOL     OW 5492   0.655   0.060   3.038  0.3492  0.2756  0.1493
 1789SOL    HW1 5493   0.601   0.065   3.116 -0.2662 -0.4821 -0.2106
 1789SOL    HW2 5494   0.593   0.060   2.965  0.9166  2.2307 -0.4687
 1790SOL     OW 5495   1.607   0.870   0.602  0.0516  0.8977  0.0571
 1790SOL    HW1 5496   1.613   0.941   0.538  1.1984  0.1006 -0.8000
 1790SOL    HW2 5497   1.697   0.853   0.628 -0.2848  0.3820  1.0003
 1791SOL     OW 5498   5.095   1.639   0.604 -0.7485 -0.4420 -0.1422
 1791SOL    HW1 5499   5.172   1.589   0.577 -1.9014 -4.3326  2.1302
 1791SOL    HW2 5500   5.031   1.624   0.534 -1.1415 -2.8774  0.5575
 1792SOL     OW 5501   3.421   0.180   0.520 -0.2172 -0.1346 -0.2820
 1792SOL    HW1 5502   3.354   0.185   0.588 -0.4180 -0.5407 -0.4503
 1792SOL    HW2 5503   3.464   0.266   0.524 -0.9391  0.2432 -0.3786
 1793SOL     OW 5504   3.669   4.467   4.488 -0.0591  0.0556  0.4584
 1793SOL    HW1 5505   3.600   4.469   4.422 -0.9010  0.7773  1.2985
 1793SOL    HW2 5506   3.747   4.438   4.441 -0.5239  0.8672 -0.9245
 1794SOL     OW 5507   6.277   4.846   4.199  0.0901  0.1924  0.4284
 1794SOL    HW1 5508   6.308   4.756   4.211 -0.7343 -0.0157  1.2004
 1794SOL    HW2 5509   6.319   4.875   4.118  3.5938  0.5110  1.9693
 1795SOL     OW 5510   0.510   0.781   2.510  0.5157  0.1583  0.2457
 1795SOL    HW1 5511   0.456   0.806   2.585  1.4211  3.4952  0.1110
 1795SOL    HW2 5512   0.475   0.833   2.437  2.2595  0.4845 -0.4599
 1796SOL     OW 5513   4.934   2.536   1.237  0.1717  0.9795  0.1578
 1796SOL    HW1 5514   4.882   2.481   1.178 -1.1159  2.1500  0.1126
 1796SOL    HW2 5515   4.956   2.478   1.310 -2.4286  0.6673  0.8833
 1797SOL     OW 5516   0.803   0.967   3.420 -0.2900 -0.3302 -0.2557
 1797SOL    HW1 5517   0.743   0.896   3.398 -0.7451 -0.4699  1.2454
 1797SOL    HW2 5518   0.750   1.046   3.420 -0.1344 -0.2226 -0.3574
 1798SOL     OW 5519   4.545   4.369   4.467  0.2664 -0.0972 -0.1378
 1798SOL    HW1 5520   4.458   4.330   4.459  0.2496 -0.0649 -0.1136
 1798SOL    HW2 5521   4.542   4.415   4.551  0.8133 -1.3945  0.6640
 1799SOL     OW 5522   1.054   0.307   2.756  0.6230  0.4181 -0.0393
 1799SOL    HW1 5523   1.069   0.256   2.836  1.2810 -1.2759 -1.1139
 1799SOL    HW2 5524   1.005   0.247   2.699 -0.3619  1.7824 -0.7325
 1800SOL     OW 5525   4.684   4.258   3.015 -0.7816  0.1595 -0.4138
 1800SOL    HW1 5526   4.757   4.202   2.987 -1.8247 -1.5104 -0.1168
 1800SOL    HW2 5527   4.726   4.334   3.054  0.8673 -1.0884  0.5572
 1801SOL     OW 5528   1.638   5.428   3.831  0.2001  0.0358  0.1928
 1801SOL    HW1 5529   1.668   5.353   3.883  0.5167  0.3071  0.4069
 1801SOL    HW2 5530   1.592   5.484   3.894  2.0337  1.2169  0.6226
 1802SOL     OW 5531   1.073   2.529   1.490 -0.2908  1.1024  0.1901
 1802SOL    HW1 5532   1.089   2.623   1.490 -0.5181  1.1635 -0.8001
 1802SOL    HW2 5533   1.147   2.492   1.442 -0.2912  0.7983  0.4206
 1803SOL     OW 5534   5.374   5.654   0.224 -0.1360  0.1661  0.0623
 1803SOL    HW1 5535   5.465   5.645   0.253 -0.3556  0.7535  1.0478
 1803SOL    HW2 5536   5.362   5.582   0.162  0.7850 -0.3911  0.4742
 1804SOL     OW 5537   6.206   5.414   2.058  1.2051 -0.3743  0.0537
 1804SOL    HW1 5538   6.151   5.366   2.121 -1.0745  0.9253 -0.7094
 1804SOL    HW2 5539   6.237   5.346   1.998 -3.1248 -1.3133 -1.9488
 1805SOL     OW 5540   1.590   2.079   1.630 -0.2654 -0.9725  0.2318
 1805SOL    HW1 5541   1.577   2.093   1.723 -1.8246  1.1909 -0.1543
 1805SOL    HW2 5542   1.501   2.072   1.594  0.1811 -0.0032 -1.2293
 1806SOL     OW 5543   5.724   4.474   3.689 -0.7564  0.6035 -0.0815
 1806SOL    HW1 5544   5.783   4.419   3.741  1.4436  2.7406  0.0618
 1806SOL    HW2 5545   5.667   4.515   3.754 -0.7614  0.2946  0.1138
 1807SOL     OW 5546   0.289   3.597   3.148 -0.1141 -0.2502  0.2077
 1807SOL    HW1 5547   0.226   3.534   3.183  1.0199 -0.7309  1.5480
 1807SOL    HW2 5548   0.331   3.635   3.225  1.4498 -0.1844 -0.5870
 1808SOL     OW 5549   2.544   0.685   1.835 -0.3311  0.2386 -0.3665
 1808SOL    HW1 5550   2.530   0.697   1.741 -0.7927 -1.7464 -0.6354
 1808SOL    HW2 5551   2.607   0.613   1.842  0.7718  1.2066  0.9032
 1809SOL     OW 5552   3.185   1.842   1.131 -0.3490  0.2197  0.2042
 1809SOL    HW1 5553   3.224   1.777   1.072 -1.3913 -0.2990  0.0430
 1809SOL    HW2 5554   3.158   1.914   1.073 -3.1003 -1.0529 -0.4587
 1810SOL     OW 5555   6.192   2.752   1.538 -0.6879 -0.5437  0.0864
 1810SOL    HW1 5556   6.189   2.827   1.598  0.1364 -0.7356  0.3985
 1810SOL    HW2 5557   6.286   2.739   1.521 -0.7936  1.0289 -3.2387
 1811SOL     OW 5558   5.760   5.245   2.309  0.2126 -1.0033 -0.7403
 1811SOL    HW1 5559   5.737   5.325   2.356 -1.2722 -1.7777 -0.0145
 1811SOL    HW2 5560   5.705   5.246   2.231 -0.4339 -1.6412 -0.3239
 1812SOL     OW 5561   3.279   2.167   2.169 -0.5150 -0.1174 -0.2747
 1812SOL    HW1 5562   3.326   2.201   2.093  1.3928 -2.7393 -0.5347
 1812SOL    HW2 5563   3.284   2.237   2.233  0.0072  1.2964 -1.7083
 1813SOL     OW 5564   2.451   3.339   1.770 -0.1130 -0.1022 -0.2473
 1813SOL    HW1 5565   2.356   3.329   1.768 -0.2181 -0.9423  2.2394
 1813SOL    HW2 5566   2.466   3.423   1.813  0.0249 -1.1414  2.0657
 1814SOL     OW 5567   3.632   2.971   2.644  0.1341 -0.2215  0.5825
 1814SOL    HW1 5568   3.597   3.027   2.714  1.1384 -1.4955  2.2700
 1814SOL    HW2 5569   3.688   2.908   2.690  2.3626 -0.0972 -1.5618
 1815SOL     OW 5570   2.157   1.842   1.288 -0.0062  0.0484  0.2341
 1815SOL    HW1 5571   2.151   1.750   1.263  1.2120 -0.3061  1.0924
 1815SOL    HW2 5572   2.075   1.880   1.257  0.0000 -1.0129 -1.3162
 1816SOL     OW 5573   5.077   3.933   1.497  0.9552  0.4280 -0.1194
 1816SOL    HW1 5574   5.021   3.857   1.516  0.4684 -0.1540 -3.0316
 1816SOL    HW2 5575   5.136   3.903   1.428  1.0202  2.5722 -1.1515
 1817SOL     OW 5576   3.997   6.008   0.816  0.0306  0.1757  0.1770
 1817SOL    HW1 5577   3.959   5.936   0.865  2.0231 -1.3833 -0.3243
 1817SOL    HW2 5578   4.056   6.051   0.878  0.9051 -0.4213 -0.2033
 1818SOL     OW 5579   2.682   2.166   4.417  0.0364  0.8287  0.0087
 1818SOL    HW1 5580   2.725   2.215   4.487 -0.2390 -2.8868  3.4983
 1818SOL    HW2 5581   2.749   2.106   4.385 -0.7143  0.1178 -0.3041
 1819SOL     OW 5582   4.903   2.288   3.862  1.0184  0.0142  0.1994
 1819SOL    HW1 5583   4.862   2.247   3.786  0.3031  0.8158  0.1265
 1819SOL    HW2 5584   4.985   2.325   3.829  0.3016  1.1325 -0.4218
 1820SOL     OW 5585   5.534   4.905   1.013 -0.2510 -0.6700  0.3722
 1820SOL    HW1 5586   5.531   4.996   0.982  0.6397  0.0746  2.1683
 1820SOL    HW2 5587   5.585   4.859   0.946  2.6276  1.0800  0.9658
 1821SOL     OW 5588   3.024   2.445   0.662  0.7400 -0.2248 -0.0251
 1821SOL    HW1 5589   2.949   2.484   0.706  1.4572  1.2266  0.0138
 1821SOL    HW2 5590   3.028   2.356   0.697 -0.5084 -0.1173  0.5120
 1822SOL     OW 5591   3.040   5.794   2.650  0.4268  0.6097  0.0022
 1822SOL    HW1 5592   3.048   5.753   2.736 -0.4037 -1.4507 -0.7699
 1822SOL    HW2 5593   3.019   5.885   2.668 -1.3899 -0.0439  2.0731
 1823SOL     OW 5594   6.023   5.368   4.204  0.0077 -0.5438 -0.6597
 1823SOL    HW1 5595   6.090   5.307   4.235  0.4772  0.3236  0.1144
 1823SOL    HW2 5596   5.942   5.317   4.204  0.3992 -1.1957 -0.1317
 1824SOL     OW 5597   6.005   3.122   1.695 -0.0762  0.2757 -0.1496
 1824SOL    HW1 5598   5.990   3.052   1.758  0.2178 -0.4253 -0.8217
 1824SOL    HW2 5599   6.098   3.143   1.703 -0.5575  2.6725  2.0511
 1825SOL     OW 5600   1.629   4.579   1.910 -0.1906  0.0409  0.8755
 1825SOL    HW1 5601   1.635   4.492   1.872  1.4754  0.2749  0.4550
 1825SOL    HW2 5602   1.706   4.586   1.967  1.4899  2.1245 -1.2501
 1826SOL     OW 5603   1.606   2.242   2.570 -0.5757 -0.0396  0.2008
 1826SOL    HW1 5604   1.666   2.307   2.606  0.5431 -1.8565  2.0408
 1826SOL    HW2 5605   1.655   2.202   2.497 -1.1629  0.8872 -0.7623
 1827SOL     OW 5606   5.153   3.032   0.082  0.6370 -0.3314 -0.1453
 1827SOL    HW1 5607   5.181   2.956   0.134  1.1710 -0.4871 -0.6411
 1827SOL    HW2 5608   5.129   3.098   0.148  1.1008 -0.5918  0.3065
 1828SOL     OW 5609   3.079   3.183   2.143  0.0873 -0.0315 -0.2288
 1828SOL    HW1 5610   3.029   3.172   2.063 -0.0437  0.2305 -0.1857
 1828SOL    HW2 5611   3.169   3.160   2.119 -0.1119 -0.8698 -0.2122
 1829SOL     OW 5612   5.640   4.300   3.272 -0.3935  0.1847  0.3635
 1829SOL    HW1 5613   5.663   4.372   3.213  0.6328  0.4961  1.0719
 1829SOL    HW2 5614   5.621   4.226   3.215 -0.8567  0.8357 -0.3705
 1830SOL     OW 5615   3.928   3.781   2.895  0.0370  0.7177 -0.0305
 1830SOL    HW1 5616   3.887   3.703   2.857 -0.0191  1.9763 -3.2209
 1830SOL    HW2 5617   3.865   3.812   2.961 -1.7792 -0.0561 -1.2355
 1831SOL     OW 5618   4.553   2.794   1.956 -0.3873  0.5613  0.1244
 1831SOL    HW1 5619   4.581   2.706   1.980  0.4496  0.3657 -1.3598
 1831SOL    HW2 5620   4.534   2.836   2.040 -0.9710 -1.0410  0.8914
 1832SOL     OW 5621   2.625   4.510   1.684 -0.1244  0.6660 -0.0301
 1832SOL    HW1 5622   2.719   4.515   1.669  0.4812  0.2511  2.5610
 1832SOL    HW2 5623   2.604   4.591   1.732 -0.1602 -0.6422  2.5110
 1833SOL     OW 5624   0.508   4.850   3.490  0.3597 -0.2008 -0.2355
 1833SOL    HW1 5625   0.428   4.833   3.541  0.0753  1.4872 -0.0072
 1833SOL    HW2 5626   0.477   4.898   3.413  1.0863 -0.2669 -0.5857
 1834SOL     OW 5627   2.361   2.349   2.894  0.1213  0.0476 -0.1552
 1834SOL    HW1 5628   2.391   2.427   2.847 -0.1394  1.3716  1.6767
 1834SOL    HW2 5629   2.276   2.375   2.931 -0.2419 -1.3253  0.0955
 1835SOL     OW 5630   5.945   1.831   3.384 -0.1790  0.2227 -0.0226
 1835SOL    HW1 5631   5.925   1.860   3.296 -0.6697  0.2890  0.1023
 1835SOL    HW2 5632   5.937   1.910   3.438  1.0168  0.3872 -0.0279
 1836SOL     OW 5633   1.525   4.365   0.512 -0.1151  0.2256 -0.2436
 1836SOL    HW1 5634   1.457   4.300   0.528  1.0145 -0.7686  0.9560
 1836SOL    HW2 5635   1.484   4.449   0.533 -0.9051 -0.3646  0.7012
 1837SOL     OW 5636   1.494   4.653   2.980 -0.0534 -0.4668 -0.2618
 1837SOL    HW1 5637   1.444   4.677   3.057 -2.4623  0.1693 -1.8099
 1837SOL    HW2 5638   1.562   4.721   2.973 -0.3367 -0.0396  0.8022
 1838SOL     OW 5639   3.365   4.795   1.049  0.3076  0.0273 -0.4637
 1838SOL    HW1 5640   3.308   4.718   1.055  0.0022  0.3052  0.7061
 1838SOL    HW2 5641   3.416   4.781   0.969  0.3542 -1.4509 -0.2336
 1839SOL     OW 5642   3.911   6.207   3.724 -0.5124 -0.0337 -0.0733
 1839SOL    HW1 5643   3.886   6.227   3.814  2.5630 -0.1729  1.0417
 1839SOL    HW2 5644   3.905   6.111   3.717 -0.4675 -0.0460  0.0711
 1840SOL     OW 5645   5.214   2.673   2.397  0.2546  0.1918  0.0806
 1840SOL    HW1 5646   5.230   2.766   2.384  1.5811 -0.1811 -3.8545
 1840SOL    HW2 5647   5.124   2.660   2.368  0.2957  0.2070 -0.0561
 1841SOL     OW 5648   3.642   5.446   1.596 -0.0274 -0.0841 -0.3223
 1841SOL    HW1 5649   3.686   5.368   1.631 -2.6152 -1.8747 -0.5031
 1841SOL    HW2 5650   3.600   5.485   1.672 -0.2344  0.0263 -0.4942
 1842SOL     OW 5651   3.604   5.616   3.224 -0.0782  0.3893  0.1413
 1842SOL    HW1 5652   3.628   5.626   3.132  2.2434 -0.5342  0.4917
 1842SOL    HW2 5653   3.660   5.679   3.270 -0.8659  0.5207  0.9677
 1843SOL     OW 5654   5.680   4.197   2.157  0.1088 -0.3479  0.2071
 1843SOL    HW1 5655   5.619   4.266   2.133 -0.2103 -0.3799  0.8656
 1843SOL    HW2 5656   5.656   4.174   2.247  0.1446 -1.3723 -0.0135
 1844SOL     OW 5657   4.536   6.351   0.424 -0.2279 -0.4887  0.1511
 1844SOL    HW1 5658   4.486   6.368   0.504 -0.8574 -1.2543 -0.0523
 1844SOL    HW2 5659   4.528   6.256   0.410 -1.0607 -0.2691 -1.3691
 1845SOL     OW 5660   6.101   4.715   1.486 -0.4879 -0.0199  0.1440
 1845SOL    HW1 5661   6.108   4.808   1.508 -0.2354  0.1681 -0.6598
 1845SOL    HW2 5662   6.111   4.670   1.570 -0.3149  0.6673  0.5096
 1846SOL     OW 5663   1.416   0.116   1.292  0.8504 -0.0063  0.5417
 1846SOL    HW1 5664   1.486   0.181   1.290 -0.2746  1.3222  1.1753
 1846SOL    HW2 5665   1.352   0.151   1.354 -0.6168 -0.8826 -0.3520
 1847SOL     OW 5666   5.632   0.430   1.986  0.1456 -0.5474  0.0884
 1847SOL    HW1 5667   5.604   0.477   2.064 -0.9444 -1.8686  0.5749
 1847SOL    HW2 5668   5.685   0.493   1.937  0.0524  0.6403  1.3995
 1848SOL     OW 5669   2.610   0.023   2.869  0.1885 -0.1272 -0.1644
 1848SOL    HW1 5670   2.580  -0.040   2.803 -0.6082  0.3086 -0.2558
 1848SOL    HW2 5671   2.682   0.070   2.827  0.1609 -0.3394 -0.4547
 1849SOL     OW 5672   0.196   2.363   1.213 -0.1272  0.2681  0.3250
 1849SOL    HW1 5673   0.215   2.410   1.131 -0.9806  0.3598  0.1629
 1849SOL    HW2 5674   0.253   2.286   1.209  0.0825  0.4368 -0.1998
 1850SOL     OW 5675   4.935   5.122   3.418 -0.5438  0.9411  0.1495
 1850SOL    HW1 5676   4.945   5.209   3.458  0.6776  0.1054  1.8776
 1850SOL    HW2 5677   5.001   5.121   3.348  1.9268  0.4593  2.1953
 1851SOL     OW 5678   4.002   0.928   1.261  0.2750 -0.1983  0.2021
 1851SOL    HW1 5679   4.021   1.017   1.290 -0.8069  0.1466 -0.0494
 1851SOL    HW2 5680   3.921   0.936   1.209  1.3270 -0.9572 -1.7777
 1852SOL     OW 5681   3.646   0.629   4.229  0.2649  0.2047 -0.2059
 1852SOL    HW1 5682   3.584   0.621   4.302 -0.3468  2.0125 -0.4251
 1852SOL    HW2 5683   3.591   0.653   4.154  0.7586 -2.2947 -1.5808
 1853SOL     OW 5684   2.529   1.400   1.874 -0.4769  0.3575 -0.7956
 1853SOL    HW1 5685   2.571   1.391   1.789 -1.0007 -0.5652 -0.9789
 1853SOL    HW2 5686   2.564   1.482   1.910  0.6430  0.1638 -1.3802
 1854SOL     OW 5687   5.599   4.402   1.812 -0.1820  0.1334 -0.7633
 1854SOL    HW1 5688   5.597   4.483   1.761  0.0397 -0.9074 -2.5847
 1854SOL    HW2 5689   5.691   4.391   1.837  0.2048 -0.4866 -2.2732
 1855SOL     OW 5690   2.175   2.374   3.297 -0.6446  0.4316 -0.2151
 1855SOL    HW1 5691   2.226   2.293   3.294  0.0478  0.8564 -0.4577
 1855SOL    HW2 5692   2.121   2.366   3.375 -0.1914 -0.0397  0.0616
 1856SOL     OW 5693   2.493   0.035   4.293 -0.1283 -0.3960 -0.1050
 1856SOL    HW1 5694   2.401   0.014   4.276  0.2466 -1.2775 -1.2669
 1856SOL    HW2 5695   2.506   0.010   4.384 -1.0616 -0.1051  0.1344
 1857SOL     OW 5696   3.578   5.036   0.570  0.2155  0.1621  0.0111
 1857SOL    HW1 5697   3.544   5.112   0.523  1.0538  0.1358 -0.6768
 1857SOL    HW2 5698   3.673   5.046   0.567  0.3561 -0.9609 -0.1926
 1858SOL     OW 5699   0.372   2.981   1.561 -0.1457  0.2815  0.5175
 1858SOL    HW1 5700   0.380   2.921   1.487 -2.2369 -0.4209  0.7188
 1858SOL    HW2 5701   0.345   3.064   1.522  0.3024  0.3889  0.4193
 1859SOL     OW 5702   4.472   0.135   0.229 -0.2475 -0.3813  0.8614
 1859SOL    HW1 5703   4.509   0.060   0.276  0.0430 -0.8394 -0.0533
 1859SOL    HW2 5704   4.447   0.100   0.143 -0.6833  0.4399  0.6300
 1860SOL     OW 5705   1.336   1.755   2.198 -0.2934  0.0745  0.0962
 1860SOL    HW1 5706   1.246   1.728   2.216 -0.8149  0.4984 -1.5349
 1860SOL    HW2 5707   1.328   1.826   2.134  1.2022  0.0387 -0.2181
 1861SOL     OW 5708   1.352   1.847   0.530 -0.4634 -0.2517 -0.2194
 1861SOL    HW1 5709   1.383   1.760   0.504  1.5988  0.0507  0.7604
 1861SOL    HW2 5710   1.398   1.864   0.613 -1.2295  1.5486 -0.0810
 1862SOL     OW 5711   2.569   6.183   0.200 -0.3391 -0.5065 -0.0723
 1862SOL    HW1 5712   2.570   6.161   0.107  0.4836 -0.6082 -0.0515
 1862SOL    HW2 5713   2.560   6.099   0.245  2.2739 -0.9117 -0.0096
 1863SOL     OW 5714   4.194   4.050   1.478  0.2351  0.1037  0.0801
 1863SOL    HW1 5715   4.265   4.032   1.540  0.1192 -0.0713  0.1658
 1863SOL    HW2 5716   4.206   4.141   1.453  1.5393 -0.3335 -1.2305
 1864SOL     OW 5717   0.447   4.217   0.668 -0.0662 -0.0258 -0.0942
 1864SOL    HW1 5718   0.486   4.131   0.654 -0.0263 -0.1012  0.4524
 1864SOL    HW2 5719   0.515   4.267   0.714 -0.1626  0.2338 -0.2290
 1865SOL     OW 5720   2.802   1.484   2.084 -0.0254  0.1205  0.0674
 1865SOL    HW1 5721   2.715   1.523   2.072 -0.0243  0.1378  0.1143
 1865SOL    HW2 5722   2.784   1.397   2.121 -0.1279 -0.6618 -1.6358
 1866SOL     OW 5723   3.134   1.102   0.009  0.0171 -0.3242 -0.1011
 1866SOL    HW1 5724   3.102   1.191   0.025 -1.6553  0.0233 -3.6410
 1866SOL    HW2 5725   3.089   1.048   0.075 -1.5616  1.1374  0.1472
 1867SOL     OW 5726   5.497   3.355   0.017  0.4183 -0.1437  0.3187
 1867SOL    HW1 5727   5.462   3.329  -0.068 -0.1466  0.7677  0.2483
 1867SOL    HW2 5728   5.505   3.451   0.012 -0.7640  0.0920  1.6829
 1868SOL     OW 5729   3.418   2.001   3.090  0.5665 -0.2748 -0.8710
 1868SOL    HW1 5730   3.490   2.036   3.143  0.4667 -1.0278 -0.2057
 1868SOL    HW2 5731   3.350   2.069   3.096  0.7289 -0.1398 -0.3984
 1869SOL     OW 5732   2.534   2.888   2.604 -0.4301  0.3986 -0.3282
 1869SOL    HW1 5733   2.543   2.974   2.645 -0.2254 -1.6086  6.0247
 1869SOL    HW2 5734   2.625   2.861   2.586 -0.3618  0.8826 -0.7742
 1870SOL     OW 5735   6.208   3.884   2.321  0.0612 -0.1102 -0.4762
 1870SOL    HW1 5736   6.215   3.872   2.416 -1.0438 -0.4469 -0.4077
 1870SOL    HW2 5737   6.160   3.808   2.291  0.3253  0.0373 -1.3056
 1871SOL     OW 5738   2.081   5.946   4.144  0.2600 -0.3172 -0.0357
 1871SOL    HW1 5739   2.016   5.956   4.074  2.1429 -1.0533 -2.1054
 1871SOL    HW2 5740   2.099   6.035   4.174 -0.7096  0.0030 -0.3186
 1872SOL     OW 5741   1.483   2.594   3.654 -0.1128 -0.2249  0.1151
 1872SOL    HW1 5742   1.487   2.583   3.749 -1.5765 -1.5414  0.1082
 1872SOL    HW2 5743   1.568   2.632   3.631  0.5878 -0.5341  1.8491
 1873SOL     OW 5744   4.286   3.534   0.911  0.2153 -0.0738  0.8665
 1873SOL    HW1 5745   4.286   3.582   0.829 -2.1511 -1.6305 -0.2932
 1873SOL    HW2 5746   4.378   3.530   0.937  1.3006 -0.1317 -2.1653
 1874SOL     OW 5747   2.956   5.767   0.909 -0.2225  0.3561 -0.3448
 1874SOL    HW1 5748   2.973   5.736   0.998 -0.3386  0.8505 -0.1417
 1874SOL    HW2 5749   2.936   5.688   0.859 -0.6097  0.1113  0.1774
 1875SOL     OW 5750   2.233   0.952   0.556 -0.5020  0.1100  0.0226
 1875SOL    HW1 5751   2.293   0.988   0.490  1.5653 -1.2198  0.9646
 1875SOL    HW2 5752   2.147   0.987   0.532  0.1309  0.0711 -3.0662
 1876SOL     OW 5753   4.146   2.289   1.140 -0.0005  0.1876  0.3608
 1876SOL    HW1 5754   4.123   2.348   1.212 -0.7689  0.6431 -0.2289
 1876SOL    HW2 5755   4.066   2.241   1.123  0.0811  0.2962 -0.3744
 1877SOL     OW 5756   2.479   5.302   0.978 -0.6346 -0.5154  0.2565
 1877SOL    HW1 5757   2.563   5.291   1.022 -0.4957 -1.9982 -0.2664
 1877SOL    HW2 5758   2.417   5.322   1.049  0.0538  0.1153  0.7088
 1878SOL     OW 5759   2.682   0.370   2.479  0.2148  0.0065 -0.1587
 1878SOL    HW1 5760   2.700   0.459   2.511  0.4672 -0.0360 -0.1815
 1878SOL    HW2 5761   2.714   0.312   2.548  2.5697 -0.1673 -1.2177
 1879SOL     OW 5762   0.833   3.160   2.191  0.4756  0.1402  0.5285
 1879SOL    HW1 5763   0.892   3.199   2.126  0.8680 -0.2217  0.6544
 1879SOL    HW2 5764   0.749   3.153   2.146  0.6214  0.3294  0.2198
 1880SOL     OW 5765   2.614   6.124   1.045 -0.3086  0.3444  0.2466
 1880SOL    HW1 5766   2.636   6.216   1.061  0.4389 -0.1209  2.5008
 1880SOL    HW2 5767   2.697   6.084   1.019 -0.5804  0.2087 -0.4673
 1881SOL     OW 5768   2.297   2.185   2.667 -0.1814 -0.3800 -0.0253
 1881SOL    HW1 5769   2.345   2.224   2.740  2.1914 -1.8602 -0.5761
 1881SOL    HW2 5770   2.219   2.148   2.707  1.0836 -1.2863  1.8852
 1882SOL     OW 5771   2.026   1.651   3.878  0.0348  0.5133  0.5202
 1882SOL    HW1 5772   2.034   1.562   3.843  2.8735  0.7102  0.2436
 1882SOL    HW2 5773   1.969   1.696   3.816  1.0438 -0.3810 -1.2002
 1883SOL     OW 5774   0.329   3.301   2.231 -0.1271 -0.0570  0.3867
 1883SOL    HW1 5775   0.314   3.315   2.325 -2.5941  1.0314 -0.0068
 1883SOL    HW2 5776   0.413   3.257   2.226  1.7333  2.5227  2.9010
 1884SOL     OW 5777   4.973   5.643   3.239 -0.3317 -0.0242 -0.1059
 1884SOL    HW1 5778   4.893   5.640   3.187 -0.1374 -1.2872 -0.3861
 1884SOL    HW2 5779   4.975   5.732   3.275 -0.7685  0.7387 -1.7901
 1885SOL     OW 5780   1.374   1.412   3.393  0.0089 -0.1035  0.3240
 1885SOL    HW1 5781   1.448   1.469   3.412 -1.2191  1.9016 -0.3467
 1885SOL    HW2 5782   1.303   1.444   3.448 -2.0645  2.3437 -3.0209
 1886SOL     OW 5783   2.362   5.338   2.410 -0.4961  0.1920  0.0455
 1886SOL    HW1 5784   2.428   5.270   2.422  0.6437  1.0710 -0.7503
 1886SOL    HW2 5785   2.335   5.330   2.318 -1.1782  0.1236  0.2449
 1887SOL     OW 5786   3.660   5.357   1.076 -0.1646 -0.3698 -0.0556
 1887SOL    HW1 5787   3.675   5.358   1.170 -1.7262 -2.6450  0.3789
 1887SOL    HW2 5788   3.742   5.325   1.039  0.3591  0.2269  0.5427
 1888SOL     OW 5789   4.094   6.259   2.770  0.2425 -0.0760 -0.7765
 1888SOL    HW1 5790   4.120   6.173   2.802 -2.0539 -1.4169 -1.9779
 1888SOL    HW2 5791   4.164   6.286   2.710  2.3330  0.3495  1.5309
 1889SOL     OW 5792   4.539   5.333   1.933 -0.4906 -0.1482  0.6730
 1889SOL    HW1 5793   4.455   5.360   1.897 -0.5626  1.2761  1.7384
 1889SOL    HW2 5794   4.534   5.357   2.026  0.3680 -1.8757  1.2681
 1890SOL     OW 5795   0.277   6.283   1.287  0.2484 -0.5001 -0.4665
 1890SOL    HW1 5796   0.325   6.318   1.212 -2.0933  0.5755 -1.6687
 1890SOL    HW2 5797   0.233   6.205   1.253 -2.2912  0.9700 -0.9986
 1891SOL     OW 5798   2.917   2.028   4.368  0.5961 -0.2434  0.0504
 1891SOL    HW1 5799   2.960   2.071   4.294 -2.8125 -0.0187 -2.2587
 1891SOL    HW2 5800   2.939   1.936   4.359  0.6712 -0.1483 -0.9949
 1892SOL     OW 5801   3.476   4.825   3.607  0.5165  0.1386 -0.7544
 1892SOL    HW1 5802   3.468   4.920   3.608 -2.6465  0.0851 -0.7934
 1892SOL    HW2 5803   3.493   4.803   3.515  0.9436  0.6358 -0.8030
 1893SOL     OW 5804   2.381   0.531   3.565  0.1118  0.1456 -0.2812
 1893SOL    HW1 5805   2.321   0.606   3.566  0.2590  0.3948 -2.2271
 1893SOL    HW2 5806   2.373   0.495   3.477 -0.1868 -2.4093  0.6190
 1894SOL     OW 5807   1.356   0.318   4.060 -0.0243  0.0564 -0.3545
 1894SOL    HW1 5808   1.329   0.381   4.127 -0.7062  0.4235 -0.9407
 1894SOL    HW2 5809   1.404   0.251   4.108  0.8129  1.0578  0.2813
 1895SOL     OW 5810   5.135   2.274   0.652 -0.0175 -0.6452  0.2267
 1895SOL    HW1 5811   5.053   2.314   0.681  0.5131 -0.2102  1.2624
 1895SOL    HW2 5812   5.198   2.347   0.652  0.1881 -0.7266 -1.5964
 1896SOL     OW 5813   0.257   0.064   1.496  0.2389  0.2959 -0.0835
 1896SOL    HW1 5814   0.261  -0.019   1.448 -1.1597 -0.7697  1.4053
 1896SOL    HW2 5815   0.305   0.047   1.577 -0.8512  0.5366  0.6691
 1897SOL     OW 5816   1.513   5.082   4.442 -0.3883  0.2563  0.3094
 1897SOL    HW1 5817   1.473   5.129   4.368 -0.1552  0.3497  0.2403
 1897SOL    HW2 5818   1.463   5.001   4.449 -0.3039  0.1688 -0.0634
 1898SOL     OW 5819   1.844   3.084   3.886 -0.6829 -0.2614 -0.5489
 1898SOL    HW1 5820   1.910   3.017   3.867 -1.7966 -1.2574 -1.1732
 1898SOL    HW2 5821   1.812   3.061   3.974  0.2691  0.6828  0.0889
 1899SOL     OW 5822   4.066   5.731   2.518 -0.4470  0.5754  0.1336
 1899SOL    HW1 5823   4.004   5.794   2.556 -0.7328  0.4115 -0.0542
 1899SOL    HW2 5824   4.098   5.681   2.593  0.3792  1.4378  0.4027
 1900SOL     OW 5825   0.437   5.324   2.792 -0.2174 -0.0895 -0.2751
 1900SOL    HW1 5826   0.418   5.284   2.877  1.2358 -0.4746 -0.0747
 1900SOL    HW2 5827   0.369   5.290   2.733 -0.1788 -1.3113  0.3365
 1901SOL     OW 5828   2.650   3.240   3.539  0.1135  0.3534  0.7400
 1901SOL    HW1 5829   2.669   3.306   3.604 -0.0719  1.0024  0.1609
 1901SOL    HW2 5830   2.705   3.165   3.563  1.6975  1.3269  0.4093
 1902SOL     OW 5831   2.239   6.090   3.882  0.3543  0.7411 -0.6035
 1902SOL    HW1 5832   2.191   6.009   3.900 -0.3268  1.3477  0.4808
 1902SOL    HW2 5833   2.318   6.061   3.835  0.5463 -0.6431  0.4570
 1903SOL     OW 5834   5.651   2.110   3.630  0.0337 -0.1219 -0.0089
 1903SOL    HW1 5835   5.652   2.108   3.726  3.4528  1.7191  0.2968
 1903SOL    HW2 5836   5.736   2.076   3.604 -0.7433 -0.5590 -2.4943
 1904SOL     OW 5837   2.844   0.570   0.951 -0.5230 -0.2249  0.0436
 1904SOL    HW1 5838   2.892   0.488   0.964 -0.7117 -0.3233  0.1515
 1904SOL    HW2 5839   2.885   0.612   0.876  1.6534  1.1143  1.7369
 1905SOL     OW 5840   6.038   5.816   3.505 -0.2233 -0.5590 -0.1999
 1905SOL    HW1 5841   5.999   5.758   3.440 -1.3141  0.7000 -0.7602
 1905SOL    HW2 5842   6.100   5.760   3.552  0.1566 -1.7090 -1.8592
 1906SOL     OW 5843   5.939   2.069   2.970 -0.5895  0.8124 -0.5482
 1906SOL    HW1 5844   5.956   2.163   2.969  0.6110  0.6333 -1.5098
 1906SOL    HW2 5845   6.026   2.029   2.973 -0.6799 -0.4547  4.5786
 1907SOL     OW 5846   2.185   6.028   3.427 -0.0092 -0.0994  0.3751
 1907SOL    HW1 5847   2.154   6.064   3.510 -1.0011  1.5558 -0.5866
 1907SOL    HW2 5848   2.246   6.094   3.394 -0.0369 -0.4491 -0.4345
 1908SOL     OW 5849   2.672   1.428   3.432  0.2132  0.4105 -0.2374
 1908SOL    HW1 5850   2.592   1.479   3.430 -0.6525 -0.6480  1.5475
 1908SOL    HW2 5851   2.655   1.360   3.498  2.2191 -0.5125 -0.5138
 1909SOL     OW 5852   3.461   3.645   2.827 -0.5569  0.3483 -0.1794
 1909SOL    HW1 5853   3.510   3.718   2.864  0.9430  0.6758 -2.3930
 1909SOL    HW2 5854   3.370   3.665   2.847 -0.0964  0.1883  3.3783
 1910SOL     OW 5855   1.027   5.221   1.146  0.5640 -0.1151 -0.2608
 1910SOL    HW1 5856   0.952   5.220   1.086  0.8387  0.2436 -0.6180
 1910SOL    HW2 5857   1.021   5.137   1.193 -1.0775  0.5838  0.9948
 1911SOL     OW 5858   5.701   5.781   0.226 -0.1808 -0.4643  0.3603
 1911SOL    HW1 5859   5.666   5.831   0.300  0.5921  0.0597  0.3905
 1911SOL    HW2 5860   5.785   5.748   0.257 -0.8406 -2.2071  0.5034
 1912SOL     OW 5861   3.839   3.492   1.056 -0.7503 -0.2667  0.0620
 1912SOL    HW1 5862   3.893   3.421   1.022 -3.2725 -2.1696 -0.5713
 1912SOL    HW2 5863   3.844   3.561   0.989 -1.0667 -1.4868 -1.3033
 1913SOL     OW 5864   5.439   0.979   0.930 -0.1974  0.1962 -0.3151
 1913SOL    HW1 5865   5.443   1.043   1.000 -0.1485 -0.5347  0.3776
 1913SOL    HW2 5866   5.377   0.913   0.961  1.3845 -1.2734  0.0701
 1914SOL     OW 5867   2.919   2.726   3.101 -0.0467 -0.3686 -0.7704
 1914SOL    HW1 5868   2.931   2.781   3.024 -0.5280  0.4173 -0.3239
 1914SOL    HW2 5869   2.999   2.674   3.107  0.0357 -0.3842 -1.7332
 1915SOL     OW 5870   6.043   4.735   4.419 -0.0712  0.0791 -0.5274
 1915SOL    HW1 5871   5.998   4.661   4.459  0.8849  0.4552  1.5001
 1915SOL    HW2 5872   6.047   4.713   4.326 -1.3414 -1.5442 -0.2983
 1916SOL     OW 5873   3.954   3.804   1.727 -0.3327  0.5017  0.5745
 1916SOL    HW1 5874   3.945   3.710   1.745 -2.6425  0.0633 -1.6687
 1916SOL    HW2 5875   3.869   3.829   1.690  1.1604  2.6223 -2.1743
 1917SOL     OW 5876   3.048   2.189   0.737 -0.3873 -0.0893 -0.0338
 1917SOL    HW1 5877   3.001   2.133   0.675  0.2787  0.7349 -1.3744
 1917SOL    HW2 5878   3.119   2.134   0.770 -1.3789 -0.8933  0.9419
 1918SOL     OW 5879   4.930   5.720   1.659 -0.4179  0.0703  0.1393
 1918SOL    HW1 5880   4.890   5.807   1.659  0.3869  0.9731  4.9148
 1918SOL    HW2 5881   4.866   5.664   1.703 -0.2496 -1.4722 -1.3749
 1919SOL     OW 5882   0.703   4.388   3.129  0.1622  0.0488  0.2732
 1919SOL    HW1 5883   0.705   4.303   3.086  2.1121 -0.0285  0.3326
 1919SOL    HW2 5884   0.703   4.451   3.057  1.0410 -0.0612  0.1536
 1920SOL     OW 5885   5.087   1.723   1.985  0.5209  0.0054 -0.0210
 1920SOL    HW1 5886   5.140   1.649   2.013 -0.8779 -0.5957  1.3828
 1920SOL    HW2 5887   5.008   1.684   1.947 -0.4702  0.6750  1.1788
 1921SOL     OW 5888   4.417   1.887   3.600 -0.0378  0.5402  0.9496
 1921SOL    HW1 5889   4.508   1.883   3.628  0.3887 -0.2678 -0.4146
 1921SOL    HW2 5890   4.420   1.891   3.505 -1.3463 -2.2560  0.5656
 1922SOL     OW 5891   2.654   1.330   3.155 -0.3173  0.4479 -0.2493
 1922SOL    HW1 5892   2.577   1.330   3.097 -1.7665  0.3946  1.4847
 1922SOL    HW2 5893   2.661   1.420   3.187 -1.1947  0.0490  1.3102
 1923SOL     OW 5894   0.443   5.867   2.213  0.0561 -0.0153 -0.1066
 1923SOL    HW1 5895   0.452   5.841   2.122  0.4507 -0.5776  0.0828
 1923SOL    HW2 5896   0.384   5.802   2.251 -0.4094  0.4326 -0.0378
 1924SOL     OW 5897   3.951   0.663   1.325  0.2803 -0.1125  0.2230
 1924SOL    HW1 5898   3.965   0.746   1.280  0.1199 -0.0565  0.2723
 1924SOL    HW2 5899   3.994   0.673   1.410  2.0915 -0.8271 -0.5179
 1925SOL     OW 5900   1.814   5.668   3.922 -0.5467 -0.5040  0.3274
 1925SOL    HW1 5901   1.815   5.751   3.874 -0.0283 -0.6899  0.0009
 1925SOL    HW2 5902   1.798   5.601   3.855 -0.4163 -0.7137  0.5016
 1926SOL     OW 5903   1.743   3.226   0.159 -0.1356  0.3072  0.1658
 1926SOL    HW1 5904   1.814   3.270   0.206 -0.7999  2.7027 -0.7674
 1926SOL    HW2 5905   1.782   3.199   0.076  0.3087 -1.1505  0.7939
 1927SOL     OW 5906   2.706   4.844   0.436  0.0456 -0.1278  0.1755
 1927SOL    HW1 5907   2.783   4.850   0.493  2.8776  1.2235 -3.0829
 1927SOL    HW2 5908   2.706   4.754   0.404 -1.6364 -0.9329  1.9607
 1928SOL     OW 5909   2.223   1.190   4.404  0.0241 -0.1348  0.5615
 1928SOL    HW1 5910   2.262   1.235   4.479 -1.4968  0.4426  1.1003
 1928SOL    HW2 5911   2.203   1.259   4.341  2.4857 -0.7221 -1.1437
 1929SOL     OW 5912   5.532   2.001   0.404  0.1897 -0.2274  0.2291
 1929SOL    HW1 5913   5.564   2.033   0.319  0.3162  0.5720  0.5578
 1929SOL    HW2 5914   5.451   1.955   0.383  0.3174 -0.2117 -0.3462
 1930SOL     OW 5915   1.658   1.719   4.277  0.4714  0.2721  0.0758
 1930SOL    HW1 5916   1.664   1.628   4.305  1.7797 -0.0188 -0.9682
 1930SOL    HW2 5917   1.651   1.769   4.359 -0.1173 -0.7167  0.6743
 1931SOL     OW 5918   5.163   4.121   3.586 -0.0102  0.4809  0.7274
 1931SOL    HW1 5919   5.224   4.069   3.535  0.4440  0.6834  1.0467
 1931SOL    HW2 5920   5.169   4.210   3.550  0.0747  0.5565  0.9235
 1932SOL     OW 5921   1.623   1.056   0.405  0.4169 -0.1261 -0.3147
 1932SOL    HW1 5922   1.567   1.133   0.412 -1.1185 -1.0839 -0.8345
 1932SOL    HW2 5923   1.658   1.058   0.316  0.3008 -0.0748 -0.3587
 1933SOL     OW 5924   4.592   5.606   3.854  0.7234  0.3965 -0.1573
 1933SOL    HW1 5925   4.504   5.588   3.821  0.5824  1.1036 -0.1883
 1933SOL    HW2 5926   4.648   5.548   3.803  0.1716 -1.1169  0.8137
 1934SOL     OW 5927   6.314   5.284   0.301 -0.3868  0.0635 -0.0813
 1934SOL    HW1 5928   6.300   5.358   0.359 -2.5252 -0.8777  0.8136
 1934SOL    HW2 5929   6.289   5.316   0.214 -1.8386  0.3158  0.3818
 1935SOL     OW 5930   0.704   6.235   4.026  0.4021  0.3802 -0.6276
 1935SOL    HW1 5931   0.756   6.304   4.068 -0.1638  1.0045 -0.9067
 1935SOL    HW2 5932   0.636   6.213   4.090 -0.2897  1.1318 -1.0647
 1936SOL     OW 5933   3.654   0.981   2.151 -0.2565 -0.3043  0.3080
 1936SOL    HW1 5934   3.637   0.988   2.245 -1.5487 -0.9578  0.1675
 1936SOL    HW2 5935   3.603   0.905   2.124 -1.0204  0.6403 -1.1488
 1937SOL     OW 5936   3.310   5.966   2.100 -0.8802 -0.7349  0.0432
 1937SOL    HW1 5937   3.256   6.045   2.096 -0.3941 -0.4123 -0.3853
 1937SOL    HW2 5938   3.285   5.924   2.183 -0.7700  0.1423  0.5420
 1938SOL     OW 5939   0.734   2.639   2.118 -0.5517 -0.4753 -0.5568
 1938SOL    HW1 5940   0.694   2.713   2.074 -0.7171 -1.1514 -1.6175
 1938SOL    HW2 5941   0.704   2.645   2.209 -1.5125  0.0939 -0.8909
 1939SOL     OW 5942   3.754   2.839   1.003 -0.1452  0.3312 -0.1903
 1939SOL    HW1 5943   3.681   2.876   1.051 -0.7062  0.3134 -0.9862
 1939SOL    HW2 5944   3.758   2.889   0.922 -1.8362 -1.9893 -2.0029
 1940SOL     OW 5945   4.265   4.283   0.307 -0.0027  0.2845 -0.7076
 1940SOL    HW1 5946   4.316   4.347   0.258 -0.8436  0.1603 -1.8197
 1940SOL    HW2 5947   4.259   4.207   0.249 -2.0600  0.5768 -1.0398
 1941SOL     OW 5948   3.137   4.632   1.066 -0.1956  0.2421 -0.0698
 1941SOL    HW1 5949   3.079   4.699   1.103 -0.0561  1.6054 -2.0183
 1941SOL    HW2 5950   3.096   4.608   0.983  0.9364 -0.3768 -0.4865
 1942SOL     OW 5951   1.961   3.497   3.497  0.1433 -0.3338  0.0171
 1942SOL    HW1 5952   1.937   3.588   3.512  0.2005 -0.0451 -1.4366
 1942SOL    HW2 5953   1.938   3.453   3.579  0.4779  1.0307  0.9079
 1943SOL     OW 5954   2.318   1.719   0.245  1.0480  0.2822 -0.0861
 1943SOL    HW1 5955   2.253   1.684   0.306  0.8757  1.2867  0.3588
 1943SOL    HW2 5956   2.341   1.646   0.188  0.2217 -0.3391  0.3467
 1944SOL     OW 5957   2.868   0.377   1.889  0.1407  0.1480 -0.2369
 1944SOL    HW1 5958   2.789   0.324   1.901  0.2714 -0.4134 -1.5376
 1944SOL    HW2 5959   2.937   0.314   1.871  1.0336  0.5960  1.2119
 1945SOL     OW 5960   0.418   3.744   0.153  0.3869 -0.0414  0.0250
 1945SOL    HW1 5961   0.391   3.664   0.108 -0.9284 -0.2713  1.1023
 1945SOL    HW2 5962   0.471   3.713   0.226 -2.5051 -0.4659  2.3259
 1946SOL     OW 5963   1.886   5.815   2.112 -0.4897  0.0504 -0.0674
 1946SOL    HW1 5964   1.806   5.862   2.088 -1.1887 -0.5623  0.9253
 1946SOL    HW2 5965   1.951   5.885   2.126 -1.2484  0.6767  0.4980
 1947SOL     OW 5966   2.696   6.403   2.138 -0.2551  0.0945  0.0063
 1947SOL    HW1 5967   2.749   6.450   2.202  1.6099  0.0988 -1.3797
 1947SOL    HW2 5968   2.753   6.335   2.104 -0.1307  1.4085 -3.1719
 1948SOL     OW 5969   1.281   2.440   2.121 -0.3648 -0.2709  0.3306
 1948SOL    HW1 5970   1.251   2.525   2.153  1.2776 -0.1438  1.8606
 1948SOL    HW2 5971   1.375   2.438   2.143  0.2019 -1.6101 -1.6681
 1949SOL     OW 5972   5.125   3.813   0.661 -0.2183  0.4235 -0.3189
 1949SOL    HW1 5973   5.221   3.818   0.669 -0.1250 -1.1774  0.4444
 1949SOL    HW2 5974   5.110   3.770   0.577 -0.2142  0.1494 -0.1839
 1950SOL     OW 5975   3.760   3.664   2.538 -0.0030 -0.1319 -0.0372
 1950SOL    HW1 5976   3.710   3.637   2.461 -1.6561  1.1317  0.4988
 1950SOL    HW2 5977   3.767   3.759   2.531  0.5027 -0.0619  0.9969
 1951SOL     OW 5978   4.448   1.407   2.756  0.2408 -0.5566  0.0099
 1951SOL    HW1 5979   4.458   1.362   2.840  1.8665 -0.9262 -0.3090
 1951SOL    HW2 5980   4.473   1.342   2.691  0.0827  0.0482 -0.6820
 1952SOL     OW 5981   5.622   5.111   2.942  0.1937  0.5085 -0.0736
 1952SOL    HW1 5982   5.534   5.081   2.963 -0.0173  1.1296 -0.0322
 1952SOL    HW2 5983   5.676   5.032   2.944 -0.5441 -0.0666 -1.1742
 1953SOL     OW 5984   2.708   5.688   3.578  0.0782 -0.5709 -0.2040
 1953SOL    HW1 5985   2.683   5.757   3.517  0.7338 -0.5219 -0.4315
 1953SOL    HW2 5986   2.685   5.607   3.532 -2.1168 -0.5796  0.6519
 1954SOL     OW 5987   2.293   5.991   4.456  0.2432  0.2348  0.1358
 1954SOL    HW1 5988   2.317   6.042   4.533 -2.4158 -1.1561  2.2347
 1954SOL    HW2 5989   2.218   6.037   4.419  0.6573  0.1748 -0.8151
 1955SOL     OW 5990   1.503   2.569   2.615 -0.4555  0.4843  0.0878
 1955SOL    HW1 5991   1.546   2.555   2.700 -0.2212  0.9279  0.0458
 1955SOL    HW2 5992   1.559   2.523   2.553 -1.6024 -1.5038  0.3509
 1956SOL     OW 5993   2.121   6.381   3.763  0.5763 -0.6272 -0.5464
 1956SOL    HW1 5994   2.129   6.459   3.817 -0.5826 -0.2137 -0.9097
 1956SOL    HW2 5995   2.207   6.370   3.723  0.9035  0.1722 -0.0936
 1957SOL     OW 5996   3.744   1.112   3.582 -0.0922  0.5764  0.5819
 1957SOL    HW1 5997   3.663   1.084   3.625  1.1278 -1.1467  2.0834
 1957SOL    HW2 5998   3.752   1.205   3.604 -1.6609  0.8391  0.2777
 1958SOL     OW 5999   2.891   3.444   2.985 -0.0113 -1.0510 -0.3853
 1958SOL    HW1 6000   2.822   3.378   2.978 -0.8433 -0.4578  1.2975
 1958SOL    HW2 6001   2.886   3.493   2.902 -1.0848 -1.5092 -0.6211
 1959SOL     OW 6002   4.746   2.385   0.273 -0.1345 -0.1158  0.6474
 1959SOL    HW1 6003   4.834   2.400   0.308 -0.6490  0.9194  1.5915
 1959SOL    HW2 6004   4.702   2.470   0.279 -1.4068 -0.7379  0.7985
 1960SOL     OW 6005   6.181   5.729   1.400 -0.8254  0.0733 -0.3197
 1960SOL    HW1 6006   6.154   5.704   1.488  0.4077  0.5308  0.2415
 1960SOL    HW2 6007   6.258   5.674   1.382 -1.3483 -0.3831 -1.3474
 1961SOL     OW 6008   5.569   0.788   4.152  0.2901  0.0799  0.0018
 1961SOL    HW1 6009   5.633   0.744   4.208  3.0793  4.0568  0.7901
 1961SOL    HW2 6010   5.598   0.769   4.063  0.2239 -0.9034  0.1637
 1962SOL     OW 6011   6.187   4.785   2.770 -0.5130 -0.2864  0.3107
 1962SOL    HW1 6012   6.118   4.814   2.710 -0.0165 -0.1335 -0.2006
 1962SOL    HW2 6013   6.255   4.748   2.713  0.4639  0.8490  0.6586
 1963SOL     OW 6014   5.037   2.223   1.253 -0.1321  0.3395 -0.8637
 1963SOL    HW1 6015   5.122   2.200   1.291 -0.1252 -0.7286 -1.4658
 1963SOL    HW2 6016   4.977   2.221   1.327  0.0662 -0.6850 -0.7017
 1964SOL     OW 6017   0.859   5.898   1.645 -0.0004  0.3805  0.2278
 1964SOL    HW1 6018   0.832   5.989   1.638  1.7200  0.9327 -0.2189
 1964SOL    HW2 6019   0.871   5.870   1.554  1.3915  0.4017  0.3635
 1965SOL     OW 6020   4.796   5.933   1.223 -0.1033  0.2279 -0.2379
 1965SOL    HW1 6021   4.784   5.981   1.141 -0.9213  0.3482 -0.0612
 1965SOL    HW2 6022   4.813   5.843   1.195  1.8648  0.6100 -0.5900
 1966SOL     OW 6023   1.768   6.105   2.060  0.0587 -0.5121 -0.2638
 1966SOL    HW1 6024   1.719   6.093   2.141 -0.7203 -1.8899 -0.8754
 1966SOL    HW2 6025   1.719   6.057   1.994 -1.0766  2.8177 -2.3832
 1967SOL     OW 6026   4.678   3.322   3.476 -0.2965  0.0232  0.1190
 1967SOL    HW1 6027   4.641   3.243   3.435  1.1680 -0.2906 -0.7335
 1967SOL    HW2 6028   4.611   3.349   3.538 -1.3303 -1.2693 -0.3173
 1968SOL     OW 6029   5.425   3.801   3.218  0.0859  0.5221  0.5396
 1968SOL    HW1 6030   5.492   3.746   3.259 -0.1144  0.1934  0.4320
 1968SOL    HW2 6031   5.427   3.776   3.126  0.7959  1.5295  0.2562
 1969SOL     OW 6032   1.059   1.980   1.681 -0.6079  0.1484  0.1073
 1969SOL    HW1 6033   1.036   1.888   1.696 -2.0496  0.3174 -0.7093
 1969SOL    HW2 6034   1.002   2.007   1.609  0.6123  1.3798 -0.4735
 1970SOL     OW 6035   2.533   6.365   0.913  0.0292  0.1435  0.0864
 1970SOL    HW1 6036   2.443   6.332   0.911 -0.0668  0.3888  0.2397
 1970SOL    HW2 6037   2.557   6.361   1.006  0.8109 -1.5878 -0.1176
 1971SOL     OW 6038   4.957   3.559   3.911  0.1676 -0.0548  0.1666
 1971SOL    HW1 6039   4.936   3.500   3.839 -2.9021  0.6277  0.2122
 1971SOL    HW2 6040   4.901   3.531   3.983 -1.2490  2.5159  0.2924
 1972SOL     OW 6041   1.550   1.327   0.761 -0.0548  0.4913 -0.1559
 1972SOL    HW1 6042   1.520   1.236   0.755  0.4943  0.2150  0.8651
 1972SOL    HW2 6043   1.475   1.378   0.731 -0.7905 -0.2535  0.3169
 1973SOL     OW 6044   2.540   4.088   1.714 -0.3350 -0.1326 -0.9674
 1973SOL    HW1 6045   2.557   4.098   1.621  1.5843 -0.2807 -0.7050
 1973SOL    HW2 6046   2.514   4.176   1.744  2.4689  0.9426 -1.1236
 1974SOL     OW 6047   1.201   1.227   3.296  0.1592  0.2131  0.0479
 1974SOL    HW1 6048   1.261   1.301   3.306  2.4487 -1.3426 -0.5543
 1974SOL    HW2 6049   1.255   1.149   3.312 -1.5299 -1.4345 -1.2679
 1975SOL     OW 6050   2.983   5.746   0.064  0.0592  0.0409 -0.0505
 1975SOL    HW1 6051   2.889   5.730   0.050  0.1813 -1.0596  0.2115
 1975SOL    HW2 6052   3.026   5.691  -0.001  0.5650  1.6510 -1.2078
 1976SOL     OW 6053   4.790   2.063   0.683  0.3627 -0.1815 -0.1450
 1976SOL    HW1 6054   4.705   2.031   0.714  0.5354 -1.1507 -0.5903
 1976SOL    HW2 6055   4.770   2.145   0.637 -0.3257 -0.3772 -0.2158
 1977SOL     OW 6056   4.871   0.443   0.832  0.4380  0.0300 -0.4583
 1977SOL    HW1 6057   4.791   0.429   0.780 -0.1322 -0.5347  0.5133
 1977SOL    HW2 6058   4.940   0.400   0.781  0.1763  0.6129 -1.3674
 1978SOL     OW 6059   5.137   5.039   4.033  0.4945 -0.1205 -0.5434
 1978SOL    HW1 6060   5.195   4.965   4.052  3.2120  1.3985 -1.8204
 1978SOL    HW2 6061   5.166   5.108   4.093 -0.3434  0.5913 -0.9151
 1979SOL     OW 6062   4.254   4.291   1.349 -0.3930 -0.1159  0.3479
 1979SOL    HW1 6063   4.348   4.281   1.362 -0.1068  1.6880  0.2045
 1979SOL    HW2 6064   4.238   4.386   1.356 -2.5115 -0.4273  2.2364
 1980SOL     OW 6065   1.565   2.782   0.365 -0.1537  0.3523 -0.2146
 1980SOL    HW1 6066   1.506   2.849   0.398  0.6304  1.0146 -0.0899
 1980SOL    HW2 6067   1.640   2.830   0.330  0.3190 -0.4464 -0.3702
 1981SOL     OW 6068   2.211   3.113   0.814 -0.1803 -0.1204  0.1260
 1981SOL    HW1 6069   2.187   3.021   0.820 -1.7209  0.2777  1.2978
 1981SOL    HW2 6070   2.282   3.124   0.877  0.3177 -0.5680 -0.3463
 1982SOL     OW 6071   2.965   2.748   3.376  0.9373  0.4660 -0.0612
 1982SOL    HW1 6072   3.033   2.792   3.326  1.1738 -0.0723 -0.2257
 1982SOL    HW2 6073   2.907   2.710   3.310  1.5094 -0.6484  0.0399
 1983SOL     OW 6074   3.958   2.734   1.152 -0.0194  0.3942  0.3003
 1983SOL    HW1 6075   3.893   2.780   1.098  0.6767  0.6276 -0.3832
 1983SOL    HW2 6076   3.909   2.703   1.228 -0.7397  1.3120  0.2383
 1984SOL     OW 6077   1.301   3.845   0.554  0.0126  0.2247 -0.3321
 1984SOL    HW1 6078   1.387   3.826   0.592 -0.4666 -0.8311  0.3298
 1984SOL    HW2 6079   1.319   3.907   0.483  1.2463  0.4251  0.0985
 1985SOL     OW 6080   0.103   4.835   2.047  0.2541 -0.8250 -0.5565
 1985SOL    HW1 6081   0.087   4.789   2.129  0.1825 -0.7540 -0.5312
 1985SOL    HW2 6082   0.196   4.856   2.049 -0.1976  2.0578  1.0172
 1986SOL     OW 6083   3.319   0.917   3.381  0.3488  0.1392  0.2374
 1986SOL    HW1 6084   3.241   0.863   3.395  1.2797 -1.4749 -0.3319
 1986SOL    HW2 6085   3.391   0.854   3.374  1.5027  1.4527 -0.7460
 1987SOL     OW 6086   4.700   4.357   2.598 -0.1838 -0.5090  0.3742
 1987SOL    HW1 6087   4.711   4.401   2.514 -2.2712  0.3713  0.4415
 1987SOL    HW2 6088   4.789   4.336   2.626  0.6504 -0.1940 -1.6771
 1988SOL     OW 6089   0.541   5.138   1.238 -0.2122  0.6640 -0.7846
 1988SOL    HW1 6090   0.605   5.200   1.203 -1.1750  0.9131 -2.2743
 1988SOL    HW2 6091   0.564   5.054   1.199 -0.7754  0.7635 -1.3641
 1989SOL     OW 6092   1.787   4.089   2.767  0.3105  0.1684 -0.7253
 1989SOL    HW1 6093   1.708   4.142   2.754  0.1422 -0.2573 -1.5813
 1989SOL    HW2 6094   1.812   4.061   2.679  0.8170 -0.5668 -0.3695
 1990SOL     OW 6095   1.292   5.385   2.640 -0.4960 -0.1966  0.0102
 1990SOL    HW1 6096   1.276   5.392   2.735  0.4831  0.1460  0.1753
 1990SOL    HW2 6097   1.291   5.476   2.610  0.6292 -0.1753 -0.0265
 1991SOL     OW 6098   1.090   0.313   3.296 -0.9636  0.1967 -0.2174
 1991SOL    HW1 6099   0.995   0.299   3.298 -0.8888 -1.0506 -1.7283
 1991SOL    HW2 6100   1.100   0.407   3.282 -1.8666  0.6530  1.6047
 1992SOL     OW 6101   0.470   2.732   1.425  0.0728  0.4431 -0.4717
 1992SOL    HW1 6102   0.464   2.652   1.477  1.5822  1.0703  0.8463
 1992SOL    HW2 6103   0.536   2.712   1.359 -0.5751  0.1916 -1.0593
 1993SOL     OW 6104   5.015   4.553   2.460 -0.4491  0.1456 -0.3683
 1993SOL    HW1 6105   4.960   4.625   2.489 -0.6310 -0.1500  0.0293
 1993SOL    HW2 6106   5.024   4.566   2.365 -0.4187  0.7253 -0.2901
 1994SOL     OW 6107   3.649   0.653   0.853 -0.0716 -0.5680  0.2609
 1994SOL    HW1 6108   3.563   0.692   0.863  0.2248  1.1917 -2.1723
 1994SOL    HW2 6109   3.709   0.728   0.846  1.5992 -1.6896  1.0619
 1995SOL     OW 6110   3.543   1.998   2.701  0.0043 -0.0831  0.2537
 1995SOL    HW1 6111   3.602   1.944   2.649  0.2026  0.6407 -0.3233
 1995SOL    HW2 6112   3.528   1.948   2.781  1.4407 -0.2920  0.4562
 1996SOL     OW 6113   5.676   1.768   0.448 -0.3927  0.2125  0.6275
 1996SOL    HW1 6114   5.727   1.745   0.370 -0.2795 -0.2173  0.8223
 1996SOL    HW2 6115   5.596   1.807   0.413  0.8463  2.8954  0.2990
 1997SOL     OW 6116   5.384   4.209   4.434 -0.5369 -0.1304  0.4206
 1997SOL    HW1 6117   5.454   4.209   4.499 -0.6809 -2.0947  0.6963
 1997SOL    HW2 6118   5.305   4.226   4.484 -0.5228 -0.5485  0.5944
 1998SOL     OW 6119   3.036   0.991   3.672  0.7102 -0.6746  0.0841
 1998SOL    HW1 6120   3.093   0.914   3.681  1.5725 -0.1164 -0.3160
 1998SOL    HW2 6121   3.082   1.047   3.609 -0.6407 -0.4963 -0.8184
 1999SOL     OW 6122   3.033   5.845   2.954  0.3636  0.0619 -0.2924
 1999SOL    HW1 6123   3.050   5.910   3.023 -0.3891 -0.2484  0.2132
 1999SOL    HW2 6124   2.992   5.772   3.000 -1.7737  0.4970 -1.2446
 2000SOL     OW 6125   5.748   2.312   1.122  0.4490  0.4128 -0.1268
 2000SOL    HW1 6126   5.826   2.256   1.120  0.7718  0.8462 -0.0257
 2000SOL    HW2 6127   5.684   2.261   1.172  0.5895 -0.0409 -0.3978
 2001SOL     OW 6128   0.269   4.205   1.564  0.2030 -0.0399 -0.0309
 2001SOL    HW1 6129   0.305   4.161   1.641  1.9549  0.3135 -0.5395
 2001SOL    HW2 6130   0.242   4.291   1.595  2.1558  0.6350  0.0767
 2002SOL     OW 6131   1.099   2.041   0.223 -0.9171 -0.0442  0.1134
 2002SOL    HW1 6132   1.045   1.978   0.270 -1.5971  0.6480  0.3046
 2002SOL    HW2 6133   1.064   2.126   0.249 -1.7356  0.4110 -2.0386
 2003SOL     OW 6134   4.352   4.071   3.429  0.5246  0.2557  0.5853
 2003SOL    HW1 6135   4.383   4.113   3.349 -0.0094 -0.2298  0.1011
 2003SOL    HW2 6136   4.397   4.116   3.500  1.0669  0.6475  0.0048
 2004SOL     OW 6137   1.768   3.041   4.162 -0.1644  0.0128  0.6130
 2004SOL    HW1 6138   1.850   2.991   4.160 -1.4456 -2.3566 -0.0674
 2004SOL    HW2 6139   1.701   2.977   4.185 -1.7767  2.0944  2.7270
 2005SOL     OW 6140   0.995   3.643   1.818 -0.2883 -0.1357  0.5553
 2005SOL    HW1 6141   1.016   3.663   1.909 -0.9991  1.2930  0.4601
 2005SOL    HW2 6142   1.070   3.592   1.787  1.1781  1.3865  1.2813
 2006SOL     OW 6143   5.492   1.409   2.098 -0.1052  0.1245  0.1439
 2006SOL    HW1 6144   5.476   1.314   2.097 -0.0027  0.0746 -1.3380
 2006SOL    HW2 6145   5.587   1.417   2.102 -0.0844  0.1350 -0.2844
 2007SOL     OW 6146   4.352   0.371   0.099 -0.2658 -0.1970 -0.0234
 2007SOL    HW1 6147   4.399   0.306   0.152  0.6671  2.3728  2.9440
 2007SOL    HW2 6148   4.421   0.413   0.047 -0.2137  0.2845  0.4139
 2008SOL     OW 6149   0.788   5.074   1.781  0.2292  0.3186  0.1807
 2008SOL    HW1 6150   0.845   5.044   1.710  0.8427  0.7929  0.4547
 2008SOL    HW2 6151   0.824   5.034   1.860 -1.1562 -1.1912  0.1452
 2009SOL     OW 6152   0.399   2.604   3.795  0.5239 -0.4733  0.1014
 2009SOL    HW1 6153   0.314   2.561   3.797 -0.5334  1.3168 -0.7839
 2009SOL    HW2 6154   0.445   2.571   3.872 -0.7550 -1.8956  0.3472
 2010SOL     OW 6155   4.589   6.288   2.754 -0.2534 -0.4347  0.2010
 2010SOL    HW1 6156   4.627   6.328   2.833 -0.2764 -0.1357  0.0611
 2010SOL    HW2 6157   4.510   6.339   2.737 -0.1541 -0.3881 -0.1200
 2011SOL     OW 6158   1.999   5.256   0.938 -0.2847  0.3146 -0.0701
 2011SOL    HW1 6159   2.027   5.299   1.019 -1.9302 -0.0995  0.8193
 2011SOL    HW2 6160   1.950   5.323   0.891  0.1729  0.3875 -0.4548
 2012SOL     OW 6161   3.466   4.175   2.988  0.2424 -0.0456  0.1309
 2012SOL    HW1 6162   3.441   4.249   3.043 -2.3694  0.0563 -0.8888
 2012SOL    HW2 6163   3.488   4.214   2.903  0.7122 -0.3679  0.0962
 2013SOL     OW 6164   6.193   0.300   3.085  0.0468 -0.3983 -0.0895
 2013SOL    HW1 6165   6.223   0.355   3.012 -0.4717 -0.6387 -0.4965
 2013SOL    HW2 6166   6.179   0.214   3.045 -0.3914 -0.4949  0.2666
 2014SOL     OW 6167   1.206   3.813   3.579  0.4711  0.2039 -0.1533
 2014SOL    HW1 6168   1.220   3.774   3.666  1.7970  0.7429 -0.0790
 2014SOL    HW2 6169   1.288   3.858   3.559 -0.5459  2.0448 -0.6993
 2015SOL     OW 6170   5.897   1.353   1.648  0.0450 -0.1891  0.0206
 2015SOL    HW1 6171   5.871   1.434   1.603  1.4279 -0.0895 -0.6983
 2015SOL    HW2 6172   5.947   1.304   1.583  1.8806 -0.2000  1.2935
 2016SOL     OW 6173   5.729   1.186   0.914 -0.2229 -0.1588  0.8364
 2016SOL    HW1 6174   5.823   1.172   0.917 -0.2852 -0.5926  0.9148
 2016SOL    HW2 6175   5.695   1.135   0.987 -0.6879 -1.5276 -0.2526
 2017SOL     OW 6176   3.497   0.091   3.179  0.0312 -0.1157  0.2487
 2017SOL    HW1 6177   3.555   0.067   3.250 -0.8405 -1.0229  0.7151
 2017SOL    HW2 6178   3.553   0.093   3.101  0.7402 -0.6376  0.7221
 2018SOL     OW 6179   5.455   6.162   0.708 -0.1317  0.0404 -0.1779
 2018SOL    HW1 6180   5.408   6.222   0.766 -0.2474 -0.4168  0.2165
 2018SOL    HW2 6181   5.530   6.212   0.677 -1.5497  1.3247 -1.9846
 2019SOL     OW 6182   4.595   5.748   2.692  0.0466  0.7280 -0.1139
 2019SOL    HW1 6183   4.511   5.774   2.654 -1.6821 -3.4188 -0.2199
 2019SOL    HW2 6184   4.574   5.724   2.782  0.7861 -1.0998 -0.3464
 2020SOL     OW 6185   2.997   0.227   3.150 -0.3097  0.7612  0.0494
 2020SOL    HW1 6186   2.993   0.144   3.198  0.5112 -0.2995 -1.5589
 2020SOL    HW2 6187   3.089   0.238   3.128 -0.6747  0.8739 -1.6908
 2021SOL     OW 6188   4.053   4.927   4.300 -0.1373  0.1186 -0.7705
 2021SOL    HW1 6189   4.011   4.902   4.217  1.4196  1.6644 -2.1843
 2021SOL    HW2 6190   3.996   4.996   4.335 -0.3390  0.0986 -1.0450
 2022SOL     OW 6191   2.780   5.766   2.050  0.0677 -0.0717 -0.1311
 2022SOL    HW1 6192   2.839   5.828   2.093 -0.7859  0.7734 -0.1007
 2022SOL    HW2 6193   2.830   5.732   1.976  0.7775  0.1921  0.2158
 2023SOL     OW 6194   0.835   6.246   2.205  0.3061 -0.0269 -0.4950
 2023SOL    HW1 6195   0.895   6.304   2.252  0.7363  0.0746 -1.1406
 2023SOL    HW2 6196   0.891   6.191   2.151  0.0623 -2.1189  1.1104
 2024SOL     OW 6197   5.062   3.414   2.965  0.2867 -0.3258 -0.8718
 2024SOL    HW1 6198   5.038   3.321   2.970  2.3082 -0.8983  0.2710
 2024SOL    HW2 6199   5.006   3.457   3.030 -0.3805 -0.7895 -1.1138
 2025SOL     OW 6200   5.410   2.463   0.957  0.3236 -0.2845 -0.3473
 2025SOL    HW1 6201   5.380   2.372   0.960 -0.1349 -0.1393 -0.4851
 2025SOL    HW2 6202   5.367   2.505   1.031  1.2737 -0.3918  0.2938
 2026SOL     OW 6203   3.676   2.929   1.902 -0.0384  0.1866 -0.7402
 2026SOL    HW1 6204   3.718   2.844   1.888  1.2236  0.6495 -0.0966
 2026SOL    HW2 6205   3.745   2.985   1.937 -1.2996  0.8799  0.9933
 2027SOL     OW 6206   1.298   4.138   2.629  0.1472 -0.0461  0.0519
 2027SOL    HW1 6207   1.248   4.117   2.708  0.0242  2.3810  0.7937
 2027SOL    HW2 6208   1.307   4.055   2.583 -1.1813 -1.3100  1.8042
 2028SOL     OW 6209   1.228   0.925   4.250 -0.3443 -0.3946  0.3225
 2028SOL    HW1 6210   1.254   0.914   4.341 -0.5263 -0.4019  0.3736
 2028SOL    HW2 6211   1.265   1.009   4.224 -4.1499  2.2920  1.8286
 2029SOL     OW 6212   3.625   4.055   1.829  0.0368 -0.1547 -0.4446
 2029SOL    HW1 6213   3.653   4.022   1.743  0.5447 -1.1184  0.0573
 2029SOL    HW2 6214   3.552   3.999   1.854  0.4219 -0.4348  0.0955
 2030SOL     OW 6215   3.195   1.226   4.264 -0.1027  0.2328 -0.2122
 2030SOL    HW1 6216   3.211   1.218   4.358 -1.5108  2.2773  0.3336
 2030SOL    HW2 6217   3.231   1.146   4.227  1.4035 -0.2491  1.9170
 2031SOL     OW 6218   1.174   6.258   0.470 -0.1855  0.1531 -0.1393
 2031SOL    HW1 6219   1.263   6.245   0.436 -0.0526  0.9411 -0.1094
 2031SOL    HW2 6220   1.168   6.351   0.488 -1.7637  0.6372 -2.3358
 2032SOL     OW 6221   0.426   1.681   1.243 -0.7640 -0.1910  0.3293
 2032SOL    HW1 6222   0.343   1.649   1.279 -1.5915  1.4668  0.0752
 2032SOL    HW2 6223   0.435   1.634   1.160 -1.0052 -0.9812  0.7215
 2033SOL     OW 6224   1.533   2.491   0.483 -0.9814  0.4386  0.2231
 2033SOL    HW1 6225   1.471   2.546   0.436  0.3060  1.5440 -0.2963
 2033SOL    HW2 6226   1.547   2.536   0.566  0.0813  0.9533 -0.2062
 2034SOL     OW 6227   2.416   2.565   0.147  0.7354 -0.3205 -0.2195
 2034SOL    HW1 6228   2.407   2.472   0.126  0.6798  0.2756 -4.4703
 2034SOL    HW2 6229   2.509   2.584   0.135  0.6689  0.2785  0.1286
 2035SOL     OW 6230   4.902   2.670   3.301  0.1967  0.5250  0.2482
 2035SOL    HW1 6231   4.912   2.752   3.350  0.5427  0.5737  0.1058
 2035SOL    HW2 6232   4.865   2.609   3.364  1.0967  0.4418  0.7436
 2036SOL     OW 6233   2.289   2.654   1.837  0.3220 -0.1489  0.1796
 2036SOL    HW1 6234   2.272   2.680   1.928  2.8243 -1.4383  1.2052
 2036SOL    HW2 6235   2.354   2.717   1.806  1.5405 -1.2287  0.3717
 2037SOL     OW 6236   3.956   0.250   3.215  0.4598  0.0332  0.0412
 2037SOL    HW1 6237   4.024   0.191   3.184 -0.2847 -0.6498 -0.3606
 2037SOL    HW2 6238   4.001   0.308   3.278  1.0839 -1.4027  1.0193
 2038SOL     OW 6239   6.291   1.720   1.344 -0.3959  0.0510  0.4352
 2038SOL    HW1 6240   6.260   1.647   1.291  0.4064  0.1970 -0.2739
 2038SOL    HW2 6241   6.309   1.681   1.430  0.0495 -0.5960  0.0637
 2039SOL     OW 6242   5.733   4.512   3.118  0.1130  0.1076  0.0365
 2039SOL    HW1 6243   5.727   4.607   3.134 -1.8940  0.4753 -1.9740
 2039SOL    HW2 6244   5.777   4.505   3.034 -1.1340 -0.5611 -0.6073
 2040SOL     OW 6245   3.698   4.089   3.636 -0.0444 -0.1160 -0.0001
 2040SOL    HW1 6246   3.749   4.119   3.560 -0.2926 -0.1178 -0.1696
 2040SOL    HW2 6247   3.742   4.129   3.711 -0.4307  0.7931 -0.2276
 2041SOL     OW 6248   0.404   2.674   0.038 -0.1016 -0.7723 -0.6807
 2041SOL    HW1 6249   0.421   2.602   0.099 -0.2034 -0.6153 -0.4647
 2041SOL    HW2 6250   0.489   2.717   0.028 -0.4116  0.2985  0.7632
 2042SOL     OW 6251   6.277   3.259   2.150  0.4374 -0.0839 -0.3076
 2042SOL    HW1 6252   6.311   3.257   2.239  0.4839 -2.1967 -0.2809
 2042SOL    HW2 6253   6.345   3.217   2.097 -0.2888 -0.4138 -1.0301
 2043SOL     OW 6254   2.386   3.496   2.560 -0.0378  0.1990  0.0241
 2043SOL    HW1 6255   2.419   3.480   2.648 -0.2039 -1.8577 -0.1920
 2043SOL    HW2 6256   2.375   3.408   2.522  1.2708  0.9326 -2.5269
 2044SOL     OW 6257   6.315   3.378   0.714 -0.0846 -0.1346  0.1338
 2044SOL    HW1 6258   6.310   3.350   0.806 -2.9585 -0.4193  0.0432
 2044SOL    HW2 6259   6.288   3.470   0.716  0.3433  0.0110 -0.4202
 2045SOL     OW 6260   0.781   4.201   4.075  0.1818 -0.0610  0.2405
 2045SOL    HW1 6261   0.791   4.212   4.170  0.2483 -0.3871  0.2757
 2045SOL    HW2 6262   0.762   4.288   4.042  0.1744  0.0578  0.5543
 2046SOL     OW 6263   1.274   4.752   2.134  0.1161 -0.2528 -0.0320
 2046SOL    HW1 6264   1.309   4.834   2.100  0.3259 -0.2568  0.1695
 2046SOL    HW2 6265   1.312   4.744   2.221  1.9947 -1.7113 -0.8532
 2047SOL     OW 6266   2.745   6.153   2.808 -0.2341  0.0024  0.0064
 2047SOL    HW1 6267   2.799   6.226   2.779  3.2597 -0.8096  2.9704
 2047SOL    HW2 6268   2.663   6.163   2.760  1.3775  3.2731 -2.9803
 2048SOL     OW 6269   4.563   0.712   2.562  0.1870 -0.0009  0.1823
 2048SOL    HW1 6270   4.658   0.710   2.571  0.1507  0.8124  1.0833
 2048SOL    HW2 6271   4.547   0.772   2.489  0.3655  0.7276  0.7228
 2049SOL     OW 6272   2.371   4.357   1.440 -0.4215 -0.0266 -0.4185
 2049SOL    HW1 6273   2.302   4.422   1.428  1.9927  3.0209 -0.2813
 2049SOL    HW2 6274   2.385   4.355   1.535 -0.2299 -0.5078 -0.4556
 2050SOL     OW 6275   1.356   0.876   1.133 -0.0793 -0.2787  0.2877
 2050SOL    HW1 6276   1.412   0.813   1.087  1.6785  1.6061 -0.4791
 2050SOL    HW2 6277   1.411   0.909   1.205 -1.3279 -0.3168  1.3322
 2051SOL     OW 6278   4.206   4.848   2.408  0.2905 -1.2298 -0.0861
 2051SOL    HW1 6279   4.250   4.763   2.397  0.8073 -1.2203  1.3849
 2051SOL    HW2 6280   4.252   4.906   2.347  1.0503 -1.6624  0.0383
 2052SOL     OW 6281   4.354   6.075   3.468 -0.0741  0.6262 -0.3193
 2052SOL    HW1 6282   4.325   6.026   3.391 -1.5796  0.0925  0.5022
 2052SOL    HW2 6283   4.386   6.008   3.528 -0.0108  0.9045 -0.0381
 2053SOL     OW 6284   0.097   4.627   3.313  0.1560 -0.4064  0.2100
 2053SOL    HW1 6285   0.069   4.553   3.260 -0.0268 -0.0551 -0.1941
 2053SOL    HW2 6286   0.192   4.629   3.302  0.0250  1.5314 -2.8023
 2054SOL     OW 6287   3.904   0.359   2.211  0.5555 -0.3574 -0.1822
 2054SOL    HW1 6288   3.830   0.298   2.211 -1.1992  1.5132  1.0884
 2054SOL    HW2 6289   3.932   0.364   2.303  0.4277  0.8831 -0.1697
 2055SOL     OW 6290   0.544   3.538   3.726 -0.2607  0.2057 -0.1136
 2055SOL    HW1 6291   0.482   3.575   3.788 -0.1086 -1.5312  1.2353
 2055SOL    HW2 6292   0.543   3.598   3.652 -0.5214  2.4218  1.4888
 2056SOL     OW 6293   5.671   3.489   4.379  0.4511 -0.4352 -0.2221
 2056SOL    HW1 6294   5.634   3.572   4.409 -0.8150 -1.1053  0.2622
 2056SOL    HW2 6295   5.629   3.474   4.294  1.5580 -0.0794 -0.8751
 2057SOL     OW 6296   1.713   4.613   1.513 -0.5365 -0.3357  0.2195
 2057SOL    HW1 6297   1.645   4.666   1.556  0.6441  1.4511  0.0946
 2057SOL    HW2 6298   1.705   4.527   1.554 -2.0041  0.1577  1.1483
 2058SOL     OW 6299   2.263   0.823   2.584  0.3308 -0.4211 -0.0138
 2058SOL    HW1 6300   2.274   0.777   2.667 -0.2284  0.1500  0.4016
 2058SOL    HW2 6301   2.308   0.769   2.520  1.0668 -0.7095  0.7124
 2059SOL     OW 6302   4.625   0.904   0.272  0.2060  0.1221  0.0067
 2059SOL    HW1 6303   4.699   0.958   0.245  0.4589 -0.4009 -0.3908
 2059SOL    HW2 6304   4.665   0.824   0.307 -0.1331 -0.7930 -1.5027
 2060SOL     OW 6305   2.836   3.637   3.688  0.2925  0.1732  0.1520
 2060SOL    HW1 6306   2.830   3.630   3.784 -2.1648  0.6613  0.1473
 2060SOL    HW2 6307   2.779   3.567   3.656  0.5184  0.4670 -0.9612
 2061SOL     OW 6308   1.427   5.238   3.769 -0.8536 -0.3715 -0.6536
 2061SOL    HW1 6309   1.507   5.287   3.782 -0.6591 -0.9796  1.0537
 2061SOL    HW2 6310   1.358   5.295   3.803 -0.6680 -1.0273  1.0094
 2062SOL     OW 6311   1.919   1.140   0.745 -0.3757 -0.1409  0.6304
 2062SOL    HW1 6312   1.994   1.148   0.804  0.6946  2.0911 -0.7385
 2062SOL    HW2 6313   1.860   1.079   0.789  1.9623 -1.6765  2.0709
 2063SOL     OW 6314   4.534   1.896   3.031 -0.5047 -0.3000 -0.4724
 2063SOL    HW1 6315   4.467   1.928   3.092 -0.0616 -1.1028  0.4788
 2063SOL    HW2 6316   4.578   1.826   3.078  2.5808  1.5665 -0.0257
 2064SOL     OW 6317   6.177   1.046   3.727 -0.9304 -0.0514 -0.1423
 2064SOL    HW1 6318   6.139   0.969   3.683 -0.2827  0.0694 -0.9651
 2064SOL    HW2 6319   6.235   1.084   3.661 -1.3674  1.2612  0.1833
 2065SOL     OW 6320   4.533   4.928   3.858 -0.2973  0.1552 -0.2130
 2065SOL    HW1 6321   4.465   4.993   3.838 -1.6152 -1.0066  0.1751
 2065SOL    HW2 6322   4.614   4.966   3.823 -1.1131  1.6586 -0.6273
 2066SOL     OW 6323   2.525   1.031   4.047  0.0289  0.0382  0.0922
 2066SOL    HW1 6324   2.492   1.072   3.967 -0.8155  1.1644  0.9476
 2066SOL    HW2 6325   2.588   1.094   4.082  1.4281 -1.0309 -0.2916
 2067SOL     OW 6326   3.176   4.314   4.270 -0.0339 -0.4880 -0.3971
 2067SOL    HW1 6327   3.084   4.288   4.272  0.3359 -2.0036  1.0501
 2067SOL    HW2 6328   3.182   4.387   4.331 -0.1531 -1.1053  0.3928
 2068SOL     OW 6329   4.064   3.545   3.117  0.0190 -0.4197  0.4734
 2068SOL    HW1 6330   4.008   3.512   3.048 -0.3051 -0.9153  0.9577
 2068SOL    HW2 6331   4.147   3.566   3.073 -0.1986 -0.6611 -0.0670
 2069SOL     OW 6332   5.164   1.854   1.427  0.4609 -0.3926  0.5191
 2069SOL    HW1 6333   5.091   1.859   1.488  0.7233  0.6798  0.7944
 2069SOL    HW2 6334   5.204   1.941   1.430 -0.4639  0.3817 -2.3500
 2070SOL     OW 6335   1.796   2.045   2.858  0.2605 -0.2047  0.4852
 2070SOL    HW1 6336   1.738   1.978   2.822  1.1254 -0.6708 -0.1168
 2070SOL    HW2 6337   1.810   2.018   2.949  0.8409 -1.0321  0.1645
 2071SOL     OW 6338   4.177   1.726   2.439 -0.2605 -0.4062 -0.1212
 2071SOL    HW1 6339   4.129   1.720   2.521  1.8183 -0.9702  1.2118
 2071SOL    HW2 6340   4.136   1.662   2.381 -0.5129 -1.5875  1.2694
 2072SOL     OW 6341   1.856   1.863   1.526  0.5762  0.9742 -0.0098
 2072SOL    HW1 6342   1.799   1.898   1.594 -0.2095  0.3630 -0.3170
 2072SOL    HW2 6343   1.944   1.869   1.562  0.2058  0.9227  0.9515
 2073SOL     OW 6344   0.700   2.699   3.130  0.2242  0.1651 -0.9431
 2073SOL    HW1 6345   0.698   2.617   3.179  1.5046  0.1601 -0.8356
 2073SOL    HW2 6346   0.736   2.763   3.192  0.9410  0.3812 -1.5569
 2074SOL     OW 6347   4.609   5.773   0.708 -0.3939 -0.0472 -0.2690
 2074SOL    HW1 6348   4.673   5.708   0.680 -0.6004 -0.7510  0.7564
 2074SOL    HW2 6349   4.532   5.757   0.653 -1.0051 -1.7859  0.9037
 2075SOL     OW 6350   0.163   1.070   3.790  0.6580 -0.4447 -0.3654
 2075SOL    HW1 6351   0.210   1.149   3.761  1.6560 -0.7443  0.3246
 2075SOL    HW2 6352   0.232   1.013   3.824 -0.0798 -1.4918 -0.5491
 2076SOL     OW 6353   0.280   4.684   4.227  0.3149 -0.6681 -0.1043
 2076SOL    HW1 6354   0.238   4.764   4.193  0.6954  0.3807  1.6343
 2076SOL    HW2 6355   0.280   4.624   4.152 -0.0900  0.8973 -1.5031
 2077SOL     OW 6356   5.862   5.630   4.516 -0.0639  0.3063  0.6346
 2077SOL    HW1 6357   5.775   5.634   4.477 -0.9469  1.4447  2.4568
 2077SOL    HW2 6358   5.921   5.655   4.446 -1.3678  1.0890 -0.2685
 2078SOL     OW 6359   5.572   3.642   3.401  0.2322  0.0711 -0.2512
 2078SOL    HW1 6360   5.579   3.723   3.452  0.6579 -0.6816  0.9587
 2078SOL    HW2 6361   5.632   3.581   3.444  0.0671 -0.8515 -1.2387
 2079SOL     OW 6362   2.904   2.031   0.547  0.0420  0.4170 -0.2675
 2079SOL    HW1 6363   2.885   2.033   0.454 -0.1068  1.7937 -0.2492
 2079SOL    HW2 6364   2.822   2.059   0.589  0.6306  1.7405  0.1112
 2080SOL     OW 6365   4.257   4.058   0.132  0.8688  0.4886  0.1094
 2080SOL    HW1 6366   4.201   4.016   0.067  2.0184 -0.9129 -0.0726
 2080SOL    HW2 6367   4.329   3.996   0.145  0.1742 -0.0354  3.6100
 2081SOL     OW 6368   5.080   5.437   0.100 -0.7560  0.0692  0.6992
 2081SOL    HW1 6369   5.038   5.365   0.147  0.3343 -0.1302  1.4431
 2081SOL    HW2 6370   5.065   5.417   0.007 -1.0203 -0.7759  0.9044
 2082SOL     OW 6371   4.989   5.051   3.801 -1.0330 -0.3645 -0.3476
 2082SOL    HW1 6372   5.022   4.971   3.761 -0.4116 -0.6266  0.6247
 2082SOL    HW2 6373   5.043   5.064   3.879 -1.0743  1.0386 -0.4926
 2083SOL     OW 6374   0.247   4.339   0.495 -0.0203 -0.2912 -0.1223
 2083SOL    HW1 6375   0.246   4.293   0.411 -0.6202 -0.2900 -0.1227
 2083SOL    HW2 6376   0.316   4.296   0.545  0.7963  0.1232 -0.8377
 2084SOL     OW 6377   0.802   1.303   3.161  0.0942 -0.2108  0.5197
 2084SOL    HW1 6378   0.842   1.277   3.244  0.0448 -0.3371  0.5039
 2084SOL    HW2 6379   0.735   1.367   3.186  1.3304  1.2289  0.4291
 2085SOL     OW 6380   0.006   0.164   2.145 -0.2642 -0.5610  0.0425
 2085SOL    HW1 6381  -0.047   0.241   2.126 -0.6519 -1.3161 -2.9682
 2085SOL    HW2 6382  -0.053   0.106   2.193 -0.2411  0.5407  1.5666
 2086SOL     OW 6383   4.880   2.557   3.940  0.0279  0.5804 -0.0811
 2086SOL    HW1 6384   4.824   2.571   4.017 -0.5409  2.3390 -0.7116
 2086SOL    HW2 6385   4.854   2.471   3.907 -0.2680  0.1267  1.2399
 2087SOL     OW 6386   4.760   0.275   3.371  0.2227 -0.1177 -0.3969
 2087SOL    HW1 6387   4.683   0.329   3.352  0.1802 -0.2190 -0.5177
 2087SOL    HW2 6388   4.731   0.213   3.438  0.0485 -0.4884 -0.8028
 2088SOL     OW 6389   6.241   2.805   3.138 -0.3591  0.2745  0.2005
 2088SOL    HW1 6390   6.222   2.897   3.117  1.8288  0.9050  0.4680
 2088SOL    HW2 6391   6.222   2.797   3.231 -3.3838 -0.5311 -0.2895
 2089SOL     OW 6392   0.993   2.934   0.694  0.5400 -0.2079 -0.3016
 2089SOL    HW1 6393   0.972   3.023   0.667 -0.2250 -0.3402 -0.1848
 2089SOL    HW2 6394   0.931   2.915   0.765  1.3919 -0.4632  0.4153
 2090SOL     OW 6395   1.351   1.198   4.213 -0.0295 -0.5610  0.2222
 2090SOL    HW1 6396   1.357   1.287   4.178  1.3433 -1.1371 -1.2654
 2090SOL    HW2 6397   1.431   1.187   4.264  0.9445 -1.4845 -1.3184
 2091SOL     OW 6398   2.615   2.522   3.531 -0.3090  0.3542  0.2298
 2091SOL    HW1 6399   2.636   2.615   3.517  0.9557 -0.0367 -0.7940
 2091SOL    HW2 6400   2.593   2.517   3.624  0.2859  1.5688  0.4775
 2092SOL     OW 6401   0.776   2.065   3.479 -0.7903 -0.0108 -0.6282
 2092SOL    HW1 6402   0.795   2.128   3.550 -2.6144 -1.3689  1.3178
 2092SOL    HW2 6403   0.715   2.111   3.422 -0.7827  0.5427 -0.2135
 2093SOL     OW 6404   3.907   3.158   2.320 -0.4997 -0.1088  0.2371
 2093SOL    HW1 6405   3.974   3.211   2.363  0.2984 -2.5398  2.6222
 2093SOL    HW2 6406   3.830   3.166   2.376 -0.9404 -0.1619 -0.3426
 2094SOL     OW 6407   0.640   6.275   1.930  0.3556 -0.4876 -0.0506
 2094SOL    HW1 6408   0.608   6.272   2.020  0.4104 -0.7990 -0.0392
 2094SOL    HW2 6409   0.708   6.208   1.927  1.2980  0.4136  0.0321
 2095SOL     OW 6410   5.822   2.914   0.588  0.0962 -0.6349  0.2637
 2095SOL    HW1 6411   5.807   2.948   0.676 -2.5072  1.3438 -0.6952
 2095SOL    HW2 6412   5.794   2.823   0.593  3.2865 -1.8453  2.0081
 2096SOL     OW 6413   4.013   5.196   1.720  0.5674  0.0092 -0.2424
 2096SOL    HW1 6414   4.031   5.281   1.680 -1.9136  2.2298  2.4007
 2096SOL    HW2 6415   3.918   5.185   1.712  0.5912 -1.7888  0.7939
 2097SOL     OW 6416   4.719   5.909   3.662 -0.3948 -0.2117 -0.3705
 2097SOL    HW1 6417   4.638   5.886   3.707 -0.1869 -1.3256 -0.5037
 2097SOL    HW2 6418   4.719   5.855   3.584  0.5195 -0.3099 -0.3251
 2098SOL     OW 6419   2.443   3.978   2.217 -0.5243  0.2579 -0.1124
 2098SOL    HW1 6420   2.381   3.919   2.175  1.6618 -1.4352 -1.3841
 2098SOL    HW2 6421   2.475   4.034   2.147 -1.1675  1.7657  0.7081
 2099SOL     OW 6422   5.005   5.400   4.268 -0.0127  0.5179  0.3937
 2099SOL    HW1 6423   5.027   5.463   4.337 -0.5664 -0.9327  2.0401
 2099SOL    HW2 6424   4.912   5.381   4.282 -0.4333  0.8482 -1.4427
 2100SOL     OW 6425   5.166   3.176   0.837  0.4847 -0.1587 -0.3995
 2100SOL    HW1 6426   5.221   3.133   0.903  1.3269  2.4821  0.9479
 2100SOL    HW2 6427   5.088   3.204   0.886  0.5978  0.8852 -0.7687
 2101SOL     OW 6428   4.244   3.367   0.667 -0.1207 -0.4073 -0.1522
 2101SOL    HW1 6429   4.267   3.433   0.732  0.5242  2.3082 -2.7118
 2101SOL    HW2 6430   4.323   3.314   0.658  0.4501  0.3672  0.0529
 2102SOL     OW 6431   3.253   3.786   4.170 -0.4281 -0.1050 -0.0720
 2102SOL    HW1 6432   3.227   3.731   4.097 -2.6770  2.2593 -1.4107
 2102SOL    HW2 6433   3.209   3.870   4.154  1.8931  1.8888  2.1182
 2103SOL     OW 6434   5.991   5.241   2.161 -0.1400 -0.3844  0.1023
 2103SOL    HW1 6435   5.906   5.232   2.203  0.2810  0.6722  1.3424
 2103SOL    HW2 6436   6.037   5.159   2.181 -0.4221 -0.4326  0.5808
 2104SOL     OW 6437   5.020   4.199   1.187  0.4282 -0.6271 -0.2809
 2104SOL    HW1 6438   4.943   4.247   1.215  1.9778  3.0877 -1.2221
 2104SOL    HW2 6439   5.005   4.181   1.094  0.9561  1.3230 -0.8446
 2105SOL     OW 6440   5.968   2.978   0.901  0.7070  0.1471  0.0890
 2105SOL    HW1 6441   5.925   2.928   0.971 -1.3354  0.5773 -0.6985
 2105SOL    HW2 6442   5.993   3.060   0.942 -0.5018  0.4161  0.3828
 2106SOL     OW 6443   4.562   1.665   2.780 -0.7190 -0.0625  0.4566
 2106SOL    HW1 6444   4.550   1.574   2.752 -0.7894 -0.1818  0.8689
 2106SOL    HW2 6445   4.517   1.670   2.864  0.3760  0.0269  1.0608
 2107SOL     OW 6446   5.657   5.550   3.391 -0.2845  0.3463 -0.3930
 2107SOL    HW1 6447   5.676   5.457   3.384 -1.1693 -0.0600  1.4327
 2107SOL    HW2 6448   5.571   5.560   3.349 -1.2693 -0.2062  1.2932
 2108SOL     OW 6449   1.275   2.731   2.940 -0.5021 -0.1519  0.4795
 2108SOL    HW1 6450   1.221   2.686   2.875  0.1452 -0.1200 -0.1153
 2108SOL    HW2 6451   1.214   2.759   3.008 -1.4728  1.0046 -0.7439
 2109SOL     OW 6452   2.337   1.402   3.106  0.1799  0.1130 -0.3590
 2109SOL    HW1 6453   2.286   1.446   3.175 -0.7194 -0.4069 -0.6534
 2109SOL    HW2 6454   2.284   1.326   3.083  1.3105 -0.6976 -0.4172
 2110SOL     OW 6455   2.263   3.753   2.604 -0.4710 -0.4319  0.0487
 2110SOL    HW1 6456   2.282   3.664   2.574 -2.0559 -0.3126 -1.6310
 2110SOL    HW2 6457   2.210   3.741   2.682 -0.4410 -0.9507 -0.0011
 2111SOL     OW 6458   1.698   4.349   3.843 -0.0365  0.0866 -0.0474
 2111SOL    HW1 6459   1.766   4.375   3.781 -1.3146  3.4977 -0.4425
 2111SOL    HW2 6460   1.617   4.380   3.803 -2.0023 -3.3416  0.5661
 2112SOL     OW 6461   0.961   4.688   1.929  0.0886  0.2932 -0.2529
 2112SOL    HW1 6462   0.884   4.643   1.895 -0.0233  0.3234 -0.0472
 2112SOL    HW2 6463   1.035   4.647   1.884 -0.1099  1.1160 -1.4073
 2113SOL     OW 6464   0.353   0.861   2.077  0.6332 -0.5951  0.1830
 2113SOL    HW1 6465   0.391   0.943   2.043 -1.2228 -0.2429 -1.4070
 2113SOL    HW2 6466   0.303   0.888   2.154 -0.3097 -0.0766 -0.5697
 2114SOL     OW 6467   1.798   6.172   1.688 -0.7932  0.0134  0.3885
 2114SOL    HW1 6468   1.865   6.133   1.632 -0.5415  0.9554  0.0065
 2114SOL    HW2 6469   1.834   6.164   1.776  2.1852  4.2345  0.1403
 2115SOL     OW 6470   3.150   3.579   2.832 -0.3064 -0.5617  0.5854
 2115SOL    HW1 6471   3.117   3.663   2.802  0.1196 -0.3241  0.7697
 2115SOL    HW2 6472   3.179   3.534   2.752 -0.4380 -0.4922  0.4986
 2116SOL     OW 6473   0.670   4.751   2.407 -0.1768 -0.3773  0.0555
 2116SOL    HW1 6474   0.719   4.678   2.444  0.1241 -0.4774 -0.5089
 2116SOL    HW2 6475   0.657   4.727   2.315 -0.6573 -0.0191  0.0224
 2117SOL     OW 6476   1.283   3.417   4.056 -0.0713  0.1468  0.1106
 2117SOL    HW1 6477   1.246   3.500   4.026 -2.1562 -1.1822 -1.6783
 2117SOL    HW2 6478   1.376   3.422   4.035 -0.6606  0.7616 -3.9071
 2118SOL     OW 6479   4.407   6.083   2.752 -0.4467 -0.0856  0.1872
 2118SOL    HW1 6480   4.456   6.163   2.735 -1.6991  0.4292 -1.6005
 2118SOL    HW2 6481   4.469   6.027   2.800  1.1263  1.2378 -0.1058
 2119SOL     OW 6482   4.565   3.544   0.609  0.3285  0.1452 -0.2302
 2119SOL    HW1 6483   4.515   3.562   0.688 -0.7775  0.0229 -0.8695
 2119SOL    HW2 6484   4.574   3.628   0.565 -0.7642 -0.0584 -0.9070
 2120SOL     OW 6485   2.650   2.584   3.073  0.1629 -0.3892 -0.4006
 2120SOL    HW1 6486   2.705   2.637   3.131  1.6350 -1.4154 -0.7431
 2120SOL    HW2 6487   2.572   2.564   3.126  1.1513 -0.7561  1.0434
 2121SOL     OW 6488   0.642   3.027   2.887 -0.4275 -0.2672 -0.0137
 2121SOL    HW1 6489   0.708   2.958   2.876  1.4229  1.0352  1.6643
 2121SOL    HW2 6490   0.628   3.032   2.981 -0.3309  1.7043 -0.0309
 2122SOL     OW 6491   3.252   6.262   3.038 -0.1298  0.1710 -0.0041
 2122SOL    HW1 6492   3.287   6.252   3.126 -2.0453  0.1840  0.8618
 2122SOL    HW2 6493   3.174   6.205   3.036 -1.0517  1.3449 -1.1154
 2123SOL     OW 6494   3.784   0.917   0.821  0.0851 -0.0693 -0.2490
 2123SOL    HW1 6495   3.763   1.009   0.806 -1.2802 -0.0822  1.1054
 2123SOL    HW2 6496   3.875   0.917   0.850  0.1398  0.8344 -0.3750
 2124SOL     OW 6497   5.010   6.237   1.484 -0.0532  0.0652  0.6614
 2124SOL    HW1 6498   5.034   6.197   1.400 -1.0984 -0.6310  0.6544
 2124SOL    HW2 6499   5.062   6.317   1.488 -1.7472  1.5825 -1.8755
 2125SOL     OW 6500   2.876   3.553   0.282 -0.1468  0.3442 -0.3978
 2125SOL    HW1 6501   2.815   3.615   0.240  1.4888  1.7048 -1.0070
 2125SOL    HW2 6502   2.872   3.575   0.375 -0.9274  0.0507 -0.3483
 2126SOL     OW 6503   0.554   2.610   2.754  0.0070  0.1259  0.1287
 2126SOL    HW1 6504   0.631   2.610   2.697  0.1341 -0.1784  0.2993
 2126SOL    HW2 6505   0.585   2.575   2.837  0.2962  2.2167  1.0306
 2127SOL     OW 6506   5.517   2.806   1.404 -0.2302  0.1024 -0.4816
 2127SOL    HW1 6507   5.587   2.864   1.433  2.0114 -1.4173 -2.1129
 2127SOL    HW2 6508   5.440   2.831   1.455  1.7417  1.1871  2.3925
 2128SOL     OW 6509   4.813   5.105   2.794  0.2646  0.7621  0.6806
 2128SOL    HW1 6510   4.796   5.162   2.870  1.6449  0.2329  1.4582
 2128SOL    HW2 6511   4.801   5.016   2.828  0.6071  0.5237  0.1887
 2129SOL     OW 6512   3.394   2.332   0.776  0.4954 -0.4824  0.1501
 2129SOL    HW1 6513   3.480   2.370   0.796  0.0231  1.1269 -0.5116
 2129SOL    HW2 6514   3.363   2.382   0.701 -1.3450 -0.4457  0.8252
 2130SOL     OW 6515   4.683   6.169   3.620  0.0516 -0.2113  0.1772
 2130SOL    HW1 6516   4.588   6.173   3.609  0.2120  0.9121 -1.5642
 2130SOL    HW2 6517   4.702   6.075   3.624 -0.9627 -0.8563 -3.2016
 2131SOL     OW 6518   5.750   0.368   0.085 -0.3772 -0.5080 -0.4128
 2131SOL    HW1 6519   5.770   0.278   0.059 -0.9860 -0.7937  0.0737
 2131SOL    HW2 6520   5.654   0.372   0.088 -0.3649  0.1966 -0.5501
 2132SOL     OW 6521   5.155   2.563   1.046 -0.3201  0.2888 -0.7616
 2132SOL    HW1 6522   5.177   2.656   1.050  2.7830 -0.2580  0.3693
 2132SOL    HW2 6523   5.085   2.553   1.111  1.1832  1.6238  1.3448
 2133SOL     OW 6524   2.458   1.267   3.875  0.4703 -0.3749  0.4905
 2133SOL    HW1 6525   2.490   1.256   3.786 -0.1880 -1.3562  0.3373
 2133SOL    HW2 6526   2.479   1.357   3.898  0.2091  0.0638 -0.8431
 2134SOL     OW 6527   0.933   5.913   3.542 -0.5422  0.1346  0.3561
 2134SOL    HW1 6528   0.934   5.832   3.492 -0.0735  0.3998 -0.0814
 2134SOL    HW2 6529   0.965   5.980   3.481 -0.4871  0.5657  0.8391
 2135SOL     OW 6530   2.176   3.275   0.383 -0.4546  0.0446  0.4279
 2135SOL    HW1 6531   2.222   3.356   0.357 -0.9323  0.1792 -0.0418
 2135SOL    HW2 6532   2.208   3.209   0.321  0.4789 -0.3299  1.2542
 2136SOL     OW 6533   1.176   0.670   1.183  0.1592  0.0893  0.3262
 2136SOL    HW1 6534   1.134   0.619   1.115  1.1101 -0.4617  0.1080
 2136SOL    HW2 6535   1.207   0.749   1.139  0.9556 -0.3602  0.0354
 2137SOL     OW 6536   3.426   4.448   3.081 -0.3870  0.8032  0.6318
 2137SOL    HW1 6537   3.331   4.443   3.067 -0.4344 -0.8259  1.0948
 2137SOL    HW2 6538   3.447   4.540   3.069 -1.3938  0.8546 -3.1443
 2138SOL     OW 6539   0.139   6.361   4.496 -0.1557 -0.1313 -0.0290
 2138SOL    HW1 6540   0.166   6.279   4.536  1.9102  0.5113  0.1128
 2138SOL    HW2 6541   0.127   6.421   4.569  1.6618  0.5092 -0.1640
 2139SOL     OW 6542   1.878   1.600   2.495 -0.1121  0.1536 -0.2988
 2139SOL    HW1 6543   1.939   1.647   2.438  0.7395 -0.6830 -0.1453
 2139SOL    HW2 6544   1.913   1.511   2.498  0.8403  0.4077  2.6735
 2140SOL     OW 6545   4.427   5.867   0.054  0.5469  0.6571  0.2992
 2140SOL    HW1 6546   4.358   5.881  -0.011 -2.7233  1.4873  3.3637
 2140SOL    HW2 6547   4.459   5.778   0.036 -2.2461 -0.3478 -0.8155
 2141SOL     OW 6548   3.317   0.961   4.443  0.0534  0.2718  0.4480
 2141SOL    HW1 6549   3.406   0.993   4.435  0.1790  0.4384  1.9394
 2141SOL    HW2 6550   3.271   1.030   4.491  0.0659 -1.1879  2.8447
 2142SOL     OW 6551   6.132   2.195   4.434 -0.3829  0.2912  0.1259
 2142SOL    HW1 6552   6.101   2.161   4.518  1.6000 -0.8277  0.5147
 2142SOL    HW2 6553   6.099   2.134   4.369 -1.3923  0.8091  0.1061
 2143SOL     OW 6554   2.064   5.715   4.495  0.0274 -0.0888 -0.0974
 2143SOL    HW1 6555   2.072   5.703   4.401 -2.9099  0.2153 -0.5869
 2143SOL    HW2 6556   2.047   5.808   4.506  0.7881 -0.0298  0.8474
 2144SOL     OW 6557   1.766   0.046   1.799 -0.2509 -0.2449 -0.5025
 2144SOL    HW1 6558   1.818   0.043   1.880 -1.4524  0.0983  0.3456
 2144SOL    HW2 6559   1.779  -0.039   1.759 -1.0807 -1.2358  1.1033
 2145SOL     OW 6560   2.350   1.955   1.712  0.1720 -0.0358 -0.2670
 2145SOL    HW1 6561   2.330   1.900   1.788 -1.6599 -0.1184 -0.7179
 2145SOL    HW2 6562   2.430   2.002   1.737 -0.9169  0.8218  2.2301
 2146SOL     OW 6563   5.005   4.352   4.389 -0.1376  0.3148 -0.2803
 2146SOL    HW1 6564   5.005   4.309   4.304 -0.6596  0.8656 -0.5744
 2146SOL    HW2 6565   5.057   4.295   4.445  1.2716  0.5455 -1.2557
 2147SOL     OW 6566   6.310   0.944   0.469 -0.9610 -0.2768 -0.7692
 2147SOL    HW1 6567   6.276   1.027   0.502  0.2639 -0.4326  1.2466
 2147SOL    HW2 6568   6.376   0.969   0.405 -2.8472  0.0778 -2.8054
 2148SOL     OW 6569   0.478   5.486   2.438 -0.1568 -0.3521 -0.4621
 2148SOL    HW1 6570   0.495   5.525   2.352  1.0845  0.6948  0.1927
 2148SOL    HW2 6571   0.407   5.538   2.474 -1.0719 -1.1445 -1.0082
 2149SOL     OW 6572   6.316   3.063   0.868 -0.0215  0.0713 -0.3140
 2149SOL    HW1 6573   6.367   3.108   0.936  0.9257  0.5481 -1.2902
 2149SOL    HW2 6574   6.323   2.971   0.891  1.6558  0.0706 -0.5884
 2150SOL     OW 6575   0.347   0.713   2.767 -0.1485 -0.0939  0.1493
 2150SOL    HW1 6576   0.304   0.644   2.717 -2.1532  0.2721  1.1472
 2150SOL    HW2 6577   0.275   0.760   2.809  1.2724  0.1587  2.6829
 2151SOL     OW 6578   0.250   4.614   0.457  0.3156 -0.2479  0.0056
 2151SOL    HW1 6579   0.224   4.522   0.454 -1.4859  0.1968  0.0953
 2151SOL    HW2 6580   0.247   4.643   0.366 -1.3800  0.2105  0.1427
 2152SOL     OW 6581   6.147   3.168   0.682  0.2724 -0.1173 -0.4558
 2152SOL    HW1 6582   6.192   3.118   0.751 -0.0296 -0.1113 -0.2500
 2152SOL    HW2 6583   6.180   3.257   0.692 -1.1531  0.3494  0.9670
 2153SOL     OW 6584   0.896   3.494   2.226  0.1585 -0.2001  0.7988
 2153SOL    HW1 6585   0.927   3.440   2.154  1.7900 -2.1262  2.6584
 2153SOL    HW2 6586   0.802   3.481   2.228  0.0643 -0.1471 -0.8260
 2154SOL     OW 6587   5.343   2.235   0.316 -0.0258 -0.2379 -0.0796
 2154SOL    HW1 6588   5.381   2.275   0.237 -0.9566 -1.0592 -1.0001
 2154SOL    HW2 6589   5.404   2.165   0.339  0.4695  0.2727  0.2118
 2155SOL     OW 6590   3.584   6.054   3.095 -0.5504 -0.2448 -0.0919
 2155SOL    HW1 6591   3.678   6.070   3.105  0.4949 -3.9546 -0.6172
 2155SOL    HW2 6592   3.559   6.102   3.016  0.8917  0.7915  0.0043
 2156SOL     OW 6593   1.950   1.265   1.289 -0.5137 -0.2565 -0.3246
 2156SOL    HW1 6594   1.950   1.169   1.292  1.1503 -0.3440  1.6406
 2156SOL    HW2 6595   1.995   1.291   1.369  2.7958  2.0518 -2.4351
 2157SOL     OW 6596   4.432   0.203   3.910  0.3473  0.1576  0.0636
 2157SOL    HW1 6597   4.385   0.226   3.990  0.4188 -0.7772  0.3989
 2157SOL    HW2 6598   4.482   0.282   3.889 -0.3641  0.7334  0.4176
 2158SOL     OW 6599   5.289   4.189   4.168  0.6567  0.0091 -0.2777
 2158SOL    HW1 6600   5.330   4.198   4.254 -0.1311  2.4878  0.0198
 2158SOL    HW2 6601   5.312   4.270   4.123 -1.2131  0.0818 -1.2951
 2159SOL     OW 6602   3.115   4.146   3.613  0.2609 -0.3615 -0.0603
 2159SOL    HW1 6603   3.055   4.179   3.546  1.7036  1.7382 -0.5537
 2159SOL    HW2 6604   3.127   4.220   3.672  2.7891 -0.2964 -0.4237
 2160SOL     OW 6605   4.152   2.719   0.341 -0.4639  0.3517  0.2177
 2160SOL    HW1 6606   4.151   2.632   0.302  1.1351 -0.1150  1.0217
 2160SOL    HW2 6607   4.214   2.769   0.289  0.0142  0.4124  0.8186
 2161SOL     OW 6608   5.262   0.675   0.328 -0.3115  0.2782  0.0347
 2161SOL    HW1 6609   5.339   0.641   0.373  0.1851  1.4854  0.1741
 2161SOL    HW2 6610   5.203   0.701   0.399 -0.3648  0.3725 -0.0434
 2162SOL     OW 6611   5.993   6.327   0.064  0.1525  0.2975 -0.3927
 2162SOL    HW1 6612   5.940   6.352  -0.012 -0.0197 -0.7976 -0.6651
 2162SOL    HW2 6613   6.021   6.410   0.102 -0.5068  0.8850 -1.1265
 2163SOL     OW 6614   3.613   1.672   4.097  0.6332 -0.3673  0.0755
 2163SOL    HW1 6615   3.565   1.590   4.098  0.1054 -0.0848 -0.6101
 2163SOL    HW2 6616   3.580   1.718   4.020  0.5767  0.6799  0.6850
 2164SOL     OW 6617   3.526   1.838   2.915 -0.2457 -0.0572  0.0429
 2164SOL    HW1 6618   3.492   1.749   2.910 -0.9349  0.1758  0.3619
 2164SOL    HW2 6619   3.490   1.874   2.996 -0.7011  0.7913 -0.5023
 2165SOL     OW 6620   6.382   0.271   3.316  0.3722  0.2683  0.0651
 2165SOL    HW1 6621   6.330   0.309   3.245 -1.7079 -0.3356  1.1070
 2165SOL    HW2 6622   6.464   0.320   3.314 -0.9191  2.7853 -0.5458
 2166SOL     OW 6623   3.835   0.431   1.645  0.7370 -0.6444 -0.3750
 2166SOL    HW1 6624   3.786   0.355   1.676  1.0201  0.0195  2.0333
 2166SOL    HW2 6625   3.922   0.422   1.683  0.8891  0.7040 -0.3090
 2167SOL     OW 6626   2.377   0.824   3.287 -0.2584  0.0652 -0.0324
 2167SOL    HW1 6627   2.322   0.821   3.366 -1.6339  0.3494 -0.9084
 2167SOL    HW2 6628   2.334   0.889   3.231 -0.6298 -1.5833 -1.8753
 2168SOL     OW 6629   4.255   1.711   0.045  0.1296  0.3210  0.1001
 2168SOL    HW1 6630   4.181   1.764   0.074 -0.2561 -0.0813 -0.1377
 2168SOL    HW2 6631   4.270   1.649   0.117 -0.0605  0.1021 -0.0486
 2169SOL     OW 6632   3.594   2.825   2.187  0.3255  0.2446 -0.5394
 2169SOL    HW1 6633   3.634   2.741   2.165  0.4809 -0.1102  0.8930
 2169SOL    HW2 6634   3.615   2.839   2.279  0.9730  2.2529 -0.8750
 2170SOL     OW 6635   3.865   1.197   2.723 -0.7687 -0.1163  0.4980
 2170SOL    HW1 6636   3.913   1.175   2.643 -0.6648  1.5983  0.0087
 2170SOL    HW2 6637   3.908   1.276   2.755 -1.3032 -0.3269  1.8418
 2171SOL     OW 6638   3.921   5.335   0.450 -0.3457  0.3869  0.0592
 2171SOL    HW1 6639   3.946   5.271   0.384 -0.4853 -2.8425  2.6329
 2171SOL    HW2 6640   3.986   5.405   0.441  2.3016 -1.8496 -0.9131
 2172SOL     OW 6641   2.564   4.416   3.873 -0.4366 -0.7673 -0.3024
 2172SOL    HW1 6642   2.560   4.321   3.879  1.9712 -0.9808  0.0518
 2172SOL    HW2 6643   2.645   4.439   3.919 -1.0409  1.5061 -0.1480
 2173SOL     OW 6644   5.935   5.421   0.261  0.1774  0.0062  0.2262
 2173SOL    HW1 6645   5.950   5.359   0.333 -0.3275 -0.5781 -0.1504
 2173SOL    HW2 6646   5.941   5.507   0.302 -0.9552 -0.3047  1.1875
 2174SOL     OW 6647   3.122   1.995   2.345 -0.2742  0.0476 -0.6080
 2174SOL    HW1 6648   3.111   1.972   2.437 -2.0485  2.0434 -0.1607
 2174SOL    HW2 6649   3.205   2.042   2.341 -0.3192  0.1875  0.0279
 2175SOL     OW 6650   3.094   0.478   3.725  0.4758 -0.0058 -0.1422
 2175SOL    HW1 6651   3.063   0.434   3.646  0.3364 -0.8229  0.3412
 2175SOL    HW2 6652   3.189   0.472   3.721  0.4703  0.0130 -0.2812
 2176SOL     OW 6653   6.101   4.393   2.968  0.1016 -0.5777 -0.8735
 2176SOL    HW1 6654   6.162   4.389   2.893  1.6440 -1.4080  0.3038
 2176SOL    HW2 6655   6.017   4.368   2.931  0.7892 -0.9788 -2.3376
 2177SOL     OW 6656   3.184   3.750   0.283  0.1188  0.7124 -0.2848
 2177SOL    HW1 6657   3.114   3.811   0.309 -0.2478  0.9307 -1.6234
 2177SOL    HW2 6658   3.225   3.725   0.365  0.0073  2.4234  0.3825
 2178SOL     OW 6659   5.999   4.103   2.304  0.4033 -0.3753 -0.4208
 2178SOL    HW1 6660   6.074   4.043   2.303  0.0765 -1.0086  1.6992
 2178SOL    HW2 6661   5.935   4.060   2.361  0.2091  1.9582  1.4680
 2179SOL     OW 6662   6.221   3.986   2.016 -0.2040 -0.1661 -0.6404
 2179SOL    HW1 6663   6.164   3.970   1.941 -0.0835  0.6415 -0.9291
 2179SOL    HW2 6664   6.186   3.930   2.085 -0.8161 -0.3257 -1.0614
 2180SOL     OW 6665   5.930   4.929   2.034 -0.2172  0.4486  0.0632
 2180SOL    HW1 6666   5.974   4.928   1.950 -0.2522  2.4684 -0.0741
 2180SOL    HW2 6667   5.994   4.964   2.095 -0.2536 -0.8059  0.8886
 2181SOL     OW 6668   5.428   2.042   2.559  0.0482 -0.1465  0.3460
 2181SOL    HW1 6669   5.335   2.045   2.537 -0.1180 -0.1090  1.0015
 2181SOL    HW2 6670   5.430   2.047   2.655  0.7718  1.3670  0.3225
 2182SOL     OW 6671   1.035   3.742   1.021  0.4833  0.1531 -0.4924
 2182SOL    HW1 6672   1.009   3.833   1.034  0.1277  0.1708 -1.2317
 2182SOL    HW2 6673   1.118   3.734   1.067  1.3721  1.3177 -1.7316
 2183SOL     OW 6674   2.686   1.230   2.769 -0.0845 -0.3186  0.0109
 2183SOL    HW1 6675   2.727   1.144   2.756 -1.0788 -0.8804  0.3875
 2183SOL    HW2 6676   2.615   1.213   2.831 -0.6192  0.6905 -0.2931
 2184SOL     OW 6677   0.655   0.527   4.240 -0.0139 -0.4405 -0.2962
 2184SOL    HW1 6678   0.748   0.551   4.242 -0.2439  0.5288  0.2320
 2184SOL    HW2 6679   0.640   0.480   4.322 -0.6274  2.4352  1.5386
 2185SOL     OW 6680   2.978   6.340   1.902 -0.3528 -0.2175  0.1468
 2185SOL    HW1 6681   2.952   6.265   1.956 -1.0945 -1.0617 -1.2627
 2185SOL    HW2 6682   3.037   6.302   1.837  1.2727  0.9368  0.8153
 2186SOL     OW 6683   3.728   5.134   2.332  0.6055  0.4323 -0.8648
 2186SOL    HW1 6684   3.816   5.126   2.370 -0.3673  3.3388  3.3022
 2186SOL    HW2 6685   3.716   5.228   2.319 -1.9404  0.2105 -1.0529
 2187SOL     OW 6686   1.636   4.092   0.701 -0.0547  0.5040  0.1715
 2187SOL    HW1 6687   1.700   4.158   0.673 -1.0657  1.4454 -0.0453
 2187SOL    HW2 6688   1.599   4.127   0.782 -1.7361  1.0749 -0.7482
 2188SOL     OW 6689   3.284   4.520   4.003 -0.4743  0.2343 -0.8747
 2188SOL    HW1 6690   3.280   4.610   3.971 -0.1811  0.6795  0.2519
 2188SOL    HW2 6691   3.375   4.495   3.991 -0.6817 -0.1617 -1.7620
 2189SOL     OW 6692   0.740   2.735   3.613 -0.6069 -0.6677 -0.1496
 2189SOL    HW1 6693   0.807   2.709   3.550 -1.7181 -1.2386 -1.1784
 2189SOL    HW2 6694   0.751   2.830   3.623  0.5041 -0.7838 -0.0557
 2190SOL     OW 6695   4.252   2.642   1.209 -0.3298 -0.1200 -0.0040
 2190SOL    HW1 6696   4.198   2.578   1.256 -0.6990  0.5582  0.5361
 2190SOL    HW2 6697   4.190   2.705   1.173  0.0238 -0.0785 -0.5658
 2191SOL     OW 6698   0.995   4.049   3.206  0.3023 -0.0172 -0.2757
 2191SOL    HW1 6699   1.040   3.964   3.202 -0.4316 -0.4211 -0.4196
 2191SOL    HW2 6700   0.906   4.027   3.232  0.2588  0.7898  0.3521
 2192SOL     OW 6701   3.380   0.060   0.235 -0.1699 -0.0649 -0.3465
 2192SOL    HW1 6702   3.286   0.070   0.223  0.0767  0.7040 -3.1699
 2192SOL    HW2 6703   3.399   0.102   0.319 -2.2342  0.3708 -0.0050
 2193SOL     OW 6704   5.860   5.089   1.054 -0.3293 -0.1766 -0.0141
 2193SOL    HW1 6705   5.908   5.018   1.096 -0.3626 -0.6107 -0.6813
 2193SOL    HW2 6706   5.792   5.113   1.117 -0.5737 -1.0207  0.0678
 2194SOL     OW 6707   5.874   1.021   3.997  0.1337 -0.6383 -0.5485
 2194SOL    HW1 6708   5.842   1.007   3.908  1.4845 -0.6125 -1.0801
 2194SOL    HW2 6709   5.969   1.029   3.988  0.5248 -2.1580  1.0686
 2195SOL     OW 6710   4.482   6.347   3.918  0.2019 -0.7418 -0.8756
 2195SOL    HW1 6711   4.445   6.303   3.842  0.1380 -1.0781 -0.6579
 2195SOL    HW2 6712   4.445   6.435   3.916 -0.0220 -0.8392 -1.0776
 2196SOL     OW 6713   5.619   1.314   1.202 -0.9626  0.0538  0.0229
 2196SOL    HW1 6714   5.680   1.386   1.186 -0.6923  0.0109  0.7801
 2196SOL    HW2 6715   5.534   1.348   1.174 -0.4889 -0.3106 -2.2493
 2197SOL     OW 6716   2.805   2.632   0.704 -0.4062 -0.5437 -0.0961
 2197SOL    HW1 6717   2.782   2.715   0.662  1.4388 -0.9464 -2.2895
 2197SOL    HW2 6718   2.875   2.655   0.766 -0.6695 -0.3641  0.1426
 2198SOL     OW 6719   5.723   0.179   1.680  0.7416 -0.6832  0.1714
 2198SOL    HW1 6720   5.734   0.114   1.611  1.1394  0.7663 -1.2614
 2198SOL    HW2 6721   5.800   0.235   1.673 -0.1141  0.6438  0.4819
 2199SOL     OW 6722   4.540   6.061   2.106  0.9718 -0.2867 -0.5323
 2199SOL    HW1 6723   4.568   6.133   2.162  1.9174  0.5022 -1.8775
 2199SOL    HW2 6724   4.553   5.982   2.158 -0.2145  0.4565  1.0478
 2200SOL     OW 6725   5.635   1.510   0.537  1.0326  0.0433  0.7840
 2200SOL    HW1 6726   5.723   1.488   0.507  0.4960  1.0916 -2.3002
 2200SOL    HW2 6727   5.624   1.601   0.511 -0.8504  0.0612  1.3971
 2201SOL     OW 6728   5.581   0.099   0.322  1.0713  0.2633 -0.2591
 2201SOL    HW1 6729   5.533   0.019   0.343 -0.2527  1.3765  1.5558
 2201SOL    HW2 6730   5.636   0.076   0.248 -0.7105 -1.7507 -1.1370
 2202SOL     OW 6731   3.023   2.013   4.116 -0.7395  0.1609 -0.0484
 2202SOL    HW1 6732   3.103   1.982   4.074 -1.0632  0.4289 -0.9026
 2202SOL    HW2 6733   2.953   1.990   4.055 -1.0040  2.7669 -1.0306
 2203SOL     OW 6734   0.221   4.646   4.505 -0.5419  0.4184 -0.1679
 2203SOL    HW1 6735   0.177   4.723   4.542  0.9279  1.1054  0.2990
 2203SOL    HW2 6736   0.235   4.669   4.413 -1.6089 -0.0523 -0.4734
 2204SOL     OW 6737   2.071   3.006   2.000 -0.5989 -0.1439 -0.2788
 2204SOL    HW1 6738   2.030   3.080   2.044 -0.2366  0.1235 -0.3850
 2204SOL    HW2 6739   2.130   3.045   1.937  0.0187 -0.5153  0.0492
 2205SOL     OW 6740   5.239   5.874   3.781 -0.1977 -0.1887 -0.1098
 2205SOL    HW1 6741   5.214   5.794   3.735  0.4986 -0.4892  0.0036
 2205SOL    HW2 6742   5.315   5.906   3.733  0.4212 -0.4033  0.6858
 2206SOL     OW 6743   5.134   3.257   3.726  0.1047 -0.4596 -0.7108
 2206SOL    HW1 6744   5.206   3.282   3.783  1.6792  0.4337 -2.8204
 2206SOL    HW2 6745   5.055   3.272   3.778  1.3225 -2.1886  2.0096
 2207SOL     OW 6746   4.648   5.982   4.507 -0.3732 -0.7995 -0.2543
 2207SOL    HW1 6747   4.702   6.059   4.523  0.7300 -1.5277 -0.2891
 2207SOL    HW2 6748   4.608   5.998   4.422 -1.4749  0.4188  0.4214
 2208SOL     OW 6749   3.536   2.421   3.817 -0.0367  0.3553  0.1156
 2208SOL    HW1 6750   3.458   2.477   3.808 -1.1901 -1.1747 -0.2400
 2208SOL    HW2 6751   3.562   2.402   3.727 -0.3831 -0.5348  0.1800
 2209SOL     OW 6752   3.432   1.923   2.233 -0.1964  0.2293  0.2281
 2209SOL    HW1 6753   3.435   1.883   2.146 -3.2072 -0.0054  0.0006
 2209SOL    HW2 6754   3.416   2.016   2.216 -0.7186  0.1954  0.4762
 2210SOL     OW 6755   1.151   3.686   2.032  0.4936  0.4450  0.0859
 2210SOL    HW1 6756   1.220   3.623   2.054  0.8690  0.9757  0.4757
 2210SOL    HW2 6757   1.197   3.769   2.020 -0.1658  1.0856  1.5241
 2211SOL     OW 6758   5.965   5.790   0.594 -0.7611  0.1061 -0.1130
 2211SOL    HW1 6759   6.000   5.863   0.544 -1.4487  0.1553 -0.5407
 2211SOL    HW2 6760   5.981   5.814   0.685 -0.0004  0.2732 -0.2730
 2212SOL     OW 6761   5.202   4.597   4.324 -0.1354  0.3599 -0.2536
 2212SOL    HW1 6762   5.266   4.550   4.270  0.4352  1.7509 -0.8909
 2212SOL    HW2 6763   5.253   4.630   4.397 -0.2911  0.8214 -0.3503
 2213SOL     OW 6764   3.965   3.579   2.366  0.6937  0.5697 -0.3242
 2213SOL    HW1 6765   3.892   3.623   2.408 -0.7977 -0.5275 -1.5598
 2213SOL    HW2 6766   4.039   3.640   2.377 -1.2814  4.1286 -2.8492
 2214SOL     OW 6767   0.072   2.530   1.020 -0.2404  0.0920  0.1411
 2214SOL    HW1 6768   0.040   2.447   0.982  0.4152 -0.6952  1.2146
 2214SOL    HW2 6769   0.007   2.553   1.086 -0.2297  0.2352  0.1024
 2215SOL     OW 6770   2.167   6.246   1.153  0.1612 -0.2201 -0.1467
 2215SOL    HW1 6771   2.085   6.239   1.202  0.4663 -0.2881  0.3582
 2215SOL    HW2 6772   2.192   6.338   1.160 -0.5041  0.1061 -1.3648
 2216SOL     OW 6773   4.657   4.681   4.506 -0.0878 -0.1603  0.6111
 2216SOL    HW1 6774   4.743   4.640   4.500  0.3790  0.8256 -1.7318
 2216SOL    HW2 6775   4.674   4.771   4.533 -0.4779 -0.1439  0.8166
 2217SOL     OW 6776   3.742   5.575   3.888  0.3489 -0.7587  0.1612
 2217SOL    HW1 6777   3.694   5.499   3.855 -2.1211  0.0711  1.3965
 2217SOL    HW2 6778   3.685   5.614   3.954  0.8788  2.8022 -1.0348
 2218SOL     OW 6779   3.299   0.740   0.269 -0.3194 -0.0811 -0.3776
 2218SOL    HW1 6780   3.219   0.793   0.267 -0.1183  0.2322 -0.3281
 2218SOL    HW2 6781   3.289   0.678   0.197  0.3813  1.4231 -1.9206
 2219SOL     OW 6782   2.486   6.318   3.870  0.4796  0.4516  0.1657
 2219SOL    HW1 6783   2.510   6.316   3.963 -2.4719  2.4404  1.2579
 2219SOL    HW2 6784   2.446   6.233   3.854 -0.5185  0.6263  1.3764
 2220SOL     OW 6785   0.640   5.243   3.251  0.3190  0.4877 -0.2468
 2220SOL    HW1 6786   0.727   5.203   3.250  0.0803 -0.1315  0.6717
 2220SOL    HW2 6787   0.591   5.191   3.315 -0.4523  1.3852 -0.0673
 2221SOL     OW 6788   5.071   3.232   2.390 -0.3444  0.0722  0.5782
 2221SOL    HW1 6789   5.052   3.253   2.482 -0.7943  1.7496  0.1662
 2221SOL    HW2 6790   5.001   3.275   2.341  1.2101  1.4410 -0.6749
 2222SOL     OW 6791   6.334   4.836   2.988  0.1748 -0.3324 -0.2303
 2222SOL    HW1 6792   6.423   4.866   2.972 -0.5145  3.8214  1.2080
 2222SOL    HW2 6793   6.294   4.831   2.901  1.1699  0.7454 -0.8077
 2223SOL     OW 6794   5.232   0.143   0.038 -0.7406  0.6797 -0.5719
 2223SOL    HW1 6795   5.235   0.058   0.081 -0.7459  0.3295 -1.2314
 2223SOL    HW2 6796   5.266   0.126  -0.050 -0.9841  1.3083 -0.7982
 2224SOL     OW 6797   0.656   6.163   0.116 -0.0931 -0.6043  0.2511
 2224SOL    HW1 6798   0.637   6.117   0.034  0.3517 -0.4039  0.0314
 2224SOL    HW2 6799   0.716   6.233   0.091 -2.7578  1.9926  0.0312
 2225SOL     OW 6800   2.002   4.426   3.997 -0.3252  0.0063 -0.4361
 2225SOL    HW1 6801   1.911   4.437   4.026  0.3919  1.6859  1.7994
 2225SOL    HW2 6802   2.034   4.351   4.047  0.3005  1.5647  1.8388
 2226SOL     OW 6803   5.171   2.083   2.541 -0.6716 -0.5251 -0.2063
 2226SOL    HW1 6804   5.172   2.179   2.542 -2.0081 -0.4169  1.5990
 2226SOL    HW2 6805   5.138   2.061   2.454 -0.6093  0.6538 -0.5768
 2227SOL     OW 6806   1.711   0.162   0.514 -0.5255  0.5606 -0.6529
 2227SOL    HW1 6807   1.785   0.113   0.477  1.3336  2.0677  0.6598
 2227SOL    HW2 6808   1.718   0.147   0.608 -0.7365  2.1529 -0.3334
 2228SOL     OW 6809   3.024   0.781   2.727 -0.4950  0.3268 -0.4164
 2228SOL    HW1 6810   2.981   0.746   2.649  1.3763 -1.5753 -0.7479
 2228SOL    HW2 6811   3.056   0.704   2.774  0.5405  1.5022  0.9870
 2229SOL     OW 6812   4.655   4.603   1.335  0.0878 -0.7193  0.0986
 2229SOL    HW1 6813   4.703   4.680   1.303  0.7160 -0.8782  0.6060
 2229SOL    HW2 6814   4.563   4.628   1.332  0.0962 -0.6897 -1.7032
 2230SOL     OW 6815   4.853   0.315   1.453 -0.1587  0.0346  0.0077
 2230SOL    HW1 6816   4.802   0.234   1.453  0.3015 -0.3475  1.7702
 2230SOL    HW2 6817   4.808   0.371   1.517  0.7461  0.2748  0.4725
 2231SOL     OW 6818   5.153   4.245   1.875  0.2773  0.1295 -0.1354
 2231SOL    HW1 6819   5.214   4.190   1.825 -1.8617 -0.6145 -2.3423
 2231SOL    HW2 6820   5.069   4.232   1.832 -2.0682 -0.5059  3.6979
 2232SOL     OW 6821   2.393   5.737   4.399  0.3445 -0.1112  0.2047
 2232SOL    HW1 6822   2.323   5.717   4.337  1.2573 -0.1096 -0.9072
 2232SOL    HW2 6823   2.375   5.826   4.429 -0.0496 -0.0616 -0.1629
 2233SOL     OW 6824   2.358   0.015   1.530  0.1178  0.2114 -0.2459
 2233SOL    HW1 6825   2.358  -0.031   1.614 -2.7162  0.6943  0.2083
 2233SOL    HW2 6826   2.306   0.093   1.545 -1.5256 -0.1977 -2.6096
 2234SOL     OW 6827   5.064   1.692   3.074  0.0796  0.2770  0.4278
 2234SOL    HW1 6828   5.010   1.682   3.153  0.9749  1.4121  1.2537
 2234SOL    HW2 6829   5.141   1.637   3.090 -0.1244 -0.1883 -0.0931
 2235SOL     OW 6830   0.298   3.235   3.126 -0.5204 -0.0793  0.1081
 2235SOL    HW1 6831   0.334   3.148   3.114 -0.3231 -0.2067  1.3921
 2235SOL    HW2 6832   0.206   3.220   3.147 -0.7478  0.1042 -0.6854
 2236SOL     OW 6833   2.303   4.300   4.243  0.3574  0.1752  0.1463
 2236SOL    HW1 6834   2.377   4.297   4.303  0.0862  2.4928  0.7590
 2236SOL    HW2 6835   2.307   4.387   4.204 -1.0960 -0.2437 -1.1383
 2237SOL     OW 6836   2.931   4.592   3.631 -0.2770  0.1733 -0.2618
 2237SOL    HW1 6837   2.851   4.540   3.632 -0.0049 -0.5830 -2.9466
 2237SOL    HW2 6838   2.963   4.586   3.542  1.1016  3.0920 -0.2211
 2238SOL     OW 6839   2.106   5.279   3.284  0.0631  0.3580 -0.2369
 2238SOL    HW1 6840   2.071   5.225   3.354  2.4730  0.7799  1.5531
 2238SOL    HW2 6841   2.030   5.302   3.231 -1.4290 -3.1821 -0.1776
 2239SOL     OW 6842   2.502   1.676   4.405 -0.4797 -0.3097  0.3642
 2239SOL    HW1 6843   2.592   1.647   4.393  0.3560  2.2597 -0.9457
 2239SOL    HW2 6844   2.452   1.594   4.414  1.5833 -2.0783 -1.6958
 2240SOL     OW 6845   1.203   1.930   2.910  0.3865 -0.6373  0.2753
 2240SOL    HW1 6846   1.291   1.930   2.947  0.4056  0.6177  0.3110
 2240SOL    HW2 6847   1.175   1.838   2.915  0.9375 -0.7762  2.0567
 2241SOL     OW 6848   3.623   5.146   0.099  0.3718  0.5309  0.4173
 2241SOL    HW1 6849   3.603   5.221   0.154  0.4732  1.9151 -1.2588
 2241SOL    HW2 6850   3.543   5.131   0.049  0.1199 -0.9909  1.1507
 2242SOL     OW 6851   1.386   0.738   0.614 -0.4307 -0.6033  0.1738
 2242SOL    HW1 6852   1.352   0.777   0.694 -2.0495 -2.0319  0.2836
 2242SOL    HW2 6853   1.474   0.776   0.605 -0.3264 -0.0626  2.3637
 2243SOL     OW 6854   4.528   0.879   1.912  0.3400  0.1656  0.1612
 2243SOL    HW1 6855   4.487   0.882   1.998 -0.5526  0.1331 -0.2456
 2243SOL    HW2 6856   4.546   0.786   1.897 -0.5664  0.0271 -0.1538
 2244SOL     OW 6857   3.337   1.116   0.524  0.7895 -0.2237 -0.1021
 2244SOL    HW1 6858   3.298   1.033   0.496 -0.3181  0.3467 -0.3853
 2244SOL    HW2 6859   3.396   1.140   0.454 -0.9634  0.5328 -1.4828
 2245SOL     OW 6860   1.173   3.111   0.948 -0.2076 -0.0766 -0.7902
 2245SOL    HW1 6861   1.146   3.195   0.911  2.1113 -0.2778 -3.5256
 2245SOL    HW2 6862   1.268   3.109   0.938 -0.0893 -2.9038 -0.6216
 2246SOL     OW 6863   2.102   4.751   2.810 -0.5802 -0.4451  0.5545
 2246SOL    HW1 6864   2.124   4.704   2.730 -1.5825  0.3102 -0.2269
 2246SOL    HW2 6865   2.179   4.805   2.828 -0.1790 -0.9395  0.3441
 2247SOL     OW 6866   3.566   3.908   2.227 -0.0835  0.0662 -0.5781
 2247SOL    HW1 6867   3.613   3.825   2.220  1.3893  0.8042 -0.2101
 2247SOL    HW2 6868   3.524   3.918   2.142  1.1785 -0.2513 -1.2956
 2248SOL     OW 6869   4.681   4.536   2.321 -0.0075 -0.5503 -0.2652
 2248SOL    HW1 6870   4.735   4.470   2.279  2.2648  0.8096  0.1957
 2248SOL    HW2 6871   4.678   4.608   2.257  1.4804  0.6005  0.8400
 2249SOL     OW 6872   4.040   4.894   1.586 -0.0112 -0.7201 -0.6322
 2249SOL    HW1 6873   4.034   4.979   1.630  1.1388  0.6187 -2.7004
 2249SOL    HW2 6874   4.064   4.915   1.496  0.1674 -3.2806 -1.3563
 2250SOL     OW 6875   5.845   4.067   0.266 -0.3663  0.0555  0.2323
 2250SOL    HW1 6876   5.883   4.092   0.182  0.9777  0.0109  0.7691
 2250SOL    HW2 6877   5.774   4.130   0.279  0.7765  1.5176  0.0184
 2251SOL     OW 6878   4.779   3.005   1.102  0.8684  0.5565 -0.1735
 2251SOL    HW1 6879   4.819   2.934   1.152  2.5388  2.4561  1.5349
 2251SOL    HW2 6880   4.852   3.062   1.077 -0.4032  2.1686 -0.5978
 2252SOL     OW 6881   2.292   1.903   3.864  0.2774  0.8769  0.5106
 2252SOL    HW1 6882   2.313   1.995   3.881 -0.1700  1.0854  0.0109
 2252SOL    HW2 6883   2.239   1.877   3.940  1.3462  0.6684  1.2275
 2253SOL     OW 6884   0.936   0.082   3.920  0.3957 -0.2837  0.2139
 2253SOL    HW1 6885   0.990   0.003   3.917  0.4940 -0.2550  0.9532
 2253SOL    HW2 6886   0.990   0.150   3.880 -0.2585 -0.8562 -1.9334
 2254SOL     OW 6887   5.956   2.347   2.042 -0.2363 -0.8171 -0.3900
 2254SOL    HW1 6888   5.971   2.315   1.954  0.4191 -0.2623 -0.4976
 2254SOL    HW2 6889   5.876   2.304   2.070 -1.0538 -0.2360 -1.6437
 2255SOL     OW 6890   3.516   1.468   0.472 -0.0180 -0.0908  0.5439
 2255SOL    HW1 6891   3.609   1.487   0.484  0.2783 -0.2785 -1.0168
 2255SOL    HW2 6892   3.474   1.554   0.469  0.6855  0.3586 -2.1112
 2256SOL     OW 6893   3.599   0.912   4.419  0.3921 -0.0999  0.1343
 2256SOL    HW1 6894   3.554   0.828   4.413 -2.0549  0.9782  0.8507
 2256SOL    HW2 6895   3.663   0.899   4.490  1.2508 -1.6724 -0.7918
 2257SOL     OW 6896   1.726   4.230   3.238  0.1741  0.1483  0.0193
 2257SOL    HW1 6897   1.709   4.158   3.177 -0.5001  0.8110 -0.6111
 2257SOL    HW2 6898   1.793   4.283   3.193 -1.1164  1.2554 -0.7515
 2258SOL     OW 6899   4.347   3.679   1.936  0.3236 -0.6120  0.2423
 2258SOL    HW1 6900   4.292   3.747   1.898  0.0030 -0.8755  0.2252
 2258SOL    HW2 6901   4.401   3.724   2.001 -0.1592 -0.4128  0.5091
 2259SOL     OW 6902   1.738   4.867   0.697  0.0430  0.0807 -0.2873
 2259SOL    HW1 6903   1.731   4.790   0.753  2.6226 -1.1055 -1.2655
 2259SOL    HW2 6904   1.820   4.855   0.650  0.8465  3.5790 -0.3593
 2260SOL     OW 6905   1.031   1.244   2.111  0.3141  0.5166 -0.4817
 2260SOL    HW1 6906   1.097   1.296   2.157  0.6167 -0.3495  0.1145
 2260SOL    HW2 6907   1.015   1.169   2.169  0.0374 -0.1587 -1.3894
 2261SOL     OW 6908   3.276   1.345   0.663 -0.0885  0.4113 -0.0674
 2261SOL    HW1 6909   3.274   1.262   0.614  0.6688 -0.3946  1.1605
 2261SOL    HW2 6910   3.369   1.366   0.670 -0.1658  0.4762  1.0304
 2262SOL     OW 6911   5.357   4.615   1.275 -0.0545  0.2555  0.1810
 2262SOL    HW1 6912   5.343   4.636   1.182 -0.2640  1.8043  0.5043
 2262SOL    HW2 6913   5.449   4.588   1.279 -0.2215 -0.5310 -0.5484
 2263SOL     OW 6914   0.893   1.364   1.358  0.2345  0.7030  0.9310
 2263SOL    HW1 6915   0.986   1.364   1.335  0.0405 -2.0826 -0.7836
 2263SOL    HW2 6916   0.848   1.382   1.275 -0.9579  2.9347  1.8712
 2264SOL     OW 6917   1.437   1.499   2.414  0.0076 -0.7081  0.8531
 2264SOL    HW1 6918   1.405   1.431   2.473  0.1648 -0.3623  1.3501
 2264SOL    HW2 6919   1.526   1.471   2.392 -0.4937 -1.5432 -0.3355
 2265SOL     OW 6920   6.336   0.679   4.058  0.4983  0.3789 -0.1660
 2265SOL    HW1 6921   6.260   0.726   4.092 -0.3601 -1.5781  0.9311
 2265SOL    HW2 6922   6.371   0.632   4.134  0.1342 -2.1291 -1.3388
 2266SOL     OW 6923   2.113   5.225   2.493  0.8482  0.1150  0.5903
 2266SOL    HW1 6924   2.169   5.175   2.552 -0.0678  0.4498  1.8247
 2266SOL    HW2 6925   2.119   5.315   2.524 -0.4851  0.1397  0.9268
 2267SOL     OW 6926   0.449   2.889   3.706 -0.6330  0.3427  0.2552
 2267SOL    HW1 6927   0.364   2.932   3.705 -0.1117  1.4437  0.5003
 2267SOL    HW2 6928   0.432   2.803   3.744 -1.4960  0.8806  1.1779
 2268SOL     OW 6929   1.206   3.506   2.556  0.1708 -0.1596  0.3067
 2268SOL    HW1 6930   1.296   3.478   2.540  0.8650  0.5841  2.2934
 2268SOL    HW2 6931   1.152   3.435   2.520  1.5572 -1.0664 -0.1683
 2269SOL     OW 6932   3.502   2.833   1.358 -0.4210 -0.0229 -0.5349
 2269SOL    HW1 6933   3.543   2.902   1.306 -0.0153  0.9748  0.9528
 2269SOL    HW2 6934   3.575   2.784   1.395 -0.6485 -0.1309 -0.2170
 2270SOL     OW 6935   4.514   2.410   4.532  0.0978  0.0700 -0.0036
 2270SOL    HW1 6936   4.438   2.462   4.558  0.3509  0.0517  0.8367
 2270SOL    HW2 6937   4.572   2.472   4.488 -0.9717 -0.1935 -2.0060
 2271SOL     OW 6938   5.332   3.579   1.846 -0.5539  0.6213  0.4240
 2271SOL    HW1 6939   5.320   3.627   1.928 -0.2122  1.8617 -0.1995
 2271SOL    HW2 6940   5.372   3.643   1.786 -0.5649 -0.3022 -0.6424
 2272SOL     OW 6941   3.422   4.274   0.008 -0.5368 -0.0450  0.2837
 2272SOL    HW1 6942   3.414   4.307   0.097  1.8001  0.6414  0.3672
 2272SOL    HW2 6943   3.407   4.180   0.016  0.1054 -0.0811  1.5548
 2273SOL     OW 6944   4.446   4.555   2.541 -0.6490 -0.0956 -0.6187
 2273SOL    HW1 6945   4.517   4.548   2.477 -0.1951  0.4003 -0.1859
 2273SOL    HW2 6946   4.373   4.508   2.501 -0.9250  1.5095 -2.2541
 2274SOL     OW 6947   3.075   0.796   3.376 -0.2009  0.2396 -0.2907
 2274SOL    HW1 6948   3.007   0.730   3.388 -0.5891  0.8667  1.6256
 2274SOL    HW2 6949   3.090   0.798   3.282 -0.0987 -2.5854 -0.5141
 2275SOL     OW 6950   2.704   3.524   0.868  0.2155  0.1754 -0.1646
 2275SOL    HW1 6951   2.710   3.606   0.819 -0.0351 -0.9553 -2.3419
 2275SOL    HW2 6952   2.614   3.496   0.857  0.6517 -1.1005 -0.8601
 2276SOL     OW 6953   4.529   2.610   3.078 -0.2396  0.2290 -0.8202
 2276SOL    HW1 6954   4.547   2.584   3.168  0.3403  1.6660 -0.4574
 2276SOL    HW2 6955   4.496   2.530   3.036  2.3944 -1.4650 -0.2008
 2277SOL     OW 6956   1.182   5.605   1.352 -0.2685 -0.5582  0.4791
 2277SOL    HW1 6957   1.209   5.542   1.285 -0.4643 -0.0667 -0.0820
 2277SOL    HW2 6958   1.110   5.653   1.311 -0.0113  0.1397  0.8320
 2278SOL     OW 6959   2.922   4.578   1.602  0.2744  0.5450 -0.8879
 2278SOL    HW1 6960   2.962   4.501   1.561  2.4004  2.1244 -2.2461
 2278SOL    HW2 6961   2.970   4.588   1.684 -2.7819 -1.5992  1.6399
 2279SOL     OW 6962   5.325   4.314   3.418 -0.2148 -0.5206  0.0133
 2279SOL    HW1 6963   5.351   4.267   3.339 -2.2375  0.4918 -1.4234
 2279SOL    HW2 6964   5.398   4.299   3.479  2.4680  0.0741 -2.5533
 2280SOL     OW 6965   5.230   2.229   0.977 -0.4438  0.1855  0.1051
 2280SOL    HW1 6966   5.159   2.279   0.937 -0.9968 -1.3635 -1.0308
 2280SOL    HW2 6967   5.186   2.155   1.018  0.4750 -0.7759 -0.5603
 2281SOL     OW 6968   0.491   1.651   3.375  0.3025 -0.2594 -0.5925
 2281SOL    HW1 6969   0.471   1.702   3.454  2.2501  0.3919 -0.4192
 2281SOL    HW2 6970   0.477   1.713   3.303 -0.5208 -0.5543 -0.7077
 2282SOL     OW 6971   0.270   4.382   4.443 -0.1257 -0.8677  0.1667
 2282SOL    HW1 6972   0.234   4.311   4.496  0.4442 -0.5803  1.0033
 2282SOL    HW2 6973   0.211   4.456   4.459  0.0301 -0.7891  0.3952
 2283SOL     OW 6974   4.676   2.021   1.523  0.2015 -0.1795  0.2558
 2283SOL    HW1 6975   4.650   2.076   1.449  1.6552 -0.4478 -0.5517
 2283SOL    HW2 6976   4.632   2.059   1.599  0.7036  1.8103 -0.3186
 2284SOL     OW 6977   2.040   2.304   0.524  0.7066  0.3443  0.4592
 2284SOL    HW1 6978   2.045   2.400   0.526  1.8005  0.3171  1.9426
 2284SOL    HW2 6979   1.952   2.285   0.558  1.0420  0.8686  1.7619
 2285SOL     OW 6980   0.830   0.056   0.553 -0.7174  0.4005  0.8771
 2285SOL    HW1 6981   0.872   0.027   0.634 -0.3724  2.0657  1.3703
 2285SOL    HW2 6982   0.889   0.122   0.517 -1.2295  0.2503 -0.3529
 2286SOL     OW 6983   3.962   5.308   1.101 -0.3037  0.2610  0.3964
 2286SOL    HW1 6984   3.960   5.234   1.162 -0.7389  0.6211  0.8247
 2286SOL    HW2 6985   3.904   5.281   1.030  0.9137 -0.5609 -0.3727
 2287SOL     OW 6986   1.366   4.627   0.950 -0.0143  0.1276 -0.3299
 2287SOL    HW1 6987   1.380   4.676   0.869 -0.5750 -1.3609 -1.4249
 2287SOL    HW2 6988   1.290   4.571   0.931  0.3750 -0.9194  0.9103
 2288SOL     OW 6989   4.552   1.720   0.662  0.7547 -0.1729 -0.2483
 2288SOL    HW1 6990   4.540   1.643   0.606 -0.5063 -1.2506  1.3103
 2288SOL    HW2 6991   4.647   1.724   0.677  0.9093 -1.0507 -0.8454
 2289SOL     OW 6992   4.395   2.171   1.054  0.5849  0.5254 -0.5510
 2289SOL    HW1 6993   4.313   2.209   1.087  0.2687  0.7650 -1.5466
 2289SOL    HW2 6994   4.440   2.245   1.012  0.4007  0.0169 -1.6995
 2290SOL     OW 6995   6.151   5.619   2.335  0.4251  0.4048  0.5011
 2290SOL    HW1 6996   6.180   5.680   2.267  0.3124  0.5146  0.5515
 2290SOL    HW2 6997   6.230   5.601   2.386  0.8315 -0.7207 -0.4511
 2291SOL     OW 6998   3.330   1.116   2.132 -0.2448 -0.3686 -0.2520
 2291SOL    HW1 6999   3.388   1.041   2.146 -1.1617 -0.9565  0.7297
 2291SOL    HW2 7000   3.254   1.098   2.188 -0.7281  1.0613 -0.3717
 2292SOL     OW 7001   1.760   4.239   0.227 -0.0646 -0.0769  0.3071
 2292SOL    HW1 7002   1.692   4.177   0.203  0.3628 -1.1181  1.5568
 2292SOL    HW2 7003   1.839   4.207   0.184 -0.1992  0.7879 -0.6553
 2293SOL     OW 7004   2.238   2.644   0.723 -0.2241 -0.0252 -0.3071
 2293SOL    HW1 7005   2.194   2.720   0.762 -0.8796 -0.2373 -0.5945
 2293SOL    HW2 7006   2.197   2.569   0.766  0.3900 -0.2269 -0.0541
 2294SOL     OW 7007   0.264   2.331   0.292 -0.3003  0.4909  0.5475
 2294SOL    HW1 7008   0.198   2.265   0.313 -0.4637  0.3490 -0.3297
 2294SOL    HW2 7009   0.216   2.398   0.243  0.3191 -0.0505 -0.9158
 2295SOL     OW 7010   5.199   1.010   0.207  0.1424 -0.2616  0.3245
 2295SOL    HW1 7011   5.216   0.941   0.272  0.1708  0.0209  0.6206
 2295SOL    HW2 7012   5.279   1.063   0.207 -0.1944  0.2623  0.7131
 2296SOL     OW 7013   2.744   1.575   4.327  0.3248 -0.4349 -0.2754
 2296SOL    HW1 7014   2.769   1.626   4.250  0.4426 -2.9987 -2.2093
 2296SOL    HW2 7015   2.819   1.517   4.342 -0.0700 -0.6374  1.2708
 2297SOL     OW 7016   4.240   5.349   0.251 -0.0872  0.3482 -1.0252
 2297SOL    HW1 7017   4.307   5.401   0.206  0.7949  1.2647  1.0707
 2297SOL    HW2 7018   4.164   5.407   0.257  0.9273  1.7391  1.3951
 2298SOL     OW 7019   5.238   6.412   3.579 -0.4693  0.1587  0.3979
 2298SOL    HW1 7020   5.173   6.448   3.519  1.0937 -0.0866 -1.6728
 2298SOL    HW2 7021   5.280   6.341   3.529  1.3769  0.3006  1.5530
 2299SOL     OW 7022   2.421   0.564   4.244 -0.2370 -0.3279  0.2696
 2299SOL    HW1 7023   2.373   0.646   4.237  0.8345  0.2751 -1.5177
 2299SOL    HW2 7024   2.509   0.584   4.210  0.1496 -2.1533 -0.0606
 2300SOL     OW 7025   2.156   2.741   2.083  0.0835  0.6244 -0.2498
 2300SOL    HW1 7026   2.153   2.701   2.170  0.8248 -0.4937 -0.6773
 2300SOL    HW2 7027   2.174   2.833   2.099  0.7015  0.3561  0.7797
 2301SOL     OW 7028   1.756   4.309   2.448 -0.0000  0.0552 -0.2408
 2301SOL    HW1 7029   1.827   4.247   2.463  0.3158  0.0594 -1.5094
 2301SOL    HW2 7030   1.700   4.301   2.525  1.8490  0.7836  1.3511
 2302SOL     OW 7031   3.286   3.402   4.510 -0.0344 -0.4322 -0.2582
 2302SOL    HW1 7032   3.275   3.322   4.459 -0.4807 -1.2913  1.0565
 2302SOL    HW2 7033   3.210   3.403   4.568  0.9740 -0.1859  1.1689
 2303SOL     OW 7034   2.340   5.779   1.291  0.2525 -0.6476 -0.3752
 2303SOL    HW1 7035   2.328   5.874   1.281  0.1455 -0.7196 -1.0315
 2303SOL    HW2 7036   2.401   5.756   1.220 -0.5103 -1.2231 -0.8661
 2304SOL     OW 7037   5.964   0.578   2.954 -1.0399  0.3547 -0.8413
 2304SOL    HW1 7038   5.979   0.487   2.930 -2.2077 -0.4131  0.9246
 2304SOL    HW2 7039   5.920   0.574   3.039 -0.9985  2.5915 -0.5860
 2305SOL     OW 7040   0.453   2.989   2.293  0.4595  0.2584  0.2144
 2305SOL    HW1 7041   0.502   3.037   2.226 -0.7354  0.9053 -0.2407
 2305SOL    HW2 7042   0.514   2.983   2.367  2.6913 -2.2728 -1.4287
 2306SOL     OW 7043   5.895   0.849   0.012  0.4018 -0.6544 -0.2830
 2306SOL    HW1 7044   5.834   0.803   0.070 -0.2137  1.5182  1.0390
 2306SOL    HW2 7045   5.963   0.883   0.070  0.6346  0.3254 -1.0658
 2307SOL     OW 7046   4.262   3.921   3.819  0.0176 -0.0990  0.8316
 2307SOL    HW1 7047   4.295   3.975   3.748  0.6645 -1.1594  0.2623
 2307SOL    HW2 7048   4.168   3.938   3.821 -1.0095 -2.6319 -2.9693
 2308SOL     OW 7049   1.350   0.215   3.322 -0.1572  0.1254 -0.8229
 2308SOL    HW1 7050   1.260   0.245   3.314  0.2046  1.3395 -0.8019
 2308SOL    HW2 7051   1.348   0.150   3.392 -0.6595  2.1312  1.2599
 2309SOL     OW 7052   3.302   5.286   1.211 -0.1917 -0.1779  0.6472
 2309SOL    HW1 7053   3.370   5.239   1.163 -0.8529 -1.1641  0.6255
 2309SOL    HW2 7054   3.336   5.292   1.300 -0.4769 -1.5685  0.8809
 2310SOL     OW 7055   3.892   0.257   4.536  0.7194  0.1544  0.3131
 2310SOL    HW1 7056   3.808   0.258   4.490  0.3620 -0.2208  0.9209
 2310SOL    HW2 7057   3.948   0.316   4.486  0.5132 -0.5852 -0.8673
 2311SOL     OW 7058   3.118   3.390   1.022 -0.5520 -0.3368 -0.4866
 2311SOL    HW1 7059   3.192   3.386   0.962 -0.5234 -1.0646 -0.4176
 2311SOL    HW2 7060   3.157   3.374   1.108 -0.3439  2.0446  0.0240
 2312SOL     OW 7061   5.059   2.040   1.723  0.2088  0.3549 -0.6745
 2312SOL    HW1 7062   5.014   2.104   1.778 -0.0263  0.8350 -1.3958
 2312SOL    HW2 7063   5.137   2.016   1.773  0.2900  1.1958 -0.3664
 2313SOL     OW 7064   3.067   5.327   3.469  0.2130 -0.5484  0.1220
 2313SOL    HW1 7065   3.048   5.258   3.406  1.2185 -0.3011 -0.4902
 2313SOL    HW2 7066   3.029   5.406   3.431  1.9319 -0.1270 -0.9202
 2314SOL     OW 7067   2.903   1.895   1.142  0.1217 -0.0098 -0.1986
 2314SOL    HW1 7068   2.912   1.990   1.152  2.5877 -0.1143 -0.3022
 2314SOL    HW2 7069   2.967   1.872   1.075 -1.8467 -1.6063 -1.7937
 2315SOL     OW 7070   4.154   1.300   3.013 -0.1375 -0.1878 -0.3999
 2315SOL    HW1 7071   4.115   1.259   3.091 -1.7713  0.8519 -0.5668
 2315SOL    HW2 7072   4.228   1.243   2.991 -2.1008 -3.0980 -0.6198
 2316SOL     OW 7073   3.171   4.760   3.701 -0.5339  0.0973  0.3385
 2316SOL    HW1 7074   3.093   4.715   3.667 -0.2290 -0.9866  0.9634
 2316SOL    HW2 7075   3.244   4.706   3.672 -0.0582  0.7404  0.3060
 2317SOL     OW 7076   1.837   3.268   0.882 -0.1667  0.0973 -0.5170
 2317SOL    HW1 7077   1.886   3.187   0.895 -1.6866 -0.7822  0.3005
 2317SOL    HW2 7078   1.814   3.268   0.789 -0.7966 -0.8636 -0.3876
 2318SOL     OW 7079   0.900   5.000   1.273  0.4045 -0.1550  0.3410
 2318SOL    HW1 7080   0.820   4.980   1.226 -0.6448 -0.7402  2.1636
 2318SOL    HW2 7081   0.966   4.944   1.233  0.0478  0.5632 -1.4127
 2319SOL     OW 7082   1.845   2.198   3.850 -0.5195 -0.3495 -0.3467
 2319SOL    HW1 7083   1.790   2.154   3.915 -1.4582  0.7550 -0.3270
 2319SOL    HW2 7084   1.900   2.257   3.902  0.0585 -0.7866 -0.4406
 2320SOL     OW 7085   4.117   4.347   3.311  0.5534 -0.4518  0.3767
 2320SOL    HW1 7086   4.190   4.408   3.322  1.2072 -1.1823  0.3671
 2320SOL    HW2 7087   4.106   4.340   3.216 -0.1187  0.2925  0.3822
 2321SOL     OW 7088   1.037   1.094   1.837 -0.3854 -0.4104  0.1819
 2321SOL    HW1 7089   0.988   1.094   1.755  0.1685 -0.6808 -0.1622
 2321SOL    HW2 7090   1.129   1.100   1.810 -0.1320 -1.3291  0.7350
 2322SOL     OW 7091   0.231   2.686   1.182  0.0913  0.6613  0.2126
 2322SOL    HW1 7092   0.251   2.631   1.257  1.2504  1.4528  0.5399
 2322SOL    HW2 7093   0.182   2.629   1.123 -1.8757  0.2979  1.9687
 2323SOL     OW 7094   4.796   5.622   0.544  0.2196  0.2618 -0.4483
 2323SOL    HW1 7095   4.767   5.568   0.470  1.9395 -1.7961  0.1598
 2323SOL    HW2 7096   4.840   5.697   0.503  0.5887 -0.4956 -1.5289
 2324SOL     OW 7097   2.620   6.287   4.104  0.8400 -0.5568 -0.0141
 2324SOL    HW1 7098   2.595   6.368   4.150  1.7963  0.3114 -0.9055
 2324SOL    HW2 7099   2.603   6.217   4.167  0.0257  0.3400  0.8197
 2325SOL     OW 7100   3.487   4.104   0.995  0.2783 -0.2309  0.0425
 2325SOL    HW1 7101   3.580   4.086   0.982  0.7973  0.7622  1.6971
 2325SOL    HW2 7102   3.472   4.188   0.951  0.3133 -0.1555  0.1702
 2326SOL     OW 7103   1.735   0.659   2.698 -0.3017 -0.0556 -0.1174
 2326SOL    HW1 7104   1.674   0.587   2.717  0.7602 -0.9037  0.3206
 2326SOL    HW2 7105   1.703   0.732   2.751 -2.2414  0.3677 -1.6136
 2327SOL     OW 7106   0.553   3.058   3.147 -0.4389  0.7119 -0.3650
 2327SOL    HW1 7107   0.541   3.006   3.226 -0.6273  0.6832 -0.4103
 2327SOL    HW2 7108   0.619   3.123   3.170  0.3415  0.0107 -0.5174
 2328SOL     OW 7109   1.164   5.964   0.584 -0.5081  0.2597  0.0832
 2328SOL    HW1 7110   1.190   5.897   0.521  0.0854  1.2521 -0.7840
 2328SOL    HW2 7111   1.214   6.041   0.560 -2.6476  1.6939 -0.3542
 2329SOL     OW 7112   0.535   2.717   0.852  0.2197  0.4161 -0.0849
 2329SOL    HW1 7113   0.439   2.718   0.847  0.1873  2.3181 -1.0629
 2329SOL    HW2 7114   0.563   2.758   0.771  1.8747  0.0823  0.2601
 2330SOL     OW 7115   5.080   0.058   2.245 -0.2020  0.4109  0.8433
 2330SOL    HW1 7116   5.166   0.018   2.232  0.3821  1.1387  2.1494
 2330SOL    HW2 7117   5.054   0.087   2.157  0.1505 -1.1529  0.1590
 2331SOL     OW 7118   5.306   3.063   1.569 -0.3161  0.0162  0.3567
 2331SOL    HW1 7119   5.275   3.128   1.506 -0.2718 -1.2753 -1.0991
 2331SOL    HW2 7120   5.239   2.995   1.569 -0.2772 -0.0731  1.7043
 2332SOL     OW 7121   5.392   5.294   0.353  0.4163 -0.2839  1.0057
 2332SOL    HW1 7122   5.479   5.331   0.340 -0.1148  0.4933 -1.2955
 2332SOL    HW2 7123   5.365   5.324   0.440  1.9625  0.4358  1.3012
 2333SOL     OW 7124   1.779   0.281   4.491 -0.5915  0.2238  0.0040
 2333SOL    HW1 7125   1.860   0.263   4.444 -0.9357  0.8244 -0.8749
 2333SOL    HW2 7126   1.750   0.196   4.522  0.1120 -0.0697 -0.0978
 2334SOL     OW 7127   2.041   0.204   2.570  0.4937 -0.2536 -0.5414
 2334SOL    HW1 7128   2.059   0.142   2.640  0.4455 -2.5446 -2.3358
 2334SOL    HW2 7129   2.113   0.267   2.574  3.4096 -3.0301 -1.1808
 2335SOL     OW 7130   3.725   0.980   3.320 -0.8064  0.2168  0.0989
 2335SOL    HW1 7131   3.704   0.891   3.350 -0.4819  0.4276  1.0186
 2335SOL    HW2 7132   3.743   1.029   3.400  2.1297  0.3552 -0.4377
 2336SOL     OW 7133   1.137   2.531   0.851 -0.3993  0.0562 -0.0991
 2336SOL    HW1 7134   1.124   2.494   0.764 -0.8014  0.3647 -0.1791
 2336SOL    HW2 7135   1.145   2.625   0.835 -0.9482  0.1687  0.2296
 2337SOL     OW 7136   5.202   3.639   2.885 -0.0172 -0.0084 -0.9302
 2337SOL    HW1 7137   5.132   3.576   2.900  0.1302  0.1136  0.5130
 2337SOL    HW2 7138   5.157   3.718   2.856 -0.4901  0.0380 -0.1126
 2338SOL     OW 7139   2.966   4.865   1.142 -0.1046 -0.1305 -0.4213
 2338SOL    HW1 7140   2.890   4.847   1.198 -0.1749  1.9502  0.3510
 2338SOL    HW2 7141   3.007   4.941   1.183  1.9442 -0.6412 -1.2970
 2339SOL     OW 7142   2.702   3.200   0.521  0.0739  0.2312 -0.1260
 2339SOL    HW1 7143   2.678   3.196   0.428 -0.2544  1.9346 -0.1836
 2339SOL    HW2 7144   2.621   3.178   0.567 -0.8445  2.5941 -0.3314
 2340SOL     OW 7145   2.908   1.969   1.747 -0.3841  0.0916  0.0602
 2340SOL    HW1 7146   2.899   1.953   1.653 -1.1432 -0.3811  0.1979
 2340SOL    HW2 7147   3.000   1.994   1.758 -0.3519  0.4757 -0.8435
 2341SOL     OW 7148   5.308   2.843   1.847  0.2164 -0.1816 -0.3840
 2341SOL    HW1 7149   5.380   2.784   1.822 -0.0972 -0.2692 -1.1066
 2341SOL    HW2 7150   5.336   2.929   1.818 -0.9018 -0.4984 -2.9391
 2342SOL     OW 7151   0.141   0.365   3.736  0.0860 -0.5517 -0.0913
 2342SOL    HW1 7152   0.096   0.282   3.722  2.5252 -1.9041 -1.4755
 2342SOL    HW2 7153   0.187   0.354   3.819 -1.0721  0.3217  0.7206
 2343SOL     OW 7154   3.283   0.060   1.168  0.9549 -0.2685 -0.0982
 2343SOL    HW1 7155   3.277   0.151   1.138 -0.8278 -0.0634  0.6818
 2343SOL    HW2 7156   3.351   0.061   1.235 -0.0064  0.8483  0.9283
 2344SOL     OW 7157   1.444   1.931   0.789  0.2104  0.4359  0.2781
 2344SOL    HW1 7158   1.433   1.849   0.836  0.4067  0.0311 -0.3627
 2344SOL    HW2 7159   1.464   1.995   0.857 -1.2077  0.2444  0.9482
 2345SOL     OW 7160   0.092   3.155   1.457 -0.6523 -0.3071 -0.3909
 2345SOL    HW1 7161   0.087   3.087   1.389 -2.5248  0.5117 -1.2359
 2345SOL    HW2 7162   0.183   3.184   1.455 -0.2954 -1.3270 -1.5074
 2346SOL     OW 7163   1.989   2.005   3.706 -0.1486  0.2248 -0.3757
 2346SOL    HW1 7164   1.917   2.068   3.718 -1.0393 -0.6068 -1.0665
 2346SOL    HW2 7165   1.996   1.961   3.790  0.3090  1.0224  0.0346
 2347SOL     OW 7166   2.039   4.304   1.966 -0.0901 -0.1233 -0.2959
 2347SOL    HW1 7167   2.057   4.394   1.992  2.4007 -0.4081 -0.5370
 2347SOL    HW2 7168   2.021   4.258   2.048  1.7203  0.0925  0.2907
 2348SOL     OW 7169   4.338   0.757   3.369  0.0354  0.2093  0.5482
 2348SOL    HW1 7170   4.367   0.679   3.321  1.7674  0.2788  1.3250
 2348SOL    HW2 7171   4.254   0.780   3.330  0.1656 -1.1759 -0.7049
 2349SOL     OW 7172   4.591   4.640   3.867  0.0880 -0.2219  0.3842
 2349SOL    HW1 7173   4.661   4.670   3.810 -0.0500 -0.6595 -0.0249
 2349SOL    HW2 7174   4.561   4.719   3.912  0.7665 -0.0145  0.4882
 2350SOL     OW 7175   5.966   1.260   2.676  0.3324  0.2543  0.4017
 2350SOL    HW1 7176   6.029   1.262   2.604 -0.0812 -0.7940 -0.0209
 2350SOL    HW2 7177   5.950   1.352   2.696 -1.0990  0.7590 -2.2402
 2351SOL     OW 7178   6.211   6.311   1.723 -0.6302  0.3364 -0.5567
 2351SOL    HW1 7179   6.152   6.250   1.678 -1.3755  0.5944  0.0358
 2351SOL    HW2 7180   6.260   6.354   1.653 -2.4674  1.4826 -1.2681
 2352SOL     OW 7181   0.798   0.402   3.037  0.3513  0.1672  0.4510
 2352SOL    HW1 7182   0.744   0.478   3.058  1.6627  1.4285 -0.3661
 2352SOL    HW2 7183   0.741   0.346   2.984 -0.6154  0.6141  0.9674
 2353SOL     OW 7184   3.408   0.040   3.899  0.5612 -0.2072  0.3995
 2353SOL    HW1 7185   3.410   0.023   3.993  5.0061  2.0627  1.2811
 2353SOL    HW2 7186   3.353   0.118   3.890  1.0728  0.3357  1.5246
 2354SOL     OW 7187   1.589   2.483   3.938 -0.0943  0.4029 -0.2293
 2354SOL    HW1 7188   1.676   2.520   3.930 -0.0647  0.1813 -1.3258
 2354SOL    HW2 7189   1.604   2.389   3.949 -0.1971  0.4393  0.2709
 2355SOL     OW 7190   5.125   4.084   0.464  0.0902 -0.2349  0.0791
 2355SOL    HW1 7191   5.149   4.033   0.542  1.2764 -0.9444 -0.6857
 2355SOL    HW2 7192   5.197   4.070   0.403 -0.6181  0.5935 -1.0308
 2356SOL     OW 7193   0.906   3.859   1.646 -0.2339 -0.3876 -0.3220
 2356SOL    HW1 7194   0.919   3.798   1.719  1.4190  0.1799 -0.0542
 2356SOL    HW2 7195   0.814   3.885   1.653 -0.1842 -0.3915  1.5540
 2357SOL     OW 7196   5.544   0.044   2.405  1.2005  0.3368  0.2632
 2357SOL    HW1 7197   5.636   0.041   2.432  1.6162 -1.3967 -1.0258
 2357SOL    HW2 7198   5.524  -0.045   2.377 -0.4851  0.9516 -0.7842
 2358SOL     OW 7199   4.105   3.782   2.068 -0.5596 -0.1366 -0.3435
 2358SOL    HW1 7200   4.136   3.709   2.120  1.2464  1.1728  0.6640
 2358SOL    HW2 7201   4.009   3.777   2.071 -0.5651 -0.7918  2.2220
 2359SOL     OW 7202   0.267   2.004   1.611  0.6181 -0.0998 -0.4419
 2359SOL    HW1 7203   0.338   1.981   1.671 -0.5849 -0.3709  0.9799
 2359SOL    HW2 7204   0.191   1.956   1.644 -0.1451 -0.2856 -2.2357
 2360SOL     OW 7205   1.735   3.033   1.891 -0.2231  0.3200  0.0342
 2360SOL    HW1 7206   1.770   3.097   1.829  1.7788  0.9667  1.6427
 2360SOL    HW2 7207   1.772   2.950   1.863  1.0331  0.6748  0.5129
 2361SOL     OW 7208   3.528   5.170   4.313  0.7515  0.0438 -0.8122
 2361SOL    HW1 7209   3.441   5.136   4.294  1.1345 -0.4926 -1.7484
 2361SOL    HW2 7210   3.584   5.132   4.246  1.4045  1.8136 -1.3921
 2362SOL     OW 7211   4.499   5.350   2.207  0.0864 -0.7892  0.0600
 2362SOL    HW1 7212   4.421   5.352   2.262  0.8492 -0.9734  1.2238
 2362SOL    HW2 7213   4.554   5.420   2.242  0.4620 -0.6659 -0.7329
 2363SOL     OW 7214   5.352   1.199   2.453  0.4149 -0.2083 -0.9798
 2363SOL    HW1 7215   5.332   1.290   2.472 -0.6727  0.1864 -3.2877
 2363SOL    HW2 7216   5.447   1.193   2.458  0.4474  0.6559  0.4265
 2364SOL     OW 7217   5.247   2.814   0.189  0.4486  0.2094 -0.1370
 2364SOL    HW1 7218   5.336   2.850   0.180  0.7348 -0.3940  0.1739
 2364SOL    HW2 7219   5.260   2.729   0.230  0.0758 -1.5054 -3.0433
 2365SOL     OW 7220   1.806   0.495   0.335  0.2591 -0.6561 -0.5982
 2365SOL    HW1 7221   1.892   0.493   0.294  0.4807  0.9016 -0.3439
 2365SOL    HW2 7222   1.751   0.441   0.278  1.2962 -1.3681 -0.9824
 2366SOL     OW 7223   0.372   4.227   3.493 -0.0998  0.0436 -0.1270
 2366SOL    HW1 7224   0.296   4.261   3.447  0.5250  0.5220 -0.8660
 2366SOL    HW2 7225   0.440   4.219   3.425  1.0502  1.3222  0.7671
 2367SOL     OW 7226   1.765   5.407   2.032 -0.4957  0.3206 -0.4746
 2367SOL    HW1 7227   1.795   5.329   2.079 -0.6173  0.7514  0.3534
 2367SOL    HW2 7228   1.768   5.477   2.097 -2.5933  0.5553 -0.4724
 2368SOL     OW 7229   5.289   6.329   2.158 -0.1239 -0.3940 -0.1827
 2368SOL    HW1 7230   5.329   6.333   2.071 -1.1951 -0.7328 -0.7402
 2368SOL    HW2 7231   5.362   6.316   2.218  1.0763  2.7843 -0.5959
 2369SOL     OW 7232   4.065   1.935   2.255  0.5297  0.1519 -0.1712
 2369SOL    HW1 7233   4.124   1.886   2.312  1.4075  1.3631  0.0360
 2369SOL    HW2 7234   4.074   1.893   2.169 -1.5531 -2.3525  0.5595
 2370SOL     OW 7235   1.482   6.088   3.861 -0.3167  0.0252 -0.1270
 2370SOL    HW1 7236   1.477   6.180   3.888 -0.0996 -0.0912  0.3404
 2370SOL    HW2 7237   1.398   6.070   3.819 -1.2269 -0.0855  1.5385
 2371SOL     OW 7238   0.428   5.777   1.953 -0.0043  0.6455  0.3434
 2371SOL    HW1 7239   0.472   5.810   1.874 -0.7139  0.2194 -0.2589
 2371SOL    HW2 7240   0.407   5.686   1.932  0.0843  0.4245  1.1664
 2372SOL     OW 7241   3.797   2.950   0.373 -0.6380 -0.1749  0.0973
 2372SOL    HW1 7242   3.770   3.041   0.387  0.2074  0.1709 -0.3530
 2372SOL    HW2 7243   3.757   2.926   0.289 -1.2272 -0.3871  0.4265
 2373SOL     OW 7244   4.734   4.094   0.652 -0.7055 -0.2822  0.5013
 2373SOL    HW1 7245   4.787   4.014   0.649 -0.0636  0.1357  0.4950
 2373SOL    HW2 7246   4.795   4.163   0.674 -1.5313 -0.0212  2.3824
 2374SOL     OW 7247   5.517   1.251   0.755 -0.7737 -0.3502  0.4303
 2374SOL    HW1 7248   5.443   1.243   0.815  0.2955  0.3708  1.9635
 2374SOL    HW2 7249   5.593   1.222   0.806  0.0436 -1.1793 -1.1013
 2375SOL     OW 7250   1.829   5.827   1.697  0.5203 -0.3180 -0.4754
 2375SOL    HW1 7251   1.811   5.873   1.615 -0.5267 -0.2142 -0.2151
 2375SOL    HW2 7252   1.816   5.735   1.676 -2.8037 -0.2358  0.1072
 2376SOL     OW 7253   3.713   5.167   3.045 -0.5355  0.3067 -0.5219
 2376SOL    HW1 7254   3.808   5.164   3.039 -0.3964  1.0855  0.7301
 2376SOL    HW2 7255   3.684   5.089   2.998  0.6913  0.1856 -1.1515
 2377SOL     OW 7256   1.604   5.625   2.467 -0.5516 -0.7135 -0.4566
 2377SOL    HW1 7257   1.528   5.572   2.441 -0.6644 -0.9532  0.3281
 2377SOL    HW2 7258   1.662   5.622   2.391 -1.2184 -0.7081 -0.9933
 2378SOL     OW 7259   0.347   4.668   1.728 -0.3945 -0.0348 -0.2773
 2378SOL    HW1 7260   0.260   4.691   1.759 -0.1348  0.3612  0.1969
 2378SOL    HW2 7261   0.406   4.726   1.777  0.1364 -0.3173 -0.5599
 2379SOL     OW 7262   3.472   0.981   1.009  0.0214  0.1664  0.1856
 2379SOL    HW1 7263   3.447   1.046   0.943  1.2699  0.9263  0.3983
 2379SOL    HW2 7264   3.447   0.897   0.971  0.4969  0.5944 -1.1741
 2380SOL     OW 7265   5.873   0.599   3.623 -0.0206 -0.1756 -0.7536
 2380SOL    HW1 7266   5.810   0.613   3.551  1.0483  0.3203 -1.6623
 2380SOL    HW2 7267   5.874   0.505   3.636 -0.7970 -0.2132 -0.8488
 2381SOL     OW 7268   0.953   2.175   3.218  0.3742  0.1410  0.3512
 2381SOL    HW1 7269   0.906   2.257   3.234  2.7791  2.0701 -0.9606
 2381SOL    HW2 7270   1.043   2.193   3.246  1.5208 -1.2233 -1.8614
 2382SOL     OW 7271   2.944   4.701   2.210  0.0322 -0.3024  0.3518
 2382SOL    HW1 7272   2.890   4.653   2.273  1.2648 -1.2163  0.8058
 2382SOL    HW2 7273   2.972   4.634   2.147 -0.8044  0.5062 -0.9467
 2383SOL     OW 7274   4.773   4.794   1.181 -0.5531 -0.1526  0.3542
 2383SOL    HW1 7275   4.845   4.793   1.245 -0.1298  0.3930 -0.1001
 2383SOL    HW2 7276   4.813   4.767   1.099 -0.6834  0.8605 -0.0697
 2384SOL     OW 7277   5.814   4.479   2.294  0.4893  0.2630  0.4537
 2384SOL    HW1 7278   5.853   4.566   2.290  0.2910  0.3573  0.5294
 2384SOL    HW2 7279   5.876   4.422   2.250  1.3954  0.1552  1.7514
 2385SOL     OW 7280   6.271   6.239   2.616  0.2731 -0.3700  0.1035
 2385SOL    HW1 7281   6.248   6.196   2.698 -0.1671 -2.7170 -1.0711
 2385SOL    HW2 7282   6.200   6.216   2.556  1.9010 -1.3431 -1.6704
 2386SOL     OW 7283   5.934   4.714   2.286  0.3824 -0.3727  0.5163
 2386SOL    HW1 7284   6.026   4.730   2.309  0.7952  0.1786 -1.1945
 2386SOL    HW2 7285   5.896   4.802   2.279 -0.2362 -0.5902  0.9589
 2387SOL     OW 7286   2.942   5.698   2.422 -0.0849  0.0287 -0.1400
 2387SOL    HW1 7287   2.967   5.748   2.500 -1.5664  0.0697  0.3872
 2387SOL    HW2 7288   3.001   5.623   2.421  1.2494  1.0154 -0.1330
 2388SOL     OW 7289   1.080   1.245   4.236  0.5005  0.9659 -0.0232
 2388SOL    HW1 7290   1.052   1.227   4.326  0.1175 -0.8752 -0.4504
 2388SOL    HW2 7291   1.175   1.233   4.238  0.3903 -0.0950 -0.0243
 2389SOL     OW 7292   4.845   0.211   2.656 -0.1552 -0.1336 -0.4969
 2389SOL    HW1 7293   4.843   0.116   2.642  0.0303 -0.2383  0.1206
 2389SOL    HW2 7294   4.901   0.223   2.733 -1.7008  0.3081  0.6667
 2390SOL     OW 7295   5.528   5.666   3.578  0.5423 -0.1389 -0.0669
 2390SOL    HW1 7296   5.588   5.731   3.614  1.3174 -1.7822  2.0034
 2390SOL    HW2 7297   5.580   5.616   3.515  0.6086 -0.1155 -0.0298
 2391SOL     OW 7298   1.290   3.927   2.467 -0.6710  0.1907  0.2326
 2391SOL    HW1 7299   1.198   3.900   2.465 -0.9555  0.9178  1.5193
 2391SOL    HW2 7300   1.309   3.951   2.376 -1.4325 -0.8947 -0.2625
 2392SOL     OW 7301   5.199   4.133   3.870  0.4710  0.0740 -0.0007
 2392SOL    HW1 7302   5.215   4.116   3.777  1.8300  0.1564  0.1731
 2392SOL    HW2 7303   5.173   4.048   3.906  0.5810 -0.1102 -0.3421
 2393SOL     OW 7304   1.053   1.107   4.498 -0.4915 -0.2503  0.0616
 2393SOL    HW1 7305   1.111   1.031   4.504 -0.3768 -0.1026  1.3305
 2393SOL    HW2 7306   1.082   1.165   4.569 -0.6598  0.9378 -0.7696
 2394SOL     OW 7307   4.081   0.117   0.198 -0.6591  0.1069  0.2075
 2394SOL    HW1 7308   4.091   0.167   0.279 -0.0449  0.2267  0.0672
 2394SOL    HW2 7309   4.140   0.160   0.136  0.9002 -1.5029  0.4168
 2395SOL     OW 7310   1.937   3.873   0.663  0.3786  0.6613  0.6243
 2395SOL    HW1 7311   1.931   3.932   0.588 -2.6025 -0.3284 -0.1980
 2395SOL    HW2 7312   1.886   3.796   0.637  2.1207 -1.3723  2.4457
 2396SOL     OW 7313   4.479   2.505   1.114  0.0144 -0.7838 -0.5521
 2396SOL    HW1 7314   4.393   2.546   1.109  0.3913 -0.0536 -1.5772
 2396SOL    HW2 7315   4.495   2.472   1.025  1.4902  0.6564 -0.9208
 2397SOL     OW 7316   1.046   5.483   1.595  0.5034 -0.0608 -0.2351
 2397SOL    HW1 7317   1.068   5.559   1.541 -0.3791 -0.7164 -1.6399
 2397SOL    HW2 7318   1.018   5.416   1.532 -0.3871 -0.9921  1.0387
 2398SOL     OW 7319   1.079   1.649   2.909  1.0932 -0.4861  0.4676
 2398SOL    HW1 7320   1.080   1.561   2.947  0.3840 -1.1873 -0.9762
 2398SOL    HW2 7321   1.149   1.647   2.844  0.1127 -0.5752 -0.6585
 2399SOL     OW 7322   4.347   3.570   4.187  0.3477 -0.2219 -0.0599
 2399SOL    HW1 7323   4.258   3.535   4.192  0.9723 -2.0443 -0.1362
 2399SOL    HW2 7324   4.368   3.596   4.277 -0.0053 -0.5440  0.1204
 2400SOL     OW 7325   1.079   5.659   4.178 -0.6302 -0.7084  0.1476
 2400SOL    HW1 7326   1.133   5.601   4.232  1.2282  2.0131  1.6663
 2400SOL    HW2 7327   1.089   5.745   4.218 -1.4888  1.1327 -2.9490
 2401SOL     OW 7328   4.672   3.838   3.243  0.4048  0.2947 -0.0241
 2401SOL    HW1 7329   4.606   3.907   3.239  1.3515  1.3806  1.4362
 2401SOL    HW2 7330   4.749   3.876   3.201  1.0023  0.2286  0.9698
 2402SOL     OW 7331   3.798   1.691   0.668 -0.9656 -0.4352 -0.1228
 2402SOL    HW1 7332   3.793   1.636   0.589 -0.1667  1.0217 -1.2941
 2402SOL    HW2 7333   3.889   1.682   0.698 -0.8367  0.1518 -0.3004
 2403SOL     OW 7334   3.950   0.197   0.538  0.0368 -0.2694 -0.0063
 2403SOL    HW1 7335   4.038   0.231   0.527 -0.1535 -0.2258 -2.2630
 2403SOL    HW2 7336   3.961   0.103   0.551  0.4235 -0.2568 -0.2312
 2404SOL     OW 7337   0.941   3.499   0.711 -0.0859  0.3793  0.2543
 2404SOL    HW1 7338   0.891   3.470   0.634 -0.3620  2.9277 -0.7083
 2404SOL    HW2 7339   0.879   3.551   0.761  0.0668 -1.2531  2.4073
 2405SOL     OW 7340   0.226   4.293   2.218 -0.2764  0.1857  0.2379
 2405SOL    HW1 7341   0.216   4.211   2.267 -2.5672 -0.5570 -1.1510
 2405SOL    HW2 7342   0.164   4.353   2.259  0.3026  0.7459  0.3171
 2406SOL     OW 7343   0.214   4.595   3.773  0.3633 -0.5455  0.1589
 2406SOL    HW1 7344   0.157   4.577   3.847  0.2192 -1.3942 -0.1332
 2406SOL    HW2 7345   0.154   4.613   3.700  0.4743  1.8031  0.5078
 2407SOL     OW 7346   2.211   2.406   4.144 -0.6496  0.1010 -0.2468
 2407SOL    HW1 7347   2.257   2.490   4.140  0.1643 -0.3402 -1.1384
 2407SOL    HW2 7348   2.242   2.365   4.225 -0.4013  0.3093 -0.2345
 2408SOL     OW 7349   1.909   5.999   3.941  0.2525 -0.2665 -0.1190
 2408SOL    HW1 7350   1.840   6.049   3.898  0.6259 -0.5814 -1.1416
 2408SOL    HW2 7351   1.961   5.963   3.869  0.0892 -2.0171  0.5492
 2409SOL     OW 7352   3.633   2.170   2.015  0.0777  0.5328  0.0074
 2409SOL    HW1 7353   3.616   2.165   2.109 -1.1287  0.6175 -0.1762
 2409SOL    HW2 7354   3.556   2.214   1.978  1.1307  1.8450 -0.8697
 2410SOL     OW 7355   4.602   2.820   1.690 -0.4842 -0.1164  0.0307
 2410SOL    HW1 7356   4.563   2.891   1.638  0.2203  0.0879 -0.2435
 2410SOL    HW2 7357   4.611   2.858   1.778 -1.5563 -0.4176  0.2885
 2411SOL     OW 7358   1.371   5.196   1.897  0.3182 -0.5577 -0.1607
 2411SOL    HW1 7359   1.454   5.185   1.852 -0.1682 -1.1247 -0.9594
 2411SOL    HW2 7360   1.306   5.157   1.839 -0.4491 -0.5826  0.6675
 2412SOL     OW 7361   6.232   5.923   4.042  0.1852  0.3720 -0.7656
 2412SOL    HW1 7362   6.173   5.987   4.001 -1.0247  0.6170  1.0892
 2412SOL    HW2 7363   6.176   5.847   4.059 -0.0605  0.9387  1.8817
 2413SOL     OW 7364   0.647   4.683   0.855  0.1848 -0.0269  0.1313
 2413SOL    HW1 7365   0.606   4.674   0.941  1.5305  0.0870  0.8484
 2413SOL    HW2 7366   0.603   4.758   0.815 -0.8108 -0.3923  0.4893
 2414SOL     OW 7367   3.647   0.611   1.286 -0.1013  0.6117  0.7235
 2414SOL    HW1 7368   3.741   0.612   1.271 -0.0047 -3.5359 -2.5214
 2414SOL    HW2 7369   3.638   0.601   1.381  3.0356 -0.9130  1.1075
 2415SOL     OW 7370   5.204   4.043   0.048  0.2639 -0.2301  0.1287
 2415SOL    HW1 7371   5.138   3.989   0.003 -0.1569  0.4447 -0.0892
 2415SOL    HW2 7372   5.167   4.131   0.047  0.9218  0.0581  0.5145
 2416SOL     OW 7373   4.792   4.666   3.344 -0.6007 -0.1357  0.4843
 2416SOL    HW1 7374   4.776   4.753   3.381  0.2481 -0.1679  0.9894
 2416SOL    HW2 7375   4.886   4.651   3.358 -0.4079 -0.5335 -0.9074
 2417SOL     OW 7376   4.241   1.301   1.260  0.3255  0.6410  0.0942
 2417SOL    HW1 7377   4.317   1.310   1.317  0.1762 -2.2333  1.1074
 2417SOL    HW2 7378   4.170   1.343   1.309  0.7862  1.1014  0.3907
 2418SOL     OW 7379   5.299   3.093   1.075 -0.3600 -0.2054  0.0343
 2418SOL    HW1 7380   5.382   3.131   1.106 -0.7517  0.2424  0.5890
 2418SOL    HW2 7381   5.233   3.131   1.133 -0.9857 -0.3633 -0.5551
 2419SOL     OW 7382   6.102   6.119   3.906  0.7886  0.2793 -0.3847
 2419SOL    HW1 7383   6.119   6.209   3.934  0.9425  0.0228  0.3905
 2419SOL    HW2 7384   6.174   6.098   3.847  0.9360  0.5481 -0.3013
 2420SOL     OW 7385   5.792   3.302   2.474 -0.1848 -0.2146 -0.0984
 2420SOL    HW1 7386   5.732   3.272   2.543  0.2564  1.7465  1.3413
 2420SOL    HW2 7387   5.778   3.397   2.470  0.0098 -0.1528 -2.6494
 2421SOL     OW 7388   2.182   5.692   1.006 -0.0911  0.0089 -0.0778
 2421SOL    HW1 7389   2.236   5.692   0.926  1.7702 -2.9386  0.8487
 2421SOL    HW2 7390   2.223   5.758   1.062  1.5856 -0.9073 -0.0865
 2422SOL     OW 7391   2.201   0.246   2.305  0.4726  0.1499 -0.4373
 2422SOL    HW1 7392   2.287   0.286   2.322  0.5578  0.2111 -0.9680
 2422SOL    HW2 7393   2.149   0.268   2.382  1.2091 -0.7083  0.3554
 2423SOL     OW 7394   2.856   6.089   1.235 -0.1130  0.0435  0.8474
 2423SOL    HW1 7395   2.761   6.098   1.247 -0.2019  1.2861 -0.2916
 2423SOL    HW2 7396   2.865   6.050   1.148  0.2178  3.5985 -1.1052
 2424SOL     OW 7397   0.775   5.128   2.898 -0.2761  0.5341  0.0427
 2424SOL    HW1 7398   0.751   5.084   2.980 -0.1321  0.8951  0.2816
 2424SOL    HW2 7399   0.760   5.221   2.915  2.1681  0.9619  0.5778
 2425SOL     OW 7400   5.150   6.052   2.983 -0.1983 -0.1826 -0.0668
 2425SOL    HW1 7401   5.168   6.119   2.917 -0.2857 -0.3349 -0.2499
 2425SOL    HW2 7402   5.055   6.041   2.980 -0.4752  1.1737  1.4411
 2426SOL     OW 7403   4.281   0.728   0.407  0.4299 -0.2773 -0.2474
 2426SOL    HW1 7404   4.205   0.786   0.401  1.2936  0.9176 -0.5476
 2426SOL    HW2 7405   4.325   0.738   0.322  1.2701 -0.4039  0.1555
 2427SOL     OW 7406   3.742   0.843   1.704 -0.1937 -0.4395 -0.0183
 2427SOL    HW1 7407   3.649   0.861   1.690 -0.0617  0.4216  0.1383
 2427SOL    HW2 7408   3.780   0.927   1.727  0.8654 -0.5215 -1.2619
 2428SOL     OW 7409   5.725   2.421   3.134 -0.3610  0.0857 -0.1401
 2428SOL    HW1 7410   5.665   2.436   3.061 -1.3641 -0.1053  0.6130
 2428SOL    HW2 7411   5.784   2.496   3.132 -0.5993  0.2727 -0.9133
 2429SOL     OW 7412   6.334   5.056   2.406  0.3985 -0.1023 -0.0466
 2429SOL    HW1 7413   6.333   5.115   2.482 -0.6607  0.1780 -0.2569
 2429SOL    HW2 7414   6.370   4.974   2.441 -0.4346 -0.1127  0.8862
 2430SOL     OW 7415   4.369   4.989   1.324 -0.5709  0.0228 -0.8401
 2430SOL    HW1 7416   4.418   5.060   1.366 -1.1981 -0.1343  0.2209
 2430SOL    HW2 7417   4.390   4.911   1.376 -0.4953 -0.4392 -1.5229
 2431SOL     OW 7418   0.289   1.667   4.145 -0.2590  0.1560 -0.0131
 2431SOL    HW1 7419   0.352   1.735   4.122 -0.5069  1.5454  2.7110
 2431SOL    HW2 7420   0.234   1.659   4.067  0.7050  1.9821 -1.0203
 2432SOL     OW 7421   4.364   4.284   1.698 -0.4802  0.8024  0.2424
 2432SOL    HW1 7422   4.388   4.193   1.681 -0.2923  0.9810 -0.4942
 2432SOL    HW2 7423   4.370   4.293   1.793  1.9193  0.6862  0.2064
 2433SOL     OW 7424   1.772   0.930   3.972  0.1180 -0.7987 -0.0472
 2433SOL    HW1 7425   1.796   0.932   4.065  0.4874 -1.9479 -0.0984
 2433SOL    HW2 7426   1.809   0.849   3.938  0.0568 -0.3740 -1.2343
 2434SOL     OW 7427   0.595   1.012   1.437 -0.0552 -0.5206 -0.0475
 2434SOL    HW1 7428   0.550   0.994   1.520 -2.0173 -0.0596 -0.8901
 2434SOL    HW2 7429   0.645   0.932   1.419 -2.5572 -2.3311 -0.1150
 2435SOL     OW 7430   0.907   5.936   2.203  0.3850 -0.0270 -0.2484
 2435SOL    HW1 7431   0.837   5.984   2.159 -0.2536  0.3125  1.0255
 2435SOL    HW2 7432   0.862   5.864   2.248  0.7819  0.3639  0.8370
 2436SOL     OW 7433   2.358   1.351   2.744  0.2584 -0.1519  0.1512
 2436SOL    HW1 7434   2.375   1.441   2.716  1.6510  0.4043  2.2866
 2436SOL    HW2 7435   2.392   1.297   2.672  0.5778  1.0162 -0.6358
 2437SOL     OW 7436   0.983   2.396   3.379 -0.0230  0.1289  0.4343
 2437SOL    HW1 7437   0.959   2.486   3.398 -0.4068 -0.0435  0.7999
 2437SOL    HW2 7438   1.074   2.389   3.409  0.1808  0.5237 -0.0647
 2438SOL     OW 7439   0.855   5.380   4.497  0.5908 -0.2149 -0.4207
 2438SOL    HW1 7440   0.768   5.394   4.458  0.0647 -1.5408  0.1541
 2438SOL    HW2 7441   0.891   5.468   4.508 -1.3360  0.5602  0.7579
 2439SOL     OW 7442   4.240   5.668   3.370 -0.3330 -0.2238 -0.1318
 2439SOL    HW1 7443   4.171   5.718   3.324  0.2986 -0.0457 -0.9296
 2439SOL    HW2 7444   4.194   5.592   3.406 -1.2925  0.7623  0.9215
 2440SOL     OW 7445   5.344   3.148   3.200  0.5830  0.1555 -0.1206
 2440SOL    HW1 7446   5.388   3.064   3.184  0.3609  0.3575 -2.4662
 2440SOL    HW2 7447   5.389   3.184   3.277  1.3881 -1.6127  0.3446
 2441SOL     OW 7448   5.452   5.613   1.751 -0.2044  0.6192 -0.2014
 2441SOL    HW1 7449   5.524   5.676   1.743  0.4730 -0.2271 -1.4971
 2441SOL    HW2 7450   5.491   5.538   1.795  0.0437 -0.1837 -1.6526
 2442SOL     OW 7451   4.076   2.045   3.521 -0.0643 -0.3397  0.0232
 2442SOL    HW1 7452   4.150   2.098   3.490  0.3736  0.9754  2.6992
 2442SOL    HW2 7453   4.001   2.080   3.473  0.5226  1.4201  0.2104
 2443SOL     OW 7454   3.848   4.302   2.155 -0.3738  0.5426  0.1217
 2443SOL    HW1 7455   3.880   4.391   2.169  0.4612  0.1377  1.0344
 2443SOL    HW2 7456   3.927   4.247   2.152 -0.8822 -0.2265  0.0281
 2444SOL     OW 7457   1.616   1.789   2.552 -0.7008  0.2208 -0.0181
 2444SOL    HW1 7458   1.658   1.729   2.614 -1.2620 -0.4037 -0.2338
 2444SOL    HW2 7459   1.623   1.875   2.595  0.3252  0.0719  0.1855
 2445SOL     OW 7460   1.800   4.500   3.592 -0.0510 -0.3429  0.0540
 2445SOL    HW1 7461   1.845   4.436   3.537  1.3930  0.6212 -0.0073
 2445SOL    HW2 7462   1.729   4.533   3.538 -2.0493 -2.9842  0.6672
 2446SOL     OW 7463   3.289   5.537   0.403 -0.1118  0.2922 -0.1482
 2446SOL    HW1 7464   3.313   5.597   0.474  1.1459 -1.1139  0.7465
 2446SOL    HW2 7465   3.324   5.579   0.324  0.1459  1.0291  0.3336
 2447SOL     OW 7466   5.154   2.481   1.634 -1.1387 -0.2840 -0.3670
 2447SOL    HW1 7467   5.070   2.475   1.589 -1.2862  0.7185 -0.2772
 2447SOL    HW2 7468   5.132   2.468   1.727 -1.1691 -0.1965 -0.3618
 2448SOL     OW 7469   3.257   3.111   4.392  0.2004 -0.1948  0.0843
 2448SOL    HW1 7470   3.338   3.061   4.402  0.4387 -0.0550 -0.9642
 2448SOL    HW2 7471   3.188   3.049   4.413  0.5061 -0.9185 -0.9229
 2449SOL     OW 7472   3.077   6.370   3.394 -0.5220 -0.5200  0.3957
 2449SOL    HW1 7473   2.985   6.391   3.407 -0.5321 -0.7717  0.7780
 2449SOL    HW2 7474   3.124   6.440   3.439 -0.5041 -0.0077 -0.3877
 2450SOL     OW 7475   2.468   1.967   3.444  0.3176 -0.0459 -0.3108
 2450SOL    HW1 7476   2.378   1.997   3.435 -0.0577 -1.3539 -1.8016
 2450SOL    HW2 7477   2.467   1.911   3.521 -0.0673  0.1639 -0.1594
 2451SOL     OW 7478   1.627   6.137   2.888  0.3293  0.5497  0.2736
 2451SOL    HW1 7479   1.722   6.131   2.901  0.7241  1.0296 -1.7745
 2451SOL    HW2 7480   1.596   6.184   2.966  1.9241  1.2593  0.5719
 2452SOL     OW 7481   5.383   3.373   0.843  0.4480 -0.1019  0.0758
 2452SOL    HW1 7482   5.307   3.317   0.826  0.0342  0.0572  1.1918
 2452SOL    HW2 7483   5.454   3.311   0.861  0.0770 -0.3074  0.9597
 2453SOL     OW 7484   5.511   4.655   1.675 -0.3752 -0.5396  0.2416
 2453SOL    HW1 7485   5.532   4.711   1.749  1.2239 -0.4493 -0.2021
 2453SOL    HW2 7486   5.538   4.705   1.598 -2.6016 -0.3412 -0.5454
 2454SOL     OW 7487   3.103   3.218   2.404  0.0605 -0.4988  0.0463
 2454SOL    HW1 7488   3.130   3.306   2.377 -1.4862  0.2554  0.7166
 2454SOL    HW2 7489   3.067   3.178   2.325 -1.7896  0.6028  0.2124
 2455SOL     OW 7490   1.429   0.239   0.564  0.5181 -0.6561 -0.0209
 2455SOL    HW1 7491   1.402   0.227   0.655 -1.5243  2.6494  0.1136
 2455SOL    HW2 7492   1.520   0.269   0.569  0.7676 -1.4486  0.7371
 2456SOL     OW 7493   2.758   4.122   3.240  0.3389  0.2427  0.0169
 2456SOL    HW1 7494   2.794   4.092   3.323 -0.2602  1.8383  0.9463
 2456SOL    HW2 7495   2.819   4.189   3.210  0.0884  0.3041 -0.3675
 2457SOL     OW 7496   4.801   6.075   2.948  0.0232  0.4269 -0.0191
 2457SOL    HW1 7497   4.812   6.156   2.998  0.0096  0.3890  0.0464
 2457SOL    HW2 7498   4.791   6.103   2.857  0.4977  0.4708 -0.0605
 2458SOL     OW 7499   4.213   1.263   4.198 -0.1123  0.0283 -0.0381
 2458SOL    HW1 7500   4.270   1.212   4.256  2.3911  0.6483 -1.6723
 2458SOL    HW2 7501   4.236   1.234   4.110 -2.9525 -0.1193 -0.9388
 2459SOL     OW 7502   5.330   2.492   0.712 -0.7253 -0.1524 -0.2462
 2459SOL    HW1 7503   5.342   2.490   0.806  0.2113  0.0156 -0.3471
 2459SOL    HW2 7504   5.407   2.447   0.676 -0.9697 -0.0518 -0.9337
 2460SOL     OW 7505   6.372   0.589   0.079 -0.5309  0.1038  0.6785
 2460SOL    HW1 7506   6.314   0.528   0.034  0.2390  0.0830 -0.3724
 2460SOL    HW2 7507   6.336   0.597   0.167 -1.6922 -0.4437  0.2867
 2461SOL     OW 7508   3.701   0.188   0.709 -0.2164 -0.2411 -0.4439
 2461SOL    HW1 7509   3.669   0.278   0.721  2.2841  0.6446  1.6987
 2461SOL    HW2 7510   3.779   0.198   0.654  0.0651 -1.0907 -0.2260
 2462SOL     OW 7511   5.708   4.139   0.579 -0.1614  0.0020 -0.0649
 2462SOL    HW1 7512   5.736   4.101   0.663  1.3411 -0.1429 -0.5721
 2462SOL    HW2 7513   5.789   4.144   0.527 -1.1853 -0.9081 -1.9185
 2463SOL     OW 7514   4.173   0.442   1.045 -0.8719 -0.5460  0.1374
 2463SOL    HW1 7515   4.180   0.402   0.958 -0.8587 -0.1472 -0.0521
 2463SOL    HW2 7516   4.152   0.370   1.104 -1.1684 -0.7775 -0.2435
 2464SOL     OW 7517   5.213   0.412   2.019 -0.2979 -0.2059  0.0610
 2464SOL    HW1 7518   5.227   0.346   1.950 -2.2851 -0.0725 -0.6001
 2464SOL    HW2 7519   5.123   0.442   2.005  0.1548  1.9302  0.9851
 2465SOL     OW 7520   0.998   0.869   3.586 -0.2535  0.5985  0.1526
 2465SOL    HW1 7521   1.055   0.819   3.528  0.4831  1.7735 -0.2127
 2465SOL    HW2 7522   0.931   0.906   3.529 -1.6444 -0.9626  0.6092
 2466SOL     OW 7523   0.451   1.171   4.474 -0.3917  0.0901 -0.4221
 2466SOL    HW1 7524   0.499   1.107   4.421 -1.2898 -0.5082 -0.5617
 2466SOL    HW2 7525   0.371   1.125   4.499 -1.7589  1.5614 -1.6750
 2467SOL     OW 7526   0.111   0.553   1.374  0.0458 -0.0860  0.5333
 2467SOL    HW1 7527   0.139   0.466   1.400 -1.0631 -0.2854  1.2028
 2467SOL    HW2 7528   0.026   0.564   1.416 -0.6290  0.6623 -0.8860
 2468SOL     OW 7529   0.619   4.607   3.650 -0.4209  0.2089 -0.1689
 2468SOL    HW1 7530   0.586   4.682   3.601 -0.0024 -0.0319 -0.8344
 2468SOL    HW2 7531   0.541   4.554   3.669 -0.6142  0.4181 -0.3751
 2469SOL     OW 7532   4.476   6.308   1.336  0.2520 -0.9909 -0.2154
 2469SOL    HW1 7533   4.566   6.301   1.367 -0.3359  0.7607  2.5336
 2469SOL    HW2 7534   4.475   6.386   1.281  0.4269 -1.1683 -0.4754
 2470SOL     OW 7535   5.842   3.202   4.130  0.6362 -0.2371  0.2978
 2470SOL    HW1 7536   5.758   3.157   4.139  0.2106  0.5482  0.4287
 2470SOL    HW2 7537   5.825   3.274   4.069  1.3497 -0.3594 -0.0725
 2471SOL     OW 7538   0.815   3.685   4.491  0.3113 -0.2867 -0.1671
 2471SOL    HW1 7539   0.834   3.672   4.584  1.4131  0.3370 -0.2806
 2471SOL    HW2 7540   0.739   3.743   4.490  0.4210 -0.1243  0.3445
 2472SOL     OW 7541   5.718   5.642   2.048 -0.0507  0.0536 -0.3207
 2472SOL    HW1 7542   5.726   5.737   2.053 -1.1492  0.2957 -1.8739
 2472SOL    HW2 7543   5.755   5.619   1.963  1.1341 -1.0947  0.4308
 2473SOL     OW 7544   3.091   0.431   1.140  0.2328 -0.6835  0.0667
 2473SOL    HW1 7545   3.044   0.351   1.113  1.2885 -0.9186 -1.3162
 2473SOL    HW2 7546   3.109   0.418   1.233 -1.2077 -1.1823  0.3274
 2474SOL     OW 7547   1.165   6.013   1.566 -0.2508 -0.1796 -0.3949
 2474SOL    HW1 7548   1.203   6.017   1.654 -1.2055 -1.5761  0.1495
 2474SOL    HW2 7549   1.154   5.920   1.549 -1.4155  0.0904 -1.3836
 2475SOL     OW 7550   4.698   5.834   0.340 -0.3213  0.1942  0.2855
 2475SOL    HW1 7551   4.789   5.854   0.361  0.3378 -0.6312 -1.3777
 2475SOL    HW2 7552   4.650   5.914   0.360  1.0284  1.1475 -0.0388
 2476SOL     OW 7553   2.503   1.290   2.111 -0.5088 -0.3477  0.6640
 2476SOL    HW1 7554   2.525   1.361   2.170 -0.8795  0.3558 -0.0062
 2476SOL    HW2 7555   2.498   1.331   2.025  0.8084 -1.4764 -0.0249
 2477SOL     OW 7556   5.915   5.187   0.493  0.1030 -0.3541  0.4618
 2477SOL    HW1 7557   5.968   5.118   0.453  0.8080 -0.0006  0.7458
 2477SOL    HW2 7558   5.825   5.156   0.485  0.3301 -0.8855 -0.2196
 2478SOL     OW 7559   3.720   4.108   2.327 -0.1975 -0.2603  0.3960
 2478SOL    HW1 7560   3.759   4.153   2.252  1.0902  1.6399  1.9899
 2478SOL    HW2 7561   3.676   4.032   2.289  0.7004  0.2941 -2.1879
 2479SOL     OW 7562   4.368   4.704   3.669 -0.1334 -0.5546  0.2432
 2479SOL    HW1 7563   4.415   4.726   3.749  0.5787  0.5767 -0.4325
 2479SOL    HW2 7564   4.390   4.775   3.608 -1.3894 -0.8705 -0.6623
 2480SOL     OW 7565   0.016   2.882   2.138 -0.2245  0.0339  0.2063
 2480SOL    HW1 7566   0.054   2.964   2.106  0.6567 -0.1114  0.8140
 2480SOL    HW2 7567   0.008   2.827   2.060 -2.7802  1.2962 -0.6689
 2481SOL     OW 7568   2.862   0.408   1.317 -0.1040  0.4224  0.3973
 2481SOL    HW1 7569   2.788   0.369   1.363  0.6941  0.2295  1.6068
 2481SOL    HW2 7570   2.926   0.428   1.386  0.8932  0.7646 -0.5626
 2482SOL     OW 7571   4.132   4.959   0.814 -0.5292 -0.1686  0.4613
 2482SOL    HW1 7572   4.057   5.004   0.776  0.0595  0.5463  0.1047
 2482SOL    HW2 7573   4.208   5.007   0.781  0.1838 -1.7299 -0.4031
 2483SOL     OW 7574   6.000   0.012   0.447  0.0911  0.3119 -0.0284
 2483SOL    HW1 7575   5.945  -0.062   0.418 -0.0829  0.3840  0.1137
 2483SOL    HW2 7576   6.032   0.051   0.366  0.5770 -0.2117 -0.0954
 2484SOL     OW 7577   5.715   5.054   0.834 -0.3285  0.1662 -0.0270
 2484SOL    HW1 7578   5.666   5.129   0.798 -2.6798 -0.5582  1.2387
 2484SOL    HW2 7579   5.772   5.092   0.900 -0.9008  0.9232  0.0601
 2485SOL     OW 7580   4.405   5.553   0.159  0.1578 -0.1511 -0.2342
 2485SOL    HW1 7581   4.447   5.577   0.076  1.3166  3.2884  0.9911
 2485SOL    HW2 7582   4.334   5.615   0.169  0.2150 -0.2645  1.4108
 2486SOL     OW 7583   2.053   3.962   1.253  0.2178  0.5445  0.0239
 2486SOL    HW1 7584   2.002   3.896   1.204 -1.0286  1.6600 -0.3020
 2486SOL    HW2 7585   2.026   3.949   1.344  1.1966 -0.3729  0.2301
 2487SOL     OW 7586   6.330   5.458   0.882 -0.0106 -0.3313 -0.1773
 2487SOL    HW1 7587   6.331   5.505   0.966  0.7469  0.0239 -0.3677
 2487SOL    HW2 7588   6.271   5.509   0.827  0.7899  0.4340 -0.3759
 2488SOL     OW 7589   1.848   6.355   3.337 -0.2261  0.1164 -0.2177
 2488SOL    HW1 7590   1.840   6.447   3.311  1.5205 -0.0299 -1.6552
 2488SOL    HW2 7591   1.846   6.307   3.255  1.2791 -0.8592  0.2417
 2489SOL     OW 7592   1.819   3.252   4.335 -0.1570  0.4749  0.0357
 2489SOL    HW1 7593   1.908   3.272   4.305 -0.0638  1.4767  0.8650
 2489SOL    HW2 7594   1.791   3.180   4.280  1.1911  0.0901 -0.2206
 2490SOL     OW 7595   4.558   1.328   4.333  0.1337  0.3528 -0.2230
 2490SOL    HW1 7596   4.514   1.355   4.414  0.7096 -0.1653  0.2793
 2490SOL    HW2 7597   4.650   1.316   4.359  0.8300  2.2440 -1.4005
 2491SOL     OW 7598   6.201   1.970   2.434  0.3055 -0.1565  0.3861
 2491SOL    HW1 7599   6.131   2.007   2.381  0.3816 -0.4731  0.0573
 2491SOL    HW2 7600   6.282   2.002   2.394  0.3792 -0.8197 -0.0283
 2492SOL     OW 7601   0.248   6.249   2.212  0.5755  0.4857 -0.6936
 2492SOL    HW1 7602   0.270   6.300   2.290 -0.5076  1.8403 -1.1848
 2492SOL    HW2 7603   0.170   6.200   2.236 -1.4594  2.8913 -1.4532
 2493SOL     OW 7604   3.352   2.436   3.197  0.5389 -0.2445  0.3842
 2493SOL    HW1 7605   3.430   2.446   3.143  1.2712 -2.7917  0.6958
 2493SOL    HW2 7606   3.366   2.495   3.271  2.0517 -0.3794  0.2732
 2494SOL     OW 7607   6.326   4.480   1.036  0.0350  0.7580  0.2322
 2494SOL    HW1 7608   6.352   4.570   1.020  1.2770  0.5408  0.7577
 2494SOL    HW2 7609   6.272   4.484   1.115  1.7401  0.9261  1.5199
 2495SOL     OW 7610   4.457   1.165   2.611 -0.0334 -0.2908 -0.1622
 2495SOL    HW1 7611   4.382   1.121   2.651  0.7416  0.4027  2.4125
 2495SOL    HW2 7612   4.532   1.113   2.639  0.6529  0.8325  0.1933
 2496SOL     OW 7613   1.238   3.435   3.188  0.2978  0.6219 -0.3837
 2496SOL    HW1 7614   1.199   3.484   3.115 -0.7689 -0.6732 -0.7551
 2496SOL    HW2 7615   1.280   3.360   3.146  2.2968  1.3234  0.1280
 2497SOL     OW 7616   0.013   0.055   0.991  0.0514 -0.2481  0.5054
 2497SOL    HW1 7617  -0.060  -0.005   1.000  0.6662 -0.8675  2.0818
 2497SOL    HW2 7618   0.010   0.109   1.071  1.3503 -0.3859  0.6937
 2498SOL     OW 7619   0.569   2.454   2.998 -0.2084 -0.0671  0.2268
 2498SOL    HW1 7620   0.618   2.463   3.080 -0.1648  0.4124  0.1545
 2498SOL    HW2 7621   0.480   2.480   3.021 -0.6950 -1.7870  0.5770
 2499SOL     OW 7622   4.113   1.576   2.211 -0.2128  0.0034  0.0078
 2499SOL    HW1 7623   4.209   1.569   2.208 -0.0396  1.3607  0.6871
 2499SOL    HW2 7624   4.082   1.501   2.160  1.1935 -0.6250 -0.0291
 2500SOL     OW 7625   5.928   2.376   4.480  0.3943  0.1152 -0.0598
 2500SOL    HW1 7626   6.004   2.328   4.450 -0.8733 -1.9877 -0.2916
 2500SOL    HW2 7627   5.872   2.310   4.521 -0.9585  1.6685  0.8423
 2501SOL     OW 7628   4.941   3.237   3.975  0.2683 -0.4736  0.0807
 2501SOL    HW1 7629   4.870   3.211   3.916  0.9445 -0.4822 -0.7538
 2501SOL    HW2 7630   4.898   3.246   4.060 -0.8399  0.0136 -0.4838
 2502SOL     OW 7631   0.168   4.023   0.223 -0.1984 -0.5880  0.7760
 2502SOL    HW1 7632   0.197   3.983   0.141  0.4950 -0.2601  0.8404
 2502SOL    HW2 7633   0.181   3.956   0.289 -0.9553 -0.9246  0.6004
 2503SOL     OW 7634   2.384   1.966   0.752 -0.1339 -0.5476  0.4323
 2503SOL    HW1 7635   2.335   1.983   0.832  1.4816  1.8364  1.1270
 2503SOL    HW2 7636   2.324   1.992   0.682 -0.1572  2.0825  1.2298
 2504SOL     OW 7637   3.078   5.331   3.755 -0.0461  0.0089  0.5017
 2504SOL    HW1 7638   2.994   5.352   3.795 -0.1434  0.2551  0.1781
 2504SOL    HW2 7639   3.066   5.351   3.662  0.3248 -0.0911  0.4276
 2505SOL     OW 7640   6.331   4.013   2.628  0.4957  0.1993  0.1734
 2505SOL    HW1 7641   6.419   4.029   2.661  0.5942 -1.2853  0.7824
 2505SOL    HW2 7642   6.308   3.927   2.662 -0.6314 -0.1038 -1.1569
 2506SOL     OW 7643   1.080   4.095   0.766  0.1570 -0.5113  0.3586
 2506SOL    HW1 7644   1.015   4.055   0.823  0.1241  0.2407  0.8806
 2506SOL    HW2 7645   1.035   4.108   0.683 -1.4107  2.3643  1.3648
 2507SOL     OW 7646   2.723   0.206   1.601  0.5485  0.0499  0.1952
 2507SOL    HW1 7647   2.802   0.178   1.556  0.5491 -1.1272  0.8260
 2507SOL    HW2 7648   2.685   0.124   1.634 -1.1250  0.5175 -0.3823
 2508SOL     OW 7649   5.646   1.890   2.466 -0.2617  0.5248 -0.3282
 2508SOL    HW1 7650   5.721   1.945   2.490  0.0816 -0.5762  1.4464
 2508SOL    HW2 7651   5.570   1.945   2.485 -0.1631  2.2373 -3.5128
 2509SOL     OW 7652   6.051   4.892   2.554  0.8215  0.3679 -0.2066
 2509SOL    HW1 7653   6.064   4.827   2.486  0.0531  1.7875 -1.8830
 2509SOL    HW2 7654   5.964   4.929   2.536 -0.1333 -0.0536  2.4605
 2510SOL     OW 7655   2.852   0.521   2.126  0.1685 -0.7157  0.6753
 2510SOL    HW1 7656   2.884   0.475   2.204  0.5671  0.4008  1.2145
 2510SOL    HW2 7657   2.865   0.459   2.055  0.6000 -1.4599  1.3640
 2511SOL     OW 7658   1.912   1.163   3.887 -0.6953  0.1768 -0.1237
 2511SOL    HW1 7659   1.867   1.079   3.899 -3.0952  1.4988  3.1600
 2511SOL    HW2 7660   1.844   1.229   3.902  1.4951  2.6427  0.3959
 2512SOL     OW 7661   1.223   4.998   4.208 -0.2529  0.7435 -0.0929
 2512SOL    HW1 7662   1.154   5.065   4.207  1.2516  2.4570 -1.3050
 2512SOL    HW2 7663   1.303   5.046   4.230  0.7033 -1.0725  0.9179
 2513SOL     OW 7664   5.890   4.341   3.856 -0.3747  0.1308  0.1253
 2513SOL    HW1 7665   5.907   4.362   3.947 -0.2562 -1.6482  0.5902
 2513SOL    HW2 7666   5.930   4.255   3.843  0.7881  0.8227 -1.9990
 2514SOL     OW 7667   1.696   2.810   4.408 -0.6817  0.0957 -0.2202
 2514SOL    HW1 7668   1.674   2.727   4.449 -0.1716  0.1219  0.1260
 2514SOL    HW2 7669   1.792   2.814   4.412 -0.5547 -0.0926 -1.7934
 2515SOL     OW 7670   0.364   2.969   1.036 -0.4773  0.1260 -0.4775
 2515SOL    HW1 7671   0.359   2.970   0.940 -1.8406  0.2997 -0.4363
 2515SOL    HW2 7672   0.395   2.881   1.058  0.9105  0.4113 -1.0679
 2516SOL     OW 7673   0.995   1.780   2.612 -0.0312  0.4312 -0.0783
 2516SOL    HW1 7674   0.938   1.792   2.688  0.9274  0.0304  0.7425
 2516SOL    HW2 7675   1.001   1.685   2.601 -0.4998  0.4849 -0.9459
 2517SOL     OW 7676   3.613   1.126   4.245 -0.6296  0.0555 -0.4480
 2517SOL    HW1 7677   3.594   1.048   4.297 -0.2213  0.2058 -0.0615
 2517SOL    HW2 7678   3.538   1.184   4.260  0.2047  0.8169  1.4004
 2518SOL     OW 7679   1.773   4.642   0.504  0.1646 -0.3170 -0.1785
 2518SOL    HW1 7680   1.737   4.600   0.426 -1.1856 -0.8802  0.6680
 2518SOL    HW2 7681   1.744   4.587   0.576  0.1814  0.9043  0.8335
 2519SOL     OW 7682   2.820   1.855   2.469  0.1612  0.2476  0.1941
 2519SOL    HW1 7683   2.885   1.794   2.504 -0.2752 -1.4344 -1.5308
 2519SOL    HW2 7684   2.844   1.865   2.377 -0.3841  1.9931  0.1685
 2520SOL     OW 7685   3.319   1.382   2.067  0.3043  0.1350 -0.0038
 2520SOL    HW1 7686   3.331   1.296   2.107 -0.1487  0.3051  0.5364
 2520SOL    HW2 7687   3.236   1.375   2.020  1.2748 -0.3633 -1.8169
 2521SOL     OW 7688   5.443   1.537   1.130 -0.2200  0.6245 -0.1707
 2521SOL    HW1 7689   5.350   1.517   1.135 -0.1438 -0.3951 -1.5809
 2521SOL    HW2 7690   5.456   1.571   1.041  0.7019  1.1876  0.1429
 2522SOL     OW 7691   2.365   4.606   3.255 -0.2111 -0.3728 -0.5285
 2522SOL    HW1 7692   2.317   4.628   3.175  0.8378  0.0167 -1.0756
 2522SOL    HW2 7693   2.328   4.664   3.322  1.1579  1.8542 -1.5062
 2523SOL     OW 7694   0.586   1.369   4.267  0.3248  0.4724  0.3757
 2523SOL    HW1 7695   0.569   1.295   4.209  1.0367  0.0435  0.6847
 2523SOL    HW2 7696   0.500   1.407   4.283 -0.4990 -1.6567  2.0184
 2524SOL     OW 7697   0.477   1.772   3.648 -0.1696  0.0594 -0.4865
 2524SOL    HW1 7698   0.446   1.862   3.642 -0.2611  0.0903  0.2139
 2524SOL    HW2 7699   0.398   1.720   3.660 -0.0526  0.0110  0.1492
 2525SOL     OW 7700   0.540   3.982   0.080 -0.0502  0.3937  0.1963
 2525SOL    HW1 7701   0.635   3.991   0.094  0.5548  0.4106 -2.6968
 2525SOL    HW2 7702   0.521   3.891   0.102  0.6541  0.3524  0.7156
 2526SOL     OW 7703   6.344   0.340   3.983  0.0383 -0.2091  0.1744
 2526SOL    HW1 7704   6.309   0.261   3.941 -1.5059 -0.3072  1.4970
 2526SOL    HW2 7705   6.388   0.387   3.911 -0.7076 -1.2947 -1.0885
 2527SOL     OW 7706   0.297   5.765   1.259  0.6435 -0.2927 -0.3068
 2527SOL    HW1 7707   0.268   5.832   1.320  2.0851 -0.8213  1.0945
 2527SOL    HW2 7708   0.270   5.798   1.173 -0.6945  0.9320  0.4925
 2528SOL     OW 7709   5.797   1.316   0.248 -0.0282  0.0603 -0.0333
 2528SOL    HW1 7710   5.800   1.301   0.153  1.3586 -1.3847  0.1361
 2528SOL    HW2 7711   5.739   1.247   0.281  1.1742 -0.8933  0.2594
 2529SOL     OW 7712   3.292   0.213   0.839 -0.2970  0.1744 -0.2303
 2529SOL    HW1 7713   3.376   0.174   0.863 -0.1309 -1.5380 -2.7844
 2529SOL    HW2 7714   3.227   0.146   0.858 -0.6793  0.4076 -0.6679
 2530SOL     OW 7715   6.190   2.323   3.480  0.3686 -0.1162 -0.3765
 2530SOL    HW1 7716   6.238   2.379   3.419 -2.0557  0.5303 -2.0034
 2530SOL    HW2 7717   6.155   2.253   3.425 -0.0556 -0.8687  0.7858
 2531SOL     OW 7718   2.212   1.962   0.170  0.6309  0.4422  0.1214
 2531SOL    HW1 7719   2.184   1.985   0.259  0.3905  1.9448 -0.2869
 2531SOL    HW2 7720   2.286   1.903   0.183 -0.4994 -0.8673  1.2745
 2532SOL     OW 7721   3.902   2.344   2.703 -0.0418  0.8085 -0.5776
 2532SOL    HW1 7722   3.985   2.355   2.748  1.2314 -1.8345 -1.8434
 2532SOL    HW2 7723   3.868   2.433   2.693  1.4641  1.8650  1.9098
 2533SOL     OW 7724   4.451   5.447   2.519 -1.1484 -0.7132 -0.4636
 2533SOL    HW1 7725   4.496   5.515   2.469 -0.2040 -0.9260  0.0393
 2533SOL    HW2 7726   4.366   5.437   2.476 -0.8805  0.0059 -1.2114
 2534SOL     OW 7727   6.216   0.195   3.559 -0.6948  0.1909  0.1548
 2534SOL    HW1 7728   6.187   0.277   3.600  0.6674  1.1933 -0.7159
 2534SOL    HW2 7729   6.274   0.223   3.488 -0.2838 -1.5478 -0.2845
 2535SOL     OW 7730   3.454   2.760   3.702  0.3214  0.2654  0.5630
 2535SOL    HW1 7731   3.424   2.848   3.679 -0.6437 -0.2455 -0.2772
 2535SOL    HW2 7732   3.374   2.709   3.712  0.8316 -0.9569 -0.8609
 2536SOL     OW 7733   4.761   4.420   1.116  0.0653 -0.1984 -0.2254
 2536SOL    HW1 7734   4.689   4.456   1.168  0.4445 -2.1542  1.9695
 2536SOL    HW2 7735   4.840   4.442   1.165  0.4675 -2.0046  0.0863
 2537SOL     OW 7736   6.291   2.034   0.747  0.0760  0.3005 -0.3169
 2537SOL    HW1 7737   6.316   1.978   0.821 -1.5455  1.2227  1.0946
 2537SOL    HW2 7738   6.196   2.022   0.740  0.2312 -0.9901 -3.4598
 2538SOL     OW 7739   4.346   3.965   3.103 -0.0896  0.3136 -0.0405
 2538SOL    HW1 7740   4.357   3.887   3.048 -1.4564  0.2446 -0.2700
 2538SOL    HW2 7741   4.262   3.952   3.147  0.1568  1.1784  0.7582
 2539SOL     OW 7742   5.402   5.149   1.017 -0.4412  0.3996  0.3296
 2539SOL    HW1 7743   5.326   5.114   0.970  0.1455 -0.4868 -0.0087
 2539SOL    HW2 7744   5.376   5.238   1.042 -2.4388 -0.4970  2.1272
 2540SOL     OW 7745   5.695   2.298   1.479  0.4382 -0.6323 -0.1664
 2540SOL    HW1 7746   5.711   2.382   1.437  2.2633 -0.8700 -0.1006
 2540SOL    HW2 7747   5.624   2.259   1.429 -1.2975  1.3431  0.4975
 2541SOL     OW 7748   5.892   0.644   4.134 -0.3907  0.0280  0.1895
 2541SOL    HW1 7749   5.966   0.598   4.173 -0.7963  0.6421  1.8293
 2541SOL    HW2 7750   5.932   0.722   4.094  0.0154 -0.5387 -0.5709
 2542SOL     OW 7751   5.950   3.380   4.430  0.2905  0.0132 -0.4863
 2542SOL    HW1 7752   5.924   3.288   4.423  2.3218 -0.8120  0.9721
 2542SOL    HW2 7753   5.874   3.429   4.397 -0.4541 -2.1349 -2.5613
 2543SOL     OW 7754   5.316   4.644   2.431 -0.2568 -0.1675  0.2449
 2543SOL    HW1 7755   5.238   4.637   2.376 -0.1548 -0.1276  0.0955
 2543SOL    HW2 7756   5.389   4.628   2.372  0.1209  2.7777 -0.3730
 2544SOL     OW 7757   1.802   5.837   1.105 -0.3108 -0.3059 -0.1706
 2544SOL    HW1 7758   1.707   5.838   1.101 -0.3322  1.1287 -0.4582
 2544SOL    HW2 7759   1.822   5.796   1.189 -1.2079  0.0515  0.2390
 2545SOL     OW 7760   1.552   0.348   1.054  0.3087  0.5882  0.1002
 2545SOL    HW1 7761   1.619   0.336   1.122  0.6586 -4.3521 -0.4288
 2545SOL    HW2 7762   1.469   0.332   1.099  0.0561  1.1775 -0.1310
 2546SOL     OW 7763   6.105   3.045   1.401  0.2713 -0.6250  0.0569
 2546SOL    HW1 7764   6.017   3.072   1.425 -0.2073 -2.2414  0.3350
 2546SOL    HW2 7765   6.154   3.047   1.483  0.3442 -0.2751  0.0072
 2547SOL     OW 7766   4.422   6.265   1.799 -0.2515 -0.1551  0.0747
 2547SOL    HW1 7767   4.388   6.313   1.724 -1.3796  2.0878  1.7937
 2547SOL    HW2 7768   4.384   6.177   1.791 -1.3883  0.4010 -1.2738
 2548SOL     OW 7769   0.299   2.705   2.598 -0.1673  0.1149  0.5406
 2548SOL    HW1 7770   0.242   2.769   2.639 -1.0144 -1.1641  1.5281
 2548SOL    HW2 7771   0.360   2.679   2.668 -1.8069 -2.3091  1.3546
 2549SOL     OW 7772   2.424   5.717   2.026  0.3498 -0.1914  0.2181
 2549SOL    HW1 7773   2.484   5.712   2.100  0.7498 -0.2439 -0.1041
 2549SOL    HW2 7774   2.445   5.801   1.984  0.6019 -0.4735 -0.2311
 2550SOL     OW 7775   5.391   3.783   3.810 -0.3237 -0.0706 -0.3000
 2550SOL    HW1 7776   5.375   3.854   3.872 -2.2893  0.9449 -1.7318
 2550SOL    HW2 7777   5.463   3.814   3.755  0.3264 -0.2598  0.4059
 2551SOL     OW 7778   5.726   5.015   2.661  0.0127  0.2556 -0.0142
 2551SOL    HW1 7779   5.802   5.052   2.706  1.2415 -0.6330 -1.2305
 2551SOL    HW2 7780   5.758   4.988   2.575 -0.6144 -3.5446  0.5818
 2552SOL     OW 7781   4.930   4.200   2.917  0.3587  0.0149  0.3519
 2552SOL    HW1 7782   4.975   4.119   2.893  0.4753  0.8121 -3.2221
 2552SOL    HW2 7783   5.000   4.260   2.941  0.8196  0.0500 -0.9232
 2553SOL     OW 7784   0.024   2.825   3.942 -0.1452 -0.0637 -0.1812
 2553SOL    HW1 7785   0.053   2.734   3.944  0.2795 -0.0094 -1.6276
 2553SOL    HW2 7786  -0.060   2.823   3.896  0.5799  0.3670 -1.6440
 2554SOL     OW 7787   1.660   0.664   2.200 -0.5444  0.6043  0.4860
 2554SOL    HW1 7788   1.738   0.704   2.237 -0.4969  0.3452  0.6756
 2554SOL    HW2 7789   1.616   0.623   2.275  0.1694 -0.9702  0.1224
 2555SOL     OW 7790   2.183   3.354   1.260  0.0616 -0.5839  0.2275
 2555SOL    HW1 7791   2.154   3.388   1.345  1.3283 -1.7998  1.2629
 2555SOL    HW2 7792   2.120   3.389   1.197 -0.8601  0.5269  1.6242
 2556SOL     OW 7793   1.405   5.939   2.322 -0.4785  0.0542 -0.0643
 2556SOL    HW1 7794   1.369   5.903   2.403 -2.0105  1.2852 -0.0904
 2556SOL    HW2 7795   1.330   5.942   2.262  0.1076  1.0500 -0.8088
 2557SOL     OW 7796   6.298   1.183   0.168  0.4768 -0.0849 -0.2180
 2557SOL    HW1 7797   6.390   1.163   0.150  0.4996  0.6528 -1.0259
 2557SOL    HW2 7798   6.297   1.211   0.260  1.0901  0.0456 -0.2447
 2558SOL     OW 7799   3.952   3.992   4.255  0.5871 -0.0210  0.1297
 2558SOL    HW1 7800   3.893   3.958   4.322  1.3015 -1.5475  0.0609
 2558SOL    HW2 7801   4.034   4.008   4.301  0.5459  0.7745 -0.0425
 2559SOL     OW 7802   3.241   3.139   1.735  0.2862 -0.0379 -0.2426
 2559SOL    HW1 7803   3.291   3.201   1.789  0.7872 -1.1073  0.5901
 2559SOL    HW2 7804   3.307   3.094   1.683 -0.0421 -0.0671 -0.6417
 2560SOL     OW 7805   6.016   5.215   3.846 -0.3159 -0.1003  0.1668
 2560SOL    HW1 7806   6.023   5.120   3.839 -2.2530 -0.3059  0.0407
 2560SOL    HW2 7807   6.097   5.241   3.891 -0.0935 -1.9011  1.0047
 2561SOL     OW 7808   2.418   5.646   4.104  0.3862  0.0665  0.6765
 2561SOL    HW1 7809   2.365   5.662   4.025 -1.3709 -1.3062  1.4240
 2561SOL    HW2 7810   2.469   5.726   4.115  1.7137 -0.0439 -2.4421
 2562SOL     OW 7811   2.742   4.759   4.099 -0.4622 -0.1259 -0.1252
 2562SOL    HW1 7812   2.814   4.817   4.074 -0.9745  0.3192 -0.6047
 2562SOL    HW2 7813   2.682   4.761   4.025 -0.2683 -1.6998 -0.3966
 2563SOL     OW 7814   5.887   3.017   2.974 -0.3390 -0.1355 -0.0846
 2563SOL    HW1 7815   5.974   2.991   3.004 -0.1189 -0.4561 -0.9172
 2563SOL    HW2 7816   5.901   3.099   2.927 -0.9437  1.3171  2.0182
 2564SOL     OW 7817   4.089   2.013   1.627 -0.8213 -0.3457 -0.1395
 2564SOL    HW1 7818   4.096   1.919   1.640  0.8575 -0.3474 -0.6409
 2564SOL    HW2 7819   4.169   2.038   1.581  0.2087  1.7012  2.2602
 2565SOL     OW 7820   4.307   4.787   4.108  0.5774 -0.0607 -0.4873
 2565SOL    HW1 7821   4.238   4.796   4.174 -1.0007 -0.5103 -1.9318
 2565SOL    HW2 7822   4.286   4.854   4.043  1.1442 -0.5899 -1.2478
 2566SOL     OW 7823   0.035   4.133   1.384  0.8124 -0.0137 -0.0732
 2566SOL    HW1 7824  -0.056   4.162   1.382  0.1212 -1.1644 -4.1442
 2566SOL    HW2 7825   0.071   4.172   1.464 -2.9441  1.1451  1.5128
 2567SOL     OW 7826   0.013   3.621   1.267 -0.4166 -0.3105 -0.0846
 2567SOL    HW1 7827  -0.049   3.564   1.312 -1.0746  0.1825 -0.3245
 2567SOL    HW2 7828   0.080   3.641   1.332  0.6785 -2.4563 -0.3643
 2568SOL     OW 7829   5.339   0.489   1.354 -0.1251  0.4180  0.6291
 2568SOL    HW1 7830   5.380   0.569   1.386  0.7058 -0.0547  0.8113
 2568SOL    HW2 7831   5.286   0.458   1.428  1.2505 -0.3108  1.3835
 2569SOL     OW 7832   0.407   4.626   3.009  0.1858 -0.2606 -0.5177
 2569SOL    HW1 7833   0.453   4.631   3.092  0.0906  1.2336 -0.5023
 2569SOL    HW2 7834   0.369   4.539   3.008  0.9503 -0.6477  0.5773
 2570SOL     OW 7835   4.441   2.084   0.273  0.5646 -0.2398 -0.1652
 2570SOL    HW1 7836   4.534   2.068   0.283  0.3421 -2.5801 -0.7285
 2570SOL    HW2 7837   4.398   2.016   0.324 -0.7905 -0.2420 -1.1741
 2571SOL     OW 7838   4.085   4.577   3.939  0.1735 -0.0224 -0.1945
 2571SOL    HW1 7839   4.154   4.532   3.988  1.2514  1.7282  0.0818
 2571SOL    HW2 7840   4.080   4.530   3.856  1.0155 -0.7994  0.1624
 2572SOL     OW 7841   6.019   0.497   2.231 -0.2882 -0.3024 -0.0078
 2572SOL    HW1 7842   5.941   0.536   2.272  1.0650  2.2335  0.5372
 2572SOL    HW2 7843   6.036   0.418   2.283 -1.9471 -0.4931  0.3815
 2573SOL     OW 7844   2.297   4.580   2.349 -0.0978 -0.2988 -0.4998
 2573SOL    HW1 7845   2.225   4.624   2.393  0.0763  1.6596 -1.9036
 2573SOL    HW2 7846   2.255   4.515   2.292 -0.5744 -0.4859  0.0526
 2574SOL     OW 7847   5.603   3.650   1.269  0.0932  0.4405 -0.0414
 2574SOL    HW1 7848   5.641   3.714   1.209  0.2355  0.7610  0.3851
 2574SOL    HW2 7849   5.599   3.569   1.218  2.6599 -0.0303  0.2623
 2575SOL     OW 7850   4.650   2.409   1.303  0.1865 -0.0229 -0.2490
 2575SOL    HW1 7851   4.659   2.487   1.359 -1.7010  0.8054 -0.9089
 2575SOL    HW2 7852   4.587   2.436   1.236 -0.4624 -2.0904 -0.5951
 2576SOL     OW 7853   5.885   2.641   3.097  0.5268 -0.4369 -0.3749
 2576SOL    HW1 7854   5.951   2.656   3.029 -0.3124 -0.1798 -1.1866
 2576SOL    HW2 7855   5.814   2.701   3.075  0.1490 -0.4674  0.6581
 2577SOL     OW 7856   5.591   3.834   3.632  0.0003 -0.1727  0.4853
 2577SOL    HW1 7857   5.608   3.913   3.580  1.5060 -1.5979 -1.5076
 2577SOL    HW2 7858   5.678   3.807   3.663 -0.5286 -0.8468  1.4966
 2578SOL     OW 7859   2.548   6.173   1.409 -0.1981  0.0516 -0.0835
 2578SOL    HW1 7860   2.513   6.255   1.375  0.7805  0.5489  0.0339
 2578SOL    HW2 7861   2.628   6.198   1.455  1.3968 -1.1350 -1.8695
 2579SOL     OW 7862   1.971   3.390   2.116 -0.6565 -0.6402 -0.4455
 2579SOL    HW1 7863   1.918   3.311   2.126 -0.4706 -0.7064  0.1157
 2579SOL    HW2 7864   2.062   3.359   2.127 -0.5504 -0.4280 -0.7248
 2580SOL     OW 7865   2.915   0.424   4.326 -0.3318  0.2320 -0.5856
 2580SOL    HW1 7866   2.933   0.502   4.273  1.0661 -0.0906 -0.6590
 2580SOL    HW2 7867   3.000   0.380   4.332 -1.1326 -1.4744 -0.8346
 2581SOL     OW 7868   0.108   4.754   1.388 -0.8473  0.4245  0.0431
 2581SOL    HW1 7869   0.030   4.784   1.342 -0.5249 -0.6671 -1.3278
 2581SOL    HW2 7870   0.161   4.832   1.400 -0.7903  0.7638 -1.8402
 2582SOL     OW 7871   0.649   3.966   0.732  0.0364  0.7374  0.3357
 2582SOL    HW1 7872   0.689   3.965   0.645  0.5816  1.1620  0.5700
 2582SOL    HW2 7873   0.722   3.948   0.791  0.0220  2.0875  0.8226
 2583SOL     OW 7874   2.521   4.884   3.629 -0.2452  0.1169  0.1648
 2583SOL    HW1 7875   2.468   4.814   3.591 -1.3697  0.8137  0.3741
 2583SOL    HW2 7876   2.461   4.957   3.641  0.9227  1.2129 -0.2017
 2584SOL     OW 7877   6.066   2.920   3.456  0.0788 -0.2353  0.4035
 2584SOL    HW1 7878   6.004   2.921   3.529  0.6470  0.9606  0.9268
 2584SOL    HW2 7879   6.042   2.843   3.405 -1.6984  0.0483  0.6868
 2585SOL     OW 7880   2.111   4.589   0.096 -0.0186  0.2356 -0.2832
 2585SOL    HW1 7881   2.147   4.656   0.037  1.6397  0.1848  0.5318
 2585SOL    HW2 7882   2.051   4.637   0.153 -0.8992  0.4661 -1.3466
 2586SOL     OW 7883   1.077   6.233   2.035  0.6331  0.4342  0.7472
 2586SOL    HW1 7884   1.096   6.189   1.952  0.9740 -1.5724  1.7592
 2586SOL    HW2 7885   1.098   6.325   2.019  2.8440 -0.1658 -0.7754
 2587SOL     OW 7886   0.398   0.908   3.793 -0.3646  0.0928 -0.2841
 2587SOL    HW1 7887   0.466   0.914   3.860  0.8140  0.7173 -1.4593
 2587SOL    HW2 7888   0.385   0.814   3.781 -0.9649 -0.0545  1.0973
 2588SOL     OW 7889   5.450   5.186   1.705 -0.1167  0.0697  0.0029
 2588SOL    HW1 7890   5.401   5.237   1.640 -0.2025  0.1350  0.1195
 2588SOL    HW2 7891   5.387   5.171   1.776 -0.2309 -0.5673 -0.2195
 2589SOL     OW 7892   5.451   3.254   3.458 -0.0792 -0.1411 -0.3992
 2589SOL    HW1 7893   5.368   3.302   3.466  0.7262  1.4691 -0.8847
 2589SOL    HW2 7894   5.436   3.173   3.507 -1.5649  0.5654  0.4699
 2590SOL     OW 7895   2.647   3.517   1.541 -0.5268  0.0159 -0.0495
 2590SOL    HW1 7896   2.567   3.551   1.501 -0.7898 -0.2121  0.2706
 2590SOL    HW2 7897   2.715   3.532   1.476 -0.9492 -0.3955 -0.5986
 2591SOL     OW 7898   1.277   1.247   2.249  0.4491  0.2430 -0.7103
 2591SOL    HW1 7899   1.274   1.151   2.248 -0.3828  0.2475 -1.5249
 2591SOL    HW2 7900   1.270   1.271   2.341 -0.1709 -0.4697 -0.5553
 2592SOL     OW 7901   4.955   5.822   0.426  0.5560 -0.5389 -0.0100
 2592SOL    HW1 7902   5.005   5.900   0.450 -2.2779  2.4142 -1.8928
 2592SOL    HW2 7903   4.988   5.797   0.340  0.8015 -0.7325  0.1393
 2593SOL     OW 7904   0.287   4.823   0.250 -0.5652 -0.2352 -0.2710
 2593SOL    HW1 7905   0.206   4.873   0.258 -0.5533 -0.3334  1.0965
 2593SOL    HW2 7906   0.265   4.750   0.192 -0.7316  0.9732 -1.8509
 2594SOL     OW 7907   2.748   4.765   1.525  0.0636 -0.2464  0.2964
 2594SOL    HW1 7908   2.747   4.836   1.590 -2.0806  0.1697 -0.0266
 2594SOL    HW2 7909   2.797   4.694   1.567 -0.4835  0.3091  2.0415
 2595SOL     OW 7910   0.773   0.431   2.028  0.8143 -0.0149  0.4204
 2595SOL    HW1 7911   0.818   0.449   2.110 -0.4863 -0.8056  1.3868
 2595SOL    HW2 7912   0.768   0.335   2.024  0.7556  0.0064 -0.5546
 2596SOL     OW 7913   0.204   5.665   1.554 -0.1574 -0.5040  0.3094
 2596SOL    HW1 7914   0.153   5.621   1.622 -1.5550  0.1462 -0.2454
 2596SOL    HW2 7915   0.270   5.601   1.528 -0.9077 -1.5439  0.8181
 2597SOL     OW 7916   2.390   5.976   4.190  0.0992  0.5475  0.5266
 2597SOL    HW1 7917   2.369   5.959   4.281 -2.2189  0.3602  0.0733
 2597SOL    HW2 7918   2.306   5.978   4.145  1.1065  0.5640 -1.6512
 2598SOL     OW 7919   4.060   5.958   0.262  0.5956 -0.2015  0.4838
 2598SOL    HW1 7920   4.029   6.041   0.227  0.3071 -0.9270 -1.1426
 2598SOL    HW2 7921   3.994   5.933   0.327 -0.6067 -0.2054 -0.6510
 2599SOL     OW 7922   4.067   3.496   0.017  0.8355 -0.2541 -0.4820
 2599SOL    HW1 7923   4.014   3.416   0.018 -3.1043  1.8856  0.8222
 2599SOL    HW2 7924   4.075   3.520   0.109  3.7852  0.0892 -0.6356
 2600SOL     OW 7925   2.674   5.666   2.554  0.0733 -0.1820 -0.3707
 2600SOL    HW1 7926   2.757   5.667   2.507 -0.9055 -0.3382 -2.2771
 2600SOL    HW2 7927   2.698   5.644   2.644  2.0024 -1.0132 -0.9855
 2601SOL     OW 7928   2.656   3.456   2.335  0.1528  0.2688 -0.0211
 2601SOL    HW1 7929   2.562   3.470   2.332  0.1904  0.7499 -2.2596
 2601SOL    HW2 7930   2.693   3.541   2.358  0.0098  1.4909 -3.2273
 2602SOL     OW 7931   3.932   2.801   0.082  0.0263  0.0893  0.2877
 2602SOL    HW1 7932   3.842   2.833   0.087 -0.8248 -1.4124 -2.0016
 2602SOL    HW2 7933   3.928   2.712   0.116  1.3505  0.7404  2.5111
 2603SOL     OW 7934   5.828   5.566   1.807 -0.2559  0.2617 -0.0183
 2603SOL    HW1 7935   5.910   5.603   1.777 -0.4870  0.2991 -0.6185
 2603SOL    HW2 7936   5.762   5.631   1.784 -0.6902 -0.5444 -1.2097
 2604SOL     OW 7937   6.218   6.225   1.385 -0.4617  0.1492 -0.7084
 2604SOL    HW1 7938   6.129   6.198   1.361 -0.2133  0.7756 -2.7171
 2604SOL    HW2 7939   6.275   6.171   1.330  0.3054  0.9518 -0.7443
 2605SOL     OW 7940   0.563   0.168   4.296  0.0777 -0.0269  0.3034
 2605SOL    HW1 7941   0.648   0.133   4.270  0.0039  0.0441 -0.0399
 2605SOL    HW2 7942   0.584   0.230   4.366  0.3990  0.5347 -0.2575
 2606SOL     OW 7943   5.469   5.740   4.222 -0.1861 -0.3280  0.2116
 2606SOL    HW1 7944   5.450   5.679   4.294 -1.5106  0.5444  0.6613
 2606SOL    HW2 7945   5.413   5.711   4.151  0.9869 -1.0736 -0.4786
 2607SOL     OW 7946   5.534   6.058   4.027 -0.9097 -0.4753 -0.1082
 2607SOL    HW1 7947   5.442   6.074   4.048 -0.9328 -0.1719 -0.4155
 2607SOL    HW2 7948   5.531   5.992   3.958 -0.9396  0.0217 -0.6005
 2608SOL     OW 7949   4.150   2.059   3.106  0.0107  1.1128  0.7327
 2608SOL    HW1 7950   4.234   2.017   3.125  0.0328  1.0327  0.4634
 2608SOL    HW2 7951   4.097   1.990   3.066  0.9372  1.8910 -2.3496
 2609SOL     OW 7952   3.373   3.244   4.058 -0.2567  0.3657 -0.1251
 2609SOL    HW1 7953   3.394   3.151   4.053 -1.8827 -0.3364  2.3701
 2609SOL    HW2 7954   3.424   3.276   4.132  1.6550  2.1107 -1.9531
 2610SOL     OW 7955   5.573   1.002   1.797 -0.0374 -0.2048 -0.5823
 2610SOL    HW1 7956   5.553   1.079   1.849 -0.4788 -0.0897 -0.9050
 2610SOL    HW2 7957   5.536   0.929   1.847  1.6794 -0.4485  0.4901
 2611SOL     OW 7958   2.015   0.181   4.143  0.5921  0.1827  0.1853
 2611SOL    HW1 7959   2.032   0.271   4.114  0.0736 -0.0182 -0.8454
 2611SOL    HW2 7960   1.965   0.142   4.071  0.3343 -0.7726  0.8467
 2612SOL     OW 7961   5.333   3.379   2.967  0.5718  0.3063 -0.1080
 2612SOL    HW1 7962   5.352   3.323   3.042  0.7047  0.1337 -0.2670
 2612SOL    HW2 7963   5.239   3.397   2.974  0.1678 -1.1794 -0.8485
 2613SOL     OW 7964   1.575   1.894   3.661  0.8979  0.5351 -0.2217
 2613SOL    HW1 7965   1.488   1.881   3.698  0.3760  0.2247 -1.4395
 2613SOL    HW2 7966   1.563   1.881   3.567  2.2112  0.7870 -0.4672
 2614SOL     OW 7967   3.671   1.406   1.897 -0.2112  0.2913  0.0844
 2614SOL    HW1 7968   3.725   1.377   1.824  1.1799  1.1999  0.6613
 2614SOL    HW2 7969   3.623   1.482   1.863 -0.8561 -0.2593 -0.3022
 2615SOL     OW 7970   5.219   3.739   3.566 -0.4954  0.6623 -0.2112
 2615SOL    HW1 7971   5.263   3.782   3.493 -0.4106  2.1106  0.6353
 2615SOL    HW2 7972   5.265   3.769   3.644 -0.9525 -0.3718  0.5057
 2616SOL     OW 7973   1.003   2.971   0.392 -0.3834  0.4580  0.9328
 2616SOL    HW1 7974   0.995   3.030   0.467  2.3285  1.8622  0.3977
 2616SOL    HW2 7975   1.057   3.019   0.329 -0.5633 -1.4930 -0.9724
 2617SOL     OW 7976   2.813   1.226   2.211  0.1695 -0.1496  0.3445
 2617SOL    HW1 7977   2.823   1.140   2.252 -1.5771 -0.6893 -0.1872
 2617SOL    HW2 7978   2.827   1.288   2.283  0.3264 -0.9203  1.0061
 2618SOL     OW 7979   1.256   3.363   3.704 -0.0635 -0.1722 -0.0355
 2618SOL    HW1 7980   1.171   3.405   3.700  0.7422  1.7330  0.4668
 2618SOL    HW2 7981   1.310   3.413   3.643  1.1626  0.0501  1.1341
 2619SOL     OW 7982   2.177   4.074   2.131  0.2163  0.6054  0.8399
 2619SOL    HW1 7983   2.205   4.007   2.068 -1.5784 -1.9997  2.4261
 2619SOL    HW2 7984   2.084   4.058   2.143  0.0611  2.2359  2.7414
 2620SOL     OW 7985   4.937   2.400   2.560 -0.5130  0.2852  0.1016
 2620SOL    HW1 7986   5.008   2.369   2.617 -0.9811  0.5613  0.8704
 2620SOL    HW2 7987   4.915   2.487   2.594 -0.6270  0.5791 -0.6924
 2621SOL     OW 7988   0.811   0.946   4.397 -0.1787  0.0027 -0.1969
 2621SOL    HW1 7989   0.848   1.034   4.411 -0.6454 -0.0549  2.1262
 2621SOL    HW2 7990   0.721   0.962   4.371  0.3898  0.1060 -2.5921
 2622SOL     OW 7991   2.736   3.957   2.764  0.3404  0.0266  0.0191
 2622SOL    HW1 7992   2.686   4.002   2.696 -0.2471  0.3956  0.6699
 2622SOL    HW2 7993   2.682   3.965   2.843  0.9966 -0.3923  0.5307
 2623SOL     OW 7994   0.450   6.192   3.643  0.0435 -0.6070 -0.0393
 2623SOL    HW1 7995   0.531   6.239   3.664 -0.3744 -0.4465  1.4614
 2623SOL    HW2 7996   0.476   6.100   3.639  0.2431 -0.6388  1.1470
 2624SOL     OW 7997   0.058   1.649   4.359  0.0283  0.6875 -0.1380
 2624SOL    HW1 7998   0.087   1.573   4.308 -0.5277  1.4893 -1.7965
 2624SOL    HW2 7999   0.061   1.619   4.450  1.3115 -0.7921 -0.5772
 2625SOL     OW 8000   2.945   6.009   0.127  0.3751  0.1402  0.5169
 2625SOL    HW1 8001   3.034   6.038   0.150  0.1932  0.1290  1.2847
 2625SOL    HW2 8002   2.955   5.917   0.105  0.6519  0.2958 -0.0402
 2626SOL     OW 8003   0.482   6.144   4.206  0.2919 -0.2891  0.2978
 2626SOL    HW1 8004   0.392   6.170   4.186  0.8256  1.2794 -0.3757
 2626SOL    HW2 8005   0.485   6.050   4.186 -0.9788 -0.2001 -0.5079
 2627SOL     OW 8006   0.449   6.068   1.801  0.9741 -0.1646 -0.1357
 2627SOL    HW1 8007   0.504   6.146   1.809  1.5216 -0.6066  0.8661
 2627SOL    HW2 8008   0.364   6.095   1.835  0.4708  0.5598 -1.8109
 2628SOL     OW 8009   1.213   2.769   0.770  0.1016  0.4245  0.2636
 2628SOL    HW1 8010   1.269   2.778   0.693 -0.9654 -0.3062 -0.6550
 2628SOL    HW2 8011   1.133   2.816   0.747 -0.7021 -0.7995  0.4086
 2629SOL     OW 8012   2.875   2.367   2.474 -0.0687 -0.1064  0.6077
 2629SOL    HW1 8013   2.968   2.374   2.496 -0.0477  2.8850  0.3403
 2629SOL    HW2 8014   2.860   2.436   2.409 -2.1485 -1.7956 -0.9895
 2630SOL     OW 8015   5.760   5.375   1.602 -0.8110 -0.1673  0.5758
 2630SOL    HW1 8016   5.674   5.393   1.564 -1.4714 -2.1538  0.9048
 2630SOL    HW2 8017   5.761   5.425   1.684 -0.8164  1.3553 -0.2818
 2631SOL     OW 8018   5.803   2.093   0.319 -0.2365 -0.7448  0.0209
 2631SOL    HW1 8019   5.766   2.072   0.405  1.5529 -0.2992  1.0000
 2631SOL    HW2 8020   5.783   2.186   0.307 -0.6607 -0.8548 -0.1603
 2632SOL     OW 8021   6.139   1.630   3.751  0.3976 -0.4313  0.4530
 2632SOL    HW1 8022   6.125   1.551   3.802 -0.0477  0.0329  1.0801
 2632SOL    HW2 8023   6.063   1.685   3.770 -1.1156 -1.0965 -2.4831
 2633SOL     OW 8024   1.875   4.913   2.026  0.0406 -0.2624 -0.0297
 2633SOL    HW1 8025   1.836   4.848   2.085  0.9684  0.5459  1.6087
 2633SOL    HW2 8026   1.802   4.970   2.002 -0.1899  0.1699  1.4940
 2634SOL     OW 8027   3.374   5.151   3.042  0.2160  0.3543 -0.0222
 2634SOL    HW1 8028   3.428   5.101   2.980  0.6397  0.8835 -0.0900
 2634SOL    HW2 8029   3.290   5.161   2.998  0.5967  0.9496 -0.6353
 2635SOL     OW 8030   1.711   5.761   4.527 -0.1707 -0.3728 -0.3297
 2635SOL    HW1 8031   1.656   5.833   4.556  0.4453 -0.5700  1.6253
 2635SOL    HW2 8032   1.793   5.802   4.498 -0.0457 -0.2391  0.1980
 2636SOL     OW 8033   1.067   4.158   4.297  0.3443  0.5513  0.0862
 2636SOL    HW1 8034   0.988   4.174   4.245 -0.9593  0.9064  1.9657
 2636SOL    HW2 8035   1.127   4.228   4.271 -0.8831  1.7171  0.1762
 2637SOL     OW 8036   6.273   3.757   2.701 -0.1246  0.3760  0.2719
 2637SOL    HW1 8037   6.232   3.710   2.774  0.0947  1.3587  1.0547
 2637SOL    HW2 8038   6.359   3.717   2.692 -0.9246 -1.3407 -1.0376
 2638SOL     OW 8039   4.026   3.556   0.626  0.2438  0.9376 -0.0882
 2638SOL    HW1 8040   4.080   3.603   0.562  1.1979  0.4129  0.2936
 2638SOL    HW2 8041   4.086   3.492   0.665 -0.1818  1.4637  1.5978
 2639SOL     OW 8042   5.843   0.928   2.230 -0.2691 -0.7136 -0.0083
 2639SOL    HW1 8043   5.865   1.021   2.233 -0.3546 -0.6819 -0.3117
 2639SOL    HW2 8044   5.874   0.893   2.313 -0.8440 -0.2760  0.4086
 2640SOL     OW 8045   6.233   1.181   2.870 -0.5076 -0.4723  0.1188
 2640SOL    HW1 8046   6.165   1.234   2.828 -0.0308  0.1133  0.0578
 2640SOL    HW2 8047   6.238   1.102   2.817 -0.0906  0.1403 -0.8025
 2641SOL     OW 8048   3.204   2.903   3.802  0.4384  0.4652  0.5382
 2641SOL    HW1 8049   3.199   2.966   3.730  1.5199  0.6144  0.5739
 2641SOL    HW2 8050   3.130   2.844   3.786  1.4557 -0.4694 -1.6463
 2642SOL     OW 8051   4.520   2.463   3.801 -0.4475  0.1052 -0.3795
 2642SOL    HW1 8052   4.540   2.461   3.895  0.2954 -0.4513 -0.5367
 2642SOL    HW2 8053   4.537   2.554   3.776 -1.9302  0.6159  0.2562
 2643SOL     OW 8054   0.266   4.553   0.181  0.1260 -0.1735  0.1517
 2643SOL    HW1 8055   0.269   4.463   0.213 -0.0609 -0.2461 -0.0305
 2643SOL    HW2 8056   0.300   4.549   0.092  1.6343  0.1886  0.6518
 2644SOL     OW 8057   3.556   3.142   3.125  0.1928  0.2163 -0.2794
 2644SOL    HW1 8058   3.466   3.170   3.140 -0.2718 -1.7715  1.7269
 2644SOL    HW2 8059   3.606   3.223   3.119 -1.2859  1.5895  2.3213
 2645SOL     OW 8060   0.515   0.416   4.005 -0.1925  0.0621 -0.1808
 2645SOL    HW1 8061   0.572   0.416   3.928 -2.7908  1.9337 -2.5629
 2645SOL    HW2 8062   0.571   0.445   4.077  2.3900 -1.4283 -1.3320
 2646SOL     OW 8063   3.544   0.381   3.950  0.2855  0.1398  0.1485
 2646SOL    HW1 8064   3.518   0.468   3.920  0.3806 -0.0473 -0.5209
 2646SOL    HW2 8065   3.639   0.386   3.960  0.2096  0.3253  0.8775
 2647SOL     OW 8066   1.187   4.475   3.127  0.1685 -0.5812  0.0584
 2647SOL    HW1 8067   1.176   4.560   3.085  0.0756  0.8350  2.5310
 2647SOL    HW2 8068   1.106   4.428   3.106  0.5666 -0.5224 -2.0551
 2648SOL     OW 8069   2.424   3.444   0.398 -0.1893 -0.7596 -0.1042
 2648SOL    HW1 8070   2.399   3.478   0.312 -1.3800 -2.0586 -0.3462
 2648SOL    HW2 8071   2.490   3.378   0.379 -0.0809 -0.6900  0.0308
 2649SOL     OW 8072   5.438   2.953   0.557  0.2302  0.0339 -0.1201
 2649SOL    HW1 8073   5.418   2.859   0.554 -0.9793  0.2813 -0.8964
 2649SOL    HW2 8074   5.460   2.969   0.649 -0.5618 -0.8262  0.2544
 2650SOL     OW 8075   3.586   3.667   1.927  0.2596  0.3368 -0.0240
 2650SOL    HW1 8076   3.539   3.675   1.844  1.0919  1.0450 -0.4609
 2650SOL    HW2 8077   3.624   3.580   1.925  0.0598  0.2517 -0.2640
 2651SOL     OW 8078   3.109   1.844   0.488  0.9055 -0.0277 -0.1484
 2651SOL    HW1 8079   3.040   1.903   0.517  1.2024  1.3469 -1.8999
 2651SOL    HW2 8080   3.064   1.777   0.437  0.5420 -1.6711  2.0097
 2652SOL     OW 8081   0.910   0.958   0.304  0.2948  0.2850  0.0888
 2652SOL    HW1 8082   0.934   0.872   0.268 -0.6028  0.0424  0.0249
 2652SOL    HW2 8083   0.892   1.012   0.227 -1.8030 -0.2846  0.0498
 2653SOL     OW 8084   0.619   0.787   1.981 -0.0244 -0.1368  0.3832
 2653SOL    HW1 8085   0.660   0.708   1.946  0.0247 -0.1093  0.3786
 2653SOL    HW2 8086   0.525   0.772   1.971 -0.0575 -0.5700  1.1748
 2654SOL     OW 8087   4.687   6.143   1.061 -0.3083 -0.8135  0.8603
 2654SOL    HW1 8088   4.620   6.126   0.994  0.2608 -2.0100  0.5333
 2654SOL    HW2 8089   4.700   6.238   1.058 -1.0972 -0.6997  0.0591
 2655SOL     OW 8090   5.023   1.180   3.913  0.2493  0.2344 -0.4699
 2655SOL    HW1 8091   4.989   1.091   3.898  0.9001 -0.0624 -0.2708
 2655SOL    HW2 8092   5.003   1.227   3.833 -0.4277  0.0140 -0.4428
 2656SOL     OW 8093   4.316   4.220   4.401 -0.0475  0.5306  0.2503
 2656SOL    HW1 8094   4.360   4.233   4.316 -0.1213  1.6021  0.3533
 2656SOL    HW2 8095   4.263   4.141   4.388  0.9028 -0.0635 -0.2886
 2657SOL     OW 8096   1.642   2.588   2.866  0.6180  0.0156  0.0356
 2657SOL    HW1 8097   1.677   2.534   2.937  1.0973 -0.2595 -0.3909
 2657SOL    HW2 8098   1.617   2.670   2.907  1.9231  0.2852  0.3577
 2658SOL     OW 8099   5.079   6.045   0.610 -0.0922  0.1091  0.4144
 2658SOL    HW1 8100   5.017   6.021   0.680 -1.2010 -1.6643 -0.9837
 2658SOL    HW2 8101   5.032   6.110   0.558 -0.3220 -0.3539  0.0235
 2659SOL     OW 8102   5.102   3.126   2.115  0.1978 -0.1198 -0.0404
 2659SOL    HW1 8103   5.047   3.183   2.168 -0.3311 -0.5597 -0.1024
 2659SOL    HW2 8104   5.139   3.183   2.048  1.9802  0.7870  1.5039
 2660SOL     OW 8105   6.027   1.523   0.888  0.5735 -0.3275 -0.0939
 2660SOL    HW1 8106   5.936   1.552   0.881 -0.4369 -2.8515  0.1403
 2660SOL    HW2 8107   6.034   1.452   0.824  2.1218 -0.7689  0.4825
 2661SOL     OW 8108   2.926   4.078   3.873 -0.1313  0.2058  0.0255
 2661SOL    HW1 8109   2.859   4.096   3.939  0.7655  0.4530  0.9162
 2661SOL    HW2 8110   2.960   4.164   3.849 -0.6497  0.1445 -1.0235
 2662SOL     OW 8111   4.910   0.489   2.695 -0.6310  0.2117  0.8584
 2662SOL    HW1 8112   4.997   0.477   2.732 -0.0543  1.3758  0.0197
 2662SOL    HW2 8113   4.891   0.405   2.652  1.2101  0.5734 -1.0223
 2663SOL     OW 8114   0.388   4.920   2.710  0.0206  0.2954  0.5610
 2663SOL    HW1 8115   0.459   4.968   2.669 -0.9537  0.1385 -1.5728
 2663SOL    HW2 8116   0.419   4.829   2.714  0.8229  0.5556  2.1005
 2664SOL     OW 8117   3.118   5.778   1.346 -0.0832 -0.5023  0.2706
 2664SOL    HW1 8118   3.196   5.738   1.308  1.1447  0.8691  1.1291
 2664SOL    HW2 8119   3.045   5.731   1.305  1.1512 -1.7091 -0.7658
 2665SOL     OW 8120   1.637   1.269   1.614 -0.1489 -0.7657  0.9617
 2665SOL    HW1 8121   1.651   1.350   1.566 -0.2181 -0.8525  0.7923
 2665SOL    HW2 8122   1.614   1.297   1.702 -0.2903 -0.5992  0.8736
 2666SOL     OW 8123   2.940   3.857   2.398 -0.2385 -0.5733  0.0747
 2666SOL    HW1 8124   2.866   3.914   2.380 -0.5754 -0.5230  1.4509
 2666SOL    HW2 8125   2.983   3.846   2.313 -1.8397 -0.6589 -0.8032
 2667SOL     OW 8126   4.695   4.504   0.108 -0.3218  0.5552  0.4857
 2667SOL    HW1 8127   4.693   4.599   0.095 -2.2271  0.7768  1.5921
 2667SOL    HW2 8128   4.740   4.492   0.192  2.4234  0.0939 -0.8304
 2668SOL     OW 8129   1.203   4.411   2.667 -0.5552  0.4597  0.2864
 2668SOL    HW1 8130   1.231   4.320   2.662 -0.4326  0.1450  3.1156
 2668SOL    HW2 8131   1.281   4.458   2.697 -0.9616  1.2222  0.1883
 2669SOL     OW 8132   5.519   2.197   1.314 -0.0825 -0.2778  0.2937
 2669SOL    HW1 8133   5.425   2.213   1.326 -0.0206  0.4304 -0.0212
 2669SOL    HW2 8134   5.524   2.113   1.269 -0.5632 -0.3391  0.3469
 2670SOL     OW 8135   3.966   4.537   2.192 -0.3834 -0.2257 -0.1930
 2670SOL    HW1 8136   3.941   4.576   2.276  1.6485 -0.4519  0.6289
 2670SOL    HW2 8137   3.969   4.611   2.131 -0.1610  0.2816  0.4087
 2671SOL     OW 8138   2.970   2.315   0.971  0.3533  0.5806  0.2201
 2671SOL    HW1 8139   2.961   2.287   0.880  2.1306  0.6371 -0.0418
 2671SOL    HW2 8140   3.063   2.303   0.991  0.0226  0.5051  2.0678
 2672SOL     OW 8141   1.429   1.605   0.402 -0.5452 -0.8299  0.2998
 2672SOL    HW1 8142   1.512   1.633   0.439 -0.6349 -0.0646 -0.0153
 2672SOL    HW2 8143   1.432   1.638   0.312 -1.0893 -0.9906  0.2179
 2673SOL     OW 8144   3.301   2.857   1.146  0.1173  0.2953  0.1727
 2673SOL    HW1 8145   3.245   2.783   1.124  1.3327 -0.1712 -1.9252
 2673SOL    HW2 8146   3.359   2.824   1.214 -1.0615  0.3012  1.2549
 2674SOL     OW 8147   0.543   4.389   1.528 -0.5087 -0.4092  0.8859
 2674SOL    HW1 8148   0.483   4.361   1.459 -1.1294  1.9227  0.2908
 2674SOL    HW2 8149   0.622   4.416   1.481 -0.6998  0.6022  1.0801
 2675SOL     OW 8150   3.149   1.729   2.130 -0.8557 -0.2661  0.2564
 2675SOL    HW1 8151   3.233   1.721   2.086 -0.6533 -2.9887  0.8026
 2675SOL    HW2 8152   3.166   1.786   2.204  1.1892 -2.1132  1.4481
 2676SOL     OW 8153   3.395   5.862   3.021 -0.2526 -0.0371  0.1711
 2676SOL    HW1 8154   3.403   5.883   2.928 -0.0116 -1.4976 -0.1734
 2676SOL    HW2 8155   3.469   5.907   3.062  0.4554 -0.4788 -0.5646
 2677SOL     OW 8156   6.315   3.816   3.750  0.5302  0.6562 -0.3718
 2677SOL    HW1 8157   6.364   3.826   3.832  0.7630 -2.1548  0.0432
 2677SOL    HW2 8158   6.229   3.784   3.778  0.3189  0.4614 -1.2016
 2678SOL     OW 8159   6.011   1.428   1.898 -0.1955  0.1488 -0.5572
 2678SOL    HW1 8160   5.963   1.511   1.902 -1.9316 -0.7708  0.8885
 2678SOL    HW2 8161   6.008   1.402   1.806 -3.4956 -0.2230 -0.5641
 2679SOL     OW 8162   1.658   4.509   3.256 -0.4967  0.2579 -0.0116
 2679SOL    HW1 8163   1.575   4.519   3.301 -0.4186 -0.7143  0.4029
 2679SOL    HW2 8164   1.659   4.417   3.227  0.2903  0.3328 -0.2857
 2680SOL     OW 8165   4.735   5.075   3.750 -0.1271 -0.1120 -0.2051
 2680SOL    HW1 8166   4.733   5.170   3.735 -0.2793 -0.2271 -1.0116
 2680SOL    HW2 8167   4.828   5.054   3.753 -0.0667 -0.0704 -1.1176
 2681SOL     OW 8168   5.649   5.534   4.358  0.1605  0.0966  0.1080
 2681SOL    HW1 8169   5.625   5.515   4.267  0.0481 -1.5002  0.4154
 2681SOL    HW2 8170   5.637   5.451   4.404 -0.3601  0.9766  1.7295
 2682SOL     OW 8171   1.235   3.751   0.247 -0.0028  0.3594 -0.6163
 2682SOL    HW1 8172   1.326   3.753   0.215  0.3963 -1.6725  0.0550
 2682SOL    HW2 8173   1.242   3.710   0.333 -1.5604  0.3565 -0.4456
 2683SOL     OW 8174   1.128   2.799   1.573  0.3669  0.1806  0.4598
 2683SOL    HW1 8175   1.190   2.838   1.634 -0.5616 -1.0363  2.3926
 2683SOL    HW2 8176   1.065   2.869   1.554  0.2533  0.4301  1.6053
 2684SOL     OW 8177   4.797   4.492   1.554  0.0691 -0.1559  0.4538
 2684SOL    HW1 8178   4.749   4.513   1.474  0.2367  3.5787  0.9954
 2684SOL    HW2 8179   4.761   4.551   1.620  1.0708 -1.8248  2.7885
 2685SOL     OW 8180   1.847   1.903   0.897  0.1317 -0.1289 -0.4484
 2685SOL    HW1 8181   1.862   1.809   0.899  0.4755 -0.1872 -2.1455
 2685SOL    HW2 8182   1.901   1.934   0.824  0.5687  1.5100  0.4745
 2686SOL     OW 8183   4.258   5.298   0.522  0.7640 -0.4175  0.5223
 2686SOL    HW1 8184   4.277   5.312   0.430  0.1883 -0.3905  0.4012
 2686SOL    HW2 8185   4.188   5.361   0.543  1.3985  0.1078  1.1743
 2687SOL     OW 8186   0.194   5.561   0.872  0.0990 -0.4255 -0.5102
 2687SOL    HW1 8187   0.184   5.502   0.797  0.1691  1.3839 -2.1166
 2687SOL    HW2 8188   0.105   5.574   0.904  0.0296 -1.0092 -0.4532
 2688SOL     OW 8189   5.968   1.813   1.379 -0.6499 -0.6295  0.3377
 2688SOL    HW1 8190   5.969   1.747   1.310 -0.5287 -1.8273  1.4038
 2688SOL    HW2 8191   6.043   1.868   1.361 -0.7390 -0.7739 -0.5852
 2689SOL     OW 8192   4.658   1.027   2.734  0.3174 -0.1866 -0.5887
 2689SOL    HW1 8193   4.701   1.112   2.740  0.4865 -0.3071 -0.0757
 2689SOL    HW2 8194   4.698   0.974   2.803  0.0020 -0.5908 -0.7081
 2690SOL     OW 8195   2.518   4.586   1.173 -0.7089  0.3959 -0.0196
 2690SOL    HW1 8196   2.457   4.525   1.131 -1.3631  1.3840 -0.5673
 2690SOL    HW2 8197   2.464   4.638   1.232  0.1003 -0.6303  1.8327
 2691SOL     OW 8198   5.446   1.120   0.229  0.1095  0.6433 -0.2194
 2691SOL    HW1 8199   5.528   1.096   0.187 -0.7990 -0.1032 -1.7645
 2691SOL    HW2 8200   5.461   1.107   0.322  1.5540 -0.0263 -0.5039
 2692SOL     OW 8201   5.046   0.115   2.851  0.2682 -0.3701 -0.3207
 2692SOL    HW1 8202   5.117   0.173   2.825 -0.5005  0.2129 -1.2691
 2692SOL    HW2 8203   4.997   0.166   2.917 -0.1297 -0.1078 -0.8013
 2693SOL     OW 8204   2.218   2.004   3.023  0.3225 -0.3287  0.0910
 2693SOL    HW1 8205   2.217   1.918   3.065 -0.7121 -0.4568 -0.1423
 2693SOL    HW2 8206   2.310   2.019   3.001  0.7572 -0.6972  1.4568
 2694SOL     OW 8207   3.908   4.117   1.874  0.4346 -0.1600  0.1886
 2694SOL    HW1 8208   3.947   4.087   1.792  1.5520  3.2502 -0.8652
 2694SOL    HW2 8209   3.817   4.089   1.868  1.1837 -3.4120 -0.0977
 2695SOL     OW 8210   3.006   2.830   0.552 -0.2168  0.1239 -0.5709
 2695SOL    HW1 8211   3.087   2.859   0.509  1.5620 -2.7850  0.2368
 2695SOL    HW2 8212   2.949   2.805   0.479 -0.7166  2.5141 -1.1711
 2696SOL     OW 8213   5.692   1.417   4.290  0.1236 -0.1928 -0.3103
 2696SOL    HW1 8214   5.646   1.338   4.319  0.2680 -0.9454 -1.8803
 2696SOL    HW2 8215   5.661   1.431   4.200 -0.5570  2.1062  0.1548
 2697SOL     OW 8216   4.494   1.716   1.177  0.2309 -0.4547 -0.0338
 2697SOL    HW1 8217   4.537   1.755   1.101  0.1154 -0.2542 -0.0002
 2697SOL    HW2 8218   4.565   1.688   1.234  0.3306  0.4101  0.2949
 2698SOL     OW 8219   3.392   1.556   2.506 -0.8012  0.2908 -0.5936
 2698SOL    HW1 8220   3.301   1.543   2.532 -0.8305 -0.0157 -0.8291
 2698SOL    HW2 8221   3.398   1.649   2.484 -0.3616  1.0363  2.0181
 2699SOL     OW 8222   1.514   1.526   1.750 -0.2810  0.1489  0.1049
 2699SOL    HW1 8223   1.517   1.610   1.704 -0.8827  1.4364  2.1673
 2699SOL    HW2 8224   1.564   1.541   1.830 -1.3759 -1.0557  1.1045
 2700SOL     OW 8225   1.687   1.266   2.966 -0.0501  0.1507  0.0413
 2700SOL    HW1 8226   1.629   1.335   2.934 -0.7727 -0.9546 -1.2488
 2700SOL    HW2 8227   1.669   1.191   2.909  1.6694 -0.7022  0.4806
 2701SOL     OW 8228   0.047   0.965   3.104  0.1037 -0.5752 -0.8628
 2701SOL    HW1 8229  -0.023   1.028   3.118 -1.4811 -2.2540 -0.3447
 2701SOL    HW2 8230   0.125   1.018   3.091 -0.7432  1.4535  1.0147
 2702SOL     OW 8231   4.462   5.304   1.078 -0.3827 -0.5009 -0.1260
 2702SOL    HW1 8232   4.449   5.214   1.050  1.1793 -0.6599 -0.5137
 2702SOL    HW2 8233   4.402   5.315   1.152 -3.0315 -0.7625 -1.9859
 2703SOL     OW 8234   5.473   1.100   3.199  0.5890  0.0068  0.2571
 2703SOL    HW1 8235   5.551   1.067   3.244  0.1447 -0.3783  0.7611
 2703SOL    HW2 8236   5.482   1.195   3.203  0.9081 -0.0317  0.5354
 2704SOL     OW 8237   4.130   4.498   4.300  0.7739 -0.1136 -0.3081
 2704SOL    HW1 8238   4.161   4.473   4.212  0.8396  1.2598 -0.7227
 2704SOL    HW2 8239   4.204   4.545   4.338  0.9888 -1.2328  0.7952
 2705SOL     OW 8240   1.259   1.416   4.411 -0.0341 -0.1142  0.9849
 2705SOL    HW1 8241   1.191   1.440   4.473 -1.3257  0.8143 -0.6168
 2705SOL    HW2 8242   1.242   1.470   4.334  2.7486  0.4387  0.5322
 2706SOL     OW 8243   3.720   1.205   4.025  0.3636  0.2790  0.4354
 2706SOL    HW1 8244   3.761   1.130   3.982 -0.4075 -0.6430  1.2139
 2706SOL    HW2 8245   3.681   1.169   4.105 -0.0909  1.5049  0.8170
 2707SOL     OW 8246   5.142   4.654   1.410  0.1485 -0.5321  0.0730
 2707SOL    HW1 8247   5.150   4.607   1.494  1.0001 -0.8523 -0.1656
 2707SOL    HW2 8248   5.218   4.625   1.360 -1.4242 -2.1432 -1.7190
 2708SOL     OW 8249   4.305   1.510   0.233 -0.0980 -0.1344 -0.3301
 2708SOL    HW1 8250   4.342   1.500   0.320  0.6802  0.7367 -0.5310
 2708SOL    HW2 8251   4.251   1.432   0.220 -0.1108 -0.3521  0.8585
 2709SOL     OW 8252   0.118   1.392   4.205  0.1543  0.3937 -0.2258
 2709SOL    HW1 8253   0.168   1.326   4.253  0.3134  0.6079 -0.0938
 2709SOL    HW2 8254   0.168   1.406   4.125  0.4755  0.8294  0.0436
 2710SOL     OW 8255   1.101   5.819   0.031 -0.3294  0.3004 -0.1193
 2710SOL    HW1 8256   1.134   5.859  -0.050 -0.6759  0.3902 -0.2183
 2710SOL    HW2 8257   1.012   5.853   0.040 -0.4931 -0.1491  0.0043
 2711SOL     OW 8258   1.707   1.380   2.432  0.1003 -0.4289 -0.3847
 2711SOL    HW1 8259   1.797   1.400   2.407 -0.0019  0.9363  0.1996
 2711SOL    HW2 8260   1.712   1.292   2.470  1.0138 -0.7275 -1.1158
 2712SOL     OW 8261   2.475   5.030   1.219  0.0144 -0.5421  0.6175
 2712SOL    HW1 8262   2.493   5.082   1.297 -1.0466 -0.7902  1.0590
 2712SOL    HW2 8263   2.520   5.076   1.148 -0.3266  0.5965  1.1043
 2713SOL     OW 8264   3.460   1.806   1.301  0.6145  0.7023  0.9740
 2713SOL    HW1 8265   3.458   1.866   1.226 -0.8455  2.2953  2.1369
 2713SOL    HW2 8266   3.405   1.732   1.273  1.9076  0.1149 -0.2553
 2714SOL     OW 8267   3.816   5.983   3.969 -0.2911  0.5093 -0.0622
 2714SOL    HW1 8268   3.901   6.000   4.011 -0.5801  1.2491  0.2616
 2714SOL    HW2 8269   3.751   6.004   4.036 -0.8401 -2.9122  0.8701
 2715SOL     OW 8270   0.485   4.949   0.400  0.0339  0.0170 -0.1783
 2715SOL    HW1 8271   0.451   4.911   0.481  0.1641  0.5454  0.1258
 2715SOL    HW2 8272   0.419   4.925   0.334 -0.8053  0.7685  0.3430
 2716SOL     OW 8273   1.235   0.459   3.559 -0.4520 -0.7115  0.5300
 2716SOL    HW1 8274   1.237   0.366   3.538  1.2864 -0.8334  0.9157
 2716SOL    HW2 8275   1.316   0.494   3.521 -0.2849  0.3101  1.6916
 2717SOL     OW 8276   4.542   0.599   1.337  0.1102  0.4387 -0.0728
 2717SOL    HW1 8277   4.636   0.590   1.351 -0.0228 -0.5486  0.3845
 2717SOL    HW2 8278   4.534   0.638   1.250  0.9329  1.1723  0.1560
 2718SOL     OW 8279   2.360   5.255   0.433  0.5827  0.1764 -0.2741
 2718SOL    HW1 8280   2.378   5.217   0.519  0.3348  1.9046  0.6524
 2718SOL    HW2 8281   2.414   5.204   0.372 -2.1827 -3.9398 -0.0255
 2719SOL     OW 8282   2.244   0.444   2.984  0.1089  0.3550 -0.3513
 2719SOL    HW1 8283   2.202   0.367   2.947 -1.7953  0.7368  0.7769
 2719SOL    HW2 8284   2.291   0.412   3.061 -2.1058  0.3314  1.1898
 2720SOL     OW 8285   4.976   5.207   0.205 -0.0785  0.1751 -0.0559
 2720SOL    HW1 8286   5.020   5.186   0.288 -1.3921  0.4485  0.7783
 2720SOL    HW2 8287   4.976   5.125   0.157 -0.9472 -0.5477  1.0733
 2721SOL     OW 8288   4.088   2.356   3.282  0.2991  0.1430 -0.0247
 2721SOL    HW1 8289   4.043   2.343   3.199 -1.1265  0.6513  0.6102
 2721SOL    HW2 8290   4.041   2.300   3.344  0.5350  0.6987  0.6895
 2722SOL     OW 8291   3.662   4.002   0.105  0.1543 -0.0393 -0.5449
 2722SOL    HW1 8292   3.695   4.061   0.174  1.7702 -0.1502 -1.1313
 2722SOL    HW2 8293   3.727   3.932   0.101 -1.0319 -1.1925 -0.7631
 2723SOL     OW 8294   5.817   2.725   1.805 -0.0576 -0.0226 -0.3766
 2723SOL    HW1 8295   5.827   2.640   1.762 -1.3765 -0.6732  0.4881
 2723SOL    HW2 8296   5.907   2.757   1.816  0.4293 -0.7894 -1.6412
 2724SOL     OW 8297   0.248   5.463   1.124 -0.6687  0.0605  0.8392
 2724SOL    HW1 8298   0.319   5.520   1.152 -1.4171  1.4140  0.2064
 2724SOL    HW2 8299   0.221   5.499   1.039 -0.9748 -1.4816  0.2215
 2725SOL     OW 8300   3.288   5.577   4.051 -0.2787 -0.4600 -0.5461
 2725SOL    HW1 8301   3.193   5.589   4.051 -0.7648 -3.0742  0.0725
 2725SOL    HW2 8302   3.309   5.548   4.140  1.0873 -0.2438 -0.7506
 2726SOL     OW 8303   3.905   3.406   3.340  0.5600 -0.5217 -0.4888
 2726SOL    HW1 8304   3.810   3.398   3.339  0.1020  2.4865  0.5393
 2726SOL    HW2 8305   3.927   3.439   3.253  0.6958 -1.1871 -0.7159
 2727SOL     OW 8306   2.647   5.543   1.867  0.5404 -0.4359  0.1495
 2727SOL    HW1 8307   2.639   5.463   1.919 -0.9322 -0.8579 -0.6107
 2727SOL    HW2 8308   2.589   5.605   1.911 -2.2156 -1.3326 -1.7096
 2728SOL     OW 8309   4.498   3.031   1.544 -0.7225  0.1772  0.4717
 2728SOL    HW1 8310   4.528   3.042   1.454  0.4107  0.3659  0.8519
 2728SOL    HW2 8311   4.471   3.118   1.572 -0.6329  0.2061  0.4665
 2729SOL     OW 8312   0.420   6.228   1.560 -0.0064  0.2813  0.4786
 2729SOL    HW1 8313   0.421   6.297   1.627  0.9947  1.9050 -1.0553
 2729SOL    HW2 8314   0.420   6.274   1.477 -1.5023 -1.6119 -0.7644
 2730SOL     OW 8315   5.891   3.278   3.499 -0.7135 -0.1096  0.0216
 2730SOL    HW1 8316   5.920   3.225   3.574 -2.2569  0.7130  1.3061
 2730SOL    HW2 8317   5.829   3.222   3.453 -1.5563  0.1653  0.7768
 2731SOL     OW 8318   5.611   4.033   3.432  0.2876  0.7519  0.4762
 2731SOL    HW1 8319   5.592   4.127   3.432 -0.5817  0.7290 -1.9905
 2731SOL    HW2 8320   5.543   3.995   3.377  2.3100 -0.8225 -1.2952
 2732SOL     OW 8321   0.907   2.171   1.516 -0.1640  0.1298  0.6516
 2732SOL    HW1 8322   0.920   2.190   1.423  0.5921 -0.2009  0.6719
 2732SOL    HW2 8323   0.950   2.243   1.562  1.4652 -0.7973  0.7218
 2733SOL     OW 8324   5.343   1.810   0.376 -0.1927 -0.1975 -0.0420
 2733SOL    HW1 8325   5.418   1.762   0.341  0.7017  0.3512  0.9864
 2733SOL    HW2 8326   5.275   1.801   0.310  0.8057 -0.6620 -1.0638
 2734SOL     OW 8327   3.004   3.956   2.813  0.2901 -0.0349  0.4294
 2734SOL    HW1 8328   2.909   3.954   2.830 -0.0935  1.1872 -1.0732
 2734SOL    HW2 8329   3.027   4.048   2.824  1.6566 -0.4623  1.9732
 2735SOL     OW 8330   5.679   3.439   1.077  0.1013  0.3525  0.4939
 2735SOL    HW1 8331   5.725   3.356   1.092  1.5045  1.0696  0.5339
 2735SOL    HW2 8332   5.728   3.481   1.007 -0.1410  1.4260  0.9291
 2736SOL     OW 8333   1.637   3.263   3.891  0.0283 -0.1774 -0.0181
 2736SOL    HW1 8334   1.723   3.221   3.897 -1.0028 -2.8979 -0.9407
 2736SOL    HW2 8335   1.597   3.249   3.976 -0.4102 -1.5481 -0.4004
 2737SOL     OW 8336   3.990   0.658   3.719  0.3544 -0.4811  0.0381
 2737SOL    HW1 8337   3.905   0.655   3.763  1.2521 -1.2196  1.8993
 2737SOL    HW2 8338   3.972   0.706   3.638 -1.5263  0.7376  1.0138
 2738SOL     OW 8339   4.347   2.330   3.005  0.4394 -0.0418 -0.0497
 2738SOL    HW1 8340   4.312   2.242   3.010  2.0685 -0.7472  0.2596
 2738SOL    HW2 8341   4.347   2.360   3.096 -2.3126  1.3694 -0.3003
 2739SOL     OW 8342   5.605   3.322   2.888  0.3576  0.1973 -0.7394
 2739SOL    HW1 8343   5.517   3.340   2.920  0.5518  0.1843 -0.1848
 2739SOL    HW2 8344   5.635   3.246   2.939 -0.4968 -2.0228 -3.0980
 2740SOL     OW 8345   3.842   4.873   0.279 -0.4367  0.2059 -0.0785
 2740SOL    HW1 8346   3.756   4.846   0.248 -0.5670  1.5051 -0.9764
 2740SOL    HW2 8347   3.839   4.968   0.281  1.7089  0.5550 -2.6736
 2741SOL     OW 8348   2.973   5.548   2.107 -0.3446 -0.2274 -0.5126
 2741SOL    HW1 8349   2.971   5.615   2.038  0.4429  1.1095  0.6502
 2741SOL    HW2 8350   2.894   5.565   2.158 -0.0035  0.0171 -0.0554
 2742SOL     OW 8351   5.763   0.165   4.185  0.1248 -0.3177  0.1099
 2742SOL    HW1 8352   5.780   0.259   4.176 -1.1801 -0.0228  0.2279
 2742SOL    HW2 8353   5.732   0.138   4.099 -3.3903  0.3905  0.8119
 2743SOL     OW 8354   3.387   6.384   2.461 -0.2093 -0.2456  0.3873
 2743SOL    HW1 8355   3.476   6.419   2.470 -0.4413  1.0372 -1.2614
 2743SOL    HW2 8356   3.330   6.461   2.468 -1.1514 -0.9423  0.7426
 2744SOL     OW 8357   3.181   6.187   2.119 -0.0757 -0.1082 -0.1531
 2744SOL    HW1 8358   3.121   6.231   2.179  0.9942 -1.0915  1.8326
 2744SOL    HW2 8359   3.247   6.254   2.099 -0.1319  0.0713  0.2516
 2745SOL     OW 8360   4.092   5.735   4.514 -0.1014 -0.2044  0.5073
 2745SOL    HW1 8361   4.178   5.711   4.547  0.7526  0.3010 -1.1127
 2745SOL    HW2 8362   4.101   5.730   4.419 -2.1521 -1.0183  0.2406
 2746SOL     OW 8363   2.219   3.087   4.428  0.2756 -0.9621 -0.0774
 2746SOL    HW1 8364   2.187   3.165   4.383  0.6132 -0.4970  0.4592
 2746SOL    HW2 8365   2.187   3.096   4.518  2.4698 -0.0230  0.7638
 2747SOL     OW 8366   3.866   5.497   0.886 -0.2656  0.3722  0.3794
 2747SOL    HW1 8367   3.816   5.467   0.809 -0.6141  0.4927  0.5527
 2747SOL    HW2 8368   3.955   5.465   0.871 -0.2440  0.7045 -0.2508
 2748SOL     OW 8369   2.385   4.385   3.636  0.0954 -0.3256  0.2550
 2748SOL    HW1 8370   2.437   4.403   3.714 -0.0994  0.4015  0.2349
 2748SOL    HW2 8371   2.295   4.381   3.668 -0.1340  1.1894 -0.0579
 2749SOL     OW 8372   5.938   3.309   0.813  0.1402 -0.0259  0.1998
 2749SOL    HW1 8373   6.006   3.247   0.785 -1.5659 -1.6403 -0.8038
 2749SOL    HW2 8374   5.858   3.278   0.771 -0.8476  3.3259 -1.1058
 2750SOL     OW 8375   3.535   1.114   3.111  0.1740 -0.6143 -0.1109
 2750SOL    HW1 8376   3.575   1.097   3.026 -0.0530  0.0613 -0.3698
 2750SOL    HW2 8377   3.599   1.082   3.175  0.9484  0.0366 -0.5193
 2751SOL     OW 8378   4.980   0.110   3.727  0.5236 -0.4379  0.0516
 2751SOL    HW1 8379   4.989   0.116   3.632  0.6441 -1.5163 -0.0287
 2751SOL    HW2 8380   5.063   0.142   3.762  0.3637  0.2571 -0.1766
 2752SOL     OW 8381   1.216   3.121   0.259  0.3784  0.2557 -0.1228
 2752SOL    HW1 8382   1.307   3.139   0.232  0.1524 -0.1257 -1.2799
 2752SOL    HW2 8383   1.183   3.205   0.291  0.7254  0.7699 -1.0367
 2753SOL     OW 8384   3.685   3.223   2.467  0.5879  0.1712  0.2316
 2753SOL    HW1 8385   3.662   3.138   2.504  1.0759 -0.0534  0.0299
 2753SOL    HW2 8386   3.641   3.286   2.524 -1.9476 -0.2013 -1.0573
 2754SOL     OW 8387   0.399   0.397   3.120 -0.7424 -0.1005 -0.5508
 2754SOL    HW1 8388   0.321   0.398   3.176 -0.9158 -2.4157 -0.5629
 2754SOL    HW2 8389   0.419   0.304   3.108  2.5861  0.2511  0.2124
 2755SOL     OW 8390   5.611   1.788   4.360  0.0651  0.4671  0.0541
 2755SOL    HW1 8391   5.685   1.780   4.421  0.8040  2.1359 -0.5172
 2755SOL    HW2 8392   5.534   1.766   4.413  0.8166  0.2498  1.1206
 2756SOL     OW 8393   0.072   6.175   2.878  0.0712  0.1074 -0.1589
 2756SOL    HW1 8394   0.109   6.088   2.867 -0.4365 -0.1018 -0.2856
 2756SOL    HW2 8395  -0.020   6.166   2.852 -0.1095  0.5708  0.2713
 2757SOL     OW 8396   5.957   4.529   0.620  0.2883  0.1747  0.3219
 2757SOL    HW1 8397   5.920   4.617   0.611 -0.6590 -0.2227  0.0340
 2757SOL    HW2 8398   6.036   4.541   0.673 -0.3736  1.0698  1.1765
 2758SOL     OW 8399   5.919   6.178   2.891  0.3337 -0.3823 -0.0088
 2758SOL    HW1 8400   5.840   6.186   2.838 -1.0859 -2.2327  1.5417
 2758SOL    HW2 8401   5.899   6.229   2.970  0.7213 -0.7924  0.3608
 2759SOL     OW 8402   0.224   5.569   2.534  0.2307  0.5208 -0.2108
 2759SOL    HW1 8403   0.201   5.660   2.556  1.3237  1.4185 -2.1720
 2759SOL    HW2 8404   0.221   5.522   2.617  0.1961  2.4787  1.0300
 2760SOL     OW 8405   4.575   0.521   0.281 -0.0472  0.5823  0.1686
 2760SOL    HW1 8406   4.569   0.501   0.187  0.9313  1.5075 -0.1325
 2760SOL    HW2 8407   4.537   0.608   0.290 -1.1413  0.0727  0.8601
 2761SOL     OW 8408   4.318   2.508   2.548 -0.0374 -0.0763  0.5142
 2761SOL    HW1 8409   4.370   2.499   2.468  0.0420 -0.4215  0.6038
 2761SOL    HW2 8410   4.362   2.453   2.612  0.0509  0.3984  0.8774
 2762SOL     OW 8411   4.827   3.651   1.932 -0.1992 -0.6510 -0.1173
 2762SOL    HW1 8412   4.756   3.595   1.901 -0.7404  0.3771 -0.8768
 2762SOL    HW2 8413   4.863   3.689   1.852 -0.3941  0.6737  0.3714
 2763SOL     OW 8414   3.671   2.738   3.293 -0.0298 -0.0980 -0.5229
 2763SOL    HW1 8415   3.745   2.796   3.312 -0.4378  0.5757 -0.8914
 2763SOL    HW2 8416   3.696   2.653   3.330 -0.2273  0.7430  1.8832
 2764SOL     OW 8417   1.680   2.359   1.728 -0.3725  0.2452 -0.5792
 2764SOL    HW1 8418   1.587   2.385   1.732 -0.5799 -0.3429 -1.2376
 2764SOL    HW2 8419   1.718   2.395   1.808 -1.2413  0.2299 -0.1344
 2765SOL     OW 8420   2.371   6.391   2.076 -0.1473  0.2842  0.1105
 2765SOL    HW1 8421   2.366   6.486   2.066  0.7041  0.3109 -0.1865
 2765SOL    HW2 8422   2.459   6.375   2.112 -0.0725 -0.4200 -0.3369
 2766SOL     OW 8423   0.374   2.025   3.568 -0.2648  0.6861 -0.2575
 2766SOL    HW1 8424   0.320   1.994   3.495 -0.3628  0.3017 -0.0215
 2766SOL    HW2 8425   0.379   2.120   3.555  0.8747  0.5193 -1.5763
 2767SOL     OW 8426   0.605   0.235   1.286  0.0236  0.1439 -0.0699
 2767SOL    HW1 8427   0.551   0.314   1.281 -0.2769 -0.0415  0.1674
 2767SOL    HW2 8428   0.567   0.185   1.359  1.2415  0.5526  0.9073
 2768SOL     OW 8429   0.327   2.535   3.089 -0.2831  1.0905  0.7903
 2768SOL    HW1 8430   0.275   2.500   3.161  0.1951 -0.0148  0.6339
 2768SOL    HW2 8431   0.264   2.586   3.037 -0.9835  0.6056  1.1332
 2769SOL     OW 8432   4.025   3.853   4.015 -0.0572  0.6136 -0.0712
 2769SOL    HW1 8433   3.972   3.880   3.939 -1.5781  0.3208  0.8023
 2769SOL    HW2 8434   3.972   3.878   4.091  0.7869 -0.3022  0.8753
 2770SOL     OW 8435   0.039   3.574   2.804  0.3919  0.1725  0.2221
 2770SOL    HW1 8436   0.093   3.498   2.788 -0.4462 -0.6020  0.8545
 2770SOL    HW2 8437   0.097   3.636   2.848  1.2259  0.1464 -0.7708
 2771SOL     OW 8438   2.811   0.081   3.421  0.0001  0.0131  0.1106
 2771SOL    HW1 8439   2.803   0.091   3.516 -0.3043 -1.2993  0.2563
 2771SOL    HW2 8440   2.802   0.170   3.387  1.4544  0.7335  1.3693
 2772SOL     OW 8441   6.376   4.543   1.509 -0.3974 -0.0324 -0.2982
 2772SOL    HW1 8442   6.430   4.619   1.486  0.2545 -0.1782  0.6266
 2772SOL    HW2 8443   6.326   4.525   1.430  1.0720 -0.0055 -1.3289
 2773SOL     OW 8444   5.994   2.661   3.357  0.1163 -0.2529 -0.1167
 2773SOL    HW1 8445   5.972   2.639   3.267 -1.0321  1.1687 -0.2445
 2773SOL    HW2 8446   5.925   2.620   3.409  1.5059 -2.2880  0.3936
 2774SOL     OW 8447   3.292   2.942   2.144  0.0018  0.2715  0.1140
 2774SOL    HW1 8448   3.304   2.869   2.082  1.4285 -0.7738  1.4533
 2774SOL    HW2 8449   3.353   3.009   2.114  0.7570 -0.2683  0.3577
 2775SOL     OW 8450   0.576   3.261   3.655 -0.3134  0.5797 -0.0702
 2775SOL    HW1 8451   0.584   3.354   3.677  0.0336  1.3580 -2.7355
 2775SOL    HW2 8452   0.573   3.259   3.559  1.4827 -2.2837 -0.3141
 2776SOL     OW 8453   3.227   2.615   2.499 -0.5198 -0.3457  0.1712
 2776SOL    HW1 8454   3.258   2.688   2.552  1.5368 -0.1736 -1.0585
 2776SOL    HW2 8455   3.177   2.656   2.428  1.8136  0.2372 -1.3516
 2777SOL     OW 8456   0.168   2.901   3.374  0.0681 -0.1514 -0.6552
 2777SOL    HW1 8457   0.132   2.936   3.456 -1.6284 -0.9760 -0.9769
 2777SOL    HW2 8458   0.130   2.956   3.305 -0.0873 -0.6763 -0.9932
 2778SOL     OW 8459   0.917   5.769   1.421 -0.5702  0.9067 -0.2825
 2778SOL    HW1 8460   0.871   5.809   1.347 -1.9605  0.9660  0.5403
 2778SOL    HW2 8461   0.903   5.675   1.409 -1.5611  0.9470  0.2976
 2779SOL     OW 8462   6.302   1.263   3.567 -0.0879  0.3564  0.0288
 2779SOL    HW1 8463   6.231   1.233   3.509 -0.4803  0.6177  0.3635
 2779SOL    HW2 8464   6.375   1.204   3.548 -0.3433  0.1814 -0.4368
 2780SOL     OW 8465   5.955   2.864   3.771  0.1652 -0.2684  0.1222
 2780SOL    HW1 8466   5.947   2.870   3.867  1.0312 -1.3547  0.2933
 2780SOL    HW2 8467   5.871   2.896   3.739 -0.6150 -0.9757  1.2942
 2781SOL     OW 8468   3.341   3.276   3.234 -0.3672 -0.2739  0.0862
 2781SOL    HW1 8469   3.352   3.344   3.300  0.6165 -0.6280  0.3241
 2781SOL    HW2 8470   3.304   3.322   3.158 -0.4824  0.3567  0.5076
 2782SOL     OW 8471   3.990   2.108   3.787  0.6826 -0.1607  0.8680
 2782SOL    HW1 8472   4.048   2.067   3.723  1.3622  2.7356 -0.7323
 2782SOL    HW2 8473   4.048   2.163   3.839 -0.2023 -0.5435  2.3767
 2783SOL     OW 8474   6.405   1.298   3.835 -0.5332 -0.0539  0.0394
 2783SOL    HW1 8475   6.473   1.233   3.851  0.8926  1.3107  0.1336
 2783SOL    HW2 8476   6.371   1.277   3.748 -0.3564 -1.0748  0.1996
 2784SOL     OW 8477   2.578   3.731   2.346  0.2418 -0.8527 -0.1135
 2784SOL    HW1 8478   2.616   3.810   2.308 -0.6389  0.0719  0.8251
 2784SOL    HW2 8479   2.491   3.724   2.308  0.4595 -1.6753 -0.5306
 2785SOL     OW 8480   4.299   2.846   1.550 -1.2669  0.0335 -0.4640
 2785SOL    HW1 8481   4.362   2.911   1.580  0.4406 -2.0286  1.0573
 2785SOL    HW2 8482   4.312   2.843   1.455  2.0080 -0.9611 -0.2457
 2786SOL     OW 8483   2.946   0.685   0.707  0.3997  0.0478  0.4828
 2786SOL    HW1 8484   3.020   0.645   0.661  0.8024  0.0765  1.0837
 2786SOL    HW2 8485   2.874   0.681   0.645  1.1104  0.8014 -0.4544
 2787SOL     OW 8486   5.911   0.258   1.150 -0.0037  0.5898  0.4443
 2787SOL    HW1 8487   5.930   0.182   1.096 -2.7259 -0.3067  0.4466
 2787SOL    HW2 8488   5.825   0.288   1.121 -1.4974  0.3858  3.7276
 2788SOL     OW 8489   3.592   2.561   0.415  0.1737 -0.3668 -0.0952
 2788SOL    HW1 8490   3.671   2.603   0.451 -0.4122  0.8004 -0.0708
 2788SOL    HW2 8491   3.530   2.559   0.488 -0.2827  0.0315 -0.4546
 2789SOL     OW 8492   4.103   4.439   2.703 -0.3954  0.4147 -0.2696
 2789SOL    HW1 8493   4.130   4.520   2.745  2.2198 -0.6861  0.5860
 2789SOL    HW2 8494   4.131   4.448   2.612  0.3978  0.3167 -0.0455
 2790SOL     OW 8495   2.004   3.186   3.286  0.3345  0.0439 -0.7834
 2790SOL    HW1 8496   2.099   3.180   3.293  0.2797  0.0610  0.8170
 2790SOL    HW2 8497   1.974   3.196   3.377 -1.2362 -0.5670 -1.1648
 2791SOL     OW 8498   3.878   4.854   3.244 -0.3441 -0.4938  0.0057
 2791SOL    HW1 8499   3.805   4.833   3.302  1.2304 -1.4282  1.8856
 2791SOL    HW2 8500   3.942   4.896   3.300  0.2247  1.3684 -1.8035
 2792SOL     OW 8501   4.756   3.651   4.349 -0.2401  0.0283 -0.2608
 2792SOL    HW1 8502   4.714   3.569   4.375  0.2553 -0.1227  0.1018
 2792SOL    HW2 8503   4.722   3.716   4.411 -2.5512  0.7189 -1.9767
 2793SOL     OW 8504   5.743   3.068   3.644  0.6202 -0.7405  0.1082
 2793SOL    HW1 8505   5.697   3.046   3.563  1.1053  1.1953 -0.8101
 2793SOL    HW2 8506   5.679   3.113   3.698  1.1479  1.6908 -1.0481
 2794SOL     OW 8507   6.116   0.524   0.678  0.1403  0.0648 -0.4463
 2794SOL    HW1 8508   6.120   0.613   0.643 -0.5716  0.1179 -0.4289
 2794SOL    HW2 8509   6.140   0.532   0.770  1.0545  0.0760 -0.6689
 2795SOL     OW 8510   4.041   5.911   3.180 -0.0698 -0.1326 -0.4719
 2795SOL    HW1 8511   3.992   5.981   3.223  0.2221 -0.4243  0.3807
 2795SOL    HW2 8512   3.974   5.849   3.151 -0.2423 -0.3808  0.4055
 2796SOL     OW 8513   0.248   1.134   3.083  0.4659 -0.0841 -0.1211
 2796SOL    HW1 8514   0.277   1.225   3.089  2.5786 -0.6351 -0.2252
 2796SOL    HW2 8515   0.243   1.104   3.174 -1.8132  0.4419  0.0394
 2797SOL     OW 8516   6.127   5.035   2.235 -0.0365 -0.0814  0.3064
 2797SOL    HW1 8517   6.171   5.049   2.318  0.0471 -0.0861  0.2633
 2797SOL    HW2 8518   6.194   4.996   2.178 -0.4117 -1.2261  0.5942
 2798SOL     OW 8519   0.620   0.256   0.186  0.1146  0.3935  0.1352
 2798SOL    HW1 8520   0.615   0.203   0.265 -0.2158 -0.5781 -0.4921
 2798SOL    HW2 8521   0.531   0.255   0.151  0.2687  0.7425 -0.2907
 2799SOL     OW 8522   5.625   5.927   2.712  0.5274 -0.2440  0.6659
 2799SOL    HW1 8523   5.666   5.887   2.635  0.9150  0.6955  0.3515
 2799SOL    HW2 8524   5.547   5.874   2.727  0.5787 -0.6189 -0.2188
 2800SOL     OW 8525   1.244   5.532   4.364  0.1976 -0.1576  0.2043
 2800SOL    HW1 8526   1.301   5.542   4.441 -0.3742 -0.4374  0.6791
 2800SOL    HW2 8527   1.224   5.439   4.361 -0.9714  0.0461  0.6142
 2801SOL     OW 8528   0.213   5.202   0.378  0.0975 -0.1660 -0.0875
 2801SOL    HW1 8529   0.237   5.162   0.462  0.1249  0.0525  0.0105
 2801SOL    HW2 8530   0.118   5.207   0.380  0.1262  1.2662  0.6251
 2802SOL     OW 8531   1.064   1.114   3.084  0.6341  0.3934 -0.2062
 2802SOL    HW1 8532   1.079   1.163   3.165 -1.7674  0.6243  0.2524
 2802SOL    HW2 8533   1.002   1.045   3.109 -0.1389  0.4236 -1.7991
 2803SOL     OW 8534   6.277   4.584   1.762 -0.1894  0.1364 -0.0382
 2803SOL    HW1 8535   6.299   4.541   1.679 -0.0224  0.9538 -0.4362
 2803SOL    HW2 8536   6.352   4.640   1.781 -0.0612 -0.3162  0.8745
 2804SOL     OW 8537   2.342   4.732   1.304  0.0378 -0.2441 -0.0752
 2804SOL    HW1 8538   2.261   4.704   1.346 -0.2041  1.0806  0.4259
 2804SOL    HW2 8539   2.314   4.788   1.232  0.4774  0.6142  0.3901
 2805SOL     OW 8540   3.240   0.737   3.675 -0.2384 -0.0480  0.0003
 2805SOL    HW1 8541   3.281   0.719   3.760 -0.5778 -0.5454  0.0617
 2805SOL    HW2 8542   3.293   0.689   3.612  0.9398  1.4919 -0.3050
 2806SOL     OW 8543   6.308   2.819   0.957 -0.7900  0.0232  0.4018
 2806SOL    HW1 8544   6.315   2.834   1.051 -0.3539  0.1955  0.3478
 2806SOL    HW2 8545   6.220   2.782   0.945 -2.3544  3.0672  0.4898
 2807SOL     OW 8546   3.017   1.018   0.700  0.3096 -0.0214  0.3257
 2807SOL    HW1 8547   3.056   1.094   0.744  2.2329 -1.3636  1.2161
 2807SOL    HW2 8548   2.935   1.003   0.748 -0.2268  1.5118  0.0040
 2808SOL     OW 8549   0.161   2.577   0.220  0.2013  0.0363  0.3326
 2808SOL    HW1 8550   0.240   2.627   0.197 -0.7587  2.5311  1.7430
 2808SOL    HW2 8551   0.094   2.608   0.159 -0.3232  0.2151  0.9700
 2809SOL     OW 8552   6.288   5.761   3.701  0.2905 -0.6864  0.2875
 2809SOL    HW1 8553   6.244   5.678   3.716 -1.3756  0.2093  0.9115
 2809SOL    HW2 8554   6.348   5.771   3.775  0.3831 -1.2301  0.2937
 2810SOL     OW 8555   4.375   3.638   4.444  0.2075 -0.1359  0.3562
 2810SOL    HW1 8556   4.392   3.727   4.413  1.5520 -0.6944 -0.7048
 2810SOL    HW2 8557   4.365   3.647   4.539  3.2411  0.8857  0.7823
 2811SOL     OW 8558   5.986   0.319   3.263  0.1061 -0.1988 -0.2383
 2811SOL    HW1 8559   5.913   0.350   3.209 -1.2945 -2.1718  0.2879
 2811SOL    HW2 8560   6.057   0.303   3.200 -0.2209  0.7954 -0.9204
 2812SOL     OW 8561   6.196   4.279   1.978  0.3137  0.1768  0.9611
 2812SOL    HW1 8562   6.276   4.286   1.927 -0.3756  0.3909 -0.1487
 2812SOL    HW2 8563   6.171   4.186   1.971  0.1183  0.2445  0.7369
 2813SOL     OW 8564   4.769   6.227   0.655 -0.2812 -0.3024 -0.2693
 2813SOL    HW1 8565   4.757   6.309   0.703  3.3079  1.3113 -1.4311
 2813SOL    HW2 8566   4.764   6.159   0.723 -1.5608  1.0310  1.1246
 2814SOL     OW 8567   0.110   6.336   2.675  0.3295 -0.8290  0.0645
 2814SOL    HW1 8568   0.100   6.291   2.759  0.5698 -2.4534 -0.7016
 2814SOL    HW2 8569   0.031   6.313   2.626  0.2983 -0.0908 -0.2541
 2815SOL     OW 8570   0.716   2.176   4.202 -0.3412 -0.1561  0.0067
 2815SOL    HW1 8571   0.737   2.106   4.140 -0.3944 -0.9805  0.8767
 2815SOL    HW2 8572   0.781   2.167   4.271 -1.0307 -0.0652  0.6880
 2816SOL     OW 8573   0.635   2.100   0.955  0.2063  0.3384 -0.2069
 2816SOL    HW1 8574   0.630   2.191   0.983 -0.8304  0.4007 -0.4950
 2816SOL    HW2 8575   0.620   2.103   0.860  1.5513 -0.0397 -0.4822
 2817SOL     OW 8576   3.481   0.249   4.204 -0.0572 -0.1362 -0.1671
 2817SOL    HW1 8577   3.476   0.283   4.114 -1.5256  0.8404  0.2004
 2817SOL    HW2 8578   3.433   0.166   4.201 -1.3349  0.5438 -0.1005
 2818SOL     OW 8579   4.753   5.883   4.263 -0.0741 -0.1564  0.4970
 2818SOL    HW1 8580   4.667   5.846   4.239  0.7533 -1.2240 -1.2673
 2818SOL    HW2 8581   4.758   5.872   4.358 -2.6837  1.9797  1.1165
 2819SOL     OW 8582   3.364   4.848   2.312  0.0062 -0.1309 -0.0851
 2819SOL    HW1 8583   3.397   4.921   2.260  0.6616  0.1403  0.6730
 2819SOL    HW2 8584   3.307   4.889   2.378 -0.0831 -0.3633 -0.0138
 2820SOL     OW 8585   4.373   5.439   3.896  0.3319 -0.2090  0.1360
 2820SOL    HW1 8586   4.299   5.427   3.836 -0.2468 -0.9519  0.9459
 2820SOL    HW2 8587   4.357   5.525   3.936  0.5909  0.1798 -0.5658
 2821SOL     OW 8588   0.166   0.209   1.894  0.2034  0.0228  0.2728
 2821SOL    HW1 8589   0.110   0.175   1.964  0.6709 -1.9381 -0.1848
 2821SOL    HW2 8590   0.244   0.241   1.939  1.3052 -2.7899  0.7779
 2822SOL     OW 8591   5.824   3.551   0.875  0.2154  0.2467  0.0077
 2822SOL    HW1 8592   5.897   3.613   0.871  0.6049  0.3529  3.2760
 2822SOL    HW2 8593   5.863   3.467   0.849  0.8291  0.6611 -0.4866
 2823SOL     OW 8594   0.477   2.777   2.979 -0.7266  0.1530 -0.0638
 2823SOL    HW1 8595   0.462   2.696   2.932 -0.1933 -0.1968  0.3560
 2823SOL    HW2 8596   0.549   2.759   3.038  2.6461  2.0249 -2.8454
 2824SOL     OW 8597   2.080   6.169   4.385 -0.4395  0.3636  0.5272
 2824SOL    HW1 8598   2.117   6.240   4.333 -0.1506  0.1829  0.4813
 2824SOL    HW2 8599   2.036   6.213   4.457 -0.2404  0.5899  0.5146
 2825SOL     OW 8600   3.261   3.777   1.528  0.3066 -0.0006  0.3214
 2825SOL    HW1 8601   3.189   3.766   1.466  1.1449 -0.6419 -0.6021
 2825SOL    HW2 8602   3.235   3.851   1.583 -0.6389  0.3650 -0.5607
 2826SOL     OW 8603   3.695   3.027   3.873 -0.0448  0.5056  0.6356
 2826SOL    HW1 8604   3.686   3.118   3.901  1.3405  0.4104  1.5634
 2826SOL    HW2 8605   3.746   3.031   3.793  0.8082  0.5407  1.1570
 2827SOL     OW 8606   4.809   4.014   1.527  0.2339 -0.9102 -0.2224
 2827SOL    HW1 8607   4.902   4.007   1.505  0.9372  0.0317  1.8853
 2827SOL    HW2 8608   4.780   4.093   1.482  0.2989 -1.4020 -1.1833
 2828SOL     OW 8609   0.921   4.818   3.283 -0.3346 -0.3660 -0.8933
 2828SOL    HW1 8610   0.895   4.785   3.369 -2.2229  0.0694 -1.2000
 2828SOL    HW2 8611   0.920   4.740   3.227 -1.3702 -0.3443 -0.9383
 2829SOL     OW 8612   4.065   3.007   0.409 -0.6903  0.6248  0.0379
 2829SOL    HW1 8613   3.973   2.994   0.387 -1.1608 -0.7083  2.2511
 2829SOL    HW2 8614   4.098   2.920   0.431  0.1955  1.3498  2.1194
 2830SOL     OW 8615   5.004   2.734   0.292 -0.6630 -0.2672  0.2379
 2830SOL    HW1 8616   5.071   2.756   0.228 -0.0166  0.3395  1.0726
 2830SOL    HW2 8617   5.021   2.793   0.366 -1.8025 -0.4551  0.6909
 2831SOL     OW 8618   5.739   2.375   0.335  0.0044 -0.0357  0.3346
 2831SOL    HW1 8619   5.678   2.436   0.378 -0.2339  2.0272 -2.3555
 2831SOL    HW2 8620   5.803   2.353   0.403 -1.4865  0.9522  2.2637
 2832SOL     OW 8621   2.251   3.611   4.026 -0.0808  0.6438  0.1930
 2832SOL    HW1 8622   2.340   3.643   4.011  0.8666 -1.6129  0.0946
 2832SOL    HW2 8623   2.239   3.545   3.957 -1.9920  1.0878  0.0191
 2833SOL     OW 8624   2.703   3.531   1.791  0.1018  0.2492 -0.2048
 2833SOL    HW1 8625   2.674   3.514   1.702 -1.8726  0.4110  0.3188
 2833SOL    HW2 8626   2.734   3.621   1.789 -1.4823  0.8496 -0.4652
 2834SOL     OW 8627   3.989   2.272   3.009 -1.4402  0.3193 -0.0881
 2834SOL    HW1 8628   4.036   2.207   3.063 -1.5527  0.9892  0.8681
 2834SOL    HW2 8629   4.046   2.285   2.933 -1.2293 -0.5924 -0.1180
 2835SOL     OW 8630   4.383   5.587   4.495 -0.7146 -0.0581 -0.2666
 2835SOL    HW1 8631   4.416   5.592   4.584 -1.5595 -1.1604  0.1596
 2835SOL    HW2 8632   4.458   5.613   4.440  0.5121 -1.3147  0.6683
 2836SOL     OW 8633   4.548   5.065   4.098 -0.1450  0.1990  0.1630
 2836SOL    HW1 8634   4.626   5.100   4.054  0.3604  0.2587  1.0514
 2836SOL    HW2 8635   4.510   5.004   4.034  0.6947  0.0883 -0.2635
 2837SOL     OW 8636   2.850   4.789   0.697  0.9057  0.1377 -0.4776
 2837SOL    HW1 8637   2.894   4.870   0.722  0.6751 -0.3110  1.8358
 2837SOL    HW2 8638   2.795   4.768   0.772  0.0029 -1.5333 -1.5001
 2838SOL     OW 8639   1.704   5.352   3.531  0.1898 -0.1869 -1.0772
 2838SOL    HW1 8640   1.687   5.398   3.614  2.4993 -1.1723  0.1166
 2838SOL    HW2 8641   1.618   5.319   3.505 -0.6343 -0.2956  1.2666
 2839SOL     OW 8642   5.966   4.333   0.847  0.0164 -0.1866  0.6431
 2839SOL    HW1 8643   5.910   4.339   0.924  0.7245  2.2447  1.1376
 2839SOL    HW2 8644   5.928   4.394   0.784  1.4466  0.7895  0.6264
 2840SOL     OW 8645   3.009   5.613   4.083 -0.6483 -0.7077  0.2425
 2840SOL    HW1 8646   2.995   5.644   4.172  0.2988  3.8202 -0.6837
 2840SOL    HW2 8647   2.922   5.616   4.042 -0.6864  1.1885  0.2963
 2841SOL     OW 8648   3.151   5.210   2.904  0.5138  0.1366  0.0012
 2841SOL    HW1 8649   3.157   5.247   2.816  0.0688  1.1156  0.3509
 2841SOL    HW2 8650   3.088   5.138   2.896  1.9244 -1.1024 -0.8404
 2842SOL     OW 8651   4.382   5.784   0.585  0.7140 -0.5118  0.4686
 2842SOL    HW1 8652   4.326   5.838   0.641  1.1329 -0.4182  0.8025
 2842SOL    HW2 8653   4.373   5.824   0.498  1.8568  0.8343  0.8885
 2843SOL     OW 8654   3.170   4.589   3.465  0.2376  0.3600  0.0973
 2843SOL    HW1 8655   3.167   4.509   3.413 -0.8753 -0.4280  1.2592
 2843SOL    HW2 8656   3.229   4.647   3.416 -1.2173  0.0207 -2.4513
 2844SOL     OW 8657   1.272   0.315   1.097  0.2763  0.4374  0.4350
 2844SOL    HW1 8658   1.253   0.239   1.152  1.1237  0.0976  0.2864
 2844SOL    HW2 8659   1.187   0.358   1.085 -0.6447 -1.4798 -0.9923
 2845SOL     OW 8660   1.519   1.062   4.462  0.4219 -0.0336 -0.3519
 2845SOL    HW1 8661   1.605   1.077   4.423  1.2113 -1.8017  0.4743
 2845SOL    HW2 8662   1.503   1.139   4.516  0.5638  1.1861 -1.9059
 2846SOL     OW 8663   4.730   5.658   3.135  0.3071 -0.1460 -0.5758
 2846SOL    HW1 8664   4.699   5.727   3.194 -0.6403  0.4889 -1.7206
 2846SOL    HW2 8665   4.651   5.607   3.115  0.6255 -0.4180 -1.1787
 2847SOL     OW 8666   0.148   4.078   4.119  0.0831 -0.6079 -0.1788
 2847SOL    HW1 8667   0.094   4.116   4.188 -0.5683 -2.0246  0.1750
 2847SOL    HW2 8668   0.085   4.040   4.057  0.6620 -0.8085 -0.6645
 2848SOL     OW 8669   0.199   5.934   2.897  0.2458 -0.1716 -0.3978
 2848SOL    HW1 8670   0.269   5.945   2.961  0.3386 -0.6470 -0.4062
 2848SOL    HW2 8671   0.125   5.899   2.948 -1.2640  3.3011  0.3686
 2849SOL     OW 8672   1.619   4.086   4.390 -0.0855 -0.3239  0.0857
 2849SOL    HW1 8673   1.701   4.110   4.433  0.4372  0.7668 -1.3585
 2849SOL    HW2 8674   1.645   4.028   4.319 -0.4370  0.4840 -0.7453
 2850SOL     OW 8675   3.862   2.676   0.466  0.5548 -0.1563 -0.3874
 2850SOL    HW1 8676   3.943   2.696   0.513  0.7641 -0.2905 -0.6836
 2850SOL    HW2 8677   3.822   2.761   0.449  1.1463 -0.0108 -1.1342
 2851SOL     OW 8678   4.767   4.183   2.134 -0.0116 -0.4659 -0.6437
 2851SOL    HW1 8679   4.750   4.242   2.060  1.5145  0.3439 -0.4163
 2851SOL    HW2 8680   4.760   4.095   2.097 -1.1540 -0.1546 -1.2702
 2852SOL     OW 8681   2.603   1.043   0.620  0.5156  0.3445  0.2969
 2852SOL    HW1 8682   2.592   1.120   0.675  1.8207  1.0493 -0.3385
 2852SOL    HW2 8683   2.653   0.982   0.674 -2.5808 -1.3623  1.8279
 2853SOL     OW 8684   0.345   5.286   1.342  1.3110  0.2191  0.7196
 2853SOL    HW1 8685   0.421   5.241   1.304  0.6018 -1.3483  1.0003
 2853SOL    HW2 8686   0.305   5.331   1.268  0.8093 -1.5294 -0.1839
 2854SOL     OW 8687   2.011   0.599   2.702  0.6913 -0.3652 -0.9018
 2854SOL    HW1 8688   2.026   0.648   2.782 -0.1652 -0.9678 -0.3423
 2854SOL    HW2 8689   1.916   0.605   2.687  0.8383 -0.1879 -1.9343
 2855SOL     OW 8690   1.149   4.662   3.468 -0.2101 -0.1201 -0.2001
 2855SOL    HW1 8691   1.096   4.605   3.411  1.0921 -1.2658 -0.3600
 2855SOL    HW2 8692   1.107   4.656   3.553 -0.9147 -0.1595 -0.5320
 2856SOL     OW 8693   0.667   3.485   4.358 -0.0348 -0.7643 -0.6111
 2856SOL    HW1 8694   0.723   3.555   4.392  0.9575 -1.5812 -0.4708
 2856SOL    HW2 8695   0.580   3.525   4.353  0.3092  0.2118  0.3022
 2857SOL     OW 8696   2.554   5.722   0.844  0.3749 -0.4293  0.4911
 2857SOL    HW1 8697   2.492   5.765   0.785 -0.8885 -0.7990  1.4739
 2857SOL    HW2 8698   2.639   5.734   0.802 -0.2904  0.4776 -0.7110
 2858SOL     OW 8699   2.205   4.212   1.157  0.1012  0.9224  0.0351
 2858SOL    HW1 8700   2.166   4.127   1.174 -0.0465  0.8531 -0.6075
 2858SOL    HW2 8701   2.146   4.274   1.199  0.9527  0.6717  1.7883
 2859SOL     OW 8702   5.170   4.565   1.891  0.1798  0.2073  0.2769
 2859SOL    HW1 8703   5.142   4.475   1.907 -0.8169  0.5731  0.7786
 2859SOL    HW2 8704   5.175   4.572   1.796 -1.2881  0.0163  0.1395
 2860SOL     OW 8705   2.403   5.845   3.518  0.4179 -0.2892 -0.1693
 2860SOL    HW1 8706   2.352   5.924   3.502 -0.7258 -0.2529  2.6408
 2860SOL    HW2 8707   2.488   5.863   3.476 -0.3376  1.6286 -1.1168
 2861SOL     OW 8708   3.117   3.215   3.922  0.0867  0.0563 -0.1947
 2861SOL    HW1 8709   3.052   3.281   3.899  0.4157  0.4703  0.0384
 2861SOL    HW2 8710   3.121   3.157   3.845 -2.8906 -1.9993  0.8494
 2862SOL     OW 8711   6.066   4.185   2.611  0.2648  0.2457  0.1548
 2862SOL    HW1 8712   6.052   4.092   2.628 -0.8179  0.4734  0.6527
 2862SOL    HW2 8713   6.154   4.202   2.644 -0.0352 -0.3303  1.3603
 2863SOL     OW 8714   4.184   2.475   4.293  0.1698  0.2504 -0.3461
 2863SOL    HW1 8715   4.143   2.560   4.278  1.3494  1.0333  0.4990
 2863SOL    HW2 8716   4.149   2.446   4.377  0.2828  0.2247 -0.3082
 2864SOL     OW 8717   5.505   6.027   1.595 -0.1407 -0.2192 -0.0537
 2864SOL    HW1 8718   5.450   5.950   1.605  0.3478 -1.1975 -3.0508
 2864SOL    HW2 8719   5.489   6.057   1.506  3.1578  0.1576 -0.7761
 2865SOL     OW 8720   5.526   1.520   0.836 -0.1682 -0.4948 -0.2654
 2865SOL    HW1 8721   5.515   1.426   0.820  0.0127 -0.7478  0.9050
 2865SOL    HW2 8722   5.621   1.532   0.842 -0.2006 -0.5780  1.1444
 2866SOL     OW 8723   0.614   4.129   0.410 -0.4997 -0.3299  0.5914
 2866SOL    HW1 8724   0.577   4.170   0.332  0.1411 -0.2336  0.3232
 2866SOL    HW2 8725   0.570   4.045   0.417 -0.3081 -0.4970 -0.0973
 2867SOL     OW 8726   2.141   2.655   2.372 -0.4825 -0.5355  0.0601
 2867SOL    HW1 8727   2.226   2.682   2.404 -0.4930  0.0351 -0.3633
 2867SOL    HW2 8728   2.142   2.559   2.377 -0.0831 -0.5022  0.6958
 2868SOL     OW 8729   5.650   4.622   0.516 -0.3156  0.2264  0.1301
 2868SOL    HW1 8730   5.639   4.668   0.433 -1.1555 -0.8231 -0.3982
 2868SOL    HW2 8731   5.664   4.531   0.491  1.7071  0.1646  1.1119
 2869SOL     OW 8732   3.483   3.262   1.112  0.1356  0.3397  0.1210
 2869SOL    HW1 8733   3.495   3.217   1.028  3.4004  0.7216  0.1319
 2869SOL    HW2 8734   3.511   3.352   1.096 -0.3884  0.7659  1.3648
 2870SOL     OW 8735   2.212   1.681   0.625  0.3265 -0.1305  0.2622
 2870SOL    HW1 8736   2.208   1.674   0.720 -1.2760 -1.5298  0.1780
 2870SOL    HW2 8737   2.234   1.772   0.609 -0.7171  0.5207  1.9773
 2871SOL     OW 8738   2.631   0.425   1.741  0.0582  0.8744 -0.1812
 2871SOL    HW1 8739   2.718   0.452   1.767  0.9447 -0.1531 -1.7624
 2871SOL    HW2 8740   2.645   0.356   1.676 -1.9455 -0.2216  0.3586
 2872SOL     OW 8741   0.698   5.668   1.062  0.2577 -0.0485  0.4305
 2872SOL    HW1 8742   0.659   5.678   1.149 -1.1119  0.4077 -0.1722
 2872SOL    HW2 8743   0.645   5.600   1.020  1.1795 -0.5785  0.0737
 2873SOL     OW 8744   5.491   4.618   2.996 -0.5778 -0.0553 -0.4125
 2873SOL    HW1 8745   5.472   4.664   3.077  0.6008  0.9611 -0.6533
 2873SOL    HW2 8746   5.585   4.598   3.000 -0.2369  0.8796 -1.8612
 2874SOL     OW 8747   2.502   3.346   0.859  0.2372 -0.3722  0.4379
 2874SOL    HW1 8748   2.423   3.328   0.808 -0.5762  0.0350  1.4986
 2874SOL    HW2 8749   2.471   3.386   0.939  1.2259 -2.7024  2.2213
 2875SOL     OW 8750   1.541   3.099   3.144 -0.2663 -0.2380 -0.3026
 2875SOL    HW1 8751   1.520   3.044   3.219  0.3010  1.2002  0.9961
 2875SOL    HW2 8752   1.457   3.115   3.101 -1.4631  2.0315  2.3429
 2876SOL     OW 8753   5.758   2.950   2.737  0.5841  0.0788 -0.0820
 2876SOL    HW1 8754   5.795   2.968   2.823  0.1670 -0.1782  0.1593
 2876SOL    HW2 8755   5.756   2.854   2.731 -0.0906  0.0746 -0.0486
 2877SOL     OW 8756   1.645   6.290   1.467 -0.2628  0.0490 -0.3355
 2877SOL    HW1 8757   1.683   6.377   1.455 -1.7187  1.0082  1.1580
 2877SOL    HW2 8758   1.703   6.247   1.528  0.0549  0.2724 -0.4743
 2878SOL     OW 8759   3.210   6.090   0.157  0.5634  0.1717  0.5187
 2878SOL    HW1 8760   3.226   6.120   0.247 -1.5722  0.6639  0.8408
 2878SOL    HW2 8761   3.264   6.148   0.103 -0.0800  1.7017  1.3792
 2879SOL     OW 8762   4.196   4.103   2.906  0.2845  0.1679 -0.0079
 2879SOL    HW1 8763   4.193   4.024   2.960 -0.8654 -0.3455 -0.7456
 2879SOL    HW2 8764   4.230   4.072   2.821 -1.8732 -0.0232 -0.9187
 2880SOL     OW 8765   2.965   2.506   1.473  0.4389  0.1291  0.0132
 2880SOL    HW1 8766   2.899   2.475   1.411 -0.4702  0.4979  0.7454
 2880SOL    HW2 8767   2.956   2.602   1.472  1.8182  0.3034 -0.7486
 2881SOL     OW 8768   0.287   3.548   0.928  0.3177 -0.6704  0.1088
 2881SOL    HW1 8769   0.222   3.616   0.910  0.6506  0.1015  1.4983
 2881SOL    HW2 8770   0.369   3.583   0.892  0.2792 -0.8556 -0.1580
 2882SOL     OW 8771   1.448   6.194   2.690  0.4760  0.4696 -0.0335
 2882SOL    HW1 8772   1.479   6.180   2.601 -0.0501 -0.6397 -0.0785
 2882SOL    HW2 8773   1.523   6.171   2.746  0.0912 -1.3938 -0.1605
 2883SOL     OW 8774   4.959   4.327   3.550 -0.2404 -0.3747  0.3280
 2883SOL    HW1 8775   4.887   4.313   3.489 -0.1171 -0.2321  0.1454
 2883SOL    HW2 8776   4.931   4.284   3.631 -1.1557  0.8316  0.7260
 2884SOL     OW 8777   4.171   0.418   2.709  0.0199  0.3217  0.4325
 2884SOL    HW1 8778   4.112   0.408   2.784 -0.7353  1.3502  0.0225
 2884SOL    HW2 8779   4.208   0.506   2.720  0.8348  0.0260  0.2076
 2885SOL     OW 8780   1.218   5.420   3.823  0.3268  0.0988 -0.1904
 2885SOL    HW1 8781   1.137   5.377   3.847 -0.5284 -1.1807 -3.9826
 2885SOL    HW2 8782   1.192   5.509   3.800  0.6156  0.4956  0.9050
 2886SOL     OW 8783   5.652   2.230   2.591  0.3586 -0.0529  0.1946
 2886SOL    HW1 8784   5.570   2.192   2.560  1.3184 -0.8454 -1.7272
 2886SOL    HW2 8785   5.719   2.189   2.537  1.8359  2.1350  0.0952
 2887SOL     OW 8786   3.464   0.306   0.115  0.1391 -0.5169 -0.6670
 2887SOL    HW1 8787   3.434   0.216   0.127 -1.5299  0.1666  1.5300
 2887SOL    HW2 8788   3.539   0.314   0.174 -0.5090 -0.1973  0.1435
 2888SOL     OW 8789   5.937   5.864   2.817 -0.1315 -0.0900 -0.0469
 2888SOL    HW1 8790   5.943   5.952   2.854  1.9873 -0.5584  0.9981
 2888SOL    HW2 8791   5.843   5.852   2.799 -0.7255  1.7654  1.2434
 2889SOL     OW 8792   1.595   3.832   0.610  0.3573 -0.4520 -0.0840
 2889SOL    HW1 8793   1.637   3.912   0.642 -0.8807  0.2700 -0.1394
 2889SOL    HW2 8794   1.667   3.780   0.573  1.1001  1.0161 -0.8524
 2890SOL     OW 8795   1.365   2.949   0.422 -0.5337 -0.3271  0.1414
 2890SOL    HW1 8796   1.300   2.885   0.451 -0.7875 -0.2869 -0.3166
 2890SOL    HW2 8797   1.314   3.026   0.397 -0.5109 -0.7830 -1.6149
 2891SOL     OW 8798   0.293   1.832   0.334  0.0713  0.3165 -0.2621
 2891SOL    HW1 8799   0.315   1.740   0.317  1.9077  0.9276 -2.0772
 2891SOL    HW2 8800   0.303   1.875   0.249 -1.2204  2.1724  0.3912
 2892SOL     OW 8801   2.865   5.053   3.935  0.2791 -0.4195  0.6469
 2892SOL    HW1 8802   2.887   4.993   3.863 -0.2318 -1.4898  1.3243
 2892SOL    HW2 8803   2.949   5.093   3.958  0.3916  0.3193 -0.8029
 2893SOL     OW 8804   6.321   2.660   0.741 -0.3777 -0.4962  0.2086
 2893SOL    HW1 8805   6.245   2.716   0.726  1.1077  1.4118 -1.3697
 2893SOL    HW2 8806   6.370   2.703   0.811  0.1318 -0.5814 -0.0788
 2894SOL     OW 8807   2.319   4.042   3.050 -0.0177  0.0066  0.1947
 2894SOL    HW1 8808   2.310   4.134   3.026 -1.0966  0.2437  1.3009
 2894SOL    HW2 8809   2.267   3.995   2.985  0.4045  0.1770 -0.2783
 2895SOL     OW 8810   3.045   3.922   3.103 -0.7880 -0.1825  0.0781
 2895SOL    HW1 8811   3.019   3.839   3.144  0.1657 -1.5102 -1.6656
 2895SOL    HW2 8812   3.034   3.906   3.009  0.3250  1.3325 -0.3872
 2896SOL     OW 8813   4.566   2.450   4.079  0.1127 -0.8196  0.6585
 2896SOL    HW1 8814   4.502   2.394   4.124 -1.0876  0.9799  1.4080
 2896SOL    HW2 8815   4.642   2.450   4.138  1.4499 -3.6975 -0.6525
 2897SOL     OW 8816   0.470   2.156   0.163  0.6750  0.0646 -0.5483
 2897SOL    HW1 8817   0.534   2.200   0.218 -1.1007 -0.1883  2.0908
 2897SOL    HW2 8818   0.390   2.207   0.174 -0.8220 -2.1829  0.6062
 2898SOL     OW 8819   3.669   4.353   1.868  0.0362 -0.1211 -1.0540
 2898SOL    HW1 8820   3.700   4.305   1.944 -1.0758 -0.3738 -0.7316
 2898SOL    HW2 8821   3.748   4.395   1.833  1.0708 -2.0819 -1.3296
 2899SOL     OW 8822   6.078   2.736   2.095  0.0940 -0.0136  0.0690
 2899SOL    HW1 8823   6.038   2.758   2.179 -2.1124 -2.6328 -0.0012
 2899SOL    HW2 8824   6.126   2.655   2.112  2.2911  0.9386 -0.7613
 2900SOL     OW 8825   2.137   0.694   0.499 -0.0301 -0.0052  0.2140
 2900SOL    HW1 8826   2.192   0.699   0.422  1.0504 -0.3139  0.9235
 2900SOL    HW2 8827   2.158   0.772   0.550  0.8830 -0.7977  1.1595
 2901SOL     OW 8828   1.986   3.326   2.791 -0.2657  0.4526  0.5744
 2901SOL    HW1 8829   1.925   3.360   2.857 -1.2946 -1.0690  0.5039
 2901SOL    HW2 8830   2.068   3.314   2.839 -0.9613 -0.5550  1.6437
 2902SOL     OW 8831   1.904   4.969   0.433  0.4053  0.3646 -0.4077
 2902SOL    HW1 8832   1.857   5.021   0.369 -2.7854 -0.7946  0.5868
 2902SOL    HW2 8833   1.930   5.032   0.501  1.1698  1.1833 -1.4010
 2903SOL     OW 8834   2.481   2.685   0.884  0.3741 -0.7895  0.3933
 2903SOL    HW1 8835   2.393   2.684   0.847  0.4318  1.5547 -0.1538
 2903SOL    HW2 8836   2.515   2.772   0.862  3.4561 -1.9794 -0.8214
 2904SOL     OW 8837   4.829   1.726   0.668 -0.1811 -0.1419 -0.1367
 2904SOL    HW1 8838   4.921   1.736   0.691  0.2001 -0.1756 -1.4566
 2904SOL    HW2 8839   4.815   1.787   0.595 -0.8822 -0.9213 -0.7085
 2905SOL     OW 8840   2.385   5.132   3.631 -0.0828 -0.4957 -0.2861
 2905SOL    HW1 8841   2.405   5.189   3.557 -0.1612  2.1898  1.4971
 2905SOL    HW2 8842   2.291   5.115   3.623 -0.1054 -0.1841 -0.7674
 2906SOL     OW 8843   3.259   3.435   1.431 -0.3735 -0.0113  0.0717
 2906SOL    HW1 8844   3.176   3.405   1.393 -1.6344  1.4731  1.3607
 2906SOL    HW2 8845   3.287   3.506   1.373  0.4544 -0.9759 -0.7685
 2907SOL     OW 8846   3.777   1.734   2.061 -0.0499  0.1655  0.0459
 2907SOL    HW1 8847   3.719   1.718   1.986  0.2588  0.4932 -0.2719
 2907SOL    HW2 8848   3.752   1.821   2.093 -1.0647 -0.4771  1.1611
 2908SOL     OW 8849   2.306   6.384   0.604 -0.5767  0.2712 -0.1268
 2908SOL    HW1 8850   2.250   6.461   0.611 -0.2901  0.7804 -2.1163
 2908SOL    HW2 8851   2.249   6.311   0.629 -1.8426  0.8793 -0.9974
 2909SOL     OW 8852   4.502   2.610   0.445  0.4312 -0.0088 -0.3204
 2909SOL    HW1 8853   4.441   2.536   0.443  1.0903 -0.5540 -0.6027
 2909SOL    HW2 8854   4.531   2.621   0.355  1.3235 -0.2484 -0.0794
 2910SOL     OW 8855   4.346   1.563   1.334 -0.0132  0.3098 -0.6290
 2910SOL    HW1 8856   4.358   1.649   1.374  0.0656  0.3138 -0.6601
 2910SOL    HW2 8857   4.397   1.567   1.253 -0.6947  0.5330 -1.0698
 2911SOL     OW 8858   6.141   0.447   2.577  0.2437  0.2040 -0.0628
 2911SOL    HW1 8859   6.213   0.421   2.520  1.8480 -0.8512  2.1275
 2911SOL    HW2 8860   6.075   0.379   2.564  0.6594 -0.1243 -0.5392
 2912SOL     OW 8861   4.390   6.285   4.493  0.4277  0.1462 -0.0773
 2912SOL    HW1 8862   4.344   6.203   4.508  1.1354 -0.3899 -0.6582
 2912SOL    HW2 8863   4.423   6.312   4.579 -0.6065  0.3439  0.2785
 2913SOL     OW 8864   2.648   5.520   3.089  0.2812 -0.0304  0.1972
 2913SOL    HW1 8865   2.585   5.591   3.101  1.4464  0.8967  1.4629
 2913SOL    HW2 8866   2.613   5.468   3.016 -1.3877  0.9777  0.1915
 2914SOL     OW 8867   6.001   1.029   0.237 -0.5046  0.3728  0.2723
 2914SOL    HW1 8868   6.065   1.095   0.264 -0.5490  0.4202  0.2633
 2914SOL    HW2 8869   5.960   1.001   0.318  0.5406 -0.7347  0.4745
 2915SOL     OW 8870   4.387   2.950   4.236  0.5243  0.0797 -0.5331
 2915SOL    HW1 8871   4.371   2.857   4.255  1.0353 -0.2164 -1.4101
 2915SOL    HW2 8872   4.301   2.991   4.243  0.5750  0.0171  1.9957
 2916SOL     OW 8873   3.170   2.367   1.339  0.0776  0.2144  0.2158
 2916SOL    HW1 8874   3.203   2.453   1.311 -1.0122  0.6802  0.2736
 2916SOL    HW2 8875   3.104   2.387   1.405  1.1405 -0.7657  1.7085
 2917SOL     OW 8876   3.643   3.289   3.406  0.0249  0.5209  0.6159
 2917SOL    HW1 8877   3.639   3.195   3.393 -0.5167  0.5930  0.2164
 2917SOL    HW2 8878   3.578   3.307   3.474  0.4498  0.5583  1.0222
 2918SOL     OW 8879   5.058   0.863   2.747  0.2118 -0.5475  0.5184
 2918SOL    HW1 8880   5.137   0.811   2.730  0.1835 -1.0870  1.8279
 2918SOL    HW2 8881   5.088   0.954   2.740  0.8499 -0.7400  0.6055
 2919SOL     OW 8882   5.637   2.421   1.939  0.2471  0.6004 -0.5812
 2919SOL    HW1 8883   5.591   2.463   1.867 -0.9486  2.4251  1.0557
 2919SOL    HW2 8884   5.684   2.492   1.983 -1.1068  0.2341  1.8120
 2920SOL     OW 8885   3.143   2.616   1.147 -0.3725  0.0033 -0.0262
 2920SOL    HW1 8886   3.052   2.641   1.137  0.3580  3.1417 -1.2026
 2920SOL    HW2 8887   3.156   2.544   1.085 -1.5551  1.5444 -2.3599
 2921SOL     OW 8888   1.124   4.868   1.617 -0.7723 -0.1376 -0.2162
 2921SOL    HW1 8889   1.138   4.786   1.664 -0.4280 -0.1463 -0.3271
 2921SOL    HW2 8890   1.198   4.873   1.556 -0.9651  0.0976 -0.4328
 2922SOL     OW 8891   0.082   5.354   1.407  0.4031  0.5393  0.2711
 2922SOL    HW1 8892   0.044   5.319   1.487  0.8056 -1.2022 -0.1978
 2922SOL    HW2 8893   0.170   5.315   1.404  0.5023  0.7824 -0.8725
 2923SOL     OW 8894   1.329   4.346   1.202 -0.6216 -0.5568 -0.4831
 2923SOL    HW1 8895   1.298   4.267   1.246 -2.4713  0.4833  0.3116
 2923SOL    HW2 8896   1.279   4.349   1.120  0.2740 -0.7505 -1.0555
 2924SOL     OW 8897   4.113   5.830   1.465  0.1816  0.5923  0.4215
 2924SOL    HW1 8898   4.051   5.794   1.529  0.5401  1.0033  1.0216
 2924SOL    HW2 8899   4.069   5.820   1.381 -0.8230  1.1113  0.8475
 2925SOL     OW 8900   3.409   4.732   0.078  0.3503 -0.0994 -0.0541
 2925SOL    HW1 8901   3.392   4.818   0.116  0.4082 -0.4753  0.8981
 2925SOL    HW2 8902   3.340   4.676   0.115  1.4909 -0.8911  1.0543
 2926SOL     OW 8903   0.162   6.172   0.915  0.0721 -0.2105  0.2331
 2926SOL    HW1 8904   0.166   6.267   0.930  0.6198 -0.3981  1.5875
 2926SOL    HW2 8905   0.076   6.146   0.948 -1.0620  0.0158 -2.1323
 2927SOL     OW 8906   3.794   6.198   1.176  0.1575  1.2028 -0.3009
 2927SOL    HW1 8907   3.811   6.239   1.261 -0.2726  1.2105 -0.2130
 2927SOL    HW2 8908   3.865   6.230   1.119  1.0298  0.4217  0.2897
 2928SOL     OW 8909   0.103   5.512   4.183 -0.3059  0.5149  0.6762
 2928SOL    HW1 8910   0.022   5.562   4.195 -0.0569  1.7635 -1.7399
 2928SOL    HW2 8911   0.171   5.578   4.173  0.3253 -0.2919 -1.0442
 2929SOL     OW 8912   2.721   2.129   0.042  0.4740 -0.0036  0.5172
 2929SOL    HW1 8913   2.685   2.216   0.022 -1.7320 -0.6760  0.9534
 2929SOL    HW2 8914   2.724   2.126   0.138  0.8544 -0.3042  0.4985
 2930SOL     OW 8915   6.102   2.143   3.285 -0.1587  0.2067 -0.1155
 2930SOL    HW1 8916   6.009   2.163   3.273 -0.4348 -1.4589 -1.5411
 2930SOL    HW2 8917   6.122   2.080   3.215  2.1616  0.7852 -0.1239
 2931SOL     OW 8918   1.893   0.820   0.570  0.0931  0.4959  0.7690
 2931SOL    HW1 8919   1.960   0.752   0.558  0.0899 -0.2483  3.6276
 2931SOL    HW2 8920   1.927   0.895   0.521  1.1532 -0.8644 -0.8395
 2932SOL     OW 8921   2.436   0.192   4.036 -0.2941 -0.2419  0.3007
 2932SOL    HW1 8922   2.474   0.275   4.066  1.4878 -0.2651 -1.4030
 2932SOL    HW2 8923   2.434   0.136   4.113  0.0606  0.8608  1.1599
 2933SOL     OW 8924   6.414   2.353   2.575  0.1693  0.1497 -0.6188
 2933SOL    HW1 8925   6.436   2.357   2.482  1.1304 -0.8365 -0.4762
 2933SOL    HW2 8926   6.355   2.278   2.582 -0.2738  0.5057 -0.4832
 2934SOL     OW 8927   4.165   5.704   0.190  0.2540 -0.0940 -0.2692
 2934SOL    HW1 8928   4.125   5.789   0.212 -0.1707 -0.1584 -0.7763
 2934SOL    HW2 8929   4.117   5.673   0.114  1.2671 -0.1823 -0.9111
 2935SOL     OW 8930   4.548   1.399   4.063  0.1695 -0.1810  0.7064
 2935SOL    HW1 8931   4.550   1.495   4.056 -1.9190 -0.0954 -0.1329
 2935SOL    HW2 8932   4.535   1.383   4.156 -0.4869  0.4403  0.7426
 2936SOL     OW 8933   4.077   1.546   1.254 -0.4744 -0.5494 -0.1288
 2936SOL    HW1 8934   4.066   1.563   1.161  0.0121 -1.1401 -0.3089
 2936SOL    HW2 8935   4.171   1.553   1.270 -0.4827 -1.0034  0.1893
 2937SOL     OW 8936   3.000   0.174   2.084  0.2146 -0.1536 -0.3992
 2937SOL    HW1 8937   2.971   0.103   2.027 -1.3371 -0.1783  0.3333
 2937SOL    HW2 8938   2.921   0.203   2.129  1.3277 -0.2603  1.9151
 2938SOL     OW 8939   2.696   3.333   3.272  0.1037  0.8770 -0.6747
 2938SOL    HW1 8940   2.683   3.295   3.359 -0.0271  1.3056 -0.5016
 2938SOL    HW2 8941   2.788   3.315   3.252 -0.2676 -0.7900 -1.2295
 2939SOL     OW 8942   1.294   1.573   2.730 -0.9517 -0.1224 -0.4928
 2939SOL    HW1 8943   1.241   1.537   2.659  1.0639  1.4963 -3.2723
 2939SOL    HW2 8944   1.374   1.520   2.730 -0.4230  0.6354 -0.3573
 2940SOL     OW 8945   5.747   2.911   1.572  0.1310 -0.7174 -0.2924
 2940SOL    HW1 8946   5.766   2.997   1.610  0.1943 -1.3764  1.3357
 2940SOL    HW2 8947   5.724   2.856   1.647 -1.7665 -1.6966 -1.4357
 2941SOL     OW 8948   6.117   2.503   0.673 -0.3209 -0.4211  0.2832
 2941SOL    HW1 8949   6.103   2.441   0.602 -0.7534 -0.8847  0.7568
 2941SOL    HW2 8950   6.198   2.548   0.650  0.1245 -1.3107  0.0294
 2942SOL     OW 8951   0.871   4.313   0.177  0.0183  0.2982 -0.2592
 2942SOL    HW1 8952   0.836   4.357   0.099  1.3188 -0.9728 -1.7119
 2942SOL    HW2 8953   0.965   4.330   0.174  0.0963  0.3936  1.2325
 2943SOL     OW 8954   1.436   6.273   1.808 -0.2879  0.1147 -0.3337
 2943SOL    HW1 8955   1.406   6.192   1.849  0.3844 -0.1381 -0.3128
 2943SOL    HW2 8956   1.466   6.247   1.721 -0.7123  0.4660 -0.5928
 2944SOL     OW 8957   1.659   1.024   0.943  0.5396 -0.4284 -0.3198
 2944SOL    HW1 8958   1.749   1.017   0.973  0.5994  2.4593  0.9277
 2944SOL    HW2 8959   1.611   1.059   1.019 -0.3838  2.9702 -2.0591
 2945SOL     OW 8960   5.574   3.058   1.180 -0.3946 -0.1282 -0.2125
 2945SOL    HW1 8961   5.590   3.093   1.268  0.4419  0.0557 -0.4189
 2945SOL    HW2 8962   5.521   2.980   1.195 -1.1251  0.4473  0.3659
 2946SOL     OW 8963   2.581   1.619   0.455 -0.4004 -0.0647 -0.4010
 2946SOL    HW1 8964   2.506   1.562   0.437  0.0222 -0.3645 -1.3111
 2946SOL    HW2 8965   2.655   1.559   0.462 -0.2140  0.2375  0.4060
 2947SOL     OW 8966   4.005   4.490   0.835  0.3080 -0.1288  0.7257
 2947SOL    HW1 8967   4.078   4.429   0.827  0.7818  0.4446  0.4799
 2947SOL    HW2 8968   4.033   4.567   0.786  0.1229  0.6324  1.7404
 2948SOL     OW 8969   1.028   4.201   2.373 -0.0033 -0.5221 -0.0069
 2948SOL    HW1 8970   1.115   4.202   2.333 -0.4742 -0.3857 -1.1043
 2948SOL    HW2 8971   0.973   4.248   2.311 -0.9011 -0.7529  0.5783
 2949SOL     OW 8972   0.611   0.406   4.484 -0.0693  0.0939  0.3341
 2949SOL    HW1 8973   0.698   0.367   4.493 -0.0065 -0.2072 -1.1604
 2949SOL    HW2 8974   0.612   0.481   4.544  1.5712  0.6646 -0.3030
 2950SOL     OW 8975   2.746   4.789   4.522 -0.0964  0.3369  0.2030
 2950SOL    HW1 8976   2.688   4.800   4.447 -1.3213 -1.3898  0.7435
 2950SOL    HW2 8977   2.826   4.751   4.486 -0.6045 -0.3178 -0.2782
 2951SOL     OW 8978   2.530   4.231   0.684 -0.1737 -0.0973  0.5980
 2951SOL    HW1 8979   2.550   4.218   0.777 -1.2991 -2.9645  0.6570
 2951SOL    HW2 8980   2.579   4.163   0.639  0.3020  1.1778 -0.9988
 2952SOL     OW 8981   6.370   2.240   0.586  0.0108 -0.2132  0.1216
 2952SOL    HW1 8982   6.347   2.163   0.638  0.0998 -0.2075  0.1698
 2952SOL    HW2 8983   6.453   2.215   0.543  0.5473  0.2034  0.8744
 2953SOL     OW 8984   5.965   2.184   1.244 -0.1800  0.0184 -0.4946
 2953SOL    HW1 8985   6.035   2.120   1.232 -0.0855  0.1238 -0.5098
 2953SOL    HW2 8986   6.005   2.255   1.294 -0.0462  0.4620 -1.2037
 2954SOL     OW 8987   0.538   3.832   3.851  0.8666 -0.4601  0.2055
 2954SOL    HW1 8988   0.446   3.809   3.845  1.0489 -1.3501  0.4025
 2954SOL    HW2 8989   0.554   3.890   3.777 -0.3501  1.7070  1.4393
 2955SOL     OW 8990   6.299   4.460   2.160 -0.0017 -0.8117 -0.2812
 2955SOL    HW1 8991   6.267   4.452   2.070  0.0722 -1.7671 -0.2382
 2955SOL    HW2 8992   6.263   4.385   2.206 -1.1235  0.3196  0.8618
 2956SOL     OW 8993   0.324   1.312   2.102  0.4100  0.2256 -0.2328
 2956SOL    HW1 8994   0.382   1.250   2.058 -0.5090  0.3052 -1.7077
 2956SOL    HW2 8995   0.375   1.392   2.112  1.4890 -0.5541  1.3454
 2957SOL     OW 8996   4.132   3.729   1.388 -0.3300 -0.0786 -0.5939
 2957SOL    HW1 8997   4.202   3.794   1.385 -1.0326  0.6835 -1.2135
 2957SOL    HW2 8998   4.055   3.775   1.355 -1.4587 -0.4945  1.1885
 2958SOL     OW 8999   4.091   4.948   1.286  0.6476 -0.2135  0.0565
 2958SOL    HW1 9000   4.184   4.970   1.273  1.2600 -1.6703  1.3666
 2958SOL    HW2 9001   4.067   4.900   1.207  1.7929 -1.8617  0.5948
 2959SOL     OW 9002   2.448   5.981   0.695 -0.2356 -0.2155  0.2704
 2959SOL    HW1 9003   2.506   6.051   0.665 -0.1540 -0.3482  0.1136
 2959SOL    HW2 9004   2.411   6.014   0.777 -0.1694 -0.0052  0.2172
 2960SOL     OW 9005   4.524   5.670   1.775  0.0148  0.1103  0.5934
 2960SOL    HW1 9006   4.599   5.627   1.814  0.6746  3.4735  4.4486
 2960SOL    HW2 9007   4.452   5.652   1.835 -0.8615  0.8369 -0.1689
 2961SOL     OW 9008   1.787   5.698   0.408 -0.1325  0.2667  0.5365
 2961SOL    HW1 9009   1.850   5.628   0.391 -0.5208  0.2266 -1.1036
 2961SOL    HW2 9010   1.732   5.665   0.478  0.8907 -0.1992  1.1707
 2962SOL     OW 9011   0.846   0.154   2.070  0.2488 -0.3349  0.5869
 2962SOL    HW1 9012   0.834   0.103   2.150  0.2125  2.3285  2.5749
 2962SOL    HW2 9013   0.938   0.142   2.047  0.4059 -0.7753  1.3796
 2963SOL     OW 9014   2.343   6.094   2.819  0.2740  0.4593  0.6494
 2963SOL    HW1 9015   2.362   6.101   2.913  0.3469 -1.7571  0.9200
 2963SOL    HW2 9016   2.319   6.002   2.807 -0.0940  0.7367 -1.4738
 2964SOL     OW 9017   1.173   6.324   1.735  0.1135  0.0412 -0.3396
 2964SOL    HW1 9018   1.165   6.303   1.642  2.0558 -1.7995 -0.2532
 2964SOL    HW2 9019   1.267   6.320   1.752 -0.2096 -1.1737  1.9163
 2965SOL     OW 9020   5.148   4.839   3.712  0.2835 -0.6013 -0.5492
 2965SOL    HW1 9021   5.138   4.801   3.799  2.6957 -0.3467 -0.0153
 2965SOL    HW2 9022   5.115   4.772   3.652 -0.6347 -1.1508  0.5007
 2966SOL     OW 9023   6.313   5.514   1.611 -0.2957  0.0333  0.4870
 2966SOL    HW1 9024   6.244   5.571   1.645 -0.6210 -1.2926  2.4307
 2966SOL    HW2 9025   6.380   5.516   1.680  0.9670  0.1617 -0.6783
 2967SOL     OW 9026   1.656   5.411   0.331 -0.1035 -0.1258  0.5233
 2967SOL    HW1 9027   1.724   5.415   0.264  0.2555 -0.2612  0.8712
 2967SOL    HW2 9028   1.575   5.425   0.283  0.2162  0.7204  0.1861
 2968SOL     OW 9029   6.117   5.852   1.105  0.7506  0.7990  0.2765
 2968SOL    HW1 9030   6.053   5.817   1.167  0.9450  0.1837  0.1438
 2968SOL    HW2 9031   6.072   5.852   1.021  0.5795  1.3765  0.3548
 2969SOL     OW 9032   2.226   2.925   3.520  0.1793  0.2948  0.1973
 2969SOL    HW1 9033   2.288   2.887   3.583  1.4000 -0.5618 -1.3934
 2969SOL    HW2 9034   2.270   3.004   3.488  0.3775 -0.1907 -0.7774
 2970SOL     OW 9035   5.599   2.025   4.212  0.5685 -0.1583  0.3710
 2970SOL    HW1 9036   5.599   1.968   4.289  0.7451  0.5324  0.8988
 2970SOL    HW2 9037   5.572   2.111   4.245 -1.3731 -0.2571 -0.6836
 2971SOL     OW 9038   2.489   1.842   0.024 -0.1050 -0.6495 -0.8190
 2971SOL    HW1 9039   2.509   1.754   0.055 -0.8358 -0.7480 -0.6019
 2971SOL    HW2 9040   2.565   1.866  -0.028  1.2551 -0.4432  1.0562
 2972SOL     OW 9041   4.344   1.371   3.539  0.5253  0.3017 -0.3414
 2972SOL    HW1 9042   4.393   1.320   3.475 -0.5827 -0.2737 -0.7794
 2972SOL    HW2 9043   4.267   1.317   3.560  0.1751  1.0590  0.4701
 2973SOL     OW 9044   6.403   1.632   1.581 -0.3789 -0.0395  0.3344
 2973SOL    HW1 9045   6.349   1.574   1.634 -1.1565 -0.4954 -0.8804
 2973SOL    HW2 9046   6.422   1.706   1.639 -1.7069 -0.2031  1.0651
 2974SOL     OW 9047   3.339   5.285   3.473  0.3346 -0.3968 -0.0031
 2974SOL    HW1 9048   3.360   5.371   3.437 -0.8253  0.1372  0.4853
 2974SOL    HW2 9049   3.245   5.288   3.490  0.1120 -2.0060 -0.5785
 2975SOL     OW 9050   1.809   6.256   0.881  0.2143 -0.1108  0.4617
 2975SOL    HW1 9051   1.783   6.324   0.943  0.7235  0.0512  0.5049
 2975SOL    HW2 9052   1.858   6.193   0.934 -1.0504 -1.0315  0.6244
 2976SOL     OW 9053   0.449   2.504   2.083 -0.1776  0.0431 -0.1992
 2976SOL    HW1 9054   0.385   2.575   2.084 -0.8487 -0.5010 -1.0528
 2976SOL    HW2 9055   0.421   2.448   2.010  0.5600 -0.8789  0.1822
 2977SOL     OW 9056   3.988   4.899   3.000  0.0983 -0.1071 -0.3544
 2977SOL    HW1 9057   3.937   4.868   3.075  0.4255 -0.0196 -0.0938
 2977SOL    HW2 9058   3.950   4.984   2.979 -0.2714 -0.3177 -0.5591
 2978SOL     OW 9059   4.806   0.471   1.217  0.4897 -0.2094 -0.5770
 2978SOL    HW1 9060   4.820   0.432   1.303  3.0285 -0.3176 -0.8840
 2978SOL    HW2 9061   4.783   0.396   1.161  2.9553 -1.0576 -0.6900
 2979SOL     OW 9062   4.462   4.451   1.978  0.1271  0.0357  0.2175
 2979SOL    HW1 9063   4.551   4.417   1.969 -0.3257 -1.2706  0.3003
 2979SOL    HW2 9064   4.461   4.530   1.924  0.6347 -1.3260 -2.0253
 2980SOL     OW 9065   0.962   5.647   1.131  0.4104  0.5033  0.7337
 2980SOL    HW1 9066   1.014   5.619   1.055  0.4607  0.1247  0.9030
 2980SOL    HW2 9067   0.871   5.635   1.104  0.4157 -1.1058  1.2346
 2981SOL     OW 9068   2.354   1.530   0.991 -0.5423  0.5222  0.4940
 2981SOL    HW1 9069   2.290   1.505   1.058 -0.1340  1.4152  1.2533
 2981SOL    HW2 9070   2.307   1.592   0.935 -1.2735 -1.0770 -0.8665
 2982SOL     OW 9071   0.993   5.411   0.135 -0.1603  0.3176 -0.0765
 2982SOL    HW1 9072   1.062   5.468   0.168 -0.8741  0.0810  2.1018
 2982SOL    HW2 9073   1.021   5.323   0.161 -0.9025  0.1374  0.1509
 2983SOL     OW 9074   5.084   5.130   0.450 -0.3835 -0.0576  0.5111
 2983SOL    HW1 9075   5.135   5.200   0.492 -1.2405  0.3720  0.8995
 2983SOL    HW2 9076   5.120   5.049   0.486  1.2415  0.0761 -0.6307
 2984SOL     OW 9077   3.210   4.599   0.223 -0.0433 -0.2357  0.1553
 2984SOL    HW1 9078   3.248   4.511   0.222 -0.2360 -0.3788 -1.6165
 2984SOL    HW2 9079   3.149   4.600   0.149  0.4265  1.5693 -0.3291
 2985SOL     OW 9080   4.838   2.511   1.889 -0.4164  0.2376  0.7626
 2985SOL    HW1 9081   4.768   2.512   1.824  1.2556  0.3193 -1.2118
 2985SOL    HW2 9082   4.792   2.520   1.973 -2.9269 -1.6957 -0.1223
 2986SOL     OW 9083   4.581   1.695   4.095 -0.2600 -0.3247  0.1166
 2986SOL    HW1 9084   4.509   1.741   4.053 -0.7944  0.1715  1.4666
 2986SOL    HW2 9085   4.570   1.712   4.189  2.8686  1.7902  0.4090
 2987SOL     OW 9086   2.850   0.781   1.282 -0.3763 -0.2856  0.2233
 2987SOL    HW1 9087   2.926   0.735   1.247 -0.6315 -1.7340  1.3625
 2987SOL    HW2 9088   2.869   0.791   1.375 -1.2563  0.0151  0.3905
 2988SOL     OW 9089   0.468   0.717   4.199 -0.1864  0.3339 -0.4535
 2988SOL    HW1 9090   0.378   0.713   4.168 -0.6719  0.6369  0.7708
 2988SOL    HW2 9091   0.491   0.626   4.218 -0.2582  0.2626 -0.7038
 2989SOL     OW 9092   0.386   1.551   0.991 -0.5305 -0.4763 -0.3706
 2989SOL    HW1 9093   0.386   1.466   0.947  0.9895 -1.8865  1.8818
 2989SOL    HW2 9094   0.309   1.549   1.048  0.3908 -1.2234  0.9328
 2990SOL     OW 9095   1.403   4.186   3.168  0.2921  0.6468 -0.0052
 2990SOL    HW1 9096   1.326   4.241   3.184 -0.3414  0.1063 -1.0114
 2990SOL    HW2 9097   1.464   4.242   3.120  1.0671  1.4255  1.7058
 2991SOL     OW 9098   6.344   1.778   0.543  0.1404 -0.0512 -0.0753
 2991SOL    HW1 9099   6.352   1.761   0.449 -0.7341  0.7633 -0.3243
 2991SOL    HW2 9100   6.421   1.831   0.564  0.2936 -0.1621 -0.3432
 2992SOL     OW 9101   1.440   2.394   3.319 -0.1490 -0.4099 -0.2402
 2992SOL    HW1 9102   1.473   2.480   3.294 -0.8864 -0.5578 -2.0775
 2992SOL    HW2 9103   1.398   2.407   3.403 -1.6565  1.4883 -1.1332
 2993SOL     OW 9104   0.452   5.208   2.451  0.1326  0.3593 -0.8362
 2993SOL    HW1 9105   0.442   5.187   2.358  1.3908 -0.5650 -0.8086
 2993SOL    HW2 9106   0.452   5.303   2.454 -0.4874  0.4151 -1.6914
 2994SOL     OW 9107   5.989   4.417   4.104 -0.1026  0.2162 -0.3053
 2994SOL    HW1 9108   5.972   4.425   4.198  0.3340  0.4117 -0.2340
 2994SOL    HW2 9109   6.080   4.388   4.099 -0.1831  0.0152 -0.6680
 2995SOL     OW 9110   1.783   5.176   0.226  0.2956  0.4591  0.7393
 2995SOL    HW1 9111   1.842   5.248   0.203 -1.6984  1.9604 -0.3570
 2995SOL    HW2 9112   1.744   5.150   0.142  0.1416 -1.2325  1.2577
 2996SOL     OW 9113   2.592   3.464   0.090  0.2287  0.0858  0.6508
 2996SOL    HW1 9114   2.610   3.557   0.079  0.0242  0.0014 -0.7891
 2996SOL    HW2 9115   2.505   3.451   0.051  0.9345 -0.9305 -0.7676
 2997SOL     OW 9116   3.006   1.025   2.922 -0.8641  0.0264  0.2916
 2997SOL    HW1 9117   2.941   0.992   2.861 -0.0711  0.3919 -0.8244
 2997SOL    HW2 9118   2.964   1.100   2.965 -1.7773 -0.8232  0.9653
 2998SOL     OW 9119   5.723   0.627   1.825  0.0797 -0.8880  0.1409
 2998SOL    HW1 9120   5.790   0.604   1.759  1.3143 -2.0159  1.6301
 2998SOL    HW2 9121   5.737   0.720   1.841 -3.7317  1.4437 -4.6205
 2999SOL     OW 9122   4.259   2.153   2.610  0.3966 -0.2911  0.1079
 2999SOL    HW1 9123   4.287   2.100   2.685 -0.9364 -0.0903  0.8026
 2999SOL    HW2 9124   4.309   2.234   2.619  0.6032 -0.4552  0.5192
 3000SOL     OW 9125   0.350   1.509   2.613  0.0564  0.2897 -0.2323
 3000SOL    HW1 9126   0.315   1.583   2.663  0.5556  2.2013 -2.3760
 3000SOL    HW2 9127   0.444   1.515   2.626  0.1969  0.8290 -1.2595
 3001SOL     OW 9128   0.973   0.561   3.615  0.0193 -0.3594 -0.0854
 3001SOL    HW1 9129   1.047   0.502   3.603 -1.2651 -2.0241 -0.5964
 3001SOL    HW2 9130   0.999   0.619   3.686  0.9405 -2.4246  1.4521
 3002SOL     OW 9131   2.112   3.870   3.181 -0.0706 -0.6064  0.3827
 3002SOL    HW1 9132   2.198   3.833   3.197 -0.3631 -1.5142 -0.0439
 3002SOL    HW2 9133   2.112   3.953   3.229  1.5407  0.1548 -0.7392
 3003SOL     OW 9134   5.597   2.718   0.949  0.3651  0.4822  0.2768
 3003SOL    HW1 9135   5.677   2.678   0.981  0.5656  0.0167 -0.7087
 3003SOL    HW2 9136   5.530   2.650   0.962  0.6277 -0.1027 -1.0273
 3004SOL     OW 9137   0.581   5.815   1.704 -0.2998 -0.5403  0.1118
 3004SOL    HW1 9138   0.550   5.728   1.680 -1.6756 -0.4131  1.2222
 3004SOL    HW2 9139   0.677   5.808   1.699 -0.3857 -1.6806 -1.1347
 3005SOL     OW 9140   0.130   1.756   3.049  0.7077 -0.3182 -0.2135
 3005SOL    HW1 9141   0.041   1.768   3.018  0.5056 -0.3728  0.3214
 3005SOL    HW2 9142   0.173   1.840   3.031 -0.3460  0.9829  2.3523
 3006SOL     OW 9143   1.239   4.306   0.912 -0.1115  0.1058 -0.1729
 3006SOL    HW1 9144   1.191   4.383   0.881 -1.8743 -0.9887 -0.4794
 3006SOL    HW2 9145   1.185   4.232   0.885  2.1293 -1.3949 -1.1248
 3007SOL     OW 9146   3.756   1.850   1.706  0.0841  0.2421  0.4314
 3007SOL    HW1 9147   3.830   1.807   1.664 -0.2767 -1.6655  1.4893
 3007SOL    HW2 9148   3.795   1.905   1.774  0.5492  0.8144 -0.2771
 3008SOL     OW 9149   6.382   0.203   2.508  0.0599  1.0185  0.2276
 3008SOL    HW1 9150   6.469   0.167   2.496  0.3089  1.1621  1.3742
 3008SOL    HW2 9151   6.369   0.205   2.603 -1.1540  1.0948  0.0995
 3009SOL     OW 9152   0.128   3.780   2.167 -0.2398  0.6328  0.3839
 3009SOL    HW1 9153   0.159   3.691   2.151  0.6223  0.7263  1.3466
 3009SOL    HW2 9154   0.073   3.773   2.245  0.9412  1.1059  1.3083
 3010SOL     OW 9155   6.339   6.116   4.207 -0.5090 -0.3586 -0.0881
 3010SOL    HW1 9156   6.258   6.166   4.219  0.0121  1.3393 -2.2445
 3010SOL    HW2 9157   6.313   6.040   4.155 -0.7493  0.3746 -1.0989
 3011SOL     OW 9158   1.548   3.790   0.173 -0.0605 -0.4616 -0.8767
 3011SOL    HW1 9159   1.584   3.702   0.188 -0.7672 -0.7167 -0.5959
 3011SOL    HW2 9160   1.504   3.783   0.088 -0.8024 -0.6223 -0.4911
 3012SOL     OW 9161   3.254   0.101   2.810  0.0620  0.1807 -0.1539
 3012SOL    HW1 9162   3.192   0.040   2.849 -0.4926  1.3407  0.9064
 3012SOL    HW2 9163   3.200   0.172   2.776  0.6600 -0.0397 -1.7046
 3013SOL     OW 9164   2.941   5.156   1.021  0.1602  0.2962 -0.0605
 3013SOL    HW1 9165   3.024   5.142   1.065 -0.8807 -0.8883  1.8312
 3013SOL    HW2 9166   2.937   5.250   1.005  1.6397  0.4420  0.1588
 3014SOL     OW 9167   1.332   0.824   3.950 -0.6424 -0.7061 -0.1841
 3014SOL    HW1 9168   1.256   0.853   3.899 -0.7024  2.0973  1.1226
 3014SOL    HW2 9169   1.328   0.729   3.947 -2.7090 -0.7390 -2.2402
 3015SOL     OW 9170   6.407   2.212   1.356 -0.1033 -0.4251  0.0182
 3015SOL    HW1 9171   6.479   2.251   1.306  0.0301  0.3241  0.7545
 3015SOL    HW2 9172   6.432   2.120   1.365 -0.4186 -0.7537 -1.7563
 3016SOL     OW 9173   1.584   0.424   2.667 -0.8825 -0.4874  0.0235
 3016SOL    HW1 9174   1.646   0.418   2.595 -0.6394  2.0884 -0.1907
 3016SOL    HW2 9175   1.628   0.384   2.741  0.4718 -0.0029 -0.4686
 3017SOL     OW 9176   3.373   0.511   2.119  0.0437 -0.0327 -0.7520
 3017SOL    HW1 9177   3.447   0.460   2.086  0.7154  0.4533 -0.0660
 3017SOL    HW2 9178   3.338   0.555   2.041  1.7216  1.2634 -0.8955
 3018SOL     OW 9179   4.411   3.415   2.244 -0.3509 -0.3510  0.0907
 3018SOL    HW1 9180   4.459   3.492   2.274 -0.4019 -0.2044 -0.1984
 3018SOL    HW2 9181   4.394   3.431   2.152  1.1407 -1.4559 -0.4680
 3019SOL     OW 9182   3.482   2.253   1.167  0.2190 -0.1885 -0.1030
 3019SOL    HW1 9183   3.512   2.343   1.178  0.6153 -0.4419  1.3071
 3019SOL    HW2 9184   3.522   2.205   1.240 -0.4651 -1.3866 -0.4524
 3020SOL     OW 9185   3.177   5.218   0.777 -0.1390 -0.3590 -0.1911
 3020SOL    HW1 9186   3.209   5.302   0.810 -0.9886 -0.3223  0.6159
 3020SOL    HW2 9187   3.188   5.157   0.850 -1.2029 -0.4988 -0.1088
 3021SOL     OW 9188   5.498   2.888   2.566  0.4920  0.1133  0.5556
 3021SOL    HW1 9189   5.418   2.898   2.514  0.5255  1.0988  0.6433
 3021SOL    HW2 9190   5.548   2.820   2.521 -0.6819 -1.0597  0.9113
 3022SOL     OW 9191   0.930   5.562   1.951 -0.3149 -0.5172  0.4936
 3022SOL    HW1 9192   1.009   5.509   1.940  0.2309 -0.1295  2.0900
 3022SOL    HW2 9193   0.936   5.598   2.039 -0.8369  1.8974 -0.2794
 3023SOL     OW 9194   0.248   3.666   0.634  0.3440  0.3294 -0.3061
 3023SOL    HW1 9195   0.200   3.658   0.716  0.6259 -2.7517 -0.2159
 3023SOL    HW2 9196   0.330   3.709   0.658  0.2397 -0.1011  0.9636
 3024SOL     OW 9197   4.653   1.415   2.520 -0.3092  0.1344  0.2894
 3024SOL    HW1 9198   4.604   1.489   2.485  1.1257  0.6596 -0.7913
 3024SOL    HW2 9199   4.605   1.338   2.491  0.0643  0.5839 -1.8290
 3025SOL     OW 9200   4.245   1.997   0.470 -0.7138 -0.4051  0.4376
 3025SOL    HW1 9201   4.255   1.902   0.470  1.0654 -0.3690 -1.7804
 3025SOL    HW2 9202   4.245   2.021   0.563  0.7145 -2.4278  1.0935
 3026SOL     OW 9203   1.107   2.639   2.731 -0.4073  0.4868  0.4136
 3026SOL    HW1 9204   1.136   2.632   2.640 -1.3994  0.6122  0.0689
 3026SOL    HW2 9205   1.016   2.611   2.729 -1.1345  2.5127  0.9640
 3027SOL     OW 9206   3.871   2.186   3.350 -0.6705  0.5145  0.3246
 3027SOL    HW1 9207   3.845   2.120   3.286 -0.8786 -0.4185  1.3192
 3027SOL    HW2 9208   3.800   2.186   3.414 -0.0132  0.6793  1.0805
 3028SOL     OW 9209   0.502   3.652   3.360 -0.2894  0.1962 -0.0279
 3028SOL    HW1 9210   0.585   3.683   3.395  0.6085 -0.5089 -1.3776
 3028SOL    HW2 9211   0.526   3.591   3.291 -1.9414  0.1621 -0.6615
 3029SOL     OW 9212   6.298   1.891   4.378 -0.1995 -0.0662 -0.2039
 3029SOL    HW1 9213   6.341   1.818   4.335 -0.2964 -0.6498  0.6261
 3029SOL    HW2 9214   6.235   1.924   4.314 -0.7557 -1.2692 -0.3145
 3030SOL     OW 9215   2.661   2.333   0.398  0.3355 -0.2687 -0.0407
 3030SOL    HW1 9216   2.663   2.329   0.493 -0.8921 -1.6883  0.0047
 3030SOL    HW2 9217   2.686   2.245   0.370  2.9603  0.6425 -1.2279
 3031SOL     OW 9218   2.125   5.405   4.332 -0.2340  0.6448 -0.0967
 3031SOL    HW1 9219   2.189   5.358   4.385 -1.3611 -2.5816 -1.1159
 3031SOL    HW2 9220   2.175   5.437   4.257  0.4287 -1.9431 -0.9790
 3032SOL     OW 9221   0.712   1.786   3.515 -0.6340 -0.0672  0.2696
 3032SOL    HW1 9222   0.636   1.790   3.573 -0.0501 -0.3527  1.0773
 3032SOL    HW2 9223   0.718   1.873   3.477 -1.3194 -0.0210  0.2314
 3033SOL     OW 9224   3.604   1.323   4.449  0.0804  0.0010 -0.4926
 3033SOL    HW1 9225   3.593   1.418   4.445  0.3424  0.0308 -0.5583
 3033SOL    HW2 9226   3.688   1.307   4.406  0.8742 -0.1036  0.9647
 3034SOL     OW 9227   3.773   4.205   0.248  0.1329 -0.2701  0.5298
 3034SOL    HW1 9228   3.810   4.253   0.175  0.7017  0.6682  1.3791
 3034SOL    HW2 9229   3.846   4.192   0.308 -0.4350 -0.4386  1.2143
 3035SOL     OW 9230   0.536   4.538   1.109 -0.0687  0.0552  0.6953
 3035SOL    HW1 9231   0.441   4.549   1.113 -0.8425 -1.3033 -3.5479
 3035SOL    HW2 9232   0.548   4.450   1.072  2.7143  0.5977 -0.1521
 3036SOL     OW 9233   4.290   0.665   3.704  0.0387 -0.2006  0.3470
 3036SOL    HW1 9234   4.327   0.663   3.615 -0.8268 -0.4646 -0.0324
 3036SOL    HW2 9235   4.196   0.653   3.690 -0.2981  1.1325  1.2089
 3037SOL     OW 9236   5.698   0.386   4.006 -0.3258 -0.5519 -0.1855
 3037SOL    HW1 9237   5.674   0.458   3.948 -1.4452 -1.3569 -0.8193
 3037SOL    HW2 9238   5.715   0.427   4.091 -0.3068  0.4961 -0.6714
 3038SOL     OW 9239   5.091   3.103   3.321  0.4455 -0.4406 -0.9457
 3038SOL    HW1 9240   5.032   3.172   3.291  1.0520  1.6081  1.7962
 3038SOL    HW2 9241   5.172   3.119   3.272  1.1583  2.2404  0.6992
 3039SOL     OW 9242   0.221   3.352   0.063  0.1217 -0.5986  0.8690
 3039SOL    HW1 9243   0.185   3.440   0.068  0.7796 -0.3357  1.3081
 3039SOL    HW2 9244   0.147   3.297   0.037 -0.4810 -0.0338  1.3173
 3040SOL     OW 9245   3.900   0.105   4.288  0.0347  0.0203 -0.1867
 3040SOL    HW1 9246   3.957   0.120   4.364  1.9067 -2.1228 -0.9548
 3040SOL    HW2 9247   3.899   0.189   4.242  1.3317  0.5715  0.6797
 3041SOL     OW 9248   5.953   6.158   1.166 -0.2437 -0.3318 -0.0808
 3041SOL    HW1 9249   5.923   6.069   1.184 -0.7906  0.0464  1.0553
 3041SOL    HW2 9250   5.878   6.213   1.187 -0.1550  0.3872 -1.4271
 3042SOL     OW 9251   0.320   2.430   2.702  0.9701 -0.6405 -0.2395
 3042SOL    HW1 9252   0.410   2.396   2.710  0.5400 -1.7026  0.7162
 3042SOL    HW2 9253   0.325   2.495   2.632  2.3342 -1.1815 -0.7207
 3043SOL     OW 9254   1.020   2.099   2.803  0.4624  0.3195 -0.1454
 3043SOL    HW1 9255   1.090   2.039   2.829  0.1314 -0.8669 -1.7042
 3043SOL    HW2 9256   0.948   2.079   2.862  0.2040 -1.2512 -0.8838
 3044SOL     OW 9257   2.562   2.285   1.778 -0.5840  0.2524 -0.1847
 3044SOL    HW1 9258   2.575   2.225   1.704  1.2227 -0.4111  0.5633
 3044SOL    HW2 9259   2.572   2.229   1.856  0.2611  1.3496  0.5496
 3045SOL     OW 9260   4.197   4.118   4.128  0.0645 -0.6166 -0.2051
 3045SOL    HW1 9261   4.272   4.060   4.122  0.7671  0.0497  1.1698
 3045SOL    HW2 9262   4.122   4.062   4.108  0.8592 -1.3789 -1.2962
 3046SOL     OW 9263   5.208   2.846   1.022 -0.3384  0.2889  1.0492
 3046SOL    HW1 9264   5.146   2.882   0.959  2.2476  1.6469 -1.1710
 3046SOL    HW2 9265   5.265   2.920   1.045  1.1508 -0.9918  1.8997
 3047SOL     OW 9266   6.246   0.529   1.743  0.2363 -0.4277  0.4674
 3047SOL    HW1 9267   6.282   0.612   1.776  0.6306 -0.4231  0.0458
 3047SOL    HW2 9268   6.176   0.507   1.805  0.9817 -0.4571  1.3426
 3048SOL     OW 9269   4.802   6.380   2.548 -0.5047 -0.2721  0.0841
 3048SOL    HW1 9270   4.754   6.318   2.602  0.1210 -0.0709  0.8992
 3048SOL    HW2 9271   4.836   6.328   2.475  1.4118 -1.3510  1.5551
 3049SOL     OW 9272   4.033   3.282   1.266  0.3220  0.6863  0.4106
 3049SOL    HW1 9273   3.949   3.236   1.277  0.0429  0.6253 -1.3247
 3049SOL    HW2 9274   4.009   3.374   1.256  0.6915  0.9753  1.8112
 3050SOL     OW 9275   3.957   1.153   1.463  0.2716 -0.0627  0.1190
 3050SOL    HW1 9276   3.896   1.139   1.535 -0.5640  0.2468 -0.4972
 3050SOL    HW2 9277   3.902   1.178   1.389  1.0827 -0.5424 -0.6854
 3051SOL     OW 9278   3.215   0.631   1.388 -0.3454  0.0938  0.0536
 3051SOL    HW1 9279   3.254   0.687   1.455  1.5905 -0.7768 -0.2071
 3051SOL    HW2 9280   3.172   0.692   1.328  1.0172  1.2889  0.1721
 3052SOL     OW 9281   0.152   1.560   1.122  0.0950  0.2302 -0.1335
 3052SOL    HW1 9282   0.118   1.475   1.150  1.3002 -0.0109  0.7963
 3052SOL    HW2 9283   0.142   1.615   1.199  0.8811  0.4113 -0.1448
 3053SOL     OW 9284   2.084   5.047   2.281  0.2043  0.1066  0.0368
 3053SOL    HW1 9285   2.100   5.111   2.350  1.1988 -0.8681  0.7918
 3053SOL    HW2 9286   2.001   5.005   2.306 -1.0309  1.6759 -1.0229
 3054SOL     OW 9287   6.050   3.143   2.078  0.3064  0.0064  0.2208
 3054SOL    HW1 9288   5.996   3.134   2.157 -0.1557 -1.9237 -0.2113
 3054SOL    HW2 9289   6.131   3.184   2.109 -0.1880  0.1128  1.5181
 3055SOL     OW 9290   1.863   1.806   3.562 -0.3675 -0.2767  0.3437
 3055SOL    HW1 9291   1.769   1.813   3.578 -0.7447 -1.9909 -0.6101
 3055SOL    HW2 9292   1.901   1.874   3.617 -2.1474  0.5316  0.7357
 3056SOL     OW 9293   0.402   3.381   2.916  0.0557 -0.5046  0.1908
 3056SOL    HW1 9294   0.391   3.303   2.970  0.7911  0.7532  2.4273
 3056SOL    HW2 9295   0.395   3.454   2.978  0.7702  1.1575 -1.4892
 3057SOL     OW 9296   3.494   5.449   2.098  0.0376 -0.1832  0.9010
 3057SOL    HW1 9297   3.405   5.469   2.126  0.0001 -0.1944  0.7916
 3057SOL    HW2 9298   3.541   5.532   2.102 -0.6990  0.5387 -1.7877
 3058SOL     OW 9299   2.517   4.532   2.781  0.2986 -0.2133 -0.5326
 3058SOL    HW1 9300   2.441   4.508   2.728 -1.3253 -1.7731  2.0988
 3058SOL    HW2 9301   2.578   4.460   2.769  0.6029  0.1425 -1.2551
 3059SOL     OW 9302   0.493   2.991   4.114  0.0729  0.6218 -0.2198
 3059SOL    HW1 9303   0.434   2.925   4.077 -0.5040  0.3427  1.1112
 3059SOL    HW2 9304   0.580   2.960   4.089 -0.1779 -0.6717  0.3451
 3060SOL     OW 9305   2.422   4.711   1.987  0.0097 -0.0926  0.0922
 3060SOL    HW1 9306   2.359   4.776   2.017 -1.5345 -1.6959  0.6688
 3060SOL    HW2 9307   2.453   4.744   1.903 -1.3132  0.9757 -0.0387
 3061SOL     OW 9308   0.897   3.452   2.521  0.2038  0.7353 -0.2236
 3061SOL    HW1 9309   0.883   3.359   2.539 -1.7596  1.0328  0.3207
 3061SOL    HW2 9310   0.887   3.460   2.426 -1.3277  0.5049 -0.1438
 3062SOL     OW 9311   1.781   2.763   3.106  0.5047  0.2492 -0.1752
 3062SOL    HW1 9312   1.692   2.775   3.071  0.4467  1.1596  0.2142
 3062SOL    HW2 9313   1.800   2.846   3.150  1.0379 -0.4090  0.8986
 3063SOL     OW 9314   0.764   0.915   2.172 -0.4132 -0.7295  0.3441
 3063SOL    HW1 9315   0.849   0.905   2.131 -0.5060 -0.6158  0.1214
 3063SOL    HW2 9316   0.703   0.925   2.099 -0.6620 -1.1498  0.4881
 3064SOL     OW 9317   4.271   2.447   0.926  0.1045 -0.4786 -0.2140
 3064SOL    HW1 9318   4.229   2.380   0.981  0.4406 -1.6274 -1.2544
 3064SOL    HW2 9319   4.263   2.412   0.837  3.5930 -1.1151 -0.5631
 3065SOL     OW 9320   5.437   1.599   2.863 -0.6716 -0.5742 -0.4978
 3065SOL    HW1 9321   5.519   1.616   2.817 -0.5271  0.6799  0.1450
 3065SOL    HW2 9322   5.435   1.503   2.873  1.0012 -0.6293 -0.0406
 3066SOL     OW 9323   1.253   5.035   2.076  0.2227  0.2640  0.0442
 3066SOL    HW1 9324   1.282   5.046   2.166  0.5064  1.6702 -0.1705
 3066SOL    HW2 9325   1.318   5.083   2.024  1.3437 -2.2226 -1.2021
 3067SOL     OW 9326   0.266   5.616   3.054  0.1516  0.1440  0.0960
 3067SOL    HW1 9327   0.276   5.678   3.127  0.6156  0.0545  0.1177
 3067SOL    HW2 9328   0.277   5.530   3.095 -1.1458 -0.0220  0.1883
 3068SOL     OW 9329   2.557   0.298   1.240 -0.3569 -0.8855  0.1446
 3068SOL    HW1 9330   2.620   0.327   1.174  0.4581 -0.6692  0.9590
 3068SOL    HW2 9331   2.471   0.313   1.201  0.0332  1.0400 -0.1777
 3069SOL     OW 9332   0.491   0.342   1.712 -0.2490 -0.3242  0.7390
 3069SOL    HW1 9333   0.415   0.399   1.705 -0.4819 -0.6240  0.7649
 3069SOL    HW2 9334   0.487   0.306   1.800  0.8797  0.9590  1.3835
 3070SOL     OW 9335   5.283   3.576   0.131  0.5310 -0.0818  0.1302
 3070SOL    HW1 9336   5.299   3.648   0.071  3.7174 -1.8025 -1.6366
 3070SOL    HW2 9337   5.244   3.508   0.077  1.0879 -0.8539  0.6501
 3071SOL     OW 9338   4.538   3.062   3.187  0.3891  0.1764  0.1792
 3071SOL    HW1 9339   4.486   3.006   3.130  1.7808  1.1504 -2.3688
 3071SOL    HW2 9340   4.485   3.142   3.196  0.2310  0.0845  0.0744
 3072SOL     OW 9341   5.006   6.158   4.320 -0.8419 -0.0539 -0.3828
 3072SOL    HW1 9342   4.938   6.104   4.360 -1.0839 -0.4769 -1.3023
 3072SOL    HW2 9343   5.070   6.172   4.390 -1.9384  0.5132  0.5757
 3073SOL     OW 9344   4.829   1.650   1.934  0.4640  0.5782  0.0545
 3073SOL    HW1 9345   4.815   1.561   1.968 -0.0164  0.2613 -0.8745
 3073SOL    HW2 9346   4.743   1.675   1.899  0.5921  1.4234  0.3209
 3074SOL     OW 9347   3.626   2.499   0.709  0.4609  0.4625  0.3580
 3074SOL    HW1 9348   3.656   2.441   0.639 -0.0387  1.2381 -0.5471
 3074SOL    HW2 9349   3.705   2.526   0.754  1.4792  2.8932 -2.2684
 3075SOL     OW 9350   0.523   3.145   2.076 -0.3847  0.7336  0.1554
 3075SOL    HW1 9351   0.538   3.208   2.005  1.5158 -0.4505 -0.6497
 3075SOL    HW2 9352   0.487   3.068   2.033 -1.4809  0.7842  0.9187
 3076SOL     OW 9353   0.130   0.891   2.829 -0.4601  0.2595 -1.0802
 3076SOL    HW1 9354   0.087   0.932   2.904 -0.3682 -0.8359 -0.3925
 3076SOL    HW2 9355   0.171   0.964   2.782  2.0017  0.8448  1.4895
 3077SOL     OW 9356   0.954   5.719   3.352 -0.0587 -0.1567  0.4672
 3077SOL    HW1 9357   0.882   5.669   3.314  1.5144 -2.6724  0.2664
 3077SOL    HW2 9358   0.978   5.783   3.285 -1.9017  0.7115  0.5127
 3078SOL     OW 9359   5.596   4.359   0.475 -0.1624  0.1972  0.3449
 3078SOL    HW1 9360   5.648   4.307   0.536  2.0812  3.2779  1.5374
 3078SOL    HW2 9361   5.640   4.349   0.391 -0.2900 -0.4105  0.3445
 3079SOL     OW 9362   3.764   2.084   0.048  0.2764  0.2492 -0.0789
 3079SOL    HW1 9363   3.777   2.147  -0.023  2.3400 -0.3180 -0.3038
 3079SOL    HW2 9364   3.787   1.999   0.011  0.5146 -0.1982  1.0146
 3080SOL     OW 9365   4.510   4.912   1.568 -0.1720 -0.4929 -0.1332
 3080SOL    HW1 9366   4.522   4.819   1.589 -0.0259 -0.3036  0.6491
 3080SOL    HW2 9367   4.598   4.945   1.553 -0.2461 -0.5386 -0.7299
 3081SOL     OW 9368   0.816   0.289   3.356  0.1179 -0.6742  0.1785
 3081SOL    HW1 9369   0.778   0.377   3.356  0.9315 -0.0476  3.6152
 3081SOL    HW2 9370   0.742   0.232   3.377  0.0641 -0.2343  1.3565
 3082SOL     OW 9371   0.356   2.131   0.641  0.1684  0.5220 -0.0230
 3082SOL    HW1 9372   0.339   2.174   0.557 -1.2558 -0.7408 -0.4762
 3082SOL    HW2 9373   0.321   2.192   0.707 -0.6491  0.6403 -0.5335
 3083SOL     OW 9374   3.150   3.554   2.293 -0.1992 -0.0307 -0.1489
 3083SOL    HW1 9375   3.144   3.567   2.198 -1.0361  1.1741  0.0243
 3083SOL    HW2 9376   3.229   3.601   2.318 -0.0131 -0.2957 -0.2212
 3084SOL     OW 9377   1.430   5.170   4.171  0.4514 -0.2826  0.2074
 3084SOL    HW1 9378   1.499   5.178   4.105 -0.0009 -0.4030 -0.2924
 3084SOL    HW2 9379   1.357   5.221   4.136 -0.3156 -1.5087 -0.1069
 3085SOL     OW 9380   3.544   4.327   1.624  0.2597 -0.2405  0.2862
 3085SOL    HW1 9381   3.570   4.235   1.619 -1.4529 -0.8249 -2.7318
 3085SOL    HW2 9382   3.571   4.355   1.711  2.1473 -3.1509  0.9022
 3086SOL     OW 9383   2.633   5.876   0.286  0.1780  0.3023  0.1711
 3086SOL    HW1 9384   2.627   5.785   0.317 -1.8196  0.2946  0.0047
 3086SOL    HW2 9385   2.700   5.915   0.342  0.6616 -1.1004  0.6736
 3087SOL     OW 9386   1.652   6.057   2.311 -0.0745 -0.3501 -0.0855
 3087SOL    HW1 9387   1.572   6.006   2.321 -0.2272 -0.0359  0.3316
 3087SOL    HW2 9388   1.717   6.013   2.366 -0.0221 -0.4714 -0.2430
 3088SOL     OW 9389   3.391   0.332   2.663  0.3128 -0.5869 -0.1318
 3088SOL    HW1 9390   3.338   0.281   2.602 -1.2100  1.9756 -1.2861
 3088SOL    HW2 9391   3.461   0.369   2.609 -1.6812  2.6384 -1.1030
 3089SOL     OW 9392   2.374   4.644   3.943  0.5289  0.3851 -0.4211
 3089SOL    HW1 9393   2.442   4.707   3.918  1.7824 -0.7810 -0.1983
 3089SOL    HW2 9394   2.419   4.559   3.941 -0.8310 -0.4036  0.1767
 3090SOL     OW 9395   5.512   2.761   2.114  0.1220  0.0171 -0.5087
 3090SOL    HW1 9396   5.591   2.709   2.100 -0.0006 -0.5125  0.5947
 3090SOL    HW2 9397   5.482   2.783   2.025  1.6586  0.5130 -0.9779
 3091SOL     OW 9398   3.044   4.736   3.204 -0.6820  0.0441  0.3343
 3091SOL    HW1 9399   3.130   4.754   3.241 -0.3155 -2.0168  0.7556
 3091SOL    HW2 9400   2.983   4.748   3.277 -0.4781 -0.3010  0.5670
 3092SOL     OW 9401   6.382   2.142   4.204  0.0586 -0.2981 -0.2134
 3092SOL    HW1 9402   6.420   2.055   4.216  0.2425 -0.0354  2.0793
 3092SOL    HW2 9403   6.456   2.202   4.214 -0.1031  0.1923 -1.5317
 3093SOL     OW 9404   0.903   1.601   3.677  0.3165  0.2166 -0.3776
 3093SOL    HW1 9405   0.858   1.566   3.754  0.5612  0.2684 -0.2074
 3093SOL    HW2 9406   0.839   1.658   3.635 -0.1718 -0.6005 -0.7877
 3094SOL     OW 9407   6.364   2.220   1.700  0.1481 -0.5170  0.3620
 3094SOL    HW1 9408   6.324   2.227   1.787 -0.7609  0.7834 -0.0877
 3094SOL    HW2 9409   6.323   2.144   1.660 -0.8198 -0.0694  0.4536
 3095SOL     OW 9410   0.104   5.162   1.612  0.4669 -0.1473 -0.0608
 3095SOL    HW1 9411   0.164   5.095   1.645 -0.3140 -2.2574 -2.3150
 3095SOL    HW2 9412   0.017   5.128   1.630  0.0307  0.1680 -1.3226
 3096SOL     OW 9413   3.316   4.091   1.223 -0.0129 -0.2844 -0.5000
 3096SOL    HW1 9414   3.249   4.157   1.202  2.0328  2.4225  0.2651
 3096SOL    HW2 9415   3.376   4.093   1.149  0.1426 -1.3828 -0.4371
 3097SOL     OW 9416   4.233   5.399   2.323  0.2628 -0.0174 -0.0158
 3097SOL    HW1 9417   4.176   5.469   2.291 -1.2915 -0.6014  1.1868
 3097SOL    HW2 9418   4.184   5.318   2.306  0.7024 -0.5579  1.0655
 3098SOL     OW 9419   5.015   3.146   2.971 -0.0915  0.3199  0.3193
 3098SOL    HW1 9420   4.931   3.119   3.009 -0.4945  1.4250  0.2915
 3098SOL    HW2 9421   5.077   3.078   2.998 -0.3310  0.9100  2.9511
 3099SOL     OW 9422   4.801   0.389   4.386  0.1615  0.4613 -0.1610
 3099SOL    HW1 9423   4.787   0.373   4.293 -0.0526 -2.7122  0.2030
 3099SOL    HW2 9424   4.745   0.324   4.430  1.1358  0.9868  2.1489
 3100SOL     OW 9425   1.775   0.502   3.129 -0.5375 -0.5392 -0.1445
 3100SOL    HW1 9426   1.810   0.458   3.206  0.1375 -1.9578 -1.1733
 3100SOL    HW2 9427   1.836   0.480   3.059 -1.4614  0.1366 -1.2358
 3101SOL     OW 9428   2.210   1.397   0.584  0.3517 -0.1959  0.1593
 3101SOL    HW1 9429   2.120   1.377   0.558  0.2513 -1.1781  1.0783
 3101SOL    HW2 9430   2.207   1.488   0.612 -0.0092  0.2160 -1.1067
 3102SOL     OW 9431   1.873   6.365   2.080 -0.5041  0.2462  0.2555
 3102SOL    HW1 9432   1.820   6.290   2.054  0.0752  0.8706 -4.1352
 3102SOL    HW2 9433   1.960   6.327   2.098 -0.8509 -0.2668  0.9520
 3103SOL     OW 9434   0.616   0.583   3.137 -0.1405 -0.4333  0.3804
 3103SOL    HW1 9435   0.597   0.639   3.062 -0.6469 -0.3889  0.5317
 3103SOL    HW2 9436   0.565   0.503   3.120  1.0736 -1.1582 -0.1674
 3104SOL     OW 9437   4.463   3.804   2.190  0.6785 -0.2003  0.4247
 3104SOL    HW1 9438   4.502   3.889   2.213  0.5966 -0.1247  0.2832
 3104SOL    HW2 9439   4.539   3.746   2.179  1.1069  0.5876 -2.7639
 3105SOL     OW 9440   1.043   0.347   3.900  0.3449  0.1787  0.6432
 3105SOL    HW1 9441   1.110   0.409   3.871  3.7842 -2.9416  0.3540
 3105SOL    HW2 9442   1.063   0.331   3.992 -1.1799  0.1877  1.0269
 3106SOL     OW 9443   4.678   1.337   1.060 -0.1706  0.2902  0.0222
 3106SOL    HW1 9444   4.649   1.296   1.141 -0.0010  0.2814  0.0796
 3106SOL    HW2 9445   4.773   1.346   1.070  0.3759 -2.2003 -1.2419
 3107SOL     OW 9446   2.439   3.212   3.786 -0.0797  0.3799 -0.0822
 3107SOL    HW1 9447   2.388   3.139   3.752 -0.6118  0.9269 -0.5116
 3107SOL    HW2 9448   2.427   3.208   3.881  0.0795 -0.2062 -0.0794
 3108SOL     OW 9449   1.184   0.512   0.818  0.0678  0.2291  0.0345
 3108SOL    HW1 9450   1.262   0.457   0.825  0.3306  0.2872 -1.7103
 3108SOL    HW2 9451   1.131   0.487   0.894  0.9187 -1.1981  0.2361
 3109SOL     OW 9452   0.911   3.874   0.824  0.1696  0.3541  0.2208
 3109SOL    HW1 9453   0.949   3.804   0.877 -1.6286 -0.4502  0.6049
 3109SOL    HW2 9454   0.939   3.853   0.735  3.0105  1.5733  0.6106
 3110SOL     OW 9455   2.722   0.834   2.898  0.2973  0.5476  0.1587
 3110SOL    HW1 9456   2.771   0.755   2.873  0.6239  1.2162 -1.6532
 3110SOL    HW2 9457   2.641   0.801   2.936  0.6442 -0.6564 -0.0498
 3111SOL     OW 9458   5.623   5.021   3.324  0.2495  0.3205  0.4900
 3111SOL    HW1 9459   5.608   5.048   3.415  0.3141 -0.2033  0.6612
 3111SOL    HW2 9460   5.716   4.999   3.321  0.0193 -0.7590  0.6047
 3112SOL     OW 9461   1.579   6.357   1.024  0.3233  0.3374 -0.1555
 3112SOL    HW1 9462   1.499   6.401   1.053  0.0301  0.2308 -0.7786
 3112SOL    HW2 9463   1.551   6.269   1.000  1.0323 -0.5646  1.8662
 3113SOL     OW 9464   5.802   4.982   2.407 -0.3623  0.7561  0.4543
 3113SOL    HW1 9465   5.735   4.950   2.346 -1.5203  0.1523  1.9270
 3113SOL    HW2 9466   5.805   5.076   2.390  0.0687  0.5157 -1.1322
 3114SOL     OW 9467   5.677   4.952   0.488  0.2004  0.5088 -0.5420
 3114SOL    HW1 9468   5.609   4.968   0.553  1.5275  0.1530  1.0536
 3114SOL    HW2 9469   5.640   4.987   0.406 -2.0127 -0.0117  0.1022
 3115SOL     OW 9470   5.670   4.741   2.735  0.3871  0.3336 -0.4058
 3115SOL    HW1 9471   5.676   4.827   2.776  1.2186  0.2612 -0.3605
 3115SOL    HW2 9472   5.720   4.683   2.791  0.3774 -0.0543 -0.7845
 3116SOL     OW 9473   5.002   4.224   0.933  0.3851 -0.1210 -0.3652
 3116SOL    HW1 9474   4.985   4.246   0.841 -0.1416 -1.2062 -0.5562
 3116SOL    HW2 9475   4.966   4.298   0.982  1.4637  0.9134 -1.0200
 3117SOL     OW 9476   1.100   1.761   0.561 -0.4822  0.2415  0.1594
 3117SOL    HW1 9477   1.162   1.833   0.557 -2.5916  2.3281 -2.3648
 3117SOL    HW2 9478   1.047   1.779   0.638 -1.4716  2.1260 -0.8229
 3118SOL     OW 9479   5.957   4.343   3.370 -0.3693  0.3887 -0.0616
 3118SOL    HW1 9480   5.878   4.302   3.335  0.2286 -1.8337  0.8544
 3118SOL    HW2 9481   6.006   4.271   3.409  1.8579  1.7367 -0.0341
 3119SOL     OW 9482   3.554   2.423   2.170  0.1797 -0.2701 -0.2244
 3119SOL    HW1 9483   3.624   2.488   2.181 -0.2088  0.2199 -0.5589
 3119SOL    HW2 9484   3.584   2.347   2.220  0.5017  0.2815  0.4540
 3120SOL     OW 9485   6.328   5.695   4.229 -0.0422 -0.5028  0.0301
 3120SOL    HW1 9486   6.302   5.739   4.310  2.9133  0.2656  0.8112
 3120SOL    HW2 9487   6.364   5.765   4.174  1.8746 -1.4305 -0.0559
 3121SOL     OW 9488   0.576   5.497   3.511 -0.1218 -0.2680 -0.2563
 3121SOL    HW1 9489   0.618   5.438   3.573 -0.3327  0.5551  0.7169
 3121SOL    HW2 9490   0.637   5.502   3.437 -0.2096 -1.8513 -0.4994
 3122SOL     OW 9491   0.107   5.596   0.164  0.4135 -0.0158  0.4437
 3122SOL    HW1 9492   0.021   5.569   0.198 -0.2037  1.9856  0.7182
 3122SOL    HW2 9493   0.168   5.573   0.234  0.3796 -2.3427 -0.1234
 3123SOL     OW 9494   2.626   5.127   4.034  0.7288  0.2360  0.5950
 3123SOL    HW1 9495   2.567   5.187   3.989 -2.3230 -3.3329 -1.2758
 3123SOL    HW2 9496   2.703   5.122   3.978  0.3849  1.2307 -0.0135
 3124SOL     OW 9497   5.885   0.424   0.556  0.0648 -0.7284  0.0860
 3124SOL    HW1 9498   5.823   0.391   0.621  0.4229  0.6448  1.2217
 3124SOL    HW2 9499   5.966   0.437   0.605  1.3024 -2.2631 -1.2959
 3125SOL     OW 9500   5.434   4.344   2.067 -0.5879  0.1708 -0.4091
 3125SOL    HW1 9501   5.455   4.373   1.978  0.4591 -1.3029 -0.7203
 3125SOL    HW2 9502   5.392   4.259   2.055 -1.3616  0.3880  0.5003
 3126SOL     OW 9503   1.008   6.390   2.350 -0.0062 -0.3827 -0.6919
 3126SOL    HW1 9504   1.084   6.442   2.322  0.0976 -0.0017  0.2207
 3126SOL    HW2 9505   1.046   6.310   2.386 -0.0252 -0.1792 -0.2083
 3127SOL     OW 9506   2.436   2.403   0.825 -0.2678  0.4253  0.0408
 3127SOL    HW1 9507   2.516   2.385   0.777 -0.0922  0.0365  0.4601
 3127SOL    HW2 9508   2.436   2.498   0.839 -0.7026  0.6724 -1.3477
 3128SOL     OW 9509   3.263   4.943   0.236 -0.0476  0.0919 -0.2286
 3128SOL    HW1 9510   3.246   5.034   0.260  0.8229  0.0208  0.7541
 3128SOL    HW2 9511   3.188   4.894   0.271 -1.3484  0.5109 -2.0656
 3129SOL     OW 9512   4.868   3.282   3.252 -0.0016 -0.0908 -0.3024
 3129SOL    HW1 9513   4.813   3.297   3.329  0.2350 -0.2913 -0.0902
 3129SOL    HW2 9514   4.883   3.369   3.215  0.2790  0.0611  0.1534
 3130SOL     OW 9515   1.169   3.111   2.272  0.0370  0.2183  0.5809
 3130SOL    HW1 9516   1.195   3.203   2.264 -0.6219  0.3452 -0.5364
 3130SOL    HW2 9517   1.204   3.069   2.194  0.0018 -0.4073  0.8897
 3131SOL     OW 9518   0.669   2.571   1.338  0.3952 -0.1104 -0.7273
 3131SOL    HW1 9519   0.639   2.484   1.311 -1.5463  0.1721  0.1465
 3131SOL    HW2 9520   0.712   2.557   1.422  1.5777 -0.3699 -1.3464
 3132SOL     OW 9521   1.824   3.678   0.497  0.0324  0.1505  0.2259
 3132SOL    HW1 9522   1.858   3.712   0.415  1.0578  1.1071  0.9798
 3132SOL    HW2 9523   1.867   3.593   0.508  1.1066  0.6901  0.4540
 3133SOL     OW 9524   5.327   6.196   3.432  0.0475 -0.2702 -0.1552
 3133SOL    HW1 9525   5.306   6.105   3.412 -0.6751 -0.7041  2.0021
 3133SOL    HW2 9526   5.419   6.195   3.459 -0.2941 -0.7259  1.1593
 3134SOL     OW 9527   5.500   6.189   2.274 -0.1315 -0.4450 -0.0240
 3134SOL    HW1 9528   5.551   6.246   2.216 -0.3945  0.3001  0.4518
 3134SOL    HW2 9529   5.541   6.103   2.264  0.3127 -0.1750 -0.7246
 3135SOL     OW 9530   1.697   5.654   4.175  0.4448 -0.1040  0.3314
 3135SOL    HW1 9531   1.633   5.724   4.169  0.7975  0.3590  1.4148
 3135SOL    HW2 9532   1.742   5.654   4.091  0.7766  1.3322  0.4687
 3136SOL     OW 9533   4.501   1.962   0.810 -0.4919 -0.1836  0.2557
 3136SOL    HW1 9534   4.409   1.989   0.803 -0.2055  0.6658 -0.8366
 3136SOL    HW2 9535   4.514   1.904   0.735  0.3550  1.4524 -0.9775
 3137SOL     OW 9536   4.578   3.097   1.273  0.0800 -0.0532 -0.2940
 3137SOL    HW1 9537   4.648   3.072   1.213  0.3440  1.5001 -0.7239
 3137SOL    HW2 9538   4.607   3.181   1.309 -2.4812  2.0588 -2.3216
 3138SOL     OW 9539   4.793   4.779   0.051 -0.6707  0.2812 -0.1475
 3138SOL    HW1 9540   4.748   4.864   0.046 -0.8895  0.2032  0.3764
 3138SOL    HW2 9541   4.877   4.799   0.091  0.0531  0.5199 -1.6380
 3139SOL     OW 9542   4.421   3.116   0.677 -0.4614 -0.6031 -0.5475
 3139SOL    HW1 9543   4.457   3.083   0.759 -0.6162  1.2859  0.3862
 3139SOL    HW2 9544   4.399   3.037   0.627  1.0959 -1.8391  0.5202
 3140SOL     OW 9545   5.927   4.746   0.110 -0.6044  0.2793 -0.2144
 3140SOL    HW1 9546   5.964   4.669   0.152  0.6326  0.5415 -0.7270
 3140SOL    HW2 9547   5.889   4.713   0.028 -1.4326  0.0278  0.2492
 3141SOL     OW 9548   2.781   2.551   4.383 -0.2928 -0.1927  0.8542
 3141SOL    HW1 9549   2.686   2.553   4.370 -0.2825 -0.3405  0.7441
 3141SOL    HW2 9550   2.793   2.514   4.470 -0.3858  1.4103  1.6055
 3142SOL     OW 9551   5.080   1.485   4.411 -0.0040  0.0136  0.0627
 3142SOL    HW1 9552   5.088   1.568   4.456 -0.7233 -0.5241  1.2762
 3142SOL    HW2 9553   5.000   1.494   4.358  1.4160  1.0445 -2.1879
 3143SOL     OW 9554   1.772   2.087   2.422  0.1191 -0.4785  0.7530
 3143SOL    HW1 9555   1.825   2.023   2.469 -0.2261 -0.1706  1.6100
 3143SOL    HW2 9556   1.822   2.107   2.344  1.4740  0.0512  1.6817
 3144SOL     OW 9557   0.521   4.256   3.292  0.2143  0.7477  0.3185
 3144SOL    HW1 9558   0.582   4.314   3.245  1.8366 -0.8860  0.1770
 3144SOL    HW2 9559   0.546   4.168   3.265 -1.8001 -0.1095  0.8674
 3145SOL     OW 9560   0.863   4.717   0.304  0.2376 -0.2624 -0.2772
 3145SOL    HW1 9561   0.845   4.750   0.392  1.0944 -1.3797  0.3724
 3145SOL    HW2 9562   0.833   4.626   0.306  0.2903 -0.3145 -1.1428
 3146SOL     OW 9563   3.947   5.688   3.409 -0.2549  0.6116 -0.0691
 3146SOL    HW1 9564   3.882   5.749   3.373  0.2930  0.6185 -1.1080
 3146SOL    HW2 9565   3.901   5.605   3.415 -1.3543  1.2099  2.3468
 3147SOL     OW 9566   6.123   5.334   3.361  0.2382 -0.1862  0.1922
 3147SOL    HW1 9567   6.210   5.348   3.398 -0.0910 -0.1685  0.9824
 3147SOL    HW2 9568   6.134   5.258   3.302  1.4665  1.5778 -2.1949
 3148SOL     OW 9569   5.555   2.080   3.935  0.3211 -0.3585  0.1054
 3148SOL    HW1 9570   5.500   2.009   3.900  2.3705 -1.2636 -1.7592
 3148SOL    HW2 9571   5.576   2.052   4.024  0.0034 -1.4157 -0.1197
 3149SOL     OW 9572   4.779   4.058   4.144 -0.5989 -0.1348  0.5065
 3149SOL    HW1 9573   4.735   4.065   4.229 -0.7186  1.2056  0.3716
 3149SOL    HW2 9574   4.736   4.123   4.089  0.3224 -0.0733 -0.1929
 3150SOL     OW 9575   5.046   2.888   4.400 -0.2857 -0.4538 -0.1532
 3150SOL    HW1 9576   5.105   2.963   4.396 -1.6419  0.6740 -1.3110
 3150SOL    HW2 9577   5.081   2.826   4.337  0.6254 -0.6710  0.5212
 3151SOL     OW 9578   5.000   3.468   2.067  0.0774  0.0889  0.2997
 3151SOL    HW1 9579   5.020   3.413   1.992 -0.7198 -1.0182  0.8366
 3151SOL    HW2 9580   4.927   3.523   2.038  0.5928  0.5854 -0.1014
 3152SOL     OW 9581   0.244   3.772   2.945 -0.1388  0.2380  0.3889
 3152SOL    HW1 9582   0.303   3.827   2.893  0.0962  2.1444  2.3656
 3152SOL    HW2 9583   0.299   3.699   2.973  0.1643  0.0168 -0.6997
 3153SOL     OW 9584   2.914   4.135   1.641 -0.6755  0.8306  0.2431
 3153SOL    HW1 9585   2.942   4.212   1.593  0.8087  0.6706  0.7551
 3153SOL    HW2 9586   2.832   4.109   1.599  0.4313  0.7419 -2.1780
 3154SOL     OW 9587   0.449   3.122   4.530  0.7343 -0.2777 -0.1830
 3154SOL    HW1 9588   0.471   3.196   4.587  0.5064 -0.2549 -0.1223
 3154SOL    HW2 9589   0.508   3.131   4.455 -0.6755  1.2169 -1.2561
 3155SOL     OW 9590   2.034   2.904   3.790 -0.1704  0.3505 -0.1496
 3155SOL    HW1 9591   1.983   2.824   3.772 -0.9909  0.6866  0.5493
 3155SOL    HW2 9592   2.125   2.876   3.781 -0.4383 -0.6073 -0.1465
 3156SOL     OW 9593   1.600   1.672   1.988 -0.3408  0.5216  0.0633
 3156SOL    HW1 9594   1.534   1.740   1.981  1.5714  2.6178  0.1360
 3156SOL    HW2 9595   1.610   1.657   2.082 -1.7615 -1.1604  0.0609
 3157SOL     OW 9596   0.544   1.975   2.269  0.0489  0.3181  0.0445
 3157SOL    HW1 9597   0.600   1.936   2.203 -0.2428  0.5308 -0.3355
 3157SOL    HW2 9598   0.591   1.961   2.352 -0.2239 -1.1735 -0.0083
 3158SOL     OW 9599   2.075   5.380   3.818  0.5435 -0.4667 -0.3360
 3158SOL    HW1 9600   2.091   5.382   3.724 -0.7090 -0.7851 -0.6016
 3158SOL    HW2 9601   2.019   5.303   3.832 -0.7850  0.5277  0.3503
 3159SOL     OW 9602   1.840   5.754   3.272  0.0092  0.1798  0.2075
 3159SOL    HW1 9603   1.747   5.751   3.249  0.1611 -0.5342 -0.3940
 3159SOL    HW2 9604   1.872   5.665   3.257  0.8772  0.4985  0.0040
 3160SOL     OW 9605   1.512   0.775   2.842 -0.4471  1.0692 -0.1172
 3160SOL    HW1 9606   1.484   0.756   2.752 -1.0340 -0.5354  0.3411
 3160SOL    HW2 9607   1.432   0.796   2.889 -0.3351  0.5519  0.3195
 3161SOL     OW 9608   3.549   1.577   3.809  0.4076  0.2251  0.2504
 3161SOL    HW1 9609   3.480   1.531   3.762  0.2510 -1.9022  2.2110
 3161SOL    HW2 9610   3.533   1.670   3.791 -2.4054 -0.1660 -0.1193
 3162SOL     OW 9611   1.065   2.136   4.044 -0.2132 -0.1292  0.3493
 3162SOL    HW1 9612   1.030   2.108   3.959  0.9228 -0.5964 -0.0114
 3162SOL    HW2 9613   1.107   2.058   4.080  0.1321  0.2972  0.9034
 3163SOL     OW 9614   3.565   2.958   4.242  0.4728  0.3805  0.7818
 3163SOL    HW1 9615   3.542   2.965   4.149  0.6851  3.5633  0.7495
 3163SOL    HW2 9616   3.588   2.866   4.254  1.4870 -0.0774 -2.5851
 3164SOL     OW 9617   5.349   6.369   4.201  0.9100  0.1790  0.5226
 3164SOL    HW1 9618   5.359   6.363   4.106  2.2327  0.1988  0.6214
 3164SOL    HW2 9619   5.341   6.462   4.219 -1.4364  0.1298  0.3396
 3165SOL     OW 9620   1.959   2.871   4.373  0.0923 -0.3655  0.0589
 3165SOL    HW1 9621   2.050   2.901   4.377  0.9605 -2.4195 -0.9391
 3165SOL    HW2 9622   1.947   2.844   4.282 -0.5971 -2.3991  0.6250
 3166SOL     OW 9623   0.875   0.410   0.612  0.7787  0.3676 -0.3532
 3166SOL    HW1 9624   0.800   0.355   0.634  0.1387  0.9147 -1.0902
 3166SOL    HW2 9625   0.868   0.425   0.518  1.0464  1.5222 -0.2244
 3167SOL     OW 9626   4.715   5.062   1.106  0.0539 -0.2550 -0.1422
 3167SOL    HW1 9627   4.707   4.967   1.120  0.2918 -0.5404 -1.5798
 3167SOL    HW2 9628   4.632   5.088   1.067 -0.1882  0.2466  0.6683
 3168SOL     OW 9629   2.148   1.533   1.930  0.1449 -0.0921 -0.1055
 3168SOL    HW1 9630   2.154   1.481   2.010  2.0848  0.7247  0.4009
 3168SOL    HW2 9631   2.094   1.608   1.954  3.0675  1.8543  1.7460
 3169SOL     OW 9632   4.974   1.501   2.478  0.8543 -0.2692  0.2971
 3169SOL    HW1 9633   5.051   1.527   2.530 -0.3572  0.8033  1.7490
 3169SOL    HW2 9634   4.900   1.532   2.530 -0.5850 -1.3398 -0.9700
 3170SOL     OW 9635   2.202   0.275   3.571 -0.1807 -0.0145 -0.6817
 3170SOL    HW1 9636   2.218   0.343   3.637  2.7635 -0.0528 -1.0667
 3170SOL    HW2 9637   2.236   0.313   3.490  2.4778 -1.9868 -0.7615
 3171SOL     OW 9638   3.592   1.969   3.423 -0.0785 -0.1819  0.2402
 3171SOL    HW1 9639   3.546   2.030   3.366 -2.1568 -0.6927  1.1759
 3171SOL    HW2 9640   3.656   2.023   3.469 -0.4038  0.8417 -0.4430
 3172SOL     OW 9641   0.248   1.065   2.641 -0.3545 -0.3549 -0.2388
 3172SOL    HW1 9642   0.216   1.154   2.628 -0.5843 -0.2763  0.7077
 3172SOL    HW2 9643   0.317   1.074   2.707 -0.8693 -0.9435  0.4106
 3173SOL     OW 9644   3.234   5.897   0.718 -0.5648  0.3270  0.2156
 3173SOL    HW1 9645   3.156   5.846   0.697 -1.0684  1.4636 -0.9372
 3173SOL    HW2 9646   3.208   5.951   0.793 -1.1364  1.1407 -0.5392
 3174SOL     OW 9647   3.340   2.844   2.565  0.1698 -0.1409  0.1804
 3174SOL    HW1 9648   3.266   2.864   2.508  0.0290 -0.4071  0.2681
 3174SOL    HW2 9649   3.399   2.919   2.554 -0.1542  0.1217  0.1833
 3175SOL     OW 9650   5.301   6.085   2.458 -0.4571 -0.3102  0.1021
 3175SOL    HW1 9651   5.282   6.174   2.487 -1.3926 -0.4647  0.0194
 3175SOL    HW2 9652   5.372   6.095   2.394  1.2297  0.0990  1.8621
 3176SOL     OW 9653   5.285   3.775   4.203 -0.7726  0.4830 -0.4997
 3176SOL    HW1 9654   5.333   3.849   4.167  0.5227  0.1531  0.4027
 3176SOL    HW2 9655   5.268   3.718   4.128  0.3952  0.5724 -0.8708
 3177SOL     OW 9656   3.606   0.637   2.398 -0.0045 -0.1130 -0.1038
 3177SOL    HW1 9657   3.663   0.710   2.372 -1.4430  0.9016 -0.6580
 3177SOL    HW2 9658   3.525   0.680   2.428 -0.2775 -1.4433  1.2822
 3178SOL     OW 9659   3.179   2.184   4.298  0.0581 -0.3609  0.5309
 3178SOL    HW1 9660   3.216   2.272   4.306  0.5843 -0.5768  0.4965
 3178SOL    HW2 9661   3.115   2.192   4.228  1.7684 -0.5171 -1.2031
 3179SOL     OW 9662   3.621   0.951   0.441  0.1526  0.2221 -0.6832
 3179SOL    HW1 9663   3.709   0.966   0.476 -0.0207  0.2836 -0.2644
 3179SOL    HW2 9664   3.598   1.034   0.400 -0.1461  0.5865  0.1836
 3180SOL     OW 9665   0.820   1.069   3.923  0.4670 -0.3431  0.4432
 3180SOL    HW1 9666   0.883   1.001   3.950  1.6209  0.6914  0.5420
 3180SOL    HW2 9667   0.765   1.026   3.858  1.5031 -1.2296  0.0891
 3181SOL     OW 9668   6.040   3.927   2.657 -0.1314 -0.3684  0.6247
 3181SOL    HW1 9669   6.114   3.867   2.645 -0.6417 -0.7068 -2.4578
 3181SOL    HW2 9670   5.971   3.873   2.694  0.4578 -0.6338  1.3964
 3182SOL     OW 9671   3.573   3.404   2.658  0.0020  0.5557  0.2300
 3182SOL    HW1 9672   3.644   3.466   2.676  3.0064 -2.3812  0.4367
 3182SOL    HW2 9673   3.493   3.455   2.670  1.9627  4.0834  1.0503
 3183SOL     OW 9674   0.644   2.331   0.307 -0.0681  0.4088 -0.2276
 3183SOL    HW1 9675   0.736   2.355   0.318  0.1400  0.3503 -1.5360
 3183SOL    HW2 9676   0.618   2.296   0.393  1.2020  0.1669  0.1025
 3184SOL     OW 9677   0.792   1.588   4.231 -0.0093 -0.3191  0.3160
 3184SOL    HW1 9678   0.759   1.594   4.320 -2.9975  0.1668 -0.6120
 3184SOL    HW2 9679   0.763   1.501   4.201  3.7030 -1.9966  0.4854
 3185SOL     OW 9680   1.045   4.059   1.925  0.2448 -0.1022  0.4002
 3185SOL    HW1 9681   1.027   4.134   1.982  0.3054  0.3025 -0.0963
 3185SOL    HW2 9682   1.096   3.999   1.979  0.4311  0.3381  0.7258
 3186SOL     OW 9683   3.399   2.160   4.472  0.2889  0.0729  0.0357
 3186SOL    HW1 9684   3.320   2.131   4.427  1.5863 -2.6152 -0.8955
 3186SOL    HW2 9685   3.373   2.242   4.515 -2.6812 -0.1458 -0.9029
 3187SOL     OW 9686   1.297   1.266   2.560 -0.1659  0.6122  0.6832
 3187SOL    HW1 9687   1.226   1.203   2.566  0.4662 -0.3148 -0.5991
 3187SOL    HW2 9688   1.377   1.214   2.565  0.5022  1.6463  2.3068
 3188SOL     OW 9689   3.182   3.235   0.599  0.0331 -0.3848 -0.0108
 3188SOL    HW1 9690   3.257   3.222   0.540  0.0089 -0.4304 -0.0314
 3188SOL    HW2 9691   3.106   3.239   0.541  0.1703  1.4334 -0.1869
 3189SOL     OW 9692   3.380   4.752   4.309 -0.1165 -0.0340 -0.8002
 3189SOL    HW1 9693   3.334   4.836   4.312  2.3459  1.5138 -0.3864
 3189SOL    HW2 9694   3.414   4.746   4.220 -0.2205 -0.6015 -0.8097
 3190SOL     OW 9695   6.123   0.833   4.075  0.7355 -0.3868  0.3919
 3190SOL    HW1 9696   6.088   0.787   3.999 -0.0991 -0.1118  0.5908
 3190SOL    HW2 9697   6.133   0.924   4.046 -0.3363 -0.1020  0.7978
 3191SOL     OW 9698   0.625   2.757   2.477 -0.9682 -0.4971 -0.1717
 3191SOL    HW1 9699   0.634   2.847   2.509  0.1331 -0.2128 -1.1586
 3191SOL    HW2 9700   0.546   2.724   2.521 -0.7061  0.5076  1.1843
 3192SOL     OW 9701   5.474   5.579   2.506  0.0837 -0.0431  0.0534
 3192SOL    HW1 9702   5.429   5.495   2.495 -0.2836  0.1974 -0.3325
 3192SOL    HW2 9703   5.404   5.643   2.515  0.3451  0.3273 -0.4505
 3193SOL     OW 9704   5.605   4.923   2.214  0.7716 -0.1694 -0.6058
 3193SOL    HW1 9705   5.606   4.863   2.140 -3.7892 -1.1994 -0.4202
 3193SOL    HW2 9706   5.580   5.007   2.177 -1.4866 -0.6797 -0.5755
 3194SOL     OW 9707   0.792   5.878   0.123 -0.2264  0.2550 -0.5249
 3194SOL    HW1 9708   0.738   5.957   0.128 -1.6906 -0.6896  1.4934
 3194SOL    HW2 9709   0.857   5.889   0.192  2.0507  1.0908 -2.5134
 3195SOL     OW 9710   3.110   1.915   2.606 -0.2379 -0.1992 -0.1562
 3195SOL    HW1 9711   3.081   1.824   2.600  1.4888 -0.8418  0.1223
 3195SOL    HW2 9712   3.204   1.912   2.586 -0.4768  1.8897 -2.6580
 3196SOL     OW 9713   6.110   5.909   2.602 -0.2144  0.0975  0.1157
 3196SOL    HW1 9714   6.075   5.983   2.553 -1.9371 -1.0550 -0.6021
 3196SOL    HW2 9715   6.047   5.896   2.673  0.4479 -0.2626  0.6590
 3197SOL     OW 9716   1.079   3.427   0.160  0.1805  0.1843  0.3641
 3197SOL    HW1 9717   1.123   3.465   0.084  2.7916  0.5581  1.8189
 3197SOL    HW2 9718   1.044   3.503   0.207 -1.9211 -0.0848 -0.5854
 3198SOL     OW 9719   3.139   3.397   4.146  0.0925 -0.1356 -0.4106
 3198SOL    HW1 9720   3.217   3.446   4.121  0.0383  0.2116  0.0696
 3198SOL    HW2 9721   3.151   3.311   4.106  2.2479 -1.2399  2.0090
 3199SOL     OW 9722   4.706   5.495   2.286 -0.3541 -0.0874  0.0937
 3199SOL    HW1 9723   4.757   5.568   2.250  0.2850 -0.5012  0.1242
 3199SOL    HW2 9724   4.771   5.442   2.333 -1.0602  0.1705  1.4529
 3200SOL     OW 9725   4.235   3.970   2.263  0.7929 -0.2832  0.6587
 3200SOL    HW1 9726   4.327   3.945   2.249  0.9773  1.1310 -1.6282
 3200SOL    HW2 9727   4.187   3.927   2.193  0.2334  1.1931  0.0720
 3201SOL     OW 9728   0.748   2.734   4.227 -0.8178 -0.1415  0.0382
 3201SOL    HW1 9729   0.722   2.778   4.308  2.0630  0.4769  0.8784
 3201SOL    HW2 9730   0.676   2.674   4.207 -2.2247  0.5224  2.3661
 3202SOL     OW 9731   3.650   0.009   0.428  0.1470  0.1473  0.4669
 3202SOL    HW1 9732   3.678   0.067   0.356 -0.5353 -1.8450 -1.6578
 3202SOL    HW2 9733   3.587   0.061   0.477 -0.8961  1.1134 -1.6301
 3203SOL     OW 9734   4.950   5.366   2.024  0.7872  0.1943 -0.0988
 3203SOL    HW1 9735   5.045   5.358   2.010  1.1469  2.0254  0.7122
 3203SOL    HW2 9736   4.932   5.307   2.097  2.1704  2.3206  2.2878
 3204SOL     OW 9737   1.731   1.294   3.683  0.2992  0.0371 -0.1794
 3204SOL    HW1 9738   1.740   1.308   3.588 -0.4323  0.7343 -0.1685
 3204SOL    HW2 9739   1.637   1.303   3.700  0.3141 -0.8409  0.5155
 3205SOL     OW 9740   5.462   3.883   2.328  0.2504  0.3665 -0.0703
 3205SOL    HW1 9741   5.481   3.974   2.305 -0.7064  1.3813  2.3658
 3205SOL    HW2 9742   5.480   3.879   2.422  0.0175 -1.9341 -0.0262
 3206SOL     OW 9743   2.023   5.567   0.439 -0.1095  0.5249  0.6856
 3206SOL    HW1 9744   2.034   5.653   0.480 -2.0956  0.2031  2.1743
 3206SOL    HW2 9745   2.034   5.504   0.511 -2.0615 -0.1965  0.4714
 3207SOL     OW 9746   1.018   2.540   0.552 -0.4856 -0.4903  0.5626
 3207SOL    HW1 9747   0.933   2.585   0.553 -0.6921 -0.7368 -0.9228
 3207SOL    HW2 9748   0.997   2.450   0.530  0.1559 -0.1318 -2.3936
 3208SOL     OW 9749   4.795   4.473   3.128 -0.2522 -0.9266 -0.1112
 3208SOL    HW1 9750   4.884   4.468   3.092 -0.8720 -0.7509 -1.8385
 3208SOL    HW2 9751   4.806   4.520   3.211  1.1723 -0.2159 -0.6291
 3209SOL     OW 9752   3.544   0.367   2.418 -0.2006 -0.6499  0.2305
 3209SOL    HW1 9753   3.584   0.453   2.412 -1.9911  0.2180 -1.0448
 3209SOL    HW2 9754   3.580   0.319   2.343  0.0540 -0.6706  0.3633
 3210SOL     OW 9755   3.462   6.405   1.641 -0.2000 -0.0252  0.3868
 3210SOL    HW1 9756   3.557   6.394   1.634 -0.2700 -0.5583  0.1163
 3210SOL    HW2 9757   3.430   6.317   1.662 -0.6457  0.1244  0.3525
 3211SOL     OW 9758   4.435   2.070   2.365 -0.2779 -0.1030  0.2785
 3211SOL    HW1 9759   4.492   2.121   2.308  0.0993  0.0268  0.7528
 3211SOL    HW2 9760   4.435   2.118   2.448 -0.4710 -0.5027  0.5173
 3212SOL     OW 9761   2.800   6.340   0.201 -0.5057 -0.4781  0.2278
 3212SOL    HW1 9762   2.834   6.323   0.113 -1.4279  0.4722 -0.3514
 3212SOL    HW2 9763   2.727   6.278   0.210 -1.1671  0.2049 -0.1866
 3213SOL     OW 9764   5.128   3.230   0.278 -0.5711  0.2686 -0.3320
 3213SOL    HW1 9765   5.160   3.319   0.265  2.0350 -0.4252  0.1637
 3213SOL    HW2 9766   5.122   3.221   0.373  0.9372 -0.4952 -0.2561
 3214SOL     OW 9767   0.530   4.450   2.393 -0.1279 -0.3427 -0.2417
 3214SOL    HW1 9768   0.520   4.544   2.406  1.7323  0.0496 -0.9925
 3214SOL    HW2 9769   0.520   4.438   2.298 -2.4155 -1.3344 -0.0175
 3215SOL     OW 9770   1.833   3.805   1.010  0.2157  0.0359  0.7603
 3215SOL    HW1 9771   1.846   3.735   0.947 -1.3586 -0.4712  0.8947
 3215SOL    HW2 9772   1.845   3.886   0.960  1.8406 -0.2756  0.5503
 3216SOL     OW 9773   2.493   3.162   2.667 -0.1360  0.2643  0.4066
 3216SOL    HW1 9774   2.404   3.149   2.700 -0.7363 -0.5620 -1.2981
 3216SOL    HW2 9775   2.496   3.254   2.642 -0.5452  0.2793  0.3970
 3217SOL     OW 9776   5.555   4.595   3.871  0.1538  0.0243  0.1007
 3217SOL    HW1 9777   5.613   4.662   3.907 -1.3250  1.4680  0.0707
 3217SOL    HW2 9778   5.467   4.627   3.892 -0.6733 -1.8976 -0.0425
 3218SOL     OW 9779   0.821   5.826   0.677  0.2089  0.2182 -0.5076
 3218SOL    HW1 9780   0.780   5.865   0.755 -0.8971  1.7048 -1.7008
 3218SOL    HW2 9781   0.771   5.746   0.662 -0.9328  0.9208 -0.7298
 3219SOL     OW 9782   0.696   1.962   1.359 -0.2606 -0.1756  0.4920
 3219SOL    HW1 9783   0.752   1.988   1.285 -0.8737 -0.9496 -0.2804
 3219SOL    HW2 9784   0.609   1.994   1.337 -0.3237  0.2124  1.2408
 3220SOL     OW 9785   4.850   1.856   3.880  0.9896  0.3062  0.2247
 3220SOL    HW1 9786   4.818   1.766   3.872 -1.0268  0.8358  1.1973
 3220SOL    HW2 9787   4.805   1.904   3.811 -0.8596  1.1370  1.8277
 3221SOL     OW 9788   4.843   4.674   0.940  0.1708  0.6248  0.3094
 3221SOL    HW1 9789   4.787   4.610   0.897 -0.8848  0.5989  1.5919
 3221SOL    HW2 9790   4.925   4.628   0.956  0.1128  0.2323 -0.4595
 3222SOL     OW 9791   5.401   0.614   2.112 -0.1442  0.4647 -0.1310
 3222SOL    HW1 9792   5.442   0.546   2.166  0.0049  0.8977  0.3172
 3222SOL    HW2 9793   5.334   0.568   2.061  2.2050 -0.8137 -2.6047
 3223SOL     OW 9794   2.786   1.807   1.932 -0.6543 -0.0161 -0.2553
 3223SOL    HW1 9795   2.817   1.886   1.887 -1.5756  0.8008  0.4717
 3223SOL    HW2 9796   2.851   1.740   1.909 -1.2523  0.1455 -3.1575
 3224SOL     OW 9797   4.945   2.720   1.719  0.4777  0.2103  0.0496
 3224SOL    HW1 9798   4.910   2.654   1.779 -3.2601 -0.0019 -1.7990
 3224SOL    HW2 9799   4.981   2.668   1.646 -0.0499  0.2671 -0.2567
 3225SOL     OW 9800   0.138   2.089   0.435  0.0462  0.3898 -0.4313
 3225SOL    HW1 9801   0.177   2.040   0.507  0.1162 -1.6443 -1.7140
 3225SOL    HW2 9802   0.154   2.036   0.358  0.0142  2.4619 -2.0202
 3226SOL     OW 9803   6.313   0.410   2.094  0.8541 -0.0279  0.1285
 3226SOL    HW1 9804   6.295   0.474   2.164  0.6109  0.8022 -0.6524
 3226SOL    HW2 9805   6.391   0.445   2.051 -0.1815  0.6936 -1.3176
 3227SOL     OW 9806   1.673   5.031   2.560 -0.2651 -0.4272 -0.0382
 3227SOL    HW1 9807   1.709   5.048   2.647  0.4188 -0.2039 -0.3504
 3227SOL    HW2 9808   1.619   5.107   2.541 -1.8466 -1.2192  0.8601
 3228SOL     OW 9809   0.924   3.330   2.001 -0.2117  0.5100 -0.2964
 3228SOL    HW1 9810   0.851   3.342   1.940 -1.1814 -2.5300 -0.0552
 3228SOL    HW2 9811   0.999   3.308   1.946 -0.6288 -0.4568 -0.5207
 3229SOL     OW 9812   3.338   2.839   0.865 -0.3206  0.5390 -0.1036
 3229SOL    HW1 9813   3.337   2.743   0.866  2.7702  0.3174 -0.5432
 3229SOL    HW2 9814   3.356   2.863   0.956  3.0068  0.1828 -0.4108
 3230SOL     OW 9815   2.761   3.128   2.765 -0.3634 -0.1415 -0.0296
 3230SOL    HW1 9816   2.831   3.188   2.740 -0.3757  0.0585  0.4004
 3230SOL    HW2 9817   2.695   3.139   2.696  0.4275 -1.0893 -1.0204
 3231SOL     OW 9818   1.493   2.343   1.164  0.3695 -0.3542 -0.0144
 3231SOL    HW1 9819   1.446   2.261   1.152  1.3260 -1.1033  0.9216
 3231SOL    HW2 9820   1.479   2.391   1.083 -1.5891 -0.6833  0.0471
 3232SOL     OW 9821   2.531   0.949   0.253  0.0516 -0.6692 -0.0381
 3232SOL    HW1 9822   2.524   0.905   0.169 -0.1734  1.2245 -1.1114
 3232SOL    HW2 9823   2.579   0.887   0.308  1.7271 -1.3678 -2.0319
 3233SOL     OW 9824   1.011   2.225   1.251 -0.1718 -0.2531 -0.3739
 3233SOL    HW1 9825   0.993   2.303   1.199  2.1139  0.1356 -0.7938
 3233SOL    HW2 9826   0.947   2.160   1.220 -1.3484  1.0473 -0.8779
 3234SOL     OW 9827   2.964   3.760   1.463 -0.2461  0.2158 -0.7009
 3234SOL    HW1 9828   2.901   3.820   1.504 -0.3625 -0.0441 -0.4915
 3234SOL    HW2 9829   2.915   3.717   1.393 -0.7795 -1.0627  0.3666
 3235SOL     OW 9830   4.963   3.445   1.497  0.0506 -0.3803 -0.1281
 3235SOL    HW1 9831   4.934   3.502   1.426 -2.0195  0.4994  1.2338
 3235SOL    HW2 9832   5.051   3.417   1.471  0.5217  2.0067 -1.7398
 3236SOL     OW 9833   5.134   1.631   2.763  0.3685 -0.7864 -0.5124
 3236SOL    HW1 9834   5.077   1.692   2.810  0.9719 -0.7458  0.2076
 3236SOL    HW2 9835   5.219   1.639   2.808  0.7341 -1.3985 -1.0679
 3237SOL     OW 9836   2.358   3.750   3.211 -0.0080 -0.3976  0.3099
 3237SOL    HW1 9837   2.399   3.676   3.256  0.9948  0.6002  1.1520
 3237SOL    HW2 9838   2.429   3.812   3.197 -0.9227  0.7088  0.2711
 3238SOL     OW 9839   3.327   5.598   1.398 -0.3428  0.6426  0.6224
 3238SOL    HW1 9840   3.301   5.513   1.362  0.8255  0.1959  0.7479
 3238SOL    HW2 9841   3.320   5.587   1.493 -0.8986  0.9491  0.6248
 3239SOL     OW 9842   2.075   2.906   3.060  0.0005  0.7998 -0.0655
 3239SOL    HW1 9843   2.039   2.985   3.101  0.6887  0.4413  1.3413
 3239SOL    HW2 9844   2.020   2.835   3.092  0.5235  0.5164  0.2298
 3240SOL     OW 9845   0.942   2.992   2.714 -0.0684 -0.5255 -0.2065
 3240SOL    HW1 9846   0.863   3.037   2.682  0.3390 -0.0897 -0.6260
 3240SOL    HW2 9847   0.909   2.911   2.753 -0.6748 -0.7005 -1.0152
 3241SOL     OW 9848   1.869   5.257   1.781 -0.0236  0.2626  0.1836
 3241SOL    HW1 9849   1.796   5.288   1.835 -0.1867 -1.1518  0.8745
 3241SOL    HW2 9850   1.827   5.215   1.706 -0.0647 -1.2749  0.9718
 3242SOL     OW 9851   1.532   3.555   2.652 -0.1486 -0.0560 -0.0222
 3242SOL    HW1 9852   1.495   3.472   2.622 -0.5649 -0.0068  0.3320
 3242SOL    HW2 9853   1.620   3.558   2.613 -0.0373 -0.7666  0.1445
 3243SOL     OW 9854   4.206   5.138   2.805  0.4246  0.3325 -0.5781
 3243SOL    HW1 9855   4.126   5.116   2.757  1.2220 -1.7742 -1.1450
 3243SOL    HW2 9856   4.277   5.108   2.748  1.6069  1.1534  0.3680
 3244SOL     OW 9857   4.032   0.372   1.432 -0.2180 -0.9547 -0.3443
 3244SOL    HW1 9858   4.056   0.464   1.431  0.5697 -1.1482 -0.6276
 3244SOL    HW2 9859   3.986   0.360   1.516 -0.1204 -0.3628 -0.1983
 3245SOL     OW 9860   4.693   0.508   3.500  0.1924  0.1989  0.0871
 3245SOL    HW1 9861   4.636   0.581   3.524 -0.2925 -0.1970  0.1671
 3245SOL    HW2 9862   4.757   0.502   3.571 -0.7053 -0.4201  0.9056
 3246SOL     OW 9863   6.033   0.771   0.506 -0.3408  0.1416 -0.2172
 3246SOL    HW1 9864   6.069   0.765   0.418  0.5443 -1.3180  0.1830
 3246SOL    HW2 9865   6.090   0.832   0.552  0.3230 -0.4694 -0.1974
 3247SOL     OW 9866   2.108   6.005   0.866 -0.5333  0.2241  0.6218
 3247SOL    HW1 9867   2.050   5.932   0.846 -1.5403  0.9575  0.6595
 3247SOL    HW2 9868   2.195   5.967   0.873 -1.0319 -0.9701  0.7299
 3248SOL     OW 9869   0.030   2.230   2.973 -0.2408 -0.2628 -0.4563
 3248SOL    HW1 9870   0.111   2.275   2.947 -0.5827 -0.0868 -1.2887
 3248SOL    HW2 9871   0.016   2.256   3.064  0.5944 -0.2449 -0.3171
 3249SOL     OW 9872   0.492   6.122   2.149  0.0833  0.3829 -0.0407
 3249SOL    HW1 9873   0.461   6.035   2.174 -1.2358  0.5890 -0.7713
 3249SOL    HW2 9874   0.423   6.182   2.179 -0.0557  0.9417 -1.3468
 3250SOL     OW 9875   6.040   1.457   3.977  0.1888  0.2434  0.5734
 3250SOL    HW1 9876   5.974   1.475   4.044  1.2065 -2.2496  2.5799
 3250SOL    HW2 9877   6.121   1.444   4.026  1.9616  1.6569 -1.5954
 3251SOL     OW 9878   0.812   1.283   4.412  0.5056 -0.2502 -0.1052
 3251SOL    HW1 9879   0.868   1.324   4.346  0.4606  1.8030  0.9723
 3251SOL    HW2 9880   0.723   1.299   4.381  0.4794 -0.9785 -0.4339
 3252SOL     OW 9881   3.187   5.802   0.254 -0.2225 -0.2780 -0.6786
 3252SOL    HW1 9882   3.121   5.747   0.211  0.0689 -1.0170 -0.2227
 3252SOL    HW2 9883   3.180   5.887   0.210 -0.5921 -0.7134 -1.5096
 3253SOL     OW 9884   1.733   2.640   2.335  0.4509 -0.3656 -0.5769
 3253SOL    HW1 9885   1.761   2.552   2.359 -1.0023 -0.1549  3.2148
 3253SOL    HW2 9886   1.777   2.697   2.397  0.3002  1.4998 -2.0041
 3254SOL     OW 9887   3.509   6.008   1.632  0.4745  0.4962  0.0661
 3254SOL    HW1 9888   3.523   6.054   1.549 -1.9656  0.0374 -0.7733
 3254SOL    HW2 9889   3.532   5.917   1.613 -0.8737  0.2229 -0.4831
 3255SOL     OW 9890   5.924   2.658   0.505  0.3988 -0.5232 -0.0168
 3255SOL    HW1 9891   5.880   2.657   0.590  0.5010 -0.5235  0.0365
 3255SOL    HW2 9892   5.936   2.565   0.484 -0.3902 -0.5469 -0.4324
 3256SOL     OW 9893   3.875   5.764   1.573 -0.5090  0.1094  0.3267
 3256SOL    HW1 9894   3.861   5.705   1.647  3.5703 -1.0601  0.6863
 3256SOL    HW2 9895   3.833   5.720   1.499 -0.7034 -1.3253  1.2152
 3257SOL     OW 9896   5.006   3.531   4.262 -0.4697 -0.1103  0.5786
 3257SOL    HW1 9897   5.073   3.599   4.249  1.1434 -1.7368 -0.7895
 3257SOL    HW2 9898   4.923   3.577   4.247  0.4981  1.5354 -0.4567
 3258SOL     OW 9899   1.882   5.576   1.580  0.4711 -0.3262  0.0515
 3258SOL    HW1 9900   1.960   5.625   1.605  0.5568 -0.6901  0.5190
 3258SOL    HW2 9901   1.896   5.488   1.615 -1.2628  0.1877  2.6227
 3259SOL     OW 9902   3.674   3.375   3.029  0.5895  0.0572 -0.5096
 3259SOL    HW1 9903   3.633   3.453   3.066  1.2940  0.0448  0.3636
 3259SOL    HW2 9904   3.758   3.406   2.996  2.2529 -0.6470  2.3884
 3260SOL     OW 9905   3.366   3.101   2.408  0.1752  0.0764  0.4885
 3260SOL    HW1 9906   3.412   3.184   2.422 -0.0110 -0.0301  2.2714
 3260SOL    HW2 9907   3.273   3.124   2.413 -0.0480  0.1122 -1.8987
 3261SOL     OW 9908   5.959   2.519   0.875  0.6750 -0.3748  0.8011
 3261SOL    HW1 9909   5.958   2.423   0.877  0.1082 -0.6054 -2.0642
 3261SOL    HW2 9910   6.029   2.541   0.814  0.3211  0.9893  0.8283
 3262SOL     OW 9911   0.230   1.528   1.817 -0.1868 -0.1261  0.0874
 3262SOL    HW1 9912   0.172   1.594   1.779  0.0264  1.4795  2.1763
 3262SOL    HW2 9913   0.318   1.554   1.789 -0.1543  0.2068  0.4644
 3263SOL     OW 9914   4.188   1.536   4.120 -0.5893  0.0943  0.7233
 3263SOL    HW1 9915   4.229   1.450   4.131  1.8647  0.6777 -1.6002
 3263SOL    HW2 9916   4.164   1.563   4.208  1.4140 -1.7353  2.0417
 3264SOL     OW 9917   0.020   2.512   0.539  0.1522  0.0856 -0.5148
 3264SOL    HW1 9918   0.034   2.430   0.586  1.1104  0.8871  0.7209
 3264SOL    HW2 9919  -0.014   2.572   0.605 -0.7968  0.6433 -1.4556
 3265SOL     OW 9920   3.935   0.008   0.970  0.2927 -0.1947 -0.4234
 3265SOL    HW1 9921   3.954   0.013   0.877 -1.9640 -1.6333 -1.1417
 3265SOL    HW2 9922   3.876   0.082   0.987  0.3353 -0.1980 -0.2512
 3266SOL     OW 9923   0.929   5.197   0.528 -0.5113 -0.2497 -0.4859
 3266SOL    HW1 9924   0.837   5.186   0.504 -0.6884  1.5715 -0.9021
 3266SOL    HW2 9925   0.955   5.279   0.487  1.6274 -1.1674 -1.2311
 3267SOL     OW 9926   2.291   3.713   1.192 -0.0281  0.2611  0.1354
 3267SOL    HW1 9927   2.200   3.686   1.183 -0.5143  2.0129 -1.2016
 3267SOL    HW2 9928   2.336   3.671   1.119 -0.0950  0.5080 -0.0518
 3268SOL     OW 9929   0.375   1.335   3.246  0.0551  0.0838 -0.0222
 3268SOL    HW1 9930   0.358   1.411   3.191 -0.2886  0.1207  0.1275
 3268SOL    HW2 9931   0.465   1.345   3.275 -0.0704  0.5783  0.2099
 3269SOL     OW 9932   3.440   5.705   0.226 -0.2710 -0.7243  0.1500
 3269SOL    HW1 9933   3.366   5.762   0.246  1.5841  1.9402  0.4145
 3269SOL    HW2 9934   3.465   5.727   0.137 -0.7136 -2.9435 -0.6574
 3270SOL     OW 9935   5.466   0.577   1.730  0.2978 -0.2999 -0.2681
 3270SOL    HW1 9936   5.547   0.599   1.776  0.8468 -1.8212 -0.3646
 3270SOL    HW2 9937   5.461   0.639   1.658  0.8303  0.4630  0.3174
 3271SOL     OW 9938   0.101   3.488   3.508 -0.4888  0.1443 -0.1419
 3271SOL    HW1 9939   0.038   3.521   3.572 -0.2455 -0.1453  0.2498
 3271SOL    HW2 9940   0.047   3.465   3.432 -0.5706  3.0256 -1.2054
 3272SOL     OW 9941   0.509   5.107   3.889 -0.2460  0.3712 -1.1666
 3272SOL    HW1 9942   0.482   5.017   3.872 -1.6466  0.3258  0.6341
 3272SOL    HW2 9943   0.473   5.157   3.816 -0.5527 -0.3856 -1.5560
 3273SOL     OW 9944   4.560   3.579   2.970  0.2572  0.0844 -0.0723
 3273SOL    HW1 9945   4.636   3.632   2.946 -1.1625  3.3380  1.3401
 3273SOL    HW2 9946   4.579   3.550   3.059  1.0478 -2.1913 -0.8548
 3274SOL     OW 9947   3.406   5.283   2.681 -0.2522 -0.3408 -0.5358
 3274SOL    HW1 9948   3.475   5.297   2.746 -1.2840 -0.6093  0.7038
 3274SOL    HW2 9949   3.441   5.216   2.623  0.9902  0.4105 -0.7397
 3275SOL     OW 9950   4.219   3.167   1.135  0.0405  0.0901 -0.2299
 3275SOL    HW1 9951   4.139   3.200   1.175 -0.3144 -0.6157 -0.3275
 3275SOL    HW2 9952   4.241   3.088   1.185  0.8886  0.4623  0.0289
 3276SOL     OW 9953   5.261   2.602   3.439 -0.6648 -0.3858 -0.8248
 3276SOL    HW1 9954   5.266   2.508   3.426 -1.2607 -0.6103  0.3239
 3276SOL    HW2 9955   5.345   2.625   3.480 -0.5722 -0.4412 -0.9843
 3277SOL     OW 9956   4.770   1.835   0.412 -0.3197  0.4920 -0.1493
 3277SOL    HW1 9957   4.691   1.788   0.389 -0.4183  0.2935  0.5499
 3277SOL    HW2 9958   4.767   1.915   0.360  1.9449 -1.7382 -5.0256
 3278SOL     OW 9959   2.690   1.401   0.255 -0.1735  0.0100  0.1177
 3278SOL    HW1 9960   2.654   1.353   0.329 -0.5211  1.6610  1.1121
 3278SOL    HW2 9961   2.785   1.398   0.269 -0.2229  0.0631  0.4941
 3279SOL     OW 9962   5.116   5.694   2.837  0.0425 -0.5286  0.4655
 3279SOL    HW1 9963   5.109   5.721   2.746  1.6079 -1.0648  0.1286
 3279SOL    HW2 9964   5.037   5.730   2.879 -0.4485  0.2018 -0.9592
 3280SOL     OW 9965   1.205   3.266   0.486 -0.3156 -0.1925 -0.4465
 3280SOL    HW1 9966   1.278   3.246   0.544 -0.1025 -0.5299 -0.8227
 3280SOL    HW2 9967   1.211   3.361   0.472 -0.2737 -0.1361 -0.0526
 3281SOL     OW 9968   1.744   1.109   4.321  0.0656  0.4111 -0.6372
 3281SOL    HW1 9969   1.714   1.175   4.258 -0.2071 -0.9659 -2.0754
 3281SOL    HW2 9970   1.820   1.069   4.280  0.5008  0.1110  0.3957
 3282SOL     OW 9971   4.667   2.137   2.992  0.1985  0.2258 -0.1208
 3282SOL    HW1 9972   4.689   2.141   2.899  0.4662 -0.6980 -0.1173
 3282SOL    HW2 9973   4.615   2.057   3.001 -0.5164  0.7288  0.4013
 3283SOL     OW 9974   2.583   4.495   0.635  0.0017 -0.4507 -1.0164
 3283SOL    HW1 9975   2.561   4.402   0.628  0.2896 -0.5432 -0.7423
 3283SOL    HW2 9976   2.616   4.505   0.724 -0.6141  0.0483 -0.8368
 3284SOL     OW 9977   1.313   4.159   3.680 -0.4738  0.4584 -0.0887
 3284SOL    HW1 9978   1.246   4.093   3.664 -1.0130  0.2477  2.2421
 3284SOL    HW2 9979   1.370   4.155   3.603 -1.8223 -0.9882 -1.1372
 3285SOL     OW 9980   6.415   2.305   0.867 -0.2287 -0.1222 -0.5260
 3285SOL    HW1 9981   6.369   2.236   0.916  1.0894 -1.7856 -1.3922
 3285SOL    HW2 9982   6.376   2.302   0.780 -2.0446  2.2978  0.0096
 3286SOL     OW 9983   0.264   0.361   3.976  0.4356 -0.3741  0.2032
 3286SOL    HW1 9984   0.280   0.285   4.032  0.1949 -0.0814  0.6834
 3286SOL    HW2 9985   0.336   0.420   3.996 -0.2376  0.2144  1.0863
 3287SOL     OW 9986   3.014   1.603   1.564  0.3978  0.0043  0.2598
 3287SOL    HW1 9987   3.022   1.580   1.657 -1.6837  2.7101  1.4250
 3287SOL    HW2 9988   3.081   1.669   1.550 -0.0394  0.4663  0.2773
 3288SOL     OW 9989   4.453   4.084   2.040  0.1395 -0.1439 -0.4267
 3288SOL    HW1 9990   4.473   3.996   2.009 -1.7712 -1.9628  2.4663
 3288SOL    HW2 9991   4.505   4.094   2.120  0.3859  1.4879 -0.7151
 3289SOL     OW 9992   0.957   0.105   3.543 -0.2409  0.3626 -0.7726
 3289SOL    HW1 9993   0.906   0.179   3.512 -2.4600 -0.7959 -0.3184
 3289SOL    HW2 9994   0.895   0.031   3.541  1.7145 -1.4596 -0.9951
 3290SOL     OW 9995   0.588   4.363   2.111 -0.6764 -0.3685 -0.0499
 3290SOL    HW1 9996   0.497   4.366   2.081 -1.5651 -0.1744  2.2558
 3290SOL    HW2 9997   0.603   4.271   2.131  0.0168 -0.5510 -1.2231
 3291SOL     OW 9998   4.343   1.021   3.465 -0.1078 -0.0470 -0.3756
 3291SOL    HW1 9999   4.259   1.061   3.441  0.2107  0.9933  0.1448
 3291SOL    HW210000   4.332   0.929   3.442 -2.1903 -0.4705  1.5899
 3292SOL     OW10001   2.019   2.357   1.734 -0.3254 -0.1418 -0.0564
 3292SOL    HW110002   2.061   2.340   1.819 -1.4629 -0.9458  0.3982
 3292SOL    HW210003   2.051   2.443   1.708 -0.6416  0.5688  1.6493
 3293SOL     OW10004   5.605   0.715   2.460  0.4907  0.5930  0.0454
 3293SOL    HW110005   5.600   0.654   2.534  2.9310  0.4618  0.2561
 3293SOL    HW210006   5.542   0.784   2.482 -0.2861 -0.4108  1.2327
 3294SOL     OW10007   2.325   6.123   1.564 -0.6499  0.3046 -0.2878
 3294SOL    HW110008   2.291   6.212   1.575  0.1703  0.5553  0.4165
 3294SOL    HW210009   2.408   6.135   1.517 -0.5917 -0.1023 -0.2946
 3295SOL     OW10010   5.017   2.764   3.829 -0.8990 -0.1710 -0.1242
 3295SOL    HW110011   4.967   2.697   3.875  0.5822 -3.5770 -2.6422
 3295SOL    HW210012   5.006   2.743   3.736  0.4797  2.6650 -1.1686
 3296SOL     OW10013   2.570   0.776   0.953  0.0078  0.1816 -0.0995
 3296SOL    HW110014   2.569   0.735   1.039  1.9272  0.4882  0.1598
 3296SOL    HW210015   2.479   0.773   0.924 -0.3882 -1.9747  0.9379
 3297SOL     OW10016   5.438   3.366   2.557  0.3170  0.3031  0.2145
 3297SOL    HW110017   5.454   3.330   2.470  2.0366  1.7322 -0.1692
 3297SOL    HW210018   5.486   3.309   2.617  1.0578  0.6066 -0.0807
 3298SOL     OW10019   5.323   1.242   0.994 -0.0416  0.0835  0.2846
 3298SOL    HW110020   5.236   1.221   0.959 -0.1973 -0.3666  0.8958
 3298SOL    HW210021   5.306   1.309   1.061 -0.2813 -1.5369  2.0025
 3299SOL     OW10022   0.338   0.055   0.218 -0.1067  0.0940 -0.2508
 3299SOL    HW110023   0.402  -0.003   0.260 -0.2846  0.1598  0.1213
 3299SOL    HW210024   0.253   0.017   0.238 -0.2034  0.2071 -0.4350
 3300SOL     OW10025   0.328   1.532   0.283 -0.1133 -0.0615 -0.4181
 3300SOL    HW110026   0.268   1.509   0.212  1.6577 -4.2811 -1.1629
 3300SOL    HW210027   0.415   1.510   0.249  1.0504 -0.9069  2.4904
 3301SOL     OW10028   3.733   4.072   2.706  0.0213 -0.1372  0.0055
 3301SOL    HW110029   3.788   4.012   2.656  0.2001  0.6071 -0.7404
 3301SOL    HW210030   3.791   4.110   2.772  0.2125  0.0573 -0.2685
 3302SOL     OW10031   1.538   3.593   2.343 -0.7329 -0.4076  0.4773
 3302SOL    HW110032   1.443   3.603   2.344 -0.8735 -1.3550  1.4393
 3302SOL    HW210033   1.560   3.576   2.251 -1.5967 -0.8331  0.3270
 3303SOL     OW10034   0.185   4.122   3.729  0.0372 -0.1381  0.4875
 3303SOL    HW110035   0.101   4.162   3.752 -1.8823 -2.7825 -0.9002
 3303SOL    HW210036   0.214   4.169   3.651 -0.5917  0.3002  0.5058
 3304SOL     OW10037   3.848   4.289   1.502 -0.1803  0.0182 -0.4361
 3304SOL    HW110038   3.924   4.232   1.493  0.4710  0.7894  0.0325
 3304SOL    HW210039   3.779   4.231   1.537  0.3073 -0.5860 -0.4391
 3305SOL     OW10040   5.758   2.554   1.377 -0.6706 -0.1348  0.1539
 3305SOL    HW110041   5.753   2.558   1.282  0.1154 -0.7835  0.0621
 3305SOL    HW210042   5.805   2.633   1.403  0.7265 -0.8021 -0.1838
 3306SOL     OW10043   5.654   1.891   0.688  0.2457 -0.4754  0.4936
 3306SOL    HW110044   5.645   1.983   0.661  1.9068 -0.3335  0.2335
 3306SOL    HW210045   5.660   1.842   0.606 -1.2454 -0.9616  0.6126
 3307SOL     OW10046   1.290   2.941   3.873 -0.7553  0.2893  0.4141
 3307SOL    HW110047   1.385   2.940   3.883 -0.6378 -2.2301  0.4118
 3307SOL    HW210048   1.261   3.018   3.922  1.2411  1.2387  0.3053
 3308SOL     OW10049   4.092   0.010   3.683 -0.3685  1.0028  0.4623
 3308SOL    HW110050   4.068   0.103   3.689 -0.6397  1.1780 -1.6443
 3308SOL    HW210051   4.009  -0.036   3.695 -0.9668  1.3184 -1.5566
 3309SOL     OW10052   2.528   5.448   2.618  0.4478  0.0339  0.1929
 3309SOL    HW110053   2.576   5.516   2.572  1.3525 -0.3445  0.5374
 3309SOL    HW210054   2.478   5.404   2.550 -0.0277  0.9171 -0.0598
 3310SOL     OW10055   4.903   1.102   3.013  0.5554 -0.0400 -0.1534
 3310SOL    HW110056   4.980   1.149   2.981  0.6541 -0.5160 -0.6291
 3310SOL    HW210057   4.934   1.056   3.091  0.3102  1.1300  0.6971
 3311SOL     OW10058   2.750   3.829   0.368 -0.3642  0.7037 -0.3922
 3311SOL    HW110059   2.663   3.795   0.348 -1.4852  2.2431  1.2693
 3311SOL    HW210060   2.737   3.923   0.382  1.3092  0.8172  1.1005
 3312SOL     OW10061   4.253   3.668   2.323  0.4277  0.1025  0.0908
 3312SOL    HW110062   4.311   3.664   2.399  0.5404  0.3839  0.0203
 3312SOL    HW210063   4.310   3.695   2.251  1.0521 -2.8420 -0.8060
 3313SOL     OW10064   1.034   1.333   0.798  0.3207 -0.2724 -0.1835
 3313SOL    HW110065   0.953   1.319   0.749  0.5143 -0.9576 -0.3264
 3313SOL    HW210066   1.075   1.246   0.803  0.4680 -0.1722  0.9100
 3314SOL     OW10067   5.140   4.314   0.003  0.2628  0.0956  0.0817
 3314SOL    HW110068   5.073   4.344  -0.058 -0.5687 -0.1109  0.8488
 3314SOL    HW210069   5.169   4.393   0.048  2.4496  0.6523 -1.9168
 3315SOL     OW10070   0.229   6.049   3.872 -0.3869  0.2199  0.3701
 3315SOL    HW110071   0.315   6.008   3.882 -0.2355  0.4921  0.1989
 3315SOL    HW210072   0.215   6.096   3.954 -1.4924 -1.8249  1.5231
 3316SOL     OW10073   0.718   0.585   0.843 -0.6863 -0.3939 -0.1674
 3316SOL    HW110074   0.680   0.510   0.798  0.8269 -1.0245 -0.4959
 3316SOL    HW210075   0.812   0.578   0.827 -0.5092  2.4651 -1.6415
 3317SOL     OW10076   2.354   1.627   3.916 -0.1159  0.2180  0.3048
 3317SOL    HW110077   2.338   1.597   3.827 -0.7377  1.2945  0.0172
 3317SOL    HW210078   2.326   1.719   3.916 -0.1213  0.2567  1.6029
 3318SOL     OW10079   6.143   3.589   2.453  0.3761 -1.0519 -0.0173
 3318SOL    HW110080   6.179   3.503   2.471  1.4610 -0.5118  0.5858
 3318SOL    HW210081   6.068   3.572   2.397 -0.6964 -2.5410  1.6584
 3319SOL     OW10082   3.089   3.779   2.637 -0.0904  0.2077 -0.2432
 3319SOL    HW110083   3.026   3.781   2.565 -0.8740 -1.8979  0.2278
 3319SOL    HW210084   3.059   3.847   2.697  1.0163  2.5809 -2.0128
 3320SOL     OW10085   3.482   5.146   1.022 -0.2668  0.3675  0.3314
 3320SOL    HW110086   3.532   5.227   1.019 -0.1614  0.4212 -2.7101
 3320SOL    HW210087   3.546   5.077   1.008 -0.6524  0.1249 -0.3563
 3321SOL     OW10088   4.109   3.042   4.018 -0.0888 -0.0176  0.5274
 3321SOL    HW110089   4.104   3.137   4.009 -0.3400  0.5587  4.1077
 3321SOL    HW210090   4.019   3.014   4.033 -0.4290 -1.4557 -2.5481
 3322SOL     OW10091   3.334   6.226   0.381 -0.0339  0.2335 -0.0442
 3322SOL    HW110092   3.345   6.307   0.331 -0.1315  0.2667 -0.0118
 3322SOL    HW210093   3.309   6.255   0.468  0.2020  0.1779  0.0433
 3323SOL     OW10094   0.093   2.524   1.415  0.0145 -0.0735 -0.0388
 3323SOL    HW110095   0.018   2.531   1.357 -0.0933 -0.9930 -0.0461
 3323SOL    HW210096   0.154   2.466   1.369  1.4619  1.8024 -0.7354
 3324SOL     OW10097   0.630   6.262   0.834 -0.1635 -0.3587  0.1071
 3324SOL    HW110098   0.713   6.223   0.861 -1.0644 -1.8076  1.0518
 3324SOL    HW210099   0.635   6.353   0.865  1.1917 -0.2745 -0.2390
 3325SOL     OW10100   2.922   0.492   3.490  0.2126  0.4246  0.3591
 3325SOL    HW110101   2.857   0.423   3.497  0.6287  0.0654  0.8058
 3325SOL    HW210102   2.909   0.529   3.402  0.8112 -1.0582 -0.4141
 3326SOL     OW10103   4.050   1.912   0.068 -0.1026  0.3165 -0.1243
 3326SOL    HW110104   3.964   1.906   0.027 -0.4425  1.3425  0.3618
 3326SOL    HW210105   4.081   2.000   0.046  0.3285  0.3657  0.6115
 3327SOL     OW10106   0.050   1.308   1.055  0.1766 -0.2606 -0.1109
 3327SOL    HW110107   0.057   1.237   0.991  2.4003  0.3870 -0.7792
 3327SOL    HW210108  -0.023   1.361   1.024 -0.4732 -1.3537 -0.5580
 3328SOL     OW10109   2.871   1.361   0.915  0.5858 -0.2353  0.5992
 3328SOL    HW110110   2.800   1.420   0.942 -0.8613 -0.5379 -1.9572
 3328SOL    HW210111   2.939   1.420   0.882  0.4072  0.0267  0.6889
 3329SOL     OW10112   6.379   5.710   3.446 -0.1783 -0.1736  0.4038
 3329SOL    HW110113   6.338   5.712   3.533 -1.0325  1.8997  0.0638
 3329SOL    HW210114   6.429   5.791   3.441 -0.7537  0.1570 -1.2612
 3330SOL     OW10115   3.596   4.373   1.093 -0.5743  0.3360 -0.4644
 3330SOL    HW110116   3.682   4.406   1.118 -0.8481  0.5821  0.2012
 3330SOL    HW210117   3.548   4.365   1.176 -1.3864  0.7742 -0.8636
 3331SOL     OW10118   0.436   3.804   0.828  0.7967  0.1111 -0.2783
 3331SOL    HW110119   0.423   3.810   0.923  2.2158 -0.3090  0.0013
 3331SOL    HW210120   0.518   3.852   0.813  1.0946 -0.6153 -1.1356
 3332SOL     OW10121   3.350   4.045   3.480 -0.9327  0.1266 -0.2491
 3332SOL    HW110122   3.306   4.104   3.541  0.8577  2.4022 -0.8691
 3332SOL    HW210123   3.406   3.990   3.536  2.0374  3.3011  0.5818
 3333SOL     OW10124   3.659   0.608   1.559  0.3173 -0.4420  0.0435
 3333SOL    HW110125   3.715   0.686   1.564  0.9930 -0.3780 -3.4442
 3333SOL    HW210126   3.718   0.535   1.578  0.8210 -0.2327 -0.6501
 3334SOL     OW10127   0.639   1.696   1.403 -0.4344 -0.4067  0.4417
 3334SOL    HW110128   0.663   1.788   1.407 -0.0552 -0.5153  2.4879
 3334SOL    HW210129   0.554   1.695   1.359 -0.9103  1.0516  1.2127
 3335SOL     OW10130   3.165   5.376   0.083 -0.5459  0.0234 -0.0842
 3335SOL    HW110131   3.163   5.460   0.037  2.3507 -0.4364 -1.5345
 3335SOL    HW210132   3.087   5.330   0.052 -0.9514  1.3193 -1.1953
 3336SOL     OW10133   5.334   5.102   2.854 -0.0794  0.0540 -0.3731
 3336SOL    HW110134   5.309   5.176   2.910  1.5131  1.2710 -1.1235
 3336SOL    HW210135   5.252   5.056   2.838 -0.8231  0.2932  1.9359
 3337SOL     OW10136   3.364   2.383   0.114 -0.6576 -0.0320  0.2228
 3337SOL    HW110137   3.413   2.462   0.089 -0.4826 -0.3035 -0.3387
 3337SOL    HW210138   3.273   2.412   0.118 -0.6536  0.1111 -0.4409
 3338SOL     OW10139   0.303   2.285   2.957 -0.2468  0.3229 -0.2611
 3338SOL    HW110140   0.321   2.371   2.995 -3.2098  1.1678 -0.2664
 3338SOL    HW210141   0.353   2.284   2.876  0.6846  1.5779  0.2321
 3339SOL     OW10142   1.592   3.164   1.643 -0.4193 -0.2669 -0.9495
 3339SOL    HW110143   1.586   3.230   1.574 -0.3413  0.8013 -0.0025
 3339SOL    HW210144   1.664   3.107   1.616  0.3342  0.7608 -1.2613
 3340SOL     OW10145   5.761   3.865   1.142  0.2885  0.2276  0.7464
 3340SOL    HW110146   5.732   3.881   1.052 -0.1108  2.6623  1.1548
 3340SOL    HW210147   5.854   3.848   1.135  0.3569  0.8231 -0.1490
 3341SOL     OW10148   0.977   5.142   0.081  0.0327 -0.2008  0.0344
 3341SOL    HW110149   0.973   5.143  -0.015  0.8405 -1.1317 -0.0327
 3341SOL    HW210150   0.917   5.073   0.107 -1.0348  0.7644  0.3046
 3342SOL     OW10151   0.316   4.976   1.682 -0.0807  0.0267 -0.0955
 3342SOL    HW110152   0.412   4.970   1.681 -0.0444  0.3146 -1.3866
 3342SOL    HW210153   0.286   4.888   1.661 -0.0186  0.3091 -1.5261
 3343SOL     OW10154   2.884   1.311   1.568 -0.6598 -0.4364 -0.4286
 3343SOL    HW110155   2.965   1.338   1.611 -1.2669  0.8553  0.0029
 3343SOL    HW210156   2.913   1.261   1.492  0.6211  0.9843 -0.9799
 3344SOL     OW10157   0.526   4.116   3.724 -1.0493 -0.7558 -0.1421
 3344SOL    HW110158   0.496   4.130   3.814 -2.4440  0.2876 -0.6835
 3344SOL    HW210159   0.462   4.164   3.670  0.0210 -0.8958 -1.6648
 3345SOL     OW10160   0.154   4.806   0.651 -0.0014  0.0348 -0.2116
 3345SOL    HW110161   0.176   4.753   0.574 -0.9924 -0.6584 -0.0569
 3345SOL    HW210162   0.228   4.865   0.662  0.8161 -0.8233 -0.8467
 3346SOL     OW10163   5.298   4.430   3.157  0.3819 -0.3714  0.0234
 3346SOL    HW110164   5.325   4.521   3.143 -2.2550  0.4913 -0.5141
 3346SOL    HW210165   5.277   4.425   3.250  0.7319 -0.5396  0.0993
 3347SOL     OW10166   5.827   1.222   1.380  0.6767 -0.1289  0.2880
 3347SOL    HW110167   5.776   1.145   1.405  0.8962 -0.0347  1.0710
 3347SOL    HW210168   5.769   1.270   1.321  0.4003 -0.7091  0.0655
 3348SOL     OW10169   1.442   6.157   0.777  0.0414 -0.1677  0.7713
 3348SOL    HW110170   1.479   6.124   0.859  0.5732  0.8074  0.9506
 3348SOL    HW210171   1.518   6.184   0.726 -0.2901 -0.7125 -0.0443
 3349SOL     OW10172   3.238   0.126   3.553  0.3702  0.2846  0.2126
 3349SOL    HW110173   3.297   0.181   3.501 -1.0429  1.2917 -0.4567
 3349SOL    HW210174   3.287   0.045   3.567  2.2040  1.3219  0.4405
 3350SOL     OW10175   4.150   4.402   0.540 -0.0057 -0.4519  0.7022
 3350SOL    HW110176   4.170   4.360   0.456  0.6161 -0.9709  1.0903
 3350SOL    HW210177   4.093   4.340   0.585 -2.1732  0.7299 -0.1275
 3351SOL     OW10178   1.589   1.850   4.484  0.0210  0.1789 -0.8556
 3351SOL    HW110179   1.536   1.872   4.560  1.4117  1.3957 -0.1378
 3351SOL    HW210180   1.556   1.908   4.414 -0.2167  0.2258 -0.7061
 3352SOL     OW10181   5.453   6.250   0.297  0.2555  0.7975  0.5912
 3352SOL    HW110182   5.516   6.242   0.226 -0.0689  2.0144  0.1219
 3352SOL    HW210183   5.473   6.177   0.355  0.9028  0.0963 -0.4520
 3353SOL     OW10184   0.391   1.948   1.359 -0.5364  0.8683 -0.5242
 3353SOL    HW110185   0.399   1.861   1.321  3.3361  0.1679  0.9716
 3353SOL    HW210186   0.339   1.935   1.439  0.4726 -0.3657 -0.0014
 3354SOL     OW10187   2.500   3.681   3.892  0.1600 -0.3497 -0.1156
 3354SOL    HW110188   2.568   3.739   3.928 -0.2891  0.5618 -0.6716
 3354SOL    HW210189   2.516   3.681   3.798  1.0085 -2.3011 -0.0848
 3355SOL     OW10190   6.232   4.525   3.165  0.3439 -0.2249 -0.3583
 3355SOL    HW110191   6.176   4.486   3.097 -0.4851 -0.8825  0.6513
 3355SOL    HW210192   6.320   4.494   3.144  0.3344  0.5302 -1.7740
 3356SOL     OW10193   4.099   3.483   3.545  0.8641 -0.1840  0.2763
 3356SOL    HW110194   4.038   3.436   3.488 -0.0341  0.1083  0.9485
 3356SOL    HW210195   4.050   3.560   3.573  1.6916  0.2629  0.5547
 3357SOL     OW10196   5.949   1.331   0.575 -0.7663  0.1596 -0.0627
 3357SOL    HW110197   5.893   1.254   0.583 -2.0762  1.1377  1.4855
 3357SOL    HW210198   5.944   1.355   0.482 -0.2787 -1.5591 -0.5952
 3358SOL     OW10199   0.994   6.061   3.277 -0.3852  0.4587 -0.1930
 3358SOL    HW110200   0.991   6.003   3.200  0.9603  1.9856 -1.5615
 3358SOL    HW210201   0.937   6.134   3.253 -1.7496  0.0048  1.3258
 3359SOL     OW10202   5.717   3.164   1.782 -0.4843 -0.3686 -0.1572
 3359SOL    HW110203   5.713   3.139   1.874 -0.0091  1.4501  0.4366
 3359SOL    HW210204   5.811   3.161   1.760 -0.5344 -0.2405 -0.3993
 3360SOL     OW10205   1.135   0.083   1.929  0.1309 -0.1490 -0.1747
 3360SOL    HW110206   1.153   0.023   1.857  2.6749 -0.0026  0.1654
 3360SOL    HW210207   1.221   0.108   1.962 -0.8520  0.9382  2.0070
 3361SOL     OW10208   5.312   5.036   0.252  0.5386 -0.0301  1.0189
 3361SOL    HW110209   5.329   5.051   0.159  0.4944 -1.7420  0.6649
 3361SOL    HW210210   5.298   5.123   0.288 -1.1444  0.6814 -0.9023
 3362SOL     OW10211   5.711   6.314   0.669 -0.0388 -0.1468  0.5413
 3362SOL    HW110212   5.720   6.409   0.680 -0.7150 -0.0096  0.0590
 3362SOL    HW210213   5.751   6.277   0.748 -1.1177  0.5936  1.5088
 3363SOL     OW10214   6.337   3.898   1.424 -0.0282  0.1489 -0.4630
 3363SOL    HW110215   6.359   3.894   1.517  0.7758 -1.2921 -0.6543
 3363SOL    HW210216   6.395   3.965   1.388 -1.0964  1.5321  0.1772
 3364SOL     OW10217   5.415   4.068   2.094  0.1323  0.4293  0.6179
 3364SOL    HW110218   5.380   3.989   2.135 -0.3912 -0.1774 -0.8595
 3364SOL    HW210219   5.472   4.036   2.024 -0.2782  1.3264 -0.1795
 3365SOL     OW10220   1.125   6.290   3.912  0.1878 -0.1520 -0.3423
 3365SOL    HW110221   1.134   6.207   3.864 -2.2483 -1.1592  0.6321
 3365SOL    HW210222   1.155   6.356   3.850  1.2721 -1.6302 -1.5800
 3366SOL     OW10223   0.009   2.826   0.194 -0.1183 -0.2455 -0.3758
 3366SOL    HW110224   0.058   2.800   0.272  1.5219 -0.6842 -1.4583
 3366SOL    HW210225  -0.079   2.791   0.208 -0.1812  0.4424  1.6066
 3367SOL     OW10226   0.864   1.075   0.041  0.2910 -0.0992  0.0226
 3367SOL    HW110227   0.796   1.082  -0.026 -0.9947 -0.4928  1.2083
 3367SOL    HW210228   0.943   1.054  -0.008 -0.6391 -0.6741 -1.3548
 3368SOL     OW10229   1.681   3.719   3.956 -0.0595  0.0099 -0.5160
 3368SOL    HW110230   1.666   3.652   3.890  0.0886  0.1751 -0.7200
 3368SOL    HW210231   1.735   3.785   3.912  1.1394 -0.4748  0.1233
 3369SOL     OW10232   2.104   5.701   1.411 -0.2277 -0.1741 -0.0241
 3369SOL    HW110233   2.145   5.634   1.465  0.1353 -0.3638 -0.5253
 3369SOL    HW210234   2.170   5.724   1.346 -1.3293 -1.6115 -1.8714
 3370SOL     OW10235   3.178   2.067   1.728  0.2968 -0.2076  0.0194
 3370SOL    HW110236   3.141   2.142   1.774 -1.1482  0.8545 -2.4723
 3370SOL    HW210237   3.199   2.099   1.641  0.8063 -2.4226 -0.8228
 3371SOL     OW10238   2.250   2.141   4.014 -0.0155 -0.1554 -0.1851
 3371SOL    HW110239   2.249   2.228   4.055 -0.4431 -0.3474  0.2353
 3371SOL    HW210240   2.210   2.083   4.080  0.7604 -0.7738 -0.2354
 3372SOL     OW10241   3.612   4.936   1.675  0.0584  0.1447  0.1902
 3372SOL    HW110242   3.674   4.864   1.685  2.3650  2.0164  1.7270
 3372SOL    HW210243   3.552   4.928   1.750  2.0652  1.0877  2.1233
 3373SOL     OW10244   0.607   4.780   3.981 -0.7416  0.4488 -0.2828
 3373SOL    HW110245   0.573   4.748   4.065 -1.9371  4.3857  1.2384
 3373SOL    HW210246   0.690   4.822   4.004 -0.2483  0.2363 -1.5305
 3374SOL     OW10247   5.130   3.743   3.179  0.1117  0.3850  0.5251
 3374SOL    HW110248   5.212   3.788   3.158 -0.1288  0.0647 -1.6316
 3374SOL    HW210249   5.120   3.679   3.108 -1.4252 -0.4354  1.3785
 3375SOL     OW10250   3.994   1.734   1.631 -0.6114 -0.1143  0.0712
 3375SOL    HW110251   3.945   1.676   1.573 -0.4098 -0.7966  0.5466
 3375SOL    HW210252   4.075   1.686   1.649  0.4016  1.0846 -0.9093
 3376SOL     OW10253   6.238   0.697   2.210  0.0870  0.4090 -0.4351
 3376SOL    HW110254   6.171   0.635   2.178  0.7529 -0.5347 -0.0963
 3376SOL    HW210255   6.226   0.698   2.305 -0.3383  1.3430 -0.4801
 3377SOL     OW10256   5.869   4.879   1.675  0.3783 -0.0578 -0.3821
 3377SOL    HW110257   5.783   4.854   1.708  1.1401 -0.6386  1.5004
 3377SOL    HW210258   5.855   4.901   1.583 -1.3866 -2.3725 -0.8668
 3378SOL     OW10259   5.358   1.286   3.625  0.2462  0.7186 -0.3558
 3378SOL    HW110260   5.398   1.323   3.703  1.4435 -1.3426  0.1560
 3378SOL    HW210261   5.268   1.320   3.626 -0.1996  0.0011  2.5788
 3379SOL     OW10262   3.188   2.696   1.918 -0.2312  0.0621  0.0907
 3379SOL    HW110263   3.281   2.717   1.914 -0.1057 -0.4891 -1.4701
 3379SOL    HW210264   3.145   2.768   1.872 -0.4133 -0.2732 -0.2836
 3380SOL     OW10265   3.444   3.062   3.644 -0.2371 -0.1980 -0.2621
 3380SOL    HW110266   3.506   3.043   3.573 -1.5394 -3.3375 -0.8744
 3380SOL    HW210267   3.406   3.146   3.620  1.5677  0.4082 -1.4824
 3381SOL     OW10268   4.870   0.793   3.620  0.1852  0.3880  0.1632
 3381SOL    HW110269   4.822   0.783   3.538 -0.2171  0.6675  0.3563
 3381SOL    HW210270   4.803   0.817   3.684  0.6424  1.2011  0.3567
 3382SOL     OW10271   0.169   3.002   2.346  0.5346  0.1593  0.0006
 3382SOL    HW110272   0.257   2.988   2.311  0.4971 -1.8429  0.4628
 3382SOL    HW210273   0.117   2.930   2.311 -0.4237  0.1560  1.2698
 3383SOL     OW10274   3.361   4.004   1.860  0.3961  0.1515  0.1599
 3383SOL    HW110275   3.302   4.053   1.918  0.5232  0.0526  0.3726
 3383SOL    HW210276   3.325   4.018   1.772 -1.2815 -1.6864  0.4213
 3384SOL     OW10277   4.071   2.566   1.821 -0.3856 -0.1056  0.5700
 3384SOL    HW110278   4.065   2.572   1.916  0.7480  1.3427  0.6318
 3384SOL    HW210279   4.155   2.521   1.805  0.9135  2.0798  0.4193
 3385SOL     OW10280   0.650   4.891   1.140 -0.4252  0.2833  0.1333
 3385SOL    HW110281   0.610   4.833   1.204 -0.5044  0.2152  0.0223
 3385SOL    HW210282   0.580   4.910   1.078 -0.0170 -0.6885 -0.6651
 3386SOL     OW10283   2.483   3.798   0.923  0.1192  0.0213 -0.2808
 3386SOL    HW110284   2.427   3.724   0.899  0.4842 -0.6482  0.8286
 3386SOL    HW210285   2.556   3.793   0.861 -0.7375  0.5907 -1.4006
 3387SOL     OW10286   3.889   4.988   2.078  0.3487  0.0648  0.0904
 3387SOL    HW110287   3.875   5.069   2.126  0.1852 -0.2916  0.6599
 3387SOL    HW210288   3.835   4.923   2.123  1.8078 -0.7720  0.7753
 3388SOL     OW10289   3.295   1.178   3.558  0.5751 -0.1507  0.6040
 3388SOL    HW110290   3.328   1.098   3.517 -1.4248 -0.4385 -0.6997
 3388SOL    HW210291   3.346   1.248   3.517  0.2604 -0.6051 -0.6652
 3389SOL     OW10292   0.222   0.579   3.002  0.0556 -0.2369  0.4746
 3389SOL    HW110293   0.300   0.531   3.029  1.2212  0.0094 -1.8596
 3389SOL    HW210294   0.196   0.629   3.079  2.8364  0.4010  1.2205
 3390SOL     OW10295   0.838   4.913   0.107  0.5815 -0.1273  0.1583
 3390SOL    HW110296   0.863   4.882   0.194 -1.6346  1.6247  1.6258
 3390SOL    HW210297   0.752   4.873   0.092  1.7400 -2.2996 -2.5351
 3391SOL     OW10298   4.367   0.596   4.412 -0.1952  0.7867 -0.5738
 3391SOL    HW110299   4.421   0.649   4.471  0.8306  0.9459 -1.5824
 3391SOL    HW210300   4.283   0.641   4.410  0.6256  2.4599 -1.3923
 3392SOL     OW10301   5.644   6.267   3.896  0.1236 -0.1226  0.5373
 3392SOL    HW110302   5.628   6.201   3.964 -2.7442  0.2485  0.4570
 3392SOL    HW210303   5.575   6.331   3.907  1.3199  1.6331 -0.9198
 3393SOL     OW10304   3.550   2.422   3.508  0.4133 -0.0457  0.1737
 3393SOL    HW110305   3.636   2.422   3.465 -0.1893  0.1897 -1.1183
 3393SOL    HW210306   3.499   2.488   3.460 -0.1069  0.8345  1.7857
 3394SOL     OW10307   5.556   5.906   0.806  0.3471 -0.1116  0.3574
 3394SOL    HW110308   5.609   5.977   0.769  0.9265 -1.2604 -1.2113
 3394SOL    HW210309   5.466   5.939   0.801  0.6725  1.5834  2.3952
 3395SOL     OW10310   5.784   4.479   1.488  0.0805 -0.6883  0.3825
 3395SOL    HW110311   5.823   4.524   1.563 -1.7378  0.3262  0.8667
 3395SOL    HW210312   5.761   4.392   1.520  0.1617 -0.5890  0.7092
 3396SOL     OW10313   5.872   3.810   0.625  0.6194  0.0009  0.1491
 3396SOL    HW110314   5.829   3.785   0.543  0.5732 -1.2662  0.5276
 3396SOL    HW210315   5.942   3.870   0.598 -0.0290  0.4247 -0.6958
 3397SOL     OW10316   3.956   4.228   0.647 -0.7597 -0.0925 -0.1754
 3397SOL    HW110317   3.955   4.213   0.553 -1.2051  0.4601 -0.2673
 3397SOL    HW210318   3.865   4.248   0.669 -0.3390  2.0912 -0.0286
 3398SOL     OW10319   1.149   3.266   4.522 -0.5342  0.0327  0.1896
 3398SOL    HW110320   1.116   3.197   4.465 -2.5079  0.5444  0.5852
 3398SOL    HW210321   1.207   3.317   4.465  0.6018 -1.5722 -0.2460
 3399SOL     OW10322   6.343   5.255   0.681 -0.3981  0.0932 -0.5030
 3399SOL    HW110323   6.364   5.291   0.767 -0.5387 -0.9300 -0.0113
 3399SOL    HW210324   6.248   5.254   0.678 -0.4252 -1.0254 -0.1199
 3400SOL     OW10325   2.345   4.959   1.769 -0.3619  0.0413  0.6658
 3400SOL    HW110326   2.267   4.944   1.822 -0.5116  1.7365  1.0396
 3400SOL    HW210327   2.328   5.041   1.724  1.7347  1.3274  1.9077
 3401SOL     OW10328   4.702   4.855   2.427  0.2070  0.1021  0.1922
 3401SOL    HW110329   4.678   4.814   2.510 -0.7916  1.6492  0.7412
 3401SOL    HW210330   4.746   4.936   2.452  1.7931 -0.3246 -0.8503
 3402SOL     OW10331   2.149   2.852   0.880 -0.0862  0.1733  0.4340
 3402SOL    HW110332   2.187   2.831   0.966  0.1929 -0.2236  0.2221
 3402SOL    HW210333   2.063   2.888   0.900  0.4435  1.2359  0.9441
 3403SOL     OW10334   2.288   5.730   0.326 -0.7566 -0.0374 -0.3192
 3403SOL    HW110335   2.234   5.782   0.386 -3.0537 -1.6095 -0.7409
 3403SOL    HW210336   2.305   5.649   0.375 -2.0331 -1.0410 -1.3881
 3404SOL     OW10337   0.278   3.671   3.520  0.5869 -0.1060  0.0963
 3404SOL    HW110338   0.220   3.594   3.521 -0.0688  0.3591  1.0966
 3404SOL    HW210339   0.344   3.650   3.454 -1.9799  0.3207 -3.0530
 3405SOL     OW10340   5.762   4.074   1.323 -0.2190 -0.2109 -0.2817
 3405SOL    HW110341   5.746   4.156   1.277  2.3380  0.9205  0.5028
 3405SOL    HW210342   5.765   4.007   1.254  1.4189  1.0576 -1.6065
 3406SOL     OW10343   2.825   1.080   0.422  0.3501 -0.1389 -0.3074
 3406SOL    HW110344   2.883   1.140   0.471 -0.6574  1.5683 -1.0190
 3406SOL    HW210345   2.740   1.089   0.466  0.0335 -0.5856 -0.8206
 3407SOL     OW10346   3.479   6.176   2.874 -0.2647 -0.4511 -0.3976
 3407SOL    HW110347   3.448   6.256   2.916  1.9798  1.6597 -2.1395
 3407SOL    HW210348   3.400   6.137   2.836 -1.5155  0.8201  0.6578
 3408SOL     OW10349   5.819   0.058   3.768  0.1393  0.2238 -0.2068
 3408SOL    HW110350   5.732   0.018   3.773  0.5437 -0.7044 -0.2676
 3408SOL    HW210351   5.862   0.012   3.696  0.9618  0.0764  0.3571
 3409SOL     OW10352   1.432   4.846   0.739 -0.2390 -0.2045 -0.1711
 3409SOL    HW110353   1.421   4.902   0.817  0.5174  1.4343 -1.1272
 3409SOL    HW210354   1.517   4.872   0.703 -0.4768 -1.0320 -1.4544
 3410SOL     OW10355   5.458   0.560   0.485  0.3535 -0.1042 -0.0941
 3410SOL    HW110356   5.516   0.614   0.539  0.8416 -1.3116  0.6610
 3410SOL    HW210357   5.510   0.483   0.463 -0.6467 -0.7747 -0.2178
 3411SOL     OW10358   4.888   2.439   1.556 -0.3760 -0.2673 -0.3018
 3411SOL    HW110359   4.793   2.453   1.556 -0.2919  0.3904 -0.1692
 3411SOL    HW210360   4.899   2.346   1.539 -1.1224 -0.8305  1.7172
 3412SOL     OW10361   4.754   0.387   2.226 -0.0087  0.0839 -0.0871
 3412SOL    HW110362   4.818   0.339   2.278 -0.9681  0.5744  1.6983
 3412SOL    HW210363   4.745   0.471   2.270 -0.7547  0.6427 -1.1979
 3413SOL     OW10364   1.253   0.468   3.053 -0.0506  0.2767  0.3725
 3413SOL    HW110365   1.337   0.507   3.077 -0.0300  0.1514  0.5091
 3413SOL    HW210366   1.276   0.396   2.994 -0.1049  0.6182 -0.0742
 3414SOL     OW10367   5.260   1.337   1.873 -0.3458 -0.0450  0.1195
 3414SOL    HW110368   5.328   1.301   1.817 -0.4707 -0.6934  0.3681
 3414SOL    HW210369   5.283   1.309   1.962 -1.3598 -1.0248  0.1206
 3415SOL     OW10370   6.109   6.005   1.684 -0.2148 -0.2207  0.4899
 3415SOL    HW110371   6.106   5.918   1.643 -0.6697 -0.6224  1.3163
 3415SOL    HW210372   6.183   6.000   1.744 -0.5485 -0.2327  0.9136
 3416SOL     OW10373   1.406   5.426   1.623 -0.2045  0.5760  0.0440
 3416SOL    HW110374   1.320   5.399   1.593 -0.3201  0.5870  0.3600
 3416SOL    HW210375   1.390   5.502   1.678 -0.0371  0.3112  0.4650
 3417SOL     OW10376   2.877   6.164   3.136  0.6497 -0.1688  0.3533
 3417SOL    HW110377   2.833   6.082   3.113 -0.8581  0.8103 -0.5841
 3417SOL    HW210378   2.941   6.138   3.202 -0.4858 -1.9455  0.9164
 3418SOL     OW10379   1.489   5.429   2.037  0.4720  0.5544 -0.2565
 3418SOL    HW110380   1.583   5.422   2.022  0.4081  1.8060 -1.7585
 3418SOL    HW210381   1.450   5.364   1.979  0.3787 -0.2550  0.6707
 3419SOL     OW10382   3.400   1.584   2.834  0.2676  0.6176  0.1467
 3419SOL    HW110383   3.426   1.499   2.870 -0.5287  0.3758  0.1758
 3419SOL    HW210384   3.436   1.584   2.745  0.7459  0.4915  0.3318
 3420SOL     OW10385   5.037   5.419   2.634 -0.5393 -0.4843 -0.1477
 3420SOL    HW110386   5.128   5.391   2.629 -0.3842 -0.1429  0.5050
 3420SOL    HW210387   5.042   5.512   2.659 -1.0006 -1.0333  2.7268
 3421SOL     OW10388   6.188   2.889   2.776 -0.4178  0.2000 -0.4145
 3421SOL    HW110389   6.148   2.966   2.735 -1.8052 -0.6577 -0.8057
 3421SOL    HW210390   6.239   2.848   2.706 -1.5888 -0.4594 -0.9430
 3422SOL     OW10391   3.020   2.904   1.825  0.1883 -0.5685 -0.2333
 3422SOL    HW110392   3.019   2.995   1.853  0.5157 -0.8288  0.6877
 3422SOL    HW210393   3.004   2.908   1.731 -2.1556  0.3012  0.0753
 3423SOL     OW10394   2.496   6.239   2.299  0.2780  0.3216 -0.2488
 3423SOL    HW110395   2.456   6.276   2.377 -0.0607  0.6134 -0.5514
 3423SOL    HW210396   2.565   6.300   2.276  0.8660 -0.1403  0.2267
 3424SOL     OW10397   1.651   4.797   4.206  0.4227 -0.0336  0.2205
 3424SOL    HW110398   1.558   4.781   4.191  0.5048  0.3073 -0.8205
 3424SOL    HW210399   1.692   4.712   4.193  0.3777  0.0615 -0.6915
 3425SOL     OW10400   0.070   0.863   0.973 -0.1177  0.2028  0.2995
 3425SOL    HW110401   0.091   0.779   1.013  0.3747 -0.2882 -0.8886
 3425SOL    HW210402   0.020   0.840   0.895  0.7876  0.9318 -0.5437
 3426SOL     OW10403   0.126   3.042   1.748  0.2630 -0.1549  0.5881
 3426SOL    HW110404   0.147   2.949   1.751  1.0371  0.0005  0.4401
 3426SOL    HW210405   0.116   3.061   1.655 -1.2909 -0.3503  0.6598
 3427SOL     OW10406   3.373   3.819   4.408 -0.0176  0.1594 -0.2522
 3427SOL    HW110407   3.328   3.798   4.326 -1.0104  0.0612  0.2779
 3427SOL    HW210408   3.318   3.779   4.476  1.2580 -0.5563  0.4293
 3428SOL     OW10409   3.295   3.484   3.392  0.3603  0.0829 -0.5499
 3428SOL    HW110410   3.353   3.556   3.416  0.8839 -0.5820  0.2379
 3428SOL    HW210411   3.228   3.526   3.337  1.9507  0.7657 -2.1892
 3429SOL     OW10412   5.516   0.870   2.025 -0.0256  0.0870  0.7378
 3429SOL    HW110413   5.473   0.787   2.045 -0.2012  0.1808  0.7542
 3429SOL    HW210414   5.608   0.854   2.043 -0.0614 -0.1000  0.7565
 3430SOL     OW10415   4.949   3.324   1.742 -0.2272 -0.2832  0.2450
 3430SOL    HW110416   5.029   3.271   1.740 -0.8997 -1.3579 -0.3537
 3430SOL    HW210417   4.944   3.362   1.654 -0.7667 -0.9110 -0.0173
 3431SOL     OW10418   4.926   5.796   0.969 -0.3991 -0.3789  0.5720
 3431SOL    HW110419   4.913   5.719   0.914 -2.4250 -0.1576  0.5690
 3431SOL    HW210420   5.014   5.786   1.004  0.4062 -1.3263 -1.4418
 3432SOL     OW10421   2.275   3.094   2.806  0.2852  1.0472  0.2521
 3432SOL    HW110422   2.300   3.090   2.898  0.4265 -1.7441  0.2577
 3432SOL    HW210423   2.180   3.111   2.808 -0.1055 -0.7545  1.1412
 3433SOL     OW10424   5.153   0.591   2.866 -0.0544  0.7202 -0.1842
 3433SOL    HW110425   5.210   0.667   2.854  3.0690 -0.8638  1.7251
 3433SOL    HW210426   5.082   0.622   2.921  1.5012  2.2651  1.2123
 3434SOL     OW10427   0.561   4.735   1.348 -0.7271 -0.1914 -0.2365
 3434SOL    HW110428   0.524   4.794   1.414  0.5382  0.9834 -0.4695
 3434SOL    HW210429   0.486   4.694   1.306 -1.6165 -1.1629  2.0028
 3435SOL     OW10430   1.289   6.375   0.995  0.4569 -0.4210 -0.0406
 3435SOL    HW110431   1.217   6.404   1.050  1.2621  0.1096  0.7822
 3435SOL    HW210432   1.246   6.332   0.921 -0.7160  0.4257  0.0843
 3436SOL     OW10433   3.131   0.821   0.869 -0.1576 -0.0394 -0.3996
 3436SOL    HW110434   3.099   0.908   0.846 -0.4495  0.4090  1.3864
 3436SOL    HW210435   3.066   0.761   0.832  0.7746  0.2522 -2.9417
 3437SOL     OW10436   0.994   2.399   4.090 -0.6727 -0.1948  0.1334
 3437SOL    HW110437   1.011   2.306   4.110 -1.0804 -0.2817  0.0796
 3437SOL    HW210438   1.081   2.439   4.094 -0.5537 -0.4775  0.6841
 3438SOL     OW10439   4.974   4.904   3.032  0.1304 -0.5423 -0.1403
 3438SOL    HW110440   4.942   4.830   2.980  0.6449 -0.3921 -0.6949
 3438SOL    HW210441   5.064   4.880   3.055  1.1639  0.7542 -2.1927
 3439SOL     OW10442   1.150   5.205   1.448  0.1746 -0.0963 -0.3932
 3439SOL    HW110443   1.094   5.171   1.378  1.0459  0.3229 -1.3532
 3439SOL    HW210444   1.233   5.224   1.405  0.1357  2.2003  0.2373
 3440SOL     OW10445   4.751   2.568   2.147  0.1869 -0.3478 -0.2160
 3440SOL    HW110446   4.810   2.634   2.184 -0.3091 -0.4835  0.8948
 3440SOL    HW210447   4.768   2.490   2.199 -0.0719 -0.7665 -0.7441
 3441SOL     OW10448   5.911   2.060   3.522 -0.1246 -0.0416 -0.1023
 3441SOL    HW110449   5.879   2.078   3.434  0.6036 -1.7838 -0.8170
 3441SOL    HW210450   5.925   2.147   3.561 -0.3564  0.8074 -1.7351
 3442SOL     OW10451   4.777   0.861   3.361 -0.0662  0.0678 -0.1096
 3442SOL    HW110452   4.859   0.902   3.333  0.7648 -1.2588  0.1973
 3442SOL    HW210453   4.726   0.933   3.397  0.4783  1.1353 -1.3111
 3443SOL     OW10454   2.945   1.630   0.393 -0.1272  0.1605  0.0017
 3443SOL    HW110455   2.914   1.637   0.303  0.5135 -0.1601 -0.2647
 3443SOL    HW210456   2.982   1.542   0.398 -0.4018  0.0748  0.6665
 3444SOL     OW10457   1.515   3.865   1.394  0.1941 -0.0028 -0.1568
 3444SOL    HW110458   1.478   3.809   1.325  0.4123  1.1334 -1.2809
 3444SOL    HW210459   1.564   3.932   1.346  1.5646  0.0588  1.1770
 3445SOL     OW10460   0.022   3.806   0.046  0.0755  0.2542 -0.1876
 3445SOL    HW110461  -0.031   3.843   0.117  1.6879  1.7974  0.3855
 3445SOL    HW210462   0.055   3.723   0.080  0.1451  0.5724  0.5526
 3446SOL     OW10463   3.071   4.273   2.833  0.1293 -0.0581 -0.3670
 3446SOL    HW110464   3.104   4.237   2.914 -0.1295  0.8300  0.1623
 3446SOL    HW210465   3.135   4.339   2.808 -0.9943  1.5023  0.5351
 3447SOL     OW10466   0.165   0.310   1.477 -0.1158 -0.0435 -0.0950
 3447SOL    HW110467   0.143   0.336   1.567  0.9340 -0.8865  0.4571
 3447SOL    HW210468   0.185   0.217   1.484 -0.9721 -0.3889 -1.4279
 3448SOL     OW10469   3.859   2.911   4.057  0.1280  0.0479  0.0332
 3448SOL    HW110470   3.851   2.816   4.044 -0.4735  0.3023 -3.0675
 3448SOL    HW210471   3.808   2.949   3.985  3.4876  2.6051 -1.5614
 3449SOL     OW10472   2.928   4.582   1.323  0.5574 -0.0345 -0.0631
 3449SOL    HW110473   2.873   4.524   1.270  1.4340 -0.2397 -0.8028
 3449SOL    HW210474   2.866   4.627   1.381 -0.3454 -0.4716 -0.6325
 3450SOL     OW10475   0.861   5.797   3.778 -0.4729  0.2281 -0.4389
 3450SOL    HW110476   0.902   5.835   3.700  1.2052 -0.9136 -0.2115
 3450SOL    HW210477   0.832   5.872   3.829  0.7247  1.1376 -0.9966
 3451SOL     OW10478   2.517   2.912   1.430  0.0584 -0.0069 -0.5912
 3451SOL    HW110479   2.605   2.932   1.461  0.1465 -0.2011 -0.7086
 3451SOL    HW210480   2.530   2.883   1.339  0.0844 -1.6562 -0.1174
 3452SOL     OW10481   5.448   5.690   0.924  0.0517 -0.4370  0.5090
 3452SOL    HW110482   5.481   5.767   0.877 -0.8043 -0.0782  0.4593
 3452SOL    HW210483   5.354   5.692   0.909 -0.0457 -1.2088  0.9461
 3453SOL     OW10484   3.445   2.789   1.964 -0.0269  0.2274  0.2706
 3453SOL    HW110485   3.482   2.801   2.052 -1.1652  0.1487  0.7936
 3453SOL    HW210486   3.512   2.822   1.905  0.6195  0.6309  1.1866
 3454SOL     OW10487   5.866   5.358   3.456  0.3271  0.3144 -0.1155
 3454SOL    HW110488   5.876   5.411   3.535 -0.0363  1.5773 -0.8512
 3454SOL    HW210489   5.955   5.327   3.437  0.3755 -0.2458  0.9031
 3455SOL     OW10490   5.268   2.524   0.243  0.0200  0.1493 -0.1574
 3455SOL    HW110491   5.252   2.436   0.277 -1.0409 -0.2989 -1.6163
 3455SOL    HW210492   5.306   2.510   0.156 -0.1812  1.1276 -0.4336
 3456SOL     OW10493   0.329   6.400   3.435 -0.6835  0.4092  0.6450
 3456SOL    HW110494   0.237   6.419   3.455 -0.7834 -0.6311  1.2930
 3456SOL    HW210495   0.368   6.380   3.520  0.2894  1.3110  0.4498
 3457SOL     OW10496   1.056   2.328   0.348  0.1899 -0.0968 -0.0839
 3457SOL    HW110497   1.133   2.337   0.292  0.4425 -0.2547  0.2310
 3457SOL    HW210498   0.993   2.390   0.312  1.1294  1.5169  0.7838
 3458SOL     OW10499   2.089   0.174   1.474 -0.4989 -0.3998 -0.3048
 3458SOL    HW110500   2.125   0.224   1.547  0.2744 -0.3229 -0.7183
 3458SOL    HW210501   2.158   0.176   1.407 -0.4299 -1.9800 -0.3665
 3459SOL     OW10502   6.161   1.679   3.474 -0.2950 -0.0226 -0.5846
 3459SOL    HW110503   6.148   1.657   3.566  2.1360  0.8488  0.1275
 3459SOL    HW210504   6.088   1.738   3.453 -1.8953 -1.5704  0.1367
 3460SOL     OW10505   4.679   0.622   4.455 -0.3979 -0.3924 -0.1677
 3460SOL    HW110506   4.685   0.677   4.376 -1.8489  0.5655  0.3032
 3460SOL    HW210507   4.712   0.537   4.427  1.2212  0.4572 -1.1774
 3461SOL     OW10508   4.493   5.223   1.428  0.0565  0.2174 -0.3048
 3461SOL    HW110509   4.584   5.221   1.400  0.9654  0.3248  2.1638
 3461SOL    HW210510   4.481   5.311   1.465 -0.1055 -0.5676  1.7688
 3462SOL     OW10511   3.570   3.534   1.065  0.0649 -0.5468  0.0046
 3462SOL    HW110512   3.660   3.502   1.050  0.6906  0.1969  1.6821
 3462SOL    HW210513   3.540   3.563   0.978  1.9805  0.4423 -0.4439
 3463SOL     OW10514   2.363   0.896   0.833 -0.8428 -0.2014  0.2399
 3463SOL    HW110515   2.309   0.945   0.771 -1.7789  0.6630  1.6353
 3463SOL    HW210516   2.371   0.954   0.909  1.7792 -0.4284  0.3224
 3464SOL     OW10517   4.219   0.247   0.431 -0.2074  0.0891  0.2353
 3464SOL    HW110518   4.309   0.215   0.423  0.2659  1.1685  0.8098
 3464SOL    HW210519   4.229   0.339   0.454 -1.4739  0.5184 -0.7224
 3465SOL     OW10520   1.282   0.774   3.220  0.1676  0.5640  0.5210
 3465SOL    HW110521   1.264   0.772   3.126  1.4724 -1.4214  0.2012
 3465SOL    HW210522   1.195   0.767   3.260 -0.4626  1.8039 -0.4353
 3466SOL     OW10523   2.487   0.012   3.246 -0.2197 -0.0912 -0.2894
 3466SOL    HW110524   2.571  -0.034   3.247 -0.4446 -0.5121  0.5091
 3466SOL    HW210525   2.495   0.077   3.316 -0.1694  0.6322 -0.9370
 3467SOL     OW10526   1.280   5.453   3.047  0.1837  0.4057  0.1647
 3467SOL    HW110527   1.234   5.528   3.086 -2.0106 -0.5684 -0.2601
 3467SOL    HW210528   1.224   5.426   2.974  1.3396 -1.1208 -0.2518
 3468SOL     OW10529   6.161   5.571   0.691 -0.0566 -0.4489 -1.0179
 3468SOL    HW110530   6.108   5.492   0.684 -0.3728 -0.2439 -0.9533
 3468SOL    HW210531   6.098   5.643   0.691  0.1609 -0.2385 -0.1114
 3469SOL     OW10532   1.757   1.649   2.729  0.5134  0.5674  0.5880
 3469SOL    HW110533   1.806   1.613   2.655 -0.5379 -0.2111  0.2231
 3469SOL    HW210534   1.693   1.581   2.750 -1.9201  2.2885 -0.3910
 3470SOL     OW10535   2.136   0.165   3.006  0.0413 -0.0396  0.2022
 3470SOL    HW110536   2.221   0.145   3.044  0.2917  0.8195  0.1226
 3470SOL    HW210537   2.116   0.088   2.952  0.5893 -0.4118  0.5048
 3471SOL     OW10538   5.641   3.050   3.098 -0.4755  0.3367 -0.1864
 3471SOL    HW110539   5.571   3.049   3.033 -0.9577 -0.8056  0.2967
 3471SOL    HW210540   5.717   3.014   3.052 -0.8399 -0.5558 -0.1322
 3472SOL     OW10541   0.607   5.961   1.367  0.7372 -0.2066 -0.1419
 3472SOL    HW110542   0.547   5.911   1.311  2.0751 -1.2294 -0.7739
 3472SOL    HW210543   0.685   5.974   1.314  0.4471  3.0027 -0.1794
 3473SOL     OW10544   3.600   3.792   1.239  0.1893 -0.3369  0.2013
 3473SOL    HW110545   3.618   3.710   1.283  0.0889 -0.9219 -0.7887
 3473SOL    HW210546   3.595   3.857   1.310 -0.5860 -1.3094  1.1099
 3474SOL     OW10547   3.687   1.495   2.705  0.3228  0.5462 -1.1232
 3474SOL    HW110548   3.702   1.405   2.734 -2.2155 -0.0433 -1.1963
 3474SOL    HW210549   3.694   1.492   2.610 -0.3914  0.2320 -1.1756
 3475SOL     OW10550   6.075   3.690   0.086 -0.0662 -0.0344 -0.0407
 3475SOL    HW110551   6.082   3.633   0.162  1.8262  2.1357  1.7070
 3475SOL    HW210552   6.070   3.630   0.011 -1.6949 -2.3445  1.6315
 3476SOL     OW10553   5.798   0.090   2.600  0.2486  0.0307 -0.4922
 3476SOL    HW110554   5.729   0.056   2.656 -0.1695  3.1254  1.3383
 3476SOL    HW210555   5.867   0.024   2.604 -1.2507 -1.6546  0.4617
 3477SOL     OW10556   2.669   4.304   2.785 -0.1366  0.4194  0.0360
 3477SOL    HW110557   2.722   4.267   2.714  0.8580  2.0300 -0.1660
 3477SOL    HW210558   2.597   4.242   2.797 -0.4910  0.1093 -2.5320
 3478SOL     OW10559   4.502   2.577   2.308 -0.2130 -0.0746  0.5318
 3478SOL    HW110560   4.457   2.576   2.224  2.0747  0.6488 -0.8912
 3478SOL    HW210561   4.581   2.629   2.292 -0.5933  2.1193  3.7328
 3479SOL     OW10562   2.293   0.383   4.388  0.5189  0.8834  0.4687
 3479SOL    HW110563   2.336   0.422   4.312  0.2209 -0.6070 -0.5495
 3479SOL    HW210564   2.264   0.458   4.440  0.4683  2.0123 -1.0403
 3480SOL     OW10565   0.779   6.008   4.357  0.4968 -0.2666  0.1655
 3480SOL    HW110566   0.771   6.001   4.452  0.8864 -0.3276  0.1951
 3480SOL    HW210567   0.726   5.936   4.323  1.7704 -1.3917  0.3903
 3481SOL     OW10568   1.895   6.378   3.977 -0.6635  0.3103  0.0705
 3481SOL    HW110569   1.828   6.315   3.950 -1.6849  1.7388 -1.0356
 3481SOL    HW210570   1.952   6.387   3.901 -0.9454  1.1649 -0.0662
 3482SOL     OW10571   3.905   4.367   4.361 -0.2164 -0.2489  0.2105
 3482SOL    HW110572   3.995   4.395   4.340  0.1284 -0.3101  1.4587
 3482SOL    HW210573   3.885   4.300   4.296  0.2726  0.4265 -0.6732
 3483SOL     OW10574   4.036   0.050   1.498  0.6131  0.1700 -0.2015
 3483SOL    HW110575   3.974   0.116   1.466  1.0533  0.7163  0.0485
 3483SOL    HW210576   4.001   0.025   1.584 -0.3011 -0.9428 -0.8481
 3484SOL     OW10577   0.960   2.451   2.406  0.4833 -0.0506  0.2434
 3484SOL    HW110578   0.894   2.520   2.416  0.0963 -0.1557 -1.1784
 3484SOL    HW210579   0.909   2.372   2.386  0.9956 -0.3850  0.2387
 3485SOL     OW10580   2.836   4.491   2.900  0.5221 -0.1966  0.7255
 3485SOL    HW110581   2.796   4.424   2.844 -0.1044  0.6690  0.0616
 3485SOL    HW210582   2.853   4.564   2.840  0.1329  0.6531  1.5995
 3486SOL     OW10583   4.180   1.112   1.613  0.1608 -0.1762 -0.3329
 3486SOL    HW110584   4.117   1.120   1.541 -1.3606 -2.9120  0.4145
 3486SOL    HW210585   4.150   1.175   1.678 -0.5917 -0.0391 -0.7844
 3487SOL     OW10586   1.776   2.422   0.573  0.2074  0.5381  0.5779
 3487SOL    HW110587   1.704   2.398   0.632 -0.2695 -0.5281 -0.3593
 3487SOL    HW210588   1.734   2.434   0.488  1.1562 -0.5844 -0.1050
 3488SOL     OW10589   0.459   5.093   2.202 -0.7089 -0.5677  0.3871
 3488SOL    HW110590   0.465   5.130   2.114  1.2795  0.5940  0.9017
 3488SOL    HW210591   0.528   5.026   2.204 -1.0497 -0.9181  0.9558
 3489SOL     OW10592   0.590   5.958   3.604  0.4544 -0.2729  1.2175
 3489SOL    HW110593   0.569   5.891   3.539 -1.4675  0.8940  0.4591
 3489SOL    HW210594   0.672   5.997   3.573  0.4564 -0.8342  0.4536
 3490SOL     OW10595   1.042   4.330   1.978  0.2272 -0.0994  0.0796
 3490SOL    HW110596   1.099   4.406   1.964 -1.7571  1.4477 -0.5227
 3490SOL    HW210597   1.006   4.311   1.891 -1.3443  0.1008  0.6273
 3491SOL     OW10598   3.708   1.931   1.139 -0.2217  0.2649  0.3409
 3491SOL    HW110599   3.657   1.941   1.058  2.3916 -1.3595 -1.8760
 3491SOL    HW210600   3.714   1.836   1.151  2.4436  0.2548  0.0496
 3492SOL     OW10601   3.936   2.743   2.540 -0.1515  0.0170 -0.0426
 3492SOL    HW110602   3.918   2.689   2.617 -1.4961 -1.4013 -1.2224
 3492SOL    HW210603   3.945   2.832   2.575 -2.5204 -0.2111  1.6494
 3493SOL     OW10604   6.003   1.741   1.640  0.4906  0.6313 -0.6543
 3493SOL    HW110605   5.987   1.760   1.547  0.8447  2.0597 -0.4776
 3493SOL    HW210606   5.927   1.691   1.668 -0.5750  1.7812 -1.2890
 3494SOL     OW10607   5.853   6.027   3.516 -0.3205  0.1863  0.5140
 3494SOL    HW110608   5.904   5.947   3.505  0.3652  0.4725  1.3616
 3494SOL    HW210609   5.863   6.049   3.609 -1.1395  0.8340  0.4692
 3495SOL     OW10610   3.391   4.381   0.283 -0.0917  0.1853 -0.0033
 3495SOL    HW110611   3.454   4.437   0.328 -0.2878  1.1922 -0.8910
 3495SOL    HW210612   3.374   4.310   0.344 -0.1484  1.3228  1.4069
 3496SOL     OW10613   3.700   1.021   2.854 -0.1299 -0.5625 -0.0597
 3496SOL    HW110614   3.768   1.082   2.826  0.1993 -0.2625  1.2322
 3496SOL    HW210615   3.621   1.050   2.809  0.0477  0.7556  0.3943
 3497SOL     OW10616   2.480   2.877   1.734 -0.5108  0.4234 -0.2298
 3497SOL    HW110617   2.566   2.847   1.705  0.2091  1.1309  1.0065
 3497SOL    HW210618   2.433   2.897   1.653 -0.5237 -2.3339 -1.1180
 3498SOL     OW10619   5.820   3.502   2.864  0.4777 -0.1921  1.0827
 3498SOL    HW110620   5.868   3.466   2.789 -0.0155  3.1486 -1.2973
 3498SOL    HW210621   5.737   3.455   2.863  0.5155 -0.3538 -0.5452
 3499SOL     OW10622   5.605   4.086   4.222  0.2030  0.3940 -0.2140
 3499SOL    HW110623   5.641   4.118   4.304 -0.0757 -1.8482  0.9392
 3499SOL    HW210624   5.680   4.049   4.175  0.1946  0.7045 -0.4817
 3500SOL     OW10625   3.325   2.116   0.029  0.6311 -0.5364  0.2537
 3500SOL    HW110626   3.293   2.099   0.117  1.4672 -0.6145  0.5659
 3500SOL    HW210627   3.354   2.207   0.031 -0.6331 -0.0771 -0.3819
 3501SOL     OW10628   2.811   1.414   2.429  0.2019 -0.6169 -0.4131
 3501SOL    HW110629   2.821   1.420   2.524 -1.4974  1.8003 -0.2192
 3501SOL    HW210630   2.895   1.444   2.394  0.2295  0.3739  0.4236
 3502SOL     OW10631   1.149   1.724   3.808  0.1645 -0.9693  0.2918
 3502SOL    HW110632   1.070   1.697   3.761 -0.4904  0.4455  0.4918
 3502SOL    HW210633   1.165   1.654   3.871 -0.2543 -1.8151 -0.5019
 3503SOL     OW10634   3.761   4.503   2.654  0.4917  0.1922  0.2507
 3503SOL    HW110635   3.786   4.576   2.598  0.4776 -0.9704 -1.4333
 3503SOL    HW210636   3.811   4.429   2.618  1.8823 -0.4036  2.9241
 3504SOL     OW10637   0.243   3.911   1.169  0.5428  0.7066  0.6726
 3504SOL    HW110638   0.318   3.851   1.172 -0.7920 -1.2873 -0.8362
 3504SOL    HW210639   0.283   3.997   1.157  2.6828 -0.3267 -1.2976
 3505SOL     OW10640   2.888   2.970   3.934  0.0171  0.2379 -0.0588
 3505SOL    HW110641   2.886   2.884   3.891 -0.9755 -0.3493  1.0468
 3505SOL    HW210642   2.934   2.954   4.016 -0.4464  0.6779  0.2972
 3506SOL     OW10643   2.611   5.120   1.713  0.7204 -0.4923  0.2704
 3506SOL    HW110644   2.558   5.092   1.788  0.2756  0.2652  0.2608
 3506SOL    HW210645   2.574   5.205   1.688  1.8460 -0.0027  0.1545
 3507SOL     OW10646   3.253   6.215   2.645  0.4912 -0.3366 -0.1927
 3507SOL    HW110647   3.284   6.270   2.574  0.2348 -2.2173 -1.9721
 3507SOL    HW210648   3.281   6.259   2.725 -0.5945  2.8136 -1.2658
 3508SOL     OW10649   6.227   4.601   0.687  0.2657  0.1542 -0.2850
 3508SOL    HW110650   6.277   4.612   0.767  0.9087 -1.1560 -0.4499
 3508SOL    HW210651   6.276   4.536   0.636 -1.1198 -0.5424 -0.8667
 3509SOL     OW10652   2.146   1.150   0.917  0.1034  0.3121  0.1361
 3509SOL    HW110653   2.198   1.094   0.975 -0.7116  0.0349  0.6342
 3509SOL    HW210654   2.202   1.226   0.900  1.2742 -0.6247 -0.5887
 3510SOL     OW10655   6.311   3.286   2.865  0.6458 -0.2797 -0.3769
 3510SOL    HW110656   6.311   3.323   2.953 -0.7806 -0.4636 -0.2530
 3510SOL    HW210657   6.383   3.223   2.865  0.7388 -0.1998  0.6228
 3511SOL     OW10658   3.305   4.842   2.819 -0.3266 -0.0243 -0.2961
 3511SOL    HW110659   3.313   4.825   2.726  0.1319 -0.8396 -0.1209
 3511SOL    HW210660   3.224   4.798   2.845 -2.4504  2.9088 -0.8513
 3512SOL     OW10661   3.912   1.444   0.114  0.2507 -0.3947 -0.3370
 3512SOL    HW110662   3.958   1.377   0.166 -0.5836 -3.4788 -2.9554
 3512SOL    HW210663   3.962   1.449   0.033 -1.5821 -0.5635 -1.5752
 3513SOL     OW10664   0.234   0.738   1.862 -0.3952 -0.2405 -0.0084
 3513SOL    HW110665   0.255   0.797   1.934 -2.0612 -0.3545  0.6773
 3513SOL    HW210666   0.215   0.796   1.788  2.7371 -0.1278 -1.0147
 3514SOL     OW10667   3.176   0.435   3.320  0.0234  0.3113  0.1503
 3514SOL    HW110668   3.095   0.457   3.367 -0.0028  0.6828 -0.0619
 3514SOL    HW210669   3.155   0.448   3.228  0.7392  1.8941  0.1541
 3515SOL     OW10670   3.802   2.879   3.624  0.0708 -0.4302  0.5843
 3515SOL    HW110671   3.724   2.823   3.629 -0.5556  0.4456  1.1151
 3515SOL    HW210672   3.855   2.852   3.698 -0.1980 -0.3638  0.8027
 3516SOL     OW10673   2.405   5.965   1.910 -0.3625  0.3979  0.2259
 3516SOL    HW110674   2.325   5.913   1.901  0.9892 -1.7748 -1.1626
 3516SOL    HW210675   2.448   5.957   1.825  1.0357  2.0766  0.6774
 3517SOL     OW10676   5.127   4.309   2.178 -0.3595 -0.1362  0.4245
 3517SOL    HW110677   5.195   4.247   2.202 -0.5596 -0.7012 -0.3871
 3517SOL    HW210678   5.120   4.302   2.083  0.8758  2.4446 -0.0486
 3518SOL     OW10679   1.597   4.760   3.513 -0.3409 -0.4275 -0.4506
 3518SOL    HW110680   1.576   4.784   3.422 -0.5775 -0.7410 -0.4827
 3518SOL    HW210681   1.513   4.764   3.558 -0.0838  0.6888 -0.0066
 3519SOL     OW10682   4.734   6.322   1.423  0.1544  0.2742 -1.0878
 3519SOL    HW110683   4.814   6.290   1.465 -0.6493 -0.2364  0.1806
 3519SOL    HW210684   4.761   6.348   1.335  1.5121 -0.8180 -1.0495
 3520SOL     OW10685   0.974   5.595   2.214 -0.1632 -0.3033  0.2740
 3520SOL    HW110686   1.043   5.642   2.260 -2.2765  2.9721  0.7745
 3520SOL    HW210687   0.960   5.516   2.267  2.8714 -1.1733  0.1667
 3521SOL     OW10688   3.879   3.027   2.064  0.4800 -0.4142 -0.0022
 3521SOL    HW110689   3.880   3.050   2.157  0.4426 -2.1711  0.5085
 3521SOL    HW210690   3.904   2.935   2.062 -1.4117 -1.0217 -1.5462
 3522SOL     OW10691   3.614   2.319   4.335 -0.1927  0.7337  0.2069
 3522SOL    HW110692   3.650   2.368   4.410  1.4588  0.1181 -0.1072
 3522SOL    HW210693   3.541   2.270   4.372  1.0862 -0.2331  1.7186
 3523SOL     OW10694   1.403   1.010   3.666  0.2585 -0.1515 -0.4571
 3523SOL    HW110695   1.372   1.093   3.630 -2.3232 -0.5280  0.4410
 3523SOL    HW210696   1.459   1.035   3.740 -1.7925  1.0180  0.9051
 3524SOL     OW10697   1.697   5.482   3.253  0.5166 -0.0388 -0.6722
 3524SOL    HW110698   1.704   5.474   3.348 -0.2674  0.4353 -0.5507
 3524SOL    HW210699   1.617   5.434   3.231  0.6056 -0.0119 -1.0707
 3525SOL     OW10700   4.415   3.406   0.143 -0.3139  0.6146 -0.1813
 3525SOL    HW110701   4.486   3.365   0.192 -0.7782 -0.3641 -0.2750
 3525SOL    HW210702   4.452   3.489   0.112  0.3387  0.7606  0.8907
 3526SOL     OW10703   0.764   6.194   3.129  0.9126  0.0521  0.2501
 3526SOL    HW110704   0.714   6.181   3.048  1.1956  1.3250 -0.1712
 3526SOL    HW210705   0.698   6.196   3.198  0.6785 -1.2072  0.1135
 3527SOL     OW10706   4.654   5.257   1.685 -0.4961 -0.1934 -0.1004
 3527SOL    HW110707   4.624   5.263   1.776  0.2816 -0.8585  0.2329
 3527SOL    HW210708   4.593   5.196   1.644 -0.8063  0.0469  0.0008
 3528SOL     OW10709   2.390   4.395   2.594 -0.5688 -1.1181 -0.0639
 3528SOL    HW110710   2.436   4.398   2.510  0.0478 -2.9556  0.1127
 3528SOL    HW210711   2.419   4.313   2.634  0.5466  0.3876  2.7604
 3529SOL     OW10712   4.186   5.227   1.488  0.3276  0.0432  0.2727
 3529SOL    HW110713   4.224   5.159   1.543  0.7122 -0.7841 -0.9478
 3529SOL    HW210714   4.255   5.250   1.427  0.0119  1.1460  0.2889
 3530SOL     OW10715   3.473   2.173   3.620  0.3748  0.2834 -0.0054
 3530SOL    HW110716   3.490   2.267   3.621  1.5732  0.1001 -0.1174
 3530SOL    HW210717   3.395   2.163   3.566  1.0272  1.1195 -1.2016
 3531SOL     OW10718   5.898   0.184   3.472  0.3081  0.3728  0.3008
 3531SOL    HW110719   5.938   0.206   3.388 -0.0374  0.9419  0.2741
 3531SOL    HW210720   5.972   0.172   3.531  0.5385  1.0392  0.1690
 3532SOL     OW10721   4.608   5.569   0.351  0.0747 -0.3273  0.0593
 3532SOL    HW110722   4.633   5.657   0.321  1.8014 -1.1853 -1.4062
 3532SOL    HW210723   4.532   5.547   0.298 -0.9658  0.5471  1.0903
 3533SOL     OW10724   0.702   3.347   4.103  0.0926 -0.5352  0.0253
 3533SOL    HW110725   0.617   3.338   4.062 -0.6872 -1.4783  1.6688
 3533SOL    HW210726   0.688   3.410   4.175  0.7473 -0.7749  0.3814
 3534SOL     OW10727   5.495   5.511   2.201  0.0866 -0.3012 -0.0370
 3534SOL    HW110728   5.555   5.548   2.135  0.3536 -1.4344 -0.4812
 3534SOL    HW210729   5.506   5.416   2.192 -0.0204 -0.5021  1.5243
 3535SOL     OW10730   3.165   5.352   4.501 -0.4602  0.4460  0.5363
 3535SOL    HW110731   3.208   5.389   4.424 -1.2972 -1.3446 -0.9559
 3535SOL    HW210732   3.131   5.428   4.549  0.0450  1.6597 -0.8789
 3536SOL     OW10733   2.921   5.882   3.309 -0.6239 -0.0713  0.6357
 3536SOL    HW110734   2.981   5.957   3.317 -2.0174  1.1455  0.5952
 3536SOL    HW210735   2.972   5.807   3.340  0.8899  0.8607  0.6083
 3537SOL     OW10736   4.707   2.096   0.257  0.0440  0.0413  0.0880
 3537SOL    HW110737   4.779   2.094   0.194  1.0326 -0.1318  1.1474
 3537SOL    HW210738   4.699   2.188   0.281 -0.8383  0.2236 -0.7794
 3538SOL     OW10739   3.207   0.017   1.526 -0.0752 -0.3518 -0.1826
 3538SOL    HW110740   3.284   0.036   1.579 -0.6288  1.5946  0.0691
 3538SOL    HW210741   3.233   0.041   1.437  0.1400 -1.4931 -0.4652
 3539SOL     OW10742   2.730   5.705   0.523 -0.1047 -0.6781  0.0124
 3539SOL    HW110743   2.823   5.725   0.511 -0.2532 -0.3250 -0.5919
 3539SOL    HW210744   2.692   5.786   0.556 -0.6528  0.0878 -2.1672
 3540SOL     OW10745   2.438   2.264   2.157  0.4513  0.2263  0.0396
 3540SOL    HW110746   2.509   2.236   2.099  0.6229  1.5425 -0.4374
 3540SOL    HW210747   2.462   2.228   2.242  1.2951 -0.0026 -0.2715
 3541SOL     OW10748   2.613   4.436   4.510  0.3168 -0.1748 -0.0342
 3541SOL    HW110749   2.570   4.506   4.460  0.3052 -0.7480 -0.8629
 3541SOL    HW210750   2.609   4.360   4.453  2.6248 -0.2350 -0.2644
 3542SOL     OW10751   5.571   5.666   3.077 -0.3394  0.8774 -0.1347
 3542SOL    HW110752   5.493   5.637   3.031  0.5157 -0.8410 -0.6805
 3542SOL    HW210753   5.555   5.642   3.169 -0.5204  0.6941 -0.2136
 3543SOL     OW10754   2.345   1.864   4.258 -0.0410  0.1174  0.2797
 3543SOL    HW110755   2.398   1.814   4.320 -1.6656  0.3287  2.0460
 3543SOL    HW210756   2.297   1.797   4.208 -1.6942 -0.3026  2.1591
 3544SOL     OW10757   0.083   1.978   1.245 -0.5330  0.3005 -0.2619
 3544SOL    HW110758   0.179   1.977   1.237 -0.3125  0.4273  1.4545
 3544SOL    HW210759   0.051   1.951   1.160  1.0555 -0.6142 -0.6456
 3545SOL     OW10760   0.233   5.192   2.623  0.5555  0.0163  0.6539
 3545SOL    HW110761   0.202   5.104   2.644 -0.0065  0.4289  1.7016
 3545SOL    HW210762   0.307   5.178   2.565 -0.2309 -1.1002 -0.1615
 3546SOL     OW10763   2.941   2.154   1.206 -0.1185  0.2404  0.6315
 3546SOL    HW110764   2.880   2.193   1.268 -0.3711  0.5111  0.2224
 3546SOL    HW210765   2.926   2.202   1.124  0.6444  0.3204  0.5200
 3547SOL     OW10766   5.754   5.220   4.208  0.4794  0.1205 -0.4193
 3547SOL    HW110767   5.673   5.170   4.208  1.2703 -1.2713 -0.4538
 3547SOL    HW210768   5.814   5.169   4.263  1.5304  0.7332 -0.9210
 3548SOL     OW10769   2.443   4.339   1.825  0.1435 -0.4489  0.0487
 3548SOL    HW110770   2.500   4.392   1.769 -0.5008 -1.2201 -1.4465
 3548SOL    HW210771   2.458   4.373   1.913 -0.6708  2.6583 -0.7768
 3549SOL     OW10772   4.088   3.360   0.977 -0.0580  0.6068  0.0685
 3549SOL    HW110773   4.145   3.437   0.970  0.4429  0.1959 -0.6570
 3549SOL    HW210774   4.131   3.305   1.042 -0.1255  0.6977  0.1913
 3550SOL     OW10775   3.718   5.855   3.368 -0.3796  0.6164  0.3537
 3550SOL    HW110776   3.707   5.942   3.330 -2.1896 -0.1229 -1.1321
 3550SOL    HW210777   3.686   5.864   3.458 -0.8331  1.4110  0.1317
 3551SOL     OW10778   2.903   2.023   2.949  0.1286  0.0379 -0.0843
 3551SOL    HW110779   2.854   1.948   2.916  2.0966 -1.4464 -0.0049
 3551SOL    HW210780   2.962   2.047   2.878  1.4333 -0.3692  0.7888
 3552SOL     OW10781   0.808   5.428   0.718  0.4738  0.5417 -0.1468
 3552SOL    HW110782   0.771   5.512   0.693 -1.9531 -0.4616 -0.4936
 3552SOL    HW210783   0.783   5.368   0.647  0.5973 -0.7694  0.8325
 3553SOL     OW10784   5.339   4.857   1.535 -0.1201 -0.4627 -0.3949
 3553SOL    HW110785   5.275   4.805   1.486  0.9392 -0.6498 -1.6753
 3553SOL    HW210786   5.329   4.827   1.626 -2.4547  0.1901 -0.3046
 3554SOL     OW10787   0.513   1.711   0.117 -0.2053 -0.1947  0.1429
 3554SOL    HW110788   0.448   1.702   0.048 -0.0139  1.6482 -0.3751
 3554SOL    HW210789   0.555   1.795   0.100 -0.7958  0.9098  3.0030
 3555SOL     OW10790   5.279   2.320   3.427  0.2723  0.2344 -0.6587
 3555SOL    HW110791   5.339   2.247   3.415 -1.5251 -1.9045  1.3702
 3555SOL    HW210792   5.200   2.294   3.381  0.1334  1.9616 -1.5353
 3556SOL     OW10793   1.334   2.608   1.386  0.5735 -0.0450 -0.3206
 3556SOL    HW110794   1.361   2.696   1.412  0.3897  0.0054 -0.2993
 3556SOL    HW210795   1.341   2.607   1.291 -0.2882  0.2887 -0.4094
 3557SOL     OW10796   3.062   2.132   2.739  0.3234 -0.1730  0.4079
 3557SOL    HW110797   3.081   2.211   2.688 -0.8323  0.1388  0.3992
 3557SOL    HW210798   3.080   2.059   2.680 -0.5256  0.1660 -0.3064
 3558SOL     OW10799   0.587   5.513   4.057 -0.0226  0.6385 -0.0196
 3558SOL    HW110800   0.678   5.497   4.082 -0.1049 -1.3284 -0.6500
 3558SOL    HW210801   0.547   5.427   4.054 -1.0316  0.9819 -2.8948
 3559SOL     OW10802   6.228   0.774   4.522 -0.0576 -0.3316  0.0791
 3559SOL    HW110803   6.292   0.759   4.452 -0.7671  0.6750 -0.8638
 3559SOL    HW210804   6.167   0.701   4.514 -0.9056  0.4513 -1.3511
 3560SOL     OW10805   3.848   0.138   0.070  0.2523 -0.3750  0.1656
 3560SOL    HW110806   3.930   0.101   0.104  0.5362  0.5678  0.5760
 3560SOL    HW210807   3.874   0.181  -0.012 -0.2878 -1.9795 -0.9384
 3561SOL     OW10808   3.008   3.228   2.710 -0.1929  0.0044  0.3999
 3561SOL    HW110809   3.056   3.281   2.774  0.0436 -1.5069  1.5773
 3561SOL    HW210810   3.075   3.172   2.671 -0.4689  0.3564 -0.6374
 3562SOL     OW10811   5.925   3.240   2.798 -0.2568  0.1015  0.4606
 3562SOL    HW110812   6.001   3.296   2.781  0.1864 -0.0112  1.8257
 3562SOL    HW210813   5.881   3.233   2.714  1.0630  0.4414 -0.3147
 3563SOL     OW10814   5.695   5.835   3.715  0.2604  0.0210  0.7800
 3563SOL    HW110815   5.720   5.927   3.722 -0.7996  0.2673  2.0999
 3563SOL    HW210816   5.688   5.805   3.806 -1.9604 -0.5792  0.5182
 3564SOL     OW10817   1.536   3.050   4.456  0.0658 -0.4071  0.4435
 3564SOL    HW110818   1.469   3.074   4.392  0.7080  0.0220 -0.0930
 3564SOL    HW210819   1.594   2.990   4.409  2.5764  2.4316 -0.7616
 3565SOL     OW10820   5.975   5.416   2.770 -0.4116 -0.7901  0.6013
 3565SOL    HW110821   5.933   5.498   2.744  1.2016 -0.3397 -1.1270
 3565SOL    HW210822   6.010   5.381   2.688  1.1993 -1.8478  1.6224
 3566SOL     OW10823   0.625   1.689   2.351  0.4441 -0.0424 -0.3873
 3566SOL    HW110824   0.639   1.768   2.404  1.9009 -0.1181 -0.5710
 3566SOL    HW210825   0.654   1.715   2.263 -0.7139 -0.3009 -0.8799
 3567SOL     OW10826   1.337   5.802   3.325 -0.2846 -0.3604 -0.3636
 3567SOL    HW110827   1.357   5.708   3.322  1.6159 -0.2578  2.1890
 3567SOL    HW210828   1.283   5.812   3.404  0.1768  0.7344 -0.1496
 3568SOL     OW10829   3.876   4.703   0.487 -0.2776 -0.5811 -0.7040
 3568SOL    HW110830   3.891   4.616   0.450  1.0798 -0.3993 -0.6934
 3568SOL    HW210831   3.865   4.760   0.411 -0.8965 -0.7053 -0.7166
 3569SOL     OW10832   1.705   0.374   1.292  0.4255  0.2447  0.2005
 3569SOL    HW110833   1.778   0.419   1.334 -0.0445 -0.3222  1.7591
 3569SOL    HW210834   1.634   0.380   1.355 -0.3684 -0.6534 -0.5506
 3570SOL     OW10835   2.197   5.272   0.173  0.0613 -0.2125  0.6754
 3570SOL    HW110836   2.235   5.289   0.259 -1.2702  0.6100  1.1509
 3570SOL    HW210837   2.120   5.328   0.168  0.0551 -0.2560 -1.0547
 3571SOL     OW10838   6.414   2.382   4.476 -0.5564  0.0431  0.0029
 3571SOL    HW110839   6.413   2.313   4.410 -0.4569 -1.7487  1.6844
 3571SOL    HW210840   6.504   2.413   4.478 -0.8460  1.3285 -1.6498
 3572SOL     OW10841   4.388   2.681   4.310  0.2497  0.7246  0.2113
 3572SOL    HW110842   4.466   2.636   4.343 -0.1288  0.8431  1.3652
 3572SOL    HW210843   4.385   2.658   4.218  1.1200 -0.0608  0.3393
 3573SOL     OW10844   4.085   0.536   3.948  0.0472  0.3974  0.2544
 3573SOL    HW110845   4.040   0.541   3.864 -0.4017 -0.9236  0.3747
 3573SOL    HW210846   4.178   0.533   3.926  0.0174  1.4035 -0.0939
 3574SOL     OW10847   1.037   1.165   2.503 -0.0532 -0.0186  0.1021
 3574SOL    HW110848   0.964   1.154   2.442  0.0209  0.1484 -0.0189
 3574SOL    HW210849   1.034   1.087   2.558 -0.5200  0.1325  0.3069
 3575SOL     OW10850   5.574   4.824   4.030  0.8800 -0.6136 -0.1153
 3575SOL    HW110851   5.519   4.867   4.096 -1.7722 -0.9254 -1.8320
 3575SOL    HW210852   5.658   4.869   4.036  0.2565  0.5746  2.1762
 3576SOL     OW10853   0.625   4.915   3.064  0.4436 -0.0358  0.8440
 3576SOL    HW110854   0.597   4.838   3.115 -0.3601 -0.4767 -0.1929
 3576SOL    HW210855   0.628   4.884   2.974  0.8739  0.9673  0.4849
 3577SOL     OW10856   0.556   2.221   3.353 -0.0461  0.5679 -0.2221
 3577SOL    HW110857   0.505   2.174   3.287  0.3336  2.2168 -1.8753
 3577SOL    HW210858   0.492   2.268   3.406 -0.5176  2.7080 -2.3371
 3578SOL     OW10859   0.989   0.637   3.923 -0.4227 -0.3304  0.3336
 3578SOL    HW110860   1.067   0.595   3.957  1.7094  1.4760 -1.6392
 3578SOL    HW210861   0.992   0.726   3.959 -1.4810 -0.1397  0.0243
 3579SOL     OW10862   5.081   2.631   0.795 -0.4396 -0.1095 -0.2297
 3579SOL    HW110863   5.055   2.715   0.834 -2.6661 -0.9179  0.3214
 3579SOL    HW210864   5.121   2.582   0.867 -0.4451 -0.0284 -0.1713
 3580SOL     OW10865   4.175   1.554   3.845 -0.1946  0.1246  0.2547
 3580SOL    HW110866   4.181   1.567   3.940 -1.9379  4.5626  0.2294
 3580SOL    HW210867   4.248   1.604   3.809 -0.6880  0.2498 -0.6454
 3581SOL     OW10868   0.127   3.839   0.428  0.2554 -0.1002  0.0798
 3581SOL    HW110869   0.161   3.800   0.508 -0.0970  0.2383  0.4012
 3581SOL    HW210870   0.035   3.813   0.426  0.4097 -0.6660 -0.5660
 3582SOL     OW10871   1.145   2.793   1.192 -0.3308 -0.4329 -0.1651
 3582SOL    HW110872   1.189   2.717   1.153  2.4717  1.6547 -1.8035
 3582SOL    HW210873   1.213   2.837   1.244 -1.3214  1.6349 -0.4066
 3583SOL     OW10874   3.596   2.757   2.447 -0.2237 -0.2509  0.1478
 3583SOL    HW110875   3.560   2.696   2.511  1.6698 -0.6582  0.9762
 3583SOL    HW210876   3.614   2.837   2.497  1.7888 -0.7551  0.4275
 3584SOL     OW10877   4.500   2.660   0.765 -0.8815  0.1066  0.3180
 3584SOL    HW110878   4.469   2.602   0.695  0.0348 -0.0194 -0.0079
 3584SOL    HW210879   4.425   2.718   0.783 -1.3946 -0.3640 -0.2147
 3585SOL     OW10880   3.376   0.256   3.375 -0.5884 -0.0514  0.4066
 3585SOL    HW110881   3.426   0.223   3.300  1.7976  2.0513  0.8019
 3585SOL    HW210882   3.318   0.322   3.337 -0.0448  0.3694  0.2837
 3586SOL     OW10883   2.907   3.355   3.856 -0.0111 -0.3740 -0.2784
 3586SOL    HW110884   2.888   3.444   3.885 -1.6358 -0.3989 -0.9976
 3586SOL    HW210885   2.829   3.305   3.881  0.8048 -1.5878  0.0041
 3587SOL     OW10886   5.791   0.328   3.677  0.3917  0.7028 -0.6004
 3587SOL    HW110887   5.824   0.275   3.604 -0.1976 -0.1445 -0.2867
 3587SOL    HW210888   5.769   0.265   3.745  0.2350  1.4142  0.0398
 3588SOL     OW10889   3.361   1.121   3.979  0.4976  0.1706 -0.0768
 3588SOL    HW110890   3.313   1.059   4.034 -2.3227 -0.2682 -2.5225
 3588SOL    HW210891   3.444   1.076   3.960  0.0892 -1.1915  1.0101
 3589SOL     OW10892   1.760   4.442   2.836 -0.6083 -0.5094  1.1778
 3589SOL    HW110893   1.754   4.377   2.905 -1.1022 -1.4499  0.3020
 3589SOL    HW210894   1.821   4.405   2.772 -1.8281 -0.7556  0.0661
 3590SOL     OW10895   6.118   1.176   3.375 -0.3219  0.4228  0.1033
 3590SOL    HW110896   6.177   1.216   3.312 -1.5135 -0.3987 -1.7242
 3590SOL    HW210897   6.101   1.088   3.339 -1.1760 -0.0740  1.5518
 3591SOL     OW10898   2.258   6.285   0.899 -0.0276  0.0923  0.1372
 3591SOL    HW110899   2.186   6.290   0.835 -0.7083  0.7057  0.9106
 3591SOL    HW210900   2.222   6.232   0.970  2.0163 -4.5167 -1.4664
 3592SOL     OW10901   0.853   5.511   1.348 -0.1143  0.2540 -0.0157
 3592SOL    HW110902   0.893   5.545   1.267  0.0053  0.7164  0.2272
 3592SOL    HW210903   0.784   5.452   1.318 -1.4894  1.9419 -0.5638
 3593SOL     OW10904   5.685   3.359   3.908  0.1705 -0.2831  0.0400
 3593SOL    HW110905   5.651   3.433   3.959 -1.1611  0.4760 -1.7294
 3593SOL    HW210906   5.630   3.357   3.830  1.4152 -1.9743 -0.9176
 3594SOL     OW10907   1.987   1.046   0.455  0.2011  0.1262  0.3869
 3594SOL    HW110908   1.954   1.105   0.523  1.1534  1.8357 -0.5005
 3594SOL    HW210909   1.962   1.087   0.373  1.1673 -0.5644 -0.3004
 3595SOL     OW10910   3.298   4.679   2.594 -0.4802  0.3834  0.7930
 3595SOL    HW110911   3.247   4.639   2.665 -1.4864  0.8782  0.3890
 3595SOL    HW210912   3.272   4.632   2.516  0.1845  0.2324  0.6456
 3596SOL     OW10913   6.208   2.234   2.842  0.6972  0.5857 -0.4709
 3596SOL    HW110914   6.150   2.286   2.898  0.7204  0.4209 -0.2890
 3596SOL    HW210915   6.289   2.227   2.893  0.7483  0.5051 -0.5636
 3597SOL     OW10916   1.049   4.146   1.610 -0.0726  0.1649 -0.5753
 3597SOL    HW110917   0.998   4.216   1.651 -0.0422 -0.6110  0.9280
 3597SOL    HW210918   1.081   4.093   1.683  0.5916 -0.9579 -1.5980
 3598SOL     OW10919   1.804   4.704   2.826 -0.5634 -0.3849  0.2534
 3598SOL    HW110920   1.771   4.615   2.840 -1.7968 -0.0339 -0.1444
 3598SOL    HW210921   1.888   4.692   2.781 -0.6688 -1.3453  0.2795
 3599SOL     OW10922   2.097   5.122   2.852 -0.0796  0.6354 -0.2627
 3599SOL    HW110923   2.174   5.124   2.794  1.9080 -0.3855  1.9871
 3599SOL    HW210924   2.102   5.205   2.900  0.8070 -0.1208  1.0789
 3600SOL     OW10925   2.267   5.836   2.560 -0.5190  0.6785 -0.6904
 3600SOL    HW110926   2.319   5.761   2.530  1.1155  0.9445  1.0719
 3600SOL    HW210927   2.179   5.820   2.525  0.0545 -1.3161 -1.5265
 3601SOL     OW10928   3.989   4.923   3.498  0.3979  0.9352  0.2867
 3601SOL    HW110929   3.943   4.974   3.565  0.2936  0.2154  0.7888
 3601SOL    HW210930   3.964   4.833   3.516 -0.2295  0.7559 -1.1896
 3602SOL     OW10931   6.371   3.685   1.887  0.5283 -0.1615  0.6633
 3602SOL    HW110932   6.340   3.625   1.956  0.8598  0.7168  1.6242
 3602SOL    HW210933   6.440   3.736   1.929 -0.0670  1.2425  0.0438
 3603SOL     OW10934   2.088   4.191   4.127 -0.4194  0.1571  0.0304
 3603SOL    HW110935   2.039   4.113   4.153 -1.2431  1.2438  2.2354
 3603SOL    HW210936   2.170   4.185   4.176  0.3972 -0.1513 -1.2675
 3604SOL     OW10937   1.444   1.264   0.414 -0.4055 -0.0006 -0.1262
 3604SOL    HW110938   1.391   1.292   0.340 -0.1251  0.4463 -0.1642
 3604SOL    HW210939   1.486   1.344   0.446 -0.4781 -0.1945  0.4827
 3605SOL     OW10940   3.157   5.436   1.049  0.0066  0.4027  0.2627
 3605SOL    HW110941   3.222   5.499   1.018  0.2595  0.2605  0.5038
 3605SOL    HW210942   3.206   5.374   1.102  0.0439 -0.8812 -1.1569
 3606SOL     OW10943   5.560   1.183   4.287 -0.0084  0.0080 -0.6517
 3606SOL    HW110944   5.465   1.195   4.282 -0.0590 -0.1091 -0.1208
 3606SOL    HW210945   5.583   1.137   4.206 -0.3072  0.5804 -1.0755
 3607SOL     OW10946   4.461   2.009   0.001 -0.1230 -0.0628  1.0264
 3607SOL    HW110947   4.428   2.019   0.090 -0.8961 -1.9476  1.0410
 3607SOL    HW210948   4.547   2.050   0.003 -1.3656  3.0187  1.6277
 3608SOL     OW10949   2.808   5.739   1.433  0.3468  0.0480  0.9198
 3608SOL    HW110950   2.739   5.802   1.453 -1.5569 -1.6586  0.4050
 3608SOL    HW210951   2.819   5.688   1.513  0.2514 -0.3241  0.7042
 3609SOL     OW10952   1.955   4.737   0.290  0.3813 -0.3044  0.0843
 3609SOL    HW110953   1.932   4.807   0.351 -0.7993 -0.3150 -0.2925
 3609SOL    HW210954   1.900   4.663   0.317 -0.3704 -0.2309 -1.0863
 3610SOL     OW10955   4.658   3.469   1.134  0.2988 -0.2697  0.0754
 3610SOL    HW110956   4.566   3.466   1.159  0.4269  3.5287  2.9254
 3610SOL    HW210957   4.705   3.442   1.214  1.2610  2.0778  0.4923
 3611SOL     OW10958   3.502   0.044   0.841  0.1185 -1.3083  0.1742
 3611SOL    HW110959   3.484  -0.016   0.768 -1.2760  0.7154 -1.3707
 3611SOL    HW210960   3.580   0.092   0.814  0.4306 -1.4785  0.7435
 3612SOL     OW10961   3.290   1.146   3.233 -0.3252  0.1856  0.1222
 3612SOL    HW110962   3.301   1.089   3.310  0.7564  0.8538  0.5194
 3612SOL    HW210963   3.375   1.142   3.189 -0.3479  1.1592 -0.0534
 3613SOL     OW10964   2.984   3.982   0.367  0.0250  0.3983  0.7551
 3613SOL    HW110965   2.951   4.071   0.379 -0.2150  0.5511 -0.6749
 3613SOL    HW210966   2.908   3.926   0.380 -0.1592  0.5261  0.2531
 3614SOL     OW10967   2.877   1.581   3.896  0.1555  0.0365 -0.5201
 3614SOL    HW110968   2.794   1.537   3.879  0.4679 -0.9566  0.3358
 3614SOL    HW210969   2.941   1.511   3.904  0.8942  0.7131 -0.1988
 3615SOL     OW10970   1.334   1.444   4.080  0.3263 -0.2057  0.2661
 3615SOL    HW110971   1.242   1.469   4.070  0.3841  0.2223  0.6878
 3615SOL    HW210972   1.382   1.527   4.075  0.7090 -0.4454 -0.1312
 3616SOL     OW10973   3.580   5.449   2.504  0.2837  0.3254  0.2760
 3616SOL    HW110974   3.507   5.401   2.544 -0.4066 -0.6839 -1.8567
 3616SOL    HW210975   3.548   5.539   2.497  1.0302  0.9855  3.0430
 3617SOL     OW10976   0.674   2.729   0.062  0.5154 -0.5214 -0.3766
 3617SOL    HW110977   0.709   2.817   0.079  1.5271 -0.9238 -0.2138
 3617SOL    HW210978   0.748   2.681   0.025 -0.5575 -0.7632 -2.4718
 3618SOL     OW10979   1.055   3.958   0.199 -0.0865 -0.0061  0.1354
 3618SOL    HW110980   1.124   4.013   0.162 -1.4049  2.5106  0.9145
 3618SOL    HW210981   1.095   3.872   0.206  2.5377  0.9386 -0.5619
 3619SOL     OW10982   0.680   4.660   2.128  0.3881 -0.3771 -0.0693
 3619SOL    HW110983   0.598   4.615   2.150  0.2955 -0.1023  0.1759
 3619SOL    HW210984   0.692   4.645   2.035  0.3346 -0.8629 -0.0006
 3620SOL     OW10985   2.494   2.529   2.090 -0.0383  0.0037  0.0972
 3620SOL    HW110986   2.433   2.459   2.113  0.2705 -0.5817 -0.7580
 3620SOL    HW210987   2.545   2.494   2.017  1.1091  0.5861  0.5596
 3621SOL     OW10988   0.957   4.745   2.221  0.7412  0.4090  0.2223
 3621SOL    HW110989   0.912   4.713   2.142 -0.3388  0.6099  0.7306
 3621SOL    HW210990   1.049   4.754   2.193  0.6231 -0.6358 -0.6768
 3622SOL     OW10991   3.022   5.351   1.612 -0.1213  0.3587  0.4514
 3622SOL    HW110992   2.960   5.390   1.674 -1.6472  0.5936 -1.0442
 3622SOL    HW210993   3.077   5.424   1.584 -0.3769  0.5764  0.5085
 3623SOL     OW10994   5.303   2.244   2.897  0.0484 -0.4326  0.5856
 3623SOL    HW110995   5.350   2.165   2.868 -1.2852 -1.3633  0.7681
 3623SOL    HW210996   5.211   2.225   2.877 -0.2434  1.6919 -0.6916
 3624SOL     OW10997   1.443   0.125   0.141 -0.0477 -0.4438  0.2898
 3624SOL    HW110998   1.532   0.093   0.158  0.5246 -0.4259 -2.0359
 3624SOL    HW210999   1.440   0.139   0.046 -1.6195  2.3460  0.5320
 3625SOL     OW11000   0.164   6.235   0.571 -0.4135 -0.1223  0.0474
 3625SOL    HW111001   0.122   6.294   0.634  0.4990  1.6506 -0.8439
 3625SOL    HW211002   0.257   6.254   0.580  0.0922 -2.2652  0.3917
 3626SOL     OW11003   4.603   5.832   2.277 -0.0951 -0.6331  0.6182
 3626SOL    HW111004   4.666   5.769   2.241  0.3266 -0.1627  0.5184
 3626SOL    HW211005   4.519   5.787   2.270 -0.4738  0.0517 -2.8807
 3627SOL     OW11006   5.083   2.231   2.152 -0.1862 -0.2432  0.1486
 3627SOL    HW111007   5.175   2.247   2.132 -0.4347  3.5503  0.5300
 3627SOL    HW211008   5.043   2.211   2.068  0.7948 -0.5255 -0.2758
 3628SOL     OW11009   4.534   5.983   2.967 -0.3588 -0.1398  0.0585
 3628SOL    HW111010   4.531   5.935   3.049 -0.8859 -1.4950 -0.6893
 3628SOL    HW211011   4.623   6.019   2.964  0.4437 -1.8835  0.2858
 3629SOL     OW11012   1.487   3.729   3.335 -0.1499 -0.2390  0.6430
 3629SOL    HW111013   1.579   3.741   3.359 -0.1771  0.6088  0.3959
 3629SOL    HW211014   1.441   3.802   3.377 -0.2754  0.9962 -1.3655
 3630SOL     OW11015   4.965   1.216   1.950 -0.5591  0.4997 -0.1980
 3630SOL    HW111016   4.932   1.292   1.998  1.2162  0.9344  0.4923
 3630SOL    HW211017   5.058   1.233   1.940  0.4245 -2.3001  1.6025
 3631SOL     OW11018   0.665   0.553   1.809  0.4495  0.1025 -0.3638
 3631SOL    HW111019   0.715   0.534   1.888 -0.3137  0.6260  0.2805
 3631SOL    HW211020   0.647   0.467   1.770 -0.9957 -0.4225  1.2295
 3632SOL     OW11021   0.743   1.771   2.758 -0.0947 -0.8161  0.5839
 3632SOL    HW111022   0.785   1.768   2.844  0.0117  0.8999  0.6588
 3632SOL    HW211023   0.675   1.704   2.762  1.0258 -2.0051  1.3274
 3633SOL     OW11024   1.549   6.040   1.647  0.0741  0.1150 -0.3123
 3633SOL    HW111025   1.645   6.042   1.652  0.2622  2.3223 -1.8112
 3633SOL    HW211026   1.530   5.970   1.585  0.5804 -0.9853  0.7094
 3634SOL     OW11027   4.758   3.040   3.003  0.1448 -0.6650  0.2686
 3634SOL    HW111028   4.701   3.013   2.931 -1.2217  1.0984  0.5614
 3634SOL    HW211029   4.703   3.035   3.081  0.5549  0.4745  0.6743
 3635SOL     OW11030   1.626   3.637   1.880  0.0513 -0.3486 -0.2313
 3635SOL    HW111031   1.711   3.661   1.917  0.8017 -3.4828  0.7576
 3635SOL    HW211032   1.646   3.604   1.793 -0.3870 -0.0534 -0.4504
 3636SOL     OW11033   2.136   1.191   2.731  0.1289 -0.3916  0.1107
 3636SOL    HW111034   2.114   1.178   2.639 -1.0468  1.0422  0.1157
 3636SOL    HW211035   2.210   1.251   2.730 -0.9165  0.9957  0.0157
 3637SOL     OW11036   2.283   3.683   2.258 -0.0826 -0.2925  0.1811
 3637SOL    HW111037   2.347   3.655   2.193  0.1429  0.1160  0.2213
 3637SOL    HW211038   2.225   3.608   2.268 -1.1349  0.1320 -1.7069
 3638SOL     OW11039   5.108   5.902   1.517  0.1248 -0.2589 -0.2674
 3638SOL    HW111040   5.155   5.914   1.435 -0.3258  1.8149 -0.3476
 3638SOL    HW211041   5.018   5.926   1.497  0.3406  2.6227  1.0748
 3639SOL     OW11042   0.225   5.938   0.744 -0.1911 -0.3314 -0.0166
 3639SOL    HW111043   0.145   5.925   0.692 -0.6951 -0.2937  0.7134
 3639SOL    HW211044   0.215   6.025   0.781  0.8972  0.2839 -1.0466
 3640SOL     OW11045   4.988   1.012   1.541 -0.5094 -0.2860 -0.0698
 3640SOL    HW111046   5.054   1.080   1.551 -1.9235  1.5382 -1.5888
 3640SOL    HW211047   4.911   1.058   1.507 -1.9037 -2.5553 -0.4298
 3641SOL     OW11048   0.158   5.231   4.291 -0.1194  0.6204 -0.0799
 3641SOL    HW111049   0.157   5.242   4.386 -0.0940  0.2952 -0.0380
 3641SOL    HW211050   0.154   5.320   4.256 -2.3916  0.7607  0.2052
 3642SOL     OW11051   2.647   0.212   0.232 -0.0968  0.1013  0.1785
 3642SOL    HW111052   2.735   0.208   0.194  0.3922 -0.9922  1.3080
 3642SOL    HW211053   2.604   0.131   0.205 -0.1503 -0.1472  0.9482
 3643SOL     OW11054   1.237   1.235   3.670 -0.0335  0.1925  0.2329
 3643SOL    HW111055   1.199   1.222   3.757 -0.8473  0.1164 -0.1174
 3643SOL    HW211056   1.211   1.324   3.646  1.1900  0.6744  0.5245
 3644SOL     OW11057   2.240   4.126   3.314 -0.4835 -0.5862 -0.4851
 3644SOL    HW111058   2.314   4.155   3.367 -0.1315 -1.5177 -0.4273
 3644SOL    HW211059   2.279   4.097   3.232 -0.9224 -0.0383 -0.9036
 3645SOL     OW11060   5.096   6.054   0.086  0.5215  0.0892 -0.2065
 3645SOL    HW111061   5.131   6.059  -0.003 -0.2272 -0.1713 -0.5314
 3645SOL    HW211062   5.155   5.994   0.131  1.0370  0.3924 -0.4571
 3646SOL     OW11063   1.869   3.593   0.827  0.2500 -0.0389  0.1657
 3646SOL    HW111064   1.939   3.598   0.763  2.3392 -1.4320  2.0657
 3646SOL    HW211065   1.833   3.505   0.817 -1.6234  0.7098 -0.9251
 3647SOL     OW11066   2.026   6.111   3.673  0.5218  0.2730 -0.3198
 3647SOL    HW111067   1.934   6.138   3.669  0.4192  0.8748  2.3000
 3647SOL    HW211068   2.074   6.193   3.692  1.4487 -0.1972 -0.5021
 3648SOL     OW11069   1.061   1.439   3.902  0.0139 -0.1339 -0.6118
 3648SOL    HW111070   1.085   1.347   3.907 -2.4574 -0.9002 -0.3492
 3648SOL    HW211071   0.965   1.440   3.904 -0.1169  2.4623 -0.6164
 3649SOL     OW11072   1.776   2.385   3.621 -0.7525  0.2433 -0.0849
 3649SOL    HW111073   1.772   2.390   3.716 -2.8552  1.0077 -0.0981
 3649SOL    HW211074   1.719   2.312   3.598  1.5110 -1.5121 -0.8324
 3650SOL     OW11075   0.327   1.375   3.959  0.0521  0.2086  0.7214
 3650SOL    HW111076   0.355   1.314   4.027 -0.3388 -0.2660  0.4697
 3650SOL    HW211077   0.406   1.391   3.907 -0.2883 -2.4939 -1.0786
 3651SOL     OW11078   4.988   2.460   0.385 -0.0542  0.2476  0.0423
 3651SOL    HW111079   5.023   2.527   0.327 -1.4877 -0.2468 -1.5746
 3651SOL    HW211080   5.032   2.379   0.358 -0.8995 -0.0276 -0.5887
 3652SOL     OW11081   1.219   6.198   2.424 -0.3563  0.0848 -0.3419
 3652SOL    HW111082   1.179   6.125   2.376  1.6858 -1.0005 -0.6185
 3652SOL    HW211083   1.282   6.236   2.363 -1.3580  2.2539 -0.2263
 3653SOL     OW11084   3.125   2.540   1.694  0.4277 -0.3171  0.0118
 3653SOL    HW111085   3.112   2.622   1.741 -0.5219 -0.1551 -0.5039
 3653SOL    HW211086   3.086   2.554   1.608  1.7747 -0.7375 -0.7278
 3654SOL     OW11087   3.880   3.020   3.081  0.7711  0.3171 -0.4537
 3654SOL    HW111088   3.935   3.004   3.159  1.9775  2.8107 -0.6012
 3654SOL    HW211089   3.796   3.049   3.117  1.0421  0.6735 -0.0899
 3655SOL     OW11090   5.751   0.825   1.020  0.0007  0.0987 -0.1857
 3655SOL    HW111091   5.805   0.792   1.092  0.7828 -0.8501 -1.1412
 3655SOL    HW211092   5.706   0.901   1.057  0.4148 -0.2996  1.2644
 3656SOL     OW11093   0.983   0.557   4.308  0.6085  0.0545  0.0256
 3656SOL    HW111094   1.014   0.594   4.226 -0.3679 -1.7361 -1.2945
 3656SOL    HW211095   1.035   0.478   4.320  0.0107 -0.2842  0.5365
 3657SOL     OW11096   5.910   4.113   3.632 -0.3423 -0.1582 -0.5658
 3657SOL    HW111097   5.934   4.115   3.540 -0.6874  0.6203 -0.6606
 3657SOL    HW211098   5.980   4.161   3.676 -1.0991  1.1795 -0.7046
 3658SOL     OW11099   6.232   0.416   2.840  0.0685  0.6880  0.1272
 3658SOL    HW111100   6.317   0.459   2.842  0.6740 -0.4378 -0.0867
 3658SOL    HW211101   6.194   0.443   2.755  0.4043  0.8252  0.0173
 3659SOL     OW11102   0.188   5.504   2.803  0.3395 -0.7522 -0.6575
 3659SOL    HW111103   0.196   5.537   2.892  1.9357  0.4147 -1.1294
 3659SOL    HW211104   0.095   5.484   2.793 -0.0822  0.0490  0.9306
 3660SOL     OW11105   1.707   2.783   2.118 -0.2508  0.4276 -0.1807
 3660SOL    HW111106   1.707   2.743   2.205  0.4297  1.4540  0.3347
 3660SOL    HW211107   1.636   2.848   2.121 -0.9393 -0.2638 -0.7896
 3661SOL     OW11108   3.798   5.561   4.461 -0.2055  0.3492 -0.1600
 3661SOL    HW111109   3.877   5.559   4.515 -0.0758  0.1433 -0.3534
 3661SOL    HW211110   3.825   5.603   4.380  0.6947 -2.5920 -1.6939
 3662SOL     OW11111   3.526   1.425   4.043  0.0393  0.3558  0.6521
 3662SOL    HW111112   3.558   1.471   3.965  0.4419 -0.8486  0.0536
 3662SOL    HW211113   3.588   1.352   4.054 -0.7667 -0.2628  1.3116
 3663SOL     OW11114   5.837   3.920   4.209  0.0343 -0.6635  0.2931
 3663SOL    HW111115   5.812   3.887   4.123  0.8492 -0.8394  0.1126
 3663SOL    HW211116   5.930   3.942   4.201 -0.2381  0.8505  0.6684
 3664SOL     OW11117   0.969   2.447   1.049  0.2214  0.4444 -0.1936
 3664SOL    HW111118   1.053   2.459   1.004  0.3180  0.4258 -0.0240
 3664SOL    HW211119   0.903   2.467   0.983  0.3510  2.4514  0.1497
 3665SOL     OW11120   2.039   4.449   0.612  0.1881 -0.6873 -0.2979
 3665SOL    HW111121   2.123   4.482   0.644  0.4430 -2.3986  1.1557
 3665SOL    HW211122   2.058   4.413   0.525  0.4090  0.7457 -0.8911
 3666SOL     OW11123   4.705   0.530   1.889 -0.0378 -0.0764  0.0243
 3666SOL    HW111124   4.769   0.562   1.953 -0.7635 -0.2023  0.8613
 3666SOL    HW211125   4.648   0.472   1.940  0.1545 -1.2844 -1.0349
 3667SOL     OW11126   4.300   5.393   1.279  0.2413 -0.2308  0.0620
 3667SOL    HW111127   4.375   5.452   1.291  0.7414 -1.1178  1.8342
 3667SOL    HW211128   4.238   5.420   1.346 -0.0264 -0.9543  0.1172
 3668SOL     OW11129   4.418   2.027   3.235  0.5052  0.6423  0.3590
 3668SOL    HW111130   4.418   1.942   3.278  1.4783 -0.2060 -1.1679
 3668SOL    HW211131   4.492   2.074   3.274  1.2649 -0.0438 -0.1987
 3669SOL     OW11132   1.194   6.138   3.454  0.0293  0.2760  0.4368
 3669SOL    HW111133   1.181   6.232   3.443  2.0564  0.5700 -0.5199
 3669SOL    HW211134   1.122   6.097   3.407 -0.0485  1.4144 -0.5168
 3670SOL     OW11135   2.785   5.428   4.441 -0.4325 -0.0084 -0.4847
 3670SOL    HW111136   2.868   5.433   4.489 -0.3710 -0.2424 -0.5650
 3670SOL    HW211137   2.750   5.517   4.446 -1.4507 -0.3834  1.7627
 3671SOL     OW11138   3.539   3.148   1.794  0.2138  0.3521  0.2229
 3671SOL    HW111139   3.580   3.063   1.808  1.0255  0.2761 -1.8611
 3671SOL    HW211140   3.475   3.156   1.865  0.2545 -1.8720  0.6522
 3672SOL     OW11141   2.049   6.317   0.167  0.4987  0.0166 -0.0523
 3672SOL    HW111142   2.040   6.321   0.072  1.5222 -0.8943 -0.2251
 3672SOL    HW211143   2.112   6.247   0.182 -0.0313 -0.2222  1.3339
 3673SOL     OW11144   3.214   1.412   3.211  0.7875 -0.0815  0.2435
 3673SOL    HW111145   3.138   1.402   3.267 -3.4855  1.0245 -4.0222
 3673SOL    HW211146   3.234   1.322   3.182  1.0955 -0.3679  1.2632
 3674SOL     OW11147   0.648   2.891   1.046 -0.0056  0.1059 -0.3987
 3674SOL    HW111148   0.619   2.828   0.980 -0.2042  0.4534 -0.6473
 3674SOL    HW211149   0.727   2.851   1.083 -0.6798 -0.7700  0.1689
 3675SOL     OW11150   0.535   5.572   1.617 -0.3837 -0.2554  0.5670
 3675SOL    HW111151   0.621   5.530   1.631 -0.4618 -0.5239  0.2804
 3675SOL    HW211152   0.473   5.514   1.662 -0.2842  0.7597  2.1754
 3676SOL     OW11153   4.965   0.267   2.367  0.2955  0.1654 -0.0287
 3676SOL    HW111154   5.019   0.196   2.331  0.4968 -0.3199  1.1555
 3676SOL    HW211155   4.926   0.229   2.445  1.6348  1.7932  1.5824
 3677SOL     OW11156   3.771   5.449   3.416 -0.4882  0.6621 -0.1955
 3677SOL    HW111157   3.736   5.497   3.491 -0.7732 -1.5034  1.2487
 3677SOL    HW211158   3.700   5.452   3.351 -1.7235 -0.1124  1.0000
 3678SOL     OW11159   5.964   1.223   4.368 -0.4704 -0.6629 -0.6918
 3678SOL    HW111160   6.055   1.234   4.395 -0.4588 -0.2217 -0.8860
 3678SOL    HW211161   5.965   1.146   4.311  0.3816  0.8970 -3.1134
 3679SOL     OW11162   2.138   0.939   4.368  0.3696  0.0411 -0.4117
 3679SOL    HW111163   2.146   1.034   4.377  0.5047 -0.0731  1.7771
 3679SOL    HW211164   2.095   0.911   4.449 -1.2359 -1.6622 -1.6804
 3680SOL     OW11165   5.668   5.733   1.082 -0.1222  0.1636  0.0235
 3680SOL    HW111166   5.587   5.736   1.032  0.4225  3.9596 -1.2813
 3680SOL    HW211167   5.715   5.657   1.047 -1.3788  0.3423 -2.4872
 3681SOL     OW11168   0.143   3.613   0.215  0.6472 -0.1469  0.4586
 3681SOL    HW111169   0.193   3.693   0.232  0.3060  0.0521  0.5486
 3681SOL    HW211170   0.116   3.583   0.302 -0.9433  0.7698  0.3649
 3682SOL     OW11171   3.451   4.334   3.424  0.2566 -0.3691  0.5405
 3682SOL    HW111172   3.366   4.342   3.381  1.2208  1.7686 -1.4430
 3682SOL    HW211173   3.464   4.240   3.434 -1.8390 -0.8295 -0.1164
 3683SOL     OW11174   4.359   3.490   3.418 -0.4530 -0.0753  0.1123
 3683SOL    HW111175   4.282   3.535   3.452 -0.7884 -0.1153 -0.5588
 3683SOL    HW211176   4.324   3.412   3.375  0.0537 -0.6045  0.6248
 3684SOL     OW11177   2.577   0.065   0.506  0.2502  0.2261  0.0262
 3684SOL    HW111178   2.549   0.148   0.467  1.0250  1.5315  1.9625
 3684SOL    HW211179   2.495   0.022   0.534 -0.1257  1.4174  0.9018
 3685SOL     OW11180   2.956   3.379   1.426  0.4610  0.7944  0.3357
 3685SOL    HW111181   2.893   3.316   1.390  0.4847  0.9603 -0.0002
 3685SOL    HW211182   2.919   3.465   1.406  2.1753  1.1016 -2.7725
 3686SOL     OW11183   5.098   4.023   2.437 -0.5043 -0.0523 -0.2818
 3686SOL    HW111184   5.132   4.082   2.370 -1.4246 -1.5014 -2.2564
 3686SOL    HW211185   5.044   4.078   2.493  0.3526  1.2682 -0.6703
 3687SOL     OW11186   0.056   4.667   2.739 -0.4828 -0.5196  0.7387
 3687SOL    HW111187   0.088   4.577   2.745  2.0297  0.2164  0.8907
 3687SOL    HW211188   0.039   4.693   2.829 -0.4845 -0.6384  0.7722
 3688SOL     OW11189   5.293   0.791   3.238 -0.0790  0.2763 -0.4209
 3688SOL    HW111190   5.364   0.821   3.295 -0.3130 -1.6392  1.0808
 3688SOL    HW211191   5.218   0.846   3.261 -0.0324 -0.1348  0.8644
 3689SOL     OW11192   1.461   1.976   3.019  0.2707 -0.2212 -0.8536
 3689SOL    HW111193   1.498   1.985   2.931 -0.3665  1.1503 -1.0241
 3689SOL    HW211194   1.456   2.066   3.052  2.4064 -0.7211  1.4530
 3690SOL     OW11195   3.861   4.468   1.727 -0.0584  0.2276  0.7161
 3690SOL    HW111196   3.871   4.413   1.650  0.2024  0.9675  0.2068
 3690SOL    HW211197   3.932   4.440   1.786  0.7914  0.7603 -0.0091
 3691SOL     OW11198   3.734   2.299   1.622  0.0353 -0.4485 -0.3182
 3691SOL    HW111199   3.733   2.341   1.708  1.8660 -2.1456  0.6995
 3691SOL    HW211200   3.659   2.240   1.623 -0.0080 -0.3906  0.0772
 3692SOL     OW11201   5.823   1.622   2.208 -0.8469 -0.0724 -0.3045
 3692SOL    HW111202   5.736   1.651   2.236  0.2199  0.9607  2.7886
 3692SOL    HW211203   5.854   1.692   2.150 -1.8448 -0.2730 -1.1448
 3693SOL     OW11204   4.438   1.104   4.426  0.0865  0.2150  0.1659
 3693SOL    HW111205   4.395   1.133   4.506 -3.8966  0.8773 -1.7070
 3693SOL    HW211206   4.492   1.178   4.399 -0.6576  1.1145  1.0088
 3694SOL     OW11207   4.105   0.969   3.978  0.1310  0.6441  0.4830
 3694SOL    HW111208   4.085   0.901   3.914 -0.5691 -0.7139  1.9927
 3694SOL    HW211209   4.200   0.978   3.976  0.2032 -0.0975 -0.0395
 3695SOL     OW11210   2.838   6.286   4.403 -0.8646 -0.2287  0.4804
 3695SOL    HW111211   2.838   6.265   4.496 -0.1230 -0.8463  0.3555
 3695SOL    HW211212   2.893   6.219   4.363  0.2871  1.0332 -0.1724
 3696SOL     OW11213   5.537   2.018   0.147  0.1837  0.2132 -0.0328
 3696SOL    HW111214   5.454   1.973   0.129  0.0493  1.0567 -2.1613
 3696SOL    HW211215   5.586   2.010   0.065  0.3171  3.3671 -0.5136
 3697SOL     OW11216   4.889   1.289   1.313 -0.0491 -0.2968  0.1079
 3697SOL    HW111217   4.918   1.207   1.274  1.8354 -0.9248  2.3437
 3697SOL    HW211218   4.914   1.356   1.250  0.1551 -1.3130 -0.9533
 3698SOL     OW11219   5.126   1.504   4.006 -0.3229 -0.4140 -0.1868
 3698SOL    HW111220   5.159   1.536   3.922  0.4184 -0.3178  0.1318
 3698SOL    HW211221   5.041   1.464   3.984 -0.8566  0.8927 -0.7551
 3699SOL     OW11222   3.860   2.368   1.315  0.2634 -0.0759  0.0842
 3699SOL    HW111223   3.781   2.329   1.278 -0.6681  0.6212  1.1922
 3699SOL    HW211224   3.878   2.316   1.393  1.0108 -0.3101 -0.2260
 3700SOL     OW11225   3.992   3.257   1.753 -0.4162 -0.4517  0.3618
 3700SOL    HW111226   3.993   3.164   1.729 -0.3837 -0.5190  0.6135
 3700SOL    HW211227   4.024   3.258   1.844 -1.9208 -0.3636  0.9428
 3701SOL     OW11228   2.379   0.738   2.035  0.2075  0.5333 -0.0790
 3701SOL    HW111229   2.424   0.816   2.066  2.0266 -0.5257  0.2107
 3701SOL    HW211230   2.430   0.709   1.959  0.6358 -1.2057  0.7663
 3702SOL     OW11231   5.725   6.208   2.670  0.0136  0.5892  0.0433
 3702SOL    HW111232   5.747   6.195   2.578 -0.4204  2.3710 -0.3926
 3702SOL    HW211233   5.712   6.120   2.704  2.2135 -0.2960 -1.0145
 3703SOL     OW11234   4.936   6.309   3.140 -0.3595  0.5312 -0.2279
 3703SOL    HW111235   5.030   6.325   3.137  0.3720 -2.5122 -1.7828
 3703SOL    HW211236   4.919   6.286   3.232  1.3887 -2.1026 -0.3532
 3704SOL     OW11237   1.774   2.945   1.594  0.2399 -0.3321  0.3099
 3704SOL    HW111238   1.754   2.876   1.531  0.9207 -1.7035  1.4747
 3704SOL    HW211239   1.869   2.946   1.600  0.2285  0.4341  0.6294
 3705SOL     OW11240   1.772   5.155   1.526 -0.0696  0.5639  0.0171
 3705SOL    HW111241   1.827   5.087   1.487 -1.0348  0.0359 -0.4998
 3705SOL    HW211242   1.742   5.206   1.452 -1.5668 -0.1699  0.0512
 3706SOL     OW11243   1.526   0.539   0.791  0.7370  0.4348  0.1013
 3706SOL    HW111244   1.572   0.493   0.721 -0.8224 -1.2046  0.0170
 3706SOL    HW211245   1.448   0.575   0.749  0.4554  0.6089  0.7474
 3707SOL     OW11246   4.827   1.558   4.287 -0.4179  0.2754 -0.1323
 3707SOL    HW111247   4.743   1.515   4.269 -0.2791  0.5106 -1.5813
 3707SOL    HW211248   4.807   1.620   4.357 -1.0364 -0.8398  0.7461
 3708SOL     OW11249   3.050   3.545   0.643  0.5320 -0.0535 -0.7902
 3708SOL    HW111250   3.126   3.501   0.603  1.0173  0.9670 -1.0683
 3708SOL    HW211251   2.999   3.474   0.682  2.3343 -0.7248  0.6782
 3709SOL     OW11252   1.965   2.589   3.023 -0.1270  0.0353 -0.2457
 3709SOL    HW111253   1.894   2.641   3.060 -1.3578 -0.9494 -1.0261
 3709SOL    HW211254   1.927   2.501   3.013  2.0844 -1.4472  1.9546
 3710SOL     OW11255   2.765   4.194   2.551 -0.1307  0.2790 -0.1826
 3710SOL    HW111256   2.860   4.184   2.551 -0.0406  0.9223  0.6493
 3710SOL    HW211257   2.748   4.257   2.482  0.1123  0.5917  0.0361
 3711SOL     OW11258   3.502   1.894   1.578  0.1777 -0.6119  0.5878
 3711SOL    HW111259   3.509   1.878   1.484  0.8483  1.3008  0.2300
 3711SOL    HW211260   3.588   1.871   1.612  0.7817  0.9260  0.2531
 3712SOL     OW11261   4.240   5.381   2.930 -0.1690 -0.2183  0.1646
 3712SOL    HW111262   4.333   5.399   2.946 -0.1733  0.1982 -0.2080
 3712SOL    HW211263   4.239   5.296   2.886  0.2613  0.6078 -1.6803
 3713SOL     OW11264   0.531   3.870   3.171 -0.2303 -0.6107 -0.1380
 3713SOL    HW111265   0.514   3.786   3.213  0.3841 -0.8993 -0.4470
 3713SOL    HW211266   0.592   3.851   3.101 -0.0165  0.1046 -0.1683
 3714SOL     OW11267   2.391   0.672   1.183  0.1921  0.0112 -0.1573
 3714SOL    HW111268   2.475   0.684   1.227  0.2381 -1.1478  0.1451
 3714SOL    HW211269   2.395   0.583   1.148 -0.4443  0.3677 -1.2158
 3715SOL     OW11270   5.318   2.850   3.253 -0.3995 -0.3692  0.3053
 3715SOL    HW111271   5.407   2.850   3.288  0.1520  1.1320 -0.8630
 3715SOL    HW211272   5.267   2.900   3.316 -0.3352 -0.8565  0.7590
 3716SOL     OW11273   3.070   0.988   2.240  0.0875 -0.5025  0.2985
 3716SOL    HW111274   3.015   1.024   2.310  1.0328 -0.0591  0.8498
 3716SOL    HW211275   3.060   0.893   2.247  0.3526 -0.4781  1.2153
 3717SOL     OW11276   1.716   2.516   2.015  0.4009 -0.6286 -0.0601
 3717SOL    HW111277   1.700   2.606   2.044 -0.9985 -1.0216  0.5721
 3717SOL    HW211278   1.806   2.497   2.043  0.4696  0.3373  0.4390
 3718SOL     OW11279   4.962   4.530   1.251 -0.3083  0.6400 -0.2076
 3718SOL    HW111280   4.993   4.577   1.328 -0.2630  1.2081 -0.5650
 3718SOL    HW211281   5.026   4.550   1.183 -0.2698  0.0276 -0.3648
 3719SOL     OW11282   5.405   0.196   3.349  0.2670  0.4459  0.1015
 3719SOL    HW111283   5.496   0.186   3.375  0.6629  2.1554 -0.3592
 3719SOL    HW211284   5.405   0.183   3.255  0.2232  1.2182 -0.0210
 3720SOL     OW11285   0.273   2.528   4.439  0.0696  0.0914 -0.9255
 3720SOL    HW111286   0.219   2.598   4.402 -0.2480 -0.5163 -1.6879
 3720SOL    HW211287   0.355   2.570   4.463 -0.0440  0.6923 -1.5306
 3721SOL     OW11288   3.332   3.228   1.981  0.1264  0.0675 -0.2896
 3721SOL    HW111289   3.412   3.228   2.033 -0.5449  0.0548  0.8094
 3721SOL    HW211290   3.279   3.298   2.019 -0.4986 -0.1015 -0.8091
 3722SOL     OW11291   2.706   2.907   0.621 -0.2158  0.1298 -0.1160
 3722SOL    HW111292   2.677   2.914   0.712 -1.0879 -0.3282 -0.3440
 3722SOL    HW211293   2.712   2.998   0.591 -0.3632  0.2679  0.2607
 3723SOL     OW11294   1.877   4.080   1.810 -0.1041 -1.0576  0.3790
 3723SOL    HW111295   1.969   4.108   1.814  0.0351 -1.3194 -0.5068
 3723SOL    HW211296   1.832   4.136   1.874  0.2773  0.7673 -0.7920
 3724SOL     OW11297   3.265   5.211   0.320 -0.3234 -0.4518  0.1910
 3724SOL    HW111298   3.222   5.255   0.247  0.1262 -0.4285 -0.0708
 3724SOL    HW211299   3.343   5.264   0.337 -0.8310  0.0135  1.2339
 3725SOL     OW11300   5.963   1.282   3.791  0.0279 -0.4969 -0.4430
 3725SOL    HW111301   6.012   1.344   3.844  0.8481 -0.8453 -0.7620
 3725SOL    HW211302   6.009   1.198   3.802 -1.0362 -1.0668 -0.0324
 3726SOL     OW11303   1.969   1.479   4.113  0.3871  0.0222  0.0402
 3726SOL    HW111304   1.985   1.547   4.048  0.9685 -0.5293 -0.4207
 3726SOL    HW211305   2.047   1.424   4.110 -0.0582 -0.6609  0.3982
 3727SOL     OW11306   0.312   1.808   2.274  0.5134 -0.4957 -0.2997
 3727SOL    HW111307   0.290   1.854   2.194  2.6159 -1.1687 -1.4148
 3727SOL    HW211308   0.381   1.860   2.314 -0.3223 -0.3020  1.0421
 3728SOL     OW11309   2.500   4.967   4.511 -0.0392 -0.4516  0.2506
 3728SOL    HW111310   2.550   4.979   4.430 -1.6969  0.2305 -0.7769
 3728SOL    HW211311   2.545   5.023   4.575  1.2439 -0.9152 -0.1753
 3729SOL     OW11312   2.068   6.375   1.639 -0.3596  0.1233  0.0972
 3729SOL    HW111313   2.060   6.450   1.580 -0.9050 -0.1932 -0.2596
 3729SOL    HW211314   2.082   6.413   1.726  0.9003  0.5933 -0.2706
 3730SOL     OW11315   5.837   0.561   1.565 -0.2970  0.3834  0.6710
 3730SOL    HW111316   5.901   0.491   1.579 -0.6610 -0.2401 -0.4270
 3730SOL    HW211317   5.763   0.516   1.524 -0.7922  1.3282  0.4828
 3731SOL     OW11318   4.598   5.931   1.695 -0.6611 -0.5090 -0.4235
 3731SOL    HW111319   4.532   5.939   1.626 -0.2341 -1.3458 -0.9604
 3731SOL    HW211320   4.568   5.857   1.748 -1.5855  0.7884  1.0347
 3732SOL     OW11321   4.249   3.364   3.731  0.2191  0.2071  0.1185
 3732SOL    HW111322   4.191   3.406   3.668 -0.3704 -0.2838  0.3143
 3732SOL    HW211323   4.193   3.346   3.807  0.6998 -0.0133  0.4314
 3733SOL     OW11324   2.392   1.449   0.390  0.6600 -0.1539  0.3767
 3733SOL    HW111325   2.318   1.431   0.448  0.4719 -0.2670  0.1095
 3733SOL    HW211326   2.422   1.362   0.364  0.5177 -0.1024  0.0309
 3734SOL     OW11327   0.560   5.851   0.376  0.3070  0.3025 -0.3696
 3734SOL    HW111328   0.531   5.920   0.436  0.4150 -0.1825  0.2625
 3734SOL    HW211329   0.612   5.792   0.431  0.2520 -0.2561 -0.9025
 3735SOL     OW11330   2.398   3.610   1.446 -0.3958  0.2517  0.0250
 3735SOL    HW111331   2.323   3.624   1.504  0.9773  0.0037  2.0665
 3735SOL    HW211332   2.364   3.626   1.358 -2.6066  0.9472  0.8793
 3736SOL     OW11333   0.421   1.528   1.609 -0.2534 -0.0295  0.7635
 3736SOL    HW111334   0.513   1.526   1.583 -0.6288 -0.0178 -0.7986
 3736SOL    HW211335   0.374   1.492   1.534 -1.7164  2.2301  0.3779
 3737SOL     OW11336   0.880   2.395   4.437  0.1821  0.1464 -0.3292
 3737SOL    HW111337   0.968   2.358   4.428  1.9015  2.7004  2.3132
 3737SOL    HW211338   0.874   2.460   4.367  1.3983  1.2680  0.5094
 3738SOL     OW11339   4.603   1.049   1.541 -0.5810 -0.3486  0.4933
 3738SOL    HW111340   4.584   1.123   1.598  0.7839 -0.3548  1.0423
 3738SOL    HW211341   4.548   0.978   1.573  0.2751 -0.4131  1.9981
 3739SOL     OW11342   0.108   5.485   1.798 -0.5086  0.4274 -0.4852
 3739SOL    HW111343   0.088   5.491   1.892 -0.4014 -0.2166 -0.4149
 3739SOL    HW211344   0.202   5.466   1.795 -0.3793  1.0382 -0.7525
 3740SOL     OW11345   0.877   1.554   2.366  0.1788  0.1224  0.0723
 3740SOL    HW111346   0.808   1.612   2.335 -0.4666 -0.2674  0.7360
 3740SOL    HW211347   0.853   1.532   2.456  0.7219 -0.6891  0.0448
 3741SOL     OW11348   1.857   4.881   2.374 -0.9937  0.0264  0.1333
 3741SOL    HW111349   1.812   4.899   2.457 -2.2062 -3.9639  0.7573
 3741SOL    HW211350   1.789   4.844   2.318  0.6541 -2.8681 -0.3133
 3742SOL     OW11351   1.594   3.553   4.174 -0.6996 -0.2548 -0.4871
 3742SOL    HW111352   1.531   3.623   4.190  1.3622  1.7422  0.0625
 3742SOL    HW211353   1.656   3.590   4.111  1.0216 -1.1608  0.5099
 3743SOL     OW11354   1.005   2.105   0.611 -0.1425  0.1389  0.2888
 3743SOL    HW111355   0.927   2.161   0.611 -0.5926 -0.4147  1.6852
 3743SOL    HW211356   1.000   2.058   0.528 -0.4722  1.1640 -0.3132
 3744SOL     OW11357   1.057   4.009   3.759  0.3758 -0.1048 -0.1219
 3744SOL    HW111358   0.990   4.054   3.810  0.6276 -1.4925  1.6403
 3744SOL    HW211359   1.064   4.060   3.678 -0.7118  1.7758  0.8221
 3745SOL     OW11360   3.430   1.387   3.437  0.0479  0.0638 -0.3677
 3745SOL    HW111361   3.376   1.399   3.359  0.5899  0.0630 -0.7508
 3745SOL    HW211362   3.405   1.459   3.495  0.4795  0.7726 -1.0303
 3746SOL     OW11363   1.113   5.641   0.214  0.2154 -0.7595 -0.0763
 3746SOL    HW111364   1.149   5.681   0.293 -0.9385 -1.2346  0.7553
 3746SOL    HW211365   1.120   5.709   0.147  1.6599 -0.5022  0.2683
 3747SOL     OW11366   2.210   1.723   3.096  0.1177 -0.1803 -0.5874
 3747SOL    HW111367   2.158   1.698   3.020  0.7379 -1.3364 -0.6737
 3747SOL    HW211368   2.188   1.658   3.163 -0.2652  0.6957  0.1859
 3748SOL     OW11369   2.347   6.391   2.935 -0.1714 -0.1824 -0.4422
 3748SOL    HW111370   2.395   6.318   2.975  1.3921 -0.2887 -2.2317
 3748SOL    HW211371   2.415   6.451   2.906 -1.3310  1.0720 -0.7444
 3749SOL     OW11372   0.478   1.267   2.419 -0.4389 -0.0409  0.9137
 3749SOL    HW111373   0.538   1.306   2.355  1.5651  0.6273  2.9383
 3749SOL    HW211374   0.418   1.339   2.441 -3.1967 -1.0043 -1.9552
 3750SOL     OW11375   4.492   0.062   0.942  0.1161  0.6102  0.0182
 3750SOL    HW111376   4.467   0.114   0.865  0.1023  0.3616 -0.1481
 3750SOL    HW211377   4.450  -0.023   0.929  1.2213  0.0810 -0.4118
 3751SOL     OW11378   5.179   1.010   2.531 -0.4877 -0.1441  0.5748
 3751SOL    HW111379   5.236   1.079   2.497 -0.3204 -0.4834  0.1494
 3751SOL    HW211380   5.090   1.045   2.522 -0.3790  0.1784  0.7476
 3752SOL     OW11381   5.890   0.703   2.735 -0.2048 -0.1845  0.1506
 3752SOL    HW111382   5.922   0.641   2.799  1.2402 -1.2308 -1.3967
 3752SOL    HW211383   5.905   0.789   2.775  1.8889 -0.7216  0.7901
 3753SOL     OW11384   1.726   5.317   1.287 -0.4620  0.2486 -0.5669
 3753SOL    HW111385   1.775   5.365   1.221 -0.3162 -0.0798 -0.7004
 3753SOL    HW211386   1.694   5.384   1.347  2.1710  0.3699  0.9699
 3754SOL     OW11387   0.889   5.530   2.729  0.1368 -0.4847  0.4729
 3754SOL    HW111388   0.809   5.515   2.680  1.4879 -0.8060 -1.9412
 3754SOL    HW211389   0.890   5.625   2.745 -0.3000 -0.3159 -0.3822
 3755SOL     OW11390   2.659   4.218   0.930 -0.2625  0.4255 -0.6119
 3755SOL    HW111391   2.668   4.148   0.994 -0.5348  1.4616  0.6237
 3755SOL    HW211392   2.601   4.282   0.971 -0.4527  1.1535 -1.9022
 3756SOL     OW11393   3.476   6.164   4.362 -0.0783 -0.2530  0.2356
 3756SOL    HW111394   3.390   6.126   4.379  0.2090 -0.5056  1.2834
 3756SOL    HW211395   3.503   6.201   4.446 -0.0169  1.6631 -0.5319
 3757SOL     OW11396   1.967   2.529   2.065 -0.1560  0.0108 -0.1343
 3757SOL    HW111397   2.038   2.470   2.092  0.5929  1.8022  2.6487
 3757SOL    HW211398   2.009   2.615   2.058 -1.7163  0.8041 -0.5472
 3758SOL     OW11399   3.640   3.557   0.668  0.4306 -0.4229 -0.3115
 3758SOL    HW111400   3.686   3.542   0.584  1.0543  1.5284 -0.4090
 3758SOL    HW211401   3.575   3.624   0.648  1.2437  0.8259  0.8815
 3759SOL     OW11402   4.543   0.181   1.589 -0.4765  0.7570  0.0725
 3759SOL    HW111403   4.470   0.240   1.568 -0.8090 -0.2183 -1.9445
 3759SOL    HW211404   4.500   0.099   1.615 -0.0308  0.7805  0.9726
 3760SOL     OW11405   3.466   1.576   1.536  0.0059 -0.0134  0.3167
 3760SOL    HW111406   3.447   1.632   1.461 -1.0131 -0.7307 -0.0035
 3760SOL    HW211407   3.403   1.602   1.603 -3.2028 -2.8902 -0.9963
 3761SOL     OW11408   2.669   1.114   1.985  0.5942 -0.5979  0.0835
 3761SOL    HW111409   2.748   1.137   2.034  0.9240  0.3621 -0.8174
 3761SOL    HW211410   2.612   1.191   1.992  1.0955  0.0613 -1.8013
 3762SOL     OW11411   0.154   5.755   0.519 -0.7353  0.1760  0.1737
 3762SOL    HW111412   0.223   5.729   0.458  0.4972  2.5798  0.2779
 3762SOL    HW211413   0.161   5.693   0.591  1.3082  0.1688  0.0930
 3763SOL     OW11414   4.311   0.347   1.545  0.2750 -0.5237 -0.7375
 3763SOL    HW111415   4.245   0.309   1.603 -0.7927 -0.9876 -2.1338
 3763SOL    HW211416   4.260   0.382   1.471  1.4508  1.0323 -0.9180
 3764SOL     OW11417   1.326   4.850   4.448 -0.1988  0.4506 -0.1129
 3764SOL    HW111418   1.245   4.899   4.436 -0.7849 -0.3031  0.5651
 3764SOL    HW211419   1.297   4.762   4.473  0.8141  0.5704  1.7836
 3765SOL     OW11420   5.272   6.351   2.601 -0.2156 -0.0283  0.0453
 3765SOL    HW111421   5.189   6.323   2.639  0.5815 -0.7686  1.4045
 3765SOL    HW211422   5.266   6.447   2.598 -0.2943  0.1539  2.4157
 3766SOL     OW11423   0.987   3.472   1.105  0.1440  0.4708  0.7893
 3766SOL    HW111424   1.039   3.432   1.035  3.5954  1.8060  2.1482
 3766SOL    HW211425   0.976   3.563   1.077 -0.2259  0.5344  1.1294
 3767SOL     OW11426   5.823   5.329   1.943  0.2869 -0.3244  0.1031
 3767SOL    HW111427   5.889   5.302   2.007  0.1268  0.8449  0.8225
 3767SOL    HW211428   5.861   5.405   1.899 -0.5270  0.3571  0.5130
 3768SOL     OW11429   4.592   0.999   4.008  0.3751 -0.7269 -0.1191
 3768SOL    HW111430   4.628   1.059   4.074 -0.5208  0.3188 -0.5229
 3768SOL    HW211431   4.536   0.941   4.058 -0.2808  0.0438  0.0904
 3769SOL     OW11432   2.100   3.393   3.047 -0.3217  0.3241 -0.0102
 3769SOL    HW111433   2.130   3.323   3.106 -1.2198 -0.9847 -0.9983
 3769SOL    HW211434   2.042   3.447   3.101 -0.7399 -0.5524  0.4555
 3770SOL     OW11435   4.780   5.426   0.174  0.9969 -0.1316 -0.0057
 3770SOL    HW111436   4.854   5.390   0.222  3.0052  3.5038  0.3695
 3770SOL    HW211437   4.718   5.453   0.242  1.2738  0.2755  0.0943
 3771SOL     OW11438   2.232   2.537   3.075  0.1721 -0.4100 -0.1428
 3771SOL    HW111439   2.156   2.547   3.018  0.3975 -1.2596 -0.6346
 3771SOL    HW211440   2.202   2.480   3.146  0.4385 -1.1033 -0.5665
 3772SOL     OW11441   1.701   2.191   1.297  0.2025  0.1783 -0.1665
 3772SOL    HW111442   1.711   2.124   1.230 -1.3082 -0.7042  0.3881
 3772SOL    HW211443   1.630   2.247   1.264  1.9454  2.1341 -1.0096
 3773SOL     OW11444   5.979   4.636   3.674  0.3794  0.4473 -0.1965
 3773SOL    HW111445   5.898   4.585   3.664 -0.6769  1.7574  0.8826
 3773SOL    HW211446   6.003   4.660   3.584 -1.2073  1.0815 -0.5129
 3774SOL     OW11447   1.545   4.426   4.309  0.0573 -0.4173 -0.1171
 3774SOL    HW111448   1.602   4.387   4.242 -0.4466 -1.2063 -0.1220
 3774SOL    HW211449   1.566   4.378   4.389 -0.2933 -0.4305 -0.0276
 3775SOL     OW11450   2.273   6.176   0.254  0.1511 -0.3730  0.1459
 3775SOL    HW111451   2.317   6.124   0.321  2.2692  0.6309 -0.2658
 3775SOL    HW211452   2.292   6.266   0.278  0.8637  0.0301 -1.6380
 3776SOL     OW11453   4.310   5.948   4.301 -0.0876  0.0035 -0.1828
 3776SOL    HW111454   4.390   5.994   4.276 -0.3800  1.0987  0.7194
 3776SOL    HW211455   4.299   5.881   4.234  0.6803  0.8947 -1.2829
 3777SOL     OW11456   0.030   0.180   1.234 -0.1959 -0.1358 -0.6427
 3777SOL    HW111457   0.013   0.243   1.304  0.9936  0.0161 -0.4423
 3777SOL    HW211458   0.102   0.126   1.267 -1.2169 -1.7082 -0.7709
 3778SOL     OW11459   1.753   5.820   0.824  0.5710  0.1907 -0.1902
 3778SOL    HW111460   1.762   5.837   0.918 -3.0833  1.9605  0.2223
 3778SOL    HW211461   1.696   5.743   0.819 -0.5813  1.0140 -0.7228
 3779SOL     OW11462   3.709   0.165   1.073 -0.1813 -0.3182 -0.3340
 3779SOL    HW111463   3.629   0.114   1.087 -1.0594  0.7597 -1.0741
 3779SOL    HW211464   3.678   0.254   1.059  1.2084  0.2386 -0.1508
 3780SOL     OW11465   0.238   3.036   0.487  0.1809 -0.1646  0.2680
 3780SOL    HW111466   0.213   3.096   0.417  2.4404 -0.0217 -0.5838
 3780SOL    HW211467   0.221   2.949   0.451  3.8195 -0.3565 -2.0920
 3781SOL     OW11468   1.865   4.540   2.029 -0.0393 -0.1692  0.1750
 3781SOL    HW111469   1.899   4.511   2.114  0.4565 -0.8358 -0.2256
 3781SOL    HW211470   1.944   4.555   1.976 -0.2669 -1.9767 -0.8593
 3782SOL     OW11471   5.466   2.860   4.511  0.1815  0.2655 -0.3532
 3782SOL    HW111472   5.492   2.905   4.591 -0.8234 -2.0131  1.4968
 3782SOL    HW211473   5.454   2.768   4.537 -1.2746 -0.4773 -2.8685
 3783SOL     OW11474   3.097   3.067   4.167 -0.1774  0.2103  0.2198
 3783SOL    HW111475   3.169   3.096   4.224 -1.9093  1.3455  2.1233
 3783SOL    HW211476   3.117   3.105   4.082  1.2441  0.8553  0.7741
 3784SOL     OW11477   2.692   1.640   2.604 -0.7440 -0.0368  0.2660
 3784SOL    HW111478   2.719   1.557   2.644 -0.1889 -0.6099 -1.1449
 3784SOL    HW211479   2.773   1.676   2.568 -1.3443 -0.3635 -1.6293
 3785SOL     OW11480   2.041   3.774   2.354 -0.2163  0.2292  0.3449
 3785SOL    HW111481   2.130   3.782   2.320 -0.3377 -0.1055 -0.0793
 3785SOL    HW211482   2.030   3.680   2.370 -0.7854  0.1275 -0.4803
 3786SOL     OW11483   0.954   5.116   2.169 -0.3479  0.5410 -0.1117
 3786SOL    HW111484   0.958   5.092   2.077 -0.9427 -1.4653  0.2850
 3786SOL    HW211485   1.037   5.085   2.206 -0.9598 -0.6659  0.3488
 3787SOL     OW11486   6.262   3.178   1.638  0.2098  0.4406  0.7154
 3787SOL    HW111487   6.286   3.241   1.707 -0.1998  0.4357  0.8678
 3787SOL    HW211488   6.343   3.163   1.590  0.6269  0.0637  1.5059
 3788SOL     OW11489   5.256   1.569   3.206  0.1644  0.0504 -0.4447
 3788SOL    HW111490   5.339   1.524   3.192  0.4952  0.2134  0.8196
 3788SOL    HW211491   5.201   1.507   3.254  0.0569  0.4332 -0.0619
 3789SOL     OW11492   2.017   3.458   1.448 -0.0661  0.1779  0.3458
 3789SOL    HW111493   1.954   3.506   1.502 -0.8255  0.2720 -0.5601
 3789SOL    HW211494   1.999   3.366   1.467  0.2431  0.2196  0.8560
 3790SOL     OW11495   4.053   5.850   3.632 -0.6161  0.4636  0.0111
 3790SOL    HW111496   3.975   5.904   3.623 -0.9025 -0.0194 -0.5608
 3790SOL    HW211497   4.038   5.776   3.572  1.0586  1.2504 -1.5997
 3791SOL     OW11498   1.195   0.076   3.705  0.2553 -0.1492 -0.0635
 3791SOL    HW111499   1.229   0.015   3.639 -1.0010 -1.8508  0.6984
 3791SOL    HW211500   1.106   0.096   3.676 -0.8153 -1.9397  1.5444
 3792SOL     OW11501   2.917   4.156   2.201 -0.2983  0.3125 -0.2645
 3792SOL    HW111502   2.889   4.158   2.109 -1.0564 -1.7902 -0.1851
 3792SOL    HW211503   2.843   4.118   2.247  0.7585 -0.4563  0.8988
 3793SOL     OW11504   2.461   3.263   1.241  0.0471  0.0632 -0.3257
 3793SOL    HW111505   2.468   3.265   1.336  0.3441 -2.9987 -0.0683
 3793SOL    HW211506   2.368   3.256   1.223  0.0374 -0.6859 -0.0743
 3794SOL     OW11507   1.487   1.790   3.396  0.1396 -1.0235  0.2635
 3794SOL    HW111508   1.416   1.775   3.459 -0.5439  0.5759 -0.0281
 3794SOL    HW211509   1.523   1.703   3.379 -1.7948 -1.9620  0.4046
 3795SOL     OW11510   3.243   1.791   1.757 -0.4770  0.3032 -0.4388
 3795SOL    HW111511   3.236   1.801   1.662  0.5737  0.1460 -0.5520
 3795SOL    HW211512   3.237   1.881   1.790 -2.5435  0.2788 -0.4522
 3796SOL     OW11513   5.449   0.012   0.835  0.2257  0.6257  0.1585
 3796SOL    HW111514   5.442   0.069   0.758 -1.4831  2.0023  1.1759
 3796SOL    HW211515   5.370   0.031   0.886  1.3988  0.0815  2.4389
 3797SOL     OW11516   0.652   0.503   1.098  0.2601  0.1056  0.0799
 3797SOL    HW111517   0.663   0.560   1.023  3.0574  0.4200  0.5452
 3797SOL    HW211518   0.606   0.556   1.162 -1.0614  0.2393 -0.8841
 3798SOL     OW11519   4.703   4.492   3.548  0.1271  0.2113  0.3771
 3798SOL    HW111520   4.707   4.561   3.482  1.3130 -1.6529 -1.7928
 3798SOL    HW211521   4.781   4.505   3.601 -0.2328  1.0772  0.7410
 3799SOL     OW11522   0.581   4.361   1.791  0.4165  0.6780  0.3139
 3799SOL    HW111523   0.495   4.369   1.834 -0.3142  1.7487 -1.1542
 3799SOL    HW211524   0.562   4.376   1.698  2.3143  2.0064  0.0259
 3800SOL     OW11525   0.797   4.701   4.353 -0.3834 -0.4750 -0.0641
 3800SOL    HW111526   0.780   4.671   4.263  0.8531  1.4064 -1.0762
 3800SOL    HW211527   0.807   4.796   4.344  0.3995 -0.2752  1.9970
 3801SOL     OW11528   1.393   2.086   0.360 -0.1087 -0.0322  0.3751
 3801SOL    HW111529   1.396   2.010   0.418 -1.0808 -1.5038 -1.2704
 3801SOL    HW211530   1.393   2.048   0.272  1.2169  2.0043 -0.6676
 3802SOL     OW11531   5.349   4.479   0.405  0.0366  0.2517  0.0830
 3802SOL    HW111532   5.428   4.425   0.410 -1.6448 -2.6361  1.7271
 3802SOL    HW211533   5.368   4.555   0.459  1.4792 -0.7868  1.2019
 3803SOL     OW11534   1.278   3.810   1.100  0.5011  0.1445  0.0125
 3803SOL    HW111535   1.321   3.895   1.106  2.3901 -0.6802 -0.5358
 3803SOL    HW211536   1.311   3.771   1.019 -1.3489 -0.6266 -0.4763
 3804SOL     OW11537   5.862   0.841   3.090  0.2454  0.0849  0.5731
 3804SOL    HW111538   5.920   0.817   3.162  0.2466 -0.1342  0.4997
 3804SOL    HW211539   5.776   0.809   3.117 -0.1014  1.4220  1.2183
 3805SOL     OW11540   1.978   5.140   3.882 -0.1959  0.1836 -0.3129
 3805SOL    HW111541   2.015   5.106   3.963  2.0712 -1.0456 -1.6546
 3805SOL    HW211542   1.884   5.128   3.892 -0.1939  1.1110  2.4551
 3806SOL     OW11543   4.258   4.282   2.058 -0.0564 -0.0337  0.1614
 3806SOL    HW111544   4.329   4.341   2.033  0.1788 -0.1536  0.5253
 3806SOL    HW211545   4.298   4.195   2.059 -0.0967 -0.0571  0.7527
 3807SOL     OW11546   5.301   4.202   2.362 -0.0845 -0.2047  0.2372
 3807SOL    HW111547   5.301   4.243   2.448 -0.8395  0.7304 -0.1839
 3807SOL    HW211548   5.392   4.211   2.332  0.0523 -0.0263  0.6838
 3808SOL     OW11549   2.420   4.695   0.090 -0.2064  0.3698  0.2312
 3808SOL    HW111550   2.329   4.706   0.061 -0.7537 -0.1857  1.5731
 3808SOL    HW211551   2.444   4.607   0.061 -0.7374 -0.1683  1.3012
 3809SOL     OW11552   5.759   0.780   4.420 -0.1054 -0.0780 -0.5238
 3809SOL    HW111553   5.844   0.825   4.414 -0.3137  0.2211 -2.1744
 3809SOL    HW211554   5.696   0.851   4.433 -0.2696 -0.0432 -1.3933
 3810SOL     OW11555   6.394   0.828   3.829 -0.0286  0.3394  0.1181
 3810SOL    HW111556   6.455   0.899   3.847 -0.8366  2.1610 -2.9018
 3810SOL    HW211557   6.365   0.799   3.916  1.7183  2.4033  1.6249
 3811SOL     OW11558   1.953   1.944   2.545  0.0661  0.0989 -0.7088
 3811SOL    HW111559   2.009   1.953   2.622  1.9520 -1.6288 -1.7128
 3811SOL    HW211560   1.913   1.858   2.554  0.2992 -0.1210 -1.6256
 3812SOL     OW11561   4.514   6.065   0.659 -0.1798 -0.1091 -0.4009
 3812SOL    HW111562   4.572   6.000   0.699 -2.7095 -1.9578  0.8295
 3812SOL    HW211563   4.516   6.044   0.565  2.2341  1.0786 -0.7566
 3813SOL     OW11564   0.840   2.874   3.284  0.2187 -0.1992 -0.4776
 3813SOL    HW111565   0.777   2.939   3.313  0.8649  0.6589 -0.9024
 3813SOL    HW211566   0.924   2.921   3.280  0.8699 -1.2534 -0.0791
 3814SOL     OW11567   4.056   2.422   4.534 -0.2261 -0.1007 -0.4468
 3814SOL    HW111568   4.023   2.503   4.574 -2.1142 -1.2529  0.5995
 3814SOL    HW211569   4.095   2.374   4.607 -0.5978 -0.8038 -0.6976
 3815SOL     OW11570   3.072   3.610   3.553  0.2512  0.3143 -0.4711
 3815SOL    HW111571   3.142   3.668   3.584  0.2714  0.3616 -0.6017
 3815SOL    HW211572   3.003   3.618   3.619  1.0230 -1.0638  0.6198
 3816SOL     OW11573   2.301   4.048   4.376 -0.2624 -0.0857  0.1280
 3816SOL    HW111574   2.264   4.003   4.452 -0.9096  2.6791  1.7280
 3816SOL    HW211575   2.233   4.040   4.309  0.9615 -4.0082 -1.2134
 3817SOL     OW11576   2.466   3.403   2.804 -0.2956  0.5474  0.4086
 3817SOL    HW111577   2.505   3.345   2.868 -0.3265 -0.8649 -0.7491
 3817SOL    HW211578   2.402   3.455   2.853  0.1358  0.0070  1.5956
 3818SOL     OW11579   0.553   2.605   1.785 -0.8141  0.3931  0.6803
 3818SOL    HW111580   0.571   2.522   1.741 -0.9661  0.6165  0.1818
 3818SOL    HW211581   0.557   2.584   1.878  0.8163  0.1804  0.6157
 3819SOL     OW11582   0.077   1.339   0.691  0.0979  0.0389  0.1692
 3819SOL    HW111583   0.068   1.271   0.758 -0.5810  0.7923  0.8844
 3819SOL    HW211584   0.144   1.305   0.632 -0.3915 -1.3678  0.3369
 3820SOL     OW11585   2.213   5.001   0.134 -0.7374  0.5358 -0.0274
 3820SOL    HW111586   2.278   4.960   0.191 -1.3800  0.5581  0.7546
 3820SOL    HW211587   2.202   5.089   0.169 -2.3776  0.0249  0.9772
 3821SOL     OW11588   5.497   0.171   1.366 -0.3561  0.1103 -0.6476
 3821SOL    HW111589   5.492   0.079   1.342 -1.0776 -0.0761  0.0992
 3821SOL    HW211590   5.450   0.217   1.296 -3.3947 -0.5211  0.6733
 3822SOL     OW11591   0.034   4.870   0.023 -0.3889  0.6618  0.0527
 3822SOL    HW111592   0.028   4.853   0.117  1.2837 -0.7952 -0.0011
 3822SOL    HW211593  -0.045   4.919   0.002 -3.5376 -2.8652  1.3661
 3823SOL     OW11594   3.425   0.692   2.798  0.0699 -0.0478 -0.5591
 3823SOL    HW111595   3.514   0.677   2.831  0.2062 -1.4237 -1.3862
 3823SOL    HW211596   3.394   0.769   2.846  1.0167 -0.6162  1.1461
 3824SOL     OW11597   4.655   4.091   4.399  0.2779  0.3212 -0.3500
 3824SOL    HW111598   4.713   4.067   4.471  0.7731  0.6607 -0.6154
 3824SOL    HW211599   4.623   4.179   4.422 -1.2988 -0.3944  0.4831
 3825SOL     OW11600   1.158   5.257   4.112 -0.1932 -0.5186 -0.1797
 3825SOL    HW111601   1.092   5.274   4.046  0.2194 -0.5202 -0.6006
 3825SOL    HW211602   1.111   5.265   4.195 -0.6900 -0.3979 -0.4639
 3826SOL     OW11603   0.823   2.055   3.001 -0.1134  0.1319  0.5872
 3826SOL    HW111604   0.823   1.962   3.026  0.4934  0.6012  2.7825
 3826SOL    HW211605   0.860   2.100   3.077  0.8705  2.0925 -0.8768
 3827SOL     OW11606   4.593   1.196   1.280  0.6193 -0.2631  0.2305
 3827SOL    HW111607   4.639   1.116   1.258 -0.3979 -0.9678  0.5412
 3827SOL    HW211608   4.591   1.199   1.375  1.6086  0.7422  0.2628
 3828SOL     OW11609   2.776   0.417   0.415 -0.8686  0.4619 -0.0984
 3828SOL    HW111610   2.829   0.375   0.482 -1.1081  1.4110  0.7374
 3828SOL    HW211611   2.763   0.350   0.348  0.7243 -0.0355  0.0154
 3829SOL     OW11612   4.069   2.217   0.464 -0.7591  0.1617  0.2781
 3829SOL    HW111613   4.129   2.143   0.469  0.7411  1.2853  0.1050
 3829SOL    HW211614   3.996   2.185   0.410  0.3861 -0.8504 -0.7847
 3830SOL     OW11615   5.896   3.149   2.294 -0.3418  0.3032 -0.0528
 3830SOL    HW111616   5.875   3.232   2.338 -0.1779  0.3796 -0.1170
 3830SOL    HW211617   5.877   3.082   2.359 -1.0172  0.3500 -0.1884
 3831SOL     OW11618   1.392   4.642   0.563  0.2730 -0.4040 -0.4799
 3831SOL    HW111619   1.296   4.638   0.568  0.1499  1.3491 -0.1008
 3831SOL    HW211620   1.414   4.727   0.603  1.7977  0.3224 -2.5449
 3832SOL     OW11621   2.296   0.657   2.840 -0.4334 -0.5833  0.0606
 3832SOL    HW111622   2.282   0.585   2.901 -0.6067 -0.9995 -0.4525
 3832SOL    HW211623   2.253   0.732   2.881 -0.9249 -0.9559  0.2470
 3833SOL     OW11624   5.226   0.346   1.556 -0.1339  0.1913 -0.4497
 3833SOL    HW111625   5.185   0.411   1.613  0.2215 -0.1320  0.1944
 3833SOL    HW211626   5.317   0.342   1.586  0.4171  0.8677 -1.8096
 3834SOL     OW11627   5.149   4.588   2.187 -0.5060  0.2157  0.6636
 3834SOL    HW111628   5.177   4.497   2.200  2.2508  0.9914  1.5978
 3834SOL    HW211629   5.155   4.601   2.092  0.2036 -0.3269  0.6139
 3835SOL     OW11630   1.762   6.388   3.612 -0.0055 -0.2199 -0.3998
 3835SOL    HW111631   1.775   6.367   3.520 -0.6943 -0.3340 -0.4808
 3835SOL    HW211632   1.785   6.481   3.619  2.3433 -0.6878 -0.1850
 3836SOL     OW11633   2.934   4.179   0.151 -0.0766 -0.3576  0.2048
 3836SOL    HW111634   2.846   4.200   0.121  0.2543  0.0818 -0.4885
 3836SOL    HW211635   2.953   4.093   0.113  0.0534 -0.1359 -0.2484
 3837SOL     OW11636   4.420   5.039   1.052 -0.2133  0.3173 -0.4192
 3837SOL    HW111637   4.371   4.963   1.020 -0.8571  0.8236 -0.6841
 3837SOL    HW211638   4.396   5.046   1.144 -0.5036  0.4608 -0.5054
 3838SOL     OW11639   4.241   1.719   0.511 -0.1372  0.0224  0.0917
 3838SOL    HW111640   4.302   1.665   0.561 -0.1473 -0.8678 -0.8002
 3838SOL    HW211641   4.169   1.660   0.488  1.1510 -0.6950 -3.4136
 3839SOL     OW11642   6.081   2.009   4.239 -0.4701 -0.2923  0.6594
 3839SOL    HW111643   6.013   1.942   4.236  0.0011 -0.7933  0.7613
 3839SOL    HW211644   6.105   2.024   4.148 -0.3667 -0.4888  0.6534
 3840SOL     OW11645   2.687   1.231   1.078  0.9074  0.4498 -0.3088
 3840SOL    HW111646   2.759   1.235   1.015  0.6048 -1.8473 -0.9818
 3840SOL    HW211647   2.696   1.146   1.120 -0.0313  1.1170  1.4283
 3841SOL     OW11648   5.305   5.691   4.009  0.4031  0.1971  0.3522
 3841SOL    HW111649   5.244   5.754   3.971 -0.3061 -0.6147  0.0751
 3841SOL    HW211650   5.252   5.612   4.024  1.2290 -0.3092  0.7636
 3842SOL     OW11651   5.762   6.017   4.517 -0.7880  0.1449 -0.0371
 3842SOL    HW111652   5.734   6.024   4.426 -1.3833  1.1589  0.1937
 3842SOL    HW211653   5.691   5.970   4.560 -0.5614 -0.2286 -0.0587
 3843SOL     OW11654   5.812   5.931   1.236 -0.2087 -0.0202  0.5696
 3843SOL    HW111655   5.795   5.897   1.324 -1.2511 -1.8563 -0.2148
 3843SOL    HW211656   5.774   5.865   1.178 -1.9559  2.2958 -1.2659
 3844SOL     OW11657   1.801   0.010   3.024  0.2858 -0.5282  1.0850
 3844SOL    HW111658   1.709  -0.018   3.030  0.1885 -0.3298  0.5816
 3844SOL    HW211659   1.850  -0.072   3.021  0.2031 -0.6550  2.1552
 3845SOL     OW11660   2.763   3.508   4.272  0.0336 -0.5452 -0.4617
 3845SOL    HW111661   2.852   3.480   4.293 -0.5615 -1.4440  1.1910
 3845SOL    HW211662   2.741   3.461   4.191  1.7763  1.5642 -2.4414
 3846SOL     OW11663   0.940   1.309   3.399 -0.0093 -0.0913 -0.0370
 3846SOL    HW111664   1.020   1.282   3.354 -0.1566 -0.3876 -0.1258
 3846SOL    HW211665   0.955   1.285   3.491 -0.3574 -1.0207 -0.2002
 3847SOL     OW11666   1.084   1.735   1.161  0.5480  0.0500  0.4138
 3847SOL    HW111667   0.989   1.722   1.165  0.7121 -2.7444 -0.3549
 3847SOL    HW211668   1.114   1.720   1.251  0.3214 -0.3291  0.4303
 3848SOL     OW11669   3.626   4.032   0.438 -0.0662 -0.0145 -0.2147
 3848SOL    HW111670   3.686   4.090   0.391 -1.3646  0.8693 -0.9073
 3848SOL    HW211671   3.573   4.092   0.491 -1.9695 -0.3806 -1.5208
 3849SOL     OW11672   0.374   1.003   2.397 -0.1786 -0.2122 -0.0512
 3849SOL    HW111673   0.293   1.000   2.447  0.4697  0.0729  1.0840
 3849SOL    HW211674   0.427   1.070   2.440 -0.0526  1.0636 -1.9576
 3850SOL     OW11675   1.922   5.186   4.194 -0.4012  0.1115  0.0239
 3850SOL    HW111676   1.999   5.129   4.189 -0.2553  0.3335 -0.2693
 3850SOL    HW211677   1.861   5.137   4.250  0.6074  0.7138  1.8068
 3851SOL     OW11678   4.993   1.581   1.640  0.2782  0.3725  0.0570
 3851SOL    HW111679   4.947   1.655   1.600  2.9437  1.6055 -1.3282
 3851SOL    HW211680   4.926   1.532   1.686 -2.3042  1.7738 -1.7283
 3852SOL     OW11681   2.242   4.917   2.094 -0.1886  0.1879 -0.1359
 3852SOL    HW111682   2.162   4.883   2.133 -0.4814  1.9045  0.9589
 3852SOL    HW211683   2.258   5.000   2.139  1.5393  0.5309 -1.1797
 3853SOL     OW11684   1.950   4.140   2.514 -0.2280  0.2899  0.3427
 3853SOL    HW111685   2.030   4.088   2.519 -0.8191 -0.6502  2.0182
 3853SOL    HW211686   1.888   4.084   2.468 -0.4139  0.1996  0.6954
 3854SOL     OW11687   5.094   0.763   1.456 -0.1319 -0.1367  0.4840
 3854SOL    HW111688   5.064   0.848   1.489 -3.7583 -1.4463  1.5740
 3854SOL    HW211689   5.062   0.700   1.520  3.0968 -2.4903  0.2310
 3855SOL     OW11690   5.011   0.669   3.073 -0.4887 -0.6891  0.2789
 3855SOL    HW111691   5.045   0.721   3.146  1.0143 -1.9030  0.5319
 3855SOL    HW211692   4.985   0.586   3.112 -1.6427 -0.6573 -0.3097
 3856SOL     OW11693   0.467   0.126   0.681 -0.9817 -0.3288 -0.0718
 3856SOL    HW111694   0.510   0.126   0.596  0.4273  0.2634  0.5802
 3856SOL    HW211695   0.428   0.038   0.688  0.4172 -1.0545 -0.6131
 3857SOL     OW11696   1.953   3.080   0.410  0.2712 -0.3616 -0.1699
 3857SOL    HW111697   2.006   3.055   0.335 -1.8367  0.3005 -2.0940
 3857SOL    HW211698   1.993   3.162   0.441  1.1671 -0.6320 -0.5419
 3858SOL     OW11699   3.345   5.385   3.855 -0.2479  0.7957 -0.1166
 3858SOL    HW111700   3.257   5.367   3.824 -0.3579 -0.6651  0.8792
 3858SOL    HW211701   3.333   5.437   3.934 -0.3663 -0.5945  0.8402
 3859SOL     OW11702   3.787   1.546   0.418 -0.0249 -0.4482  0.4713
 3859SOL    HW111703   3.882   1.546   0.423  0.0063 -0.9550  0.0152
 3859SOL    HW211704   3.766   1.612   0.351  0.0083 -0.4541  0.4555
 3860SOL     OW11705   1.559   0.126   2.201 -0.9637  0.0027 -0.0192
 3860SOL    HW111706   1.543   0.060   2.269  0.5595 -0.9322 -0.4795
 3860SOL    HW211707   1.649   0.156   2.218 -1.9835  3.3586  1.2290
 3861SOL     OW11708   1.057   5.232   4.355  0.3672  0.5683  0.0324
 3861SOL    HW111709   1.117   5.203   4.422 -1.6377 -1.4078  1.2512
 3861SOL    HW211710   0.981   5.265   4.403 -0.9851 -0.4928 -1.1783
 3862SOL     OW11711   1.347   0.710   3.614  0.8204  0.4483 -0.5113
 3862SOL    HW111712   1.364   0.802   3.636 -1.1895  0.9599 -0.6973
 3862SOL    HW211713   1.303   0.713   3.529 -0.0824 -0.5774 -0.1306
 3863SOL     OW11714   3.317   5.525   4.314 -0.1822 -0.4733 -0.2644
 3863SOL    HW111715   3.407   5.497   4.332 -0.3092  0.0764  1.8565
 3863SOL    HW211716   3.312   5.615   4.348 -1.4724 -0.4148 -0.4818
 3864SOL     OW11717   5.726   3.109   2.076  0.2590  0.0295 -0.2713
 3864SOL    HW111718   5.671   3.086   2.150 -1.0520 -0.9223 -1.4191
 3864SOL    HW211719   5.813   3.125   2.113 -0.5292  0.6007  1.5339
 3865SOL     OW11720   5.866   2.908   4.031  0.5300  0.2055  0.2028
 3865SOL    HW111721   5.809   2.985   4.032 -0.5704 -0.5471  1.1016
 3865SOL    HW211722   5.953   2.942   4.049  0.1046  1.2661  0.3976
 3866SOL     OW11723   0.262   5.352   3.192  0.4777  0.2200 -0.7643
 3866SOL    HW111724   0.296   5.307   3.270  0.8329 -0.1009 -1.0957
 3866SOL    HW211725   0.319   5.322   3.121 -0.1327  0.1425 -1.2295
 3867SOL     OW11726   2.648   4.950   4.271  0.0371 -0.6304  0.2480
 3867SOL    HW111727   2.676   4.876   4.217 -2.6726 -2.1043  0.5165
 3867SOL    HW211728   2.637   5.022   4.208  0.5670 -1.1234 -0.4448
 3868SOL     OW11729   5.475   0.877   1.289  0.2217  0.1311 -0.3275
 3868SOL    HW111730   5.486   0.955   1.344 -1.0382 -0.0231  0.2268
 3868SOL    HW211731   5.516   0.900   1.206  0.6933  1.0305  0.1322
 3869SOL     OW11732   0.738   3.461   0.488  0.1351  0.3431 -0.2372
 3869SOL    HW111733   0.703   3.548   0.509 -0.6399  0.4870 -1.8207
 3869SOL    HW211734   0.664   3.414   0.449  0.6340 -0.9185  0.2382
 3870SOL     OW11735   1.135   0.194   1.498  0.3869 -0.4090 -0.1968
 3870SOL    HW111736   1.169   0.218   1.584 -0.2875 -0.1685  0.0145
 3870SOL    HW211737   1.088   0.271   1.468  1.0346 -0.3002 -1.0289
 3871SOL     OW11738   3.533   1.599   0.985 -0.1622  0.4910 -0.2936
 3871SOL    HW111739   3.520   1.505   1.002  0.5040  0.0746 -1.7374
 3871SOL    HW211740   3.461   1.623   0.927  1.7228 -0.3576 -3.5020
 3872SOL     OW11741   4.727   3.646   3.708 -0.2709 -0.5562 -0.0441
 3872SOL    HW111742   4.788   3.696   3.762 -0.4684 -1.7363  1.4102
 3872SOL    HW211743   4.768   3.559   3.700 -0.5394 -0.6134 -1.3632
 3873SOL     OW11744   5.097   5.469   4.028 -0.1364 -0.7443  0.1614
 3873SOL    HW111745   5.018   5.511   3.994 -0.1259 -1.1166 -0.3514
 3873SOL    HW211746   5.069   5.422   4.106 -0.9032 -2.5238 -1.0607
 3874SOL     OW11747   0.726   1.417   0.789 -0.3174  0.0927  0.0739
 3874SOL    HW111748   0.634   1.402   0.769 -0.1768 -0.7846 -0.0023
 3874SOL    HW211749   0.745   1.358   0.861  0.4374 -0.5667 -0.6187
 3875SOL     OW11750   4.252   4.397   4.084 -0.0354 -0.1385 -0.0389
 3875SOL    HW111751   4.338   4.439   4.077 -0.4256  0.5844 -0.8802
 3875SOL    HW211752   4.271   4.304   4.094  0.8502 -0.0394 -0.5782
 3876SOL     OW11753   3.933   5.879   2.163  1.1991  0.3753  0.0187
 3876SOL    HW111754   4.021   5.886   2.200  1.4415 -0.1686 -0.4174
 3876SOL    HW211755   3.946   5.885   2.069  0.5700  1.9140 -0.0225
 3877SOL     OW11756   3.204   0.953   1.421 -0.2223  0.1143 -0.0131
 3877SOL    HW111757   3.237   1.043   1.422 -0.3306  0.2776  2.7990
 3877SOL    HW211758   3.121   0.960   1.373 -0.3236  1.5713  0.2587
 3878SOL     OW11759   6.165   1.010   1.654  0.2310 -0.6089  0.7700
 3878SOL    HW111760   6.232   1.025   1.720  0.4956  2.2282  0.1157
 3878SOL    HW211761   6.083   1.007   1.703  0.5563 -0.3382  1.3496
 3879SOL     OW11762   6.186   1.970   3.086  0.2072 -0.1248  0.3974
 3879SOL    HW111763   6.271   1.994   3.049  0.3007  0.0113  0.6944
 3879SOL    HW211764   6.166   1.885   3.048 -0.2845  0.5391 -0.9387
 3880SOL     OW11765   2.209   2.018   0.963 -0.1807  0.1981 -0.7469
 3880SOL    HW111766   2.235   2.061   1.044 -0.4035 -2.4915  1.0061
 3880SOL    HW211767   2.116   2.040   0.953 -0.7441 -0.9679  1.0418
 3881SOL     OW11768   6.029   6.241   2.070  0.2931 -0.2525  0.2181
 3881SOL    HW111769   6.031   6.337   2.067 -1.7560 -0.1415 -0.5140
 3881SOL    HW211770   6.061   6.219   2.157  0.5950  1.0951  0.4994
 3882SOL     OW11771   5.777   2.369   2.782 -0.6516  0.3611 -0.1170
 3882SOL    HW111772   5.698   2.400   2.826 -2.1362 -0.1260 -2.1168
 3882SOL    HW211773   5.747   2.295   2.728  1.3515 -0.3293 -0.4625
 3883SOL     OW11774   5.637   1.852   3.441 -0.0628  0.5999  0.7474
 3883SOL    HW111775   5.597   1.874   3.357  0.2911 -1.0498  0.0749
 3883SOL    HW211776   5.731   1.865   3.426 -0.0030  0.3602  0.9112
 3884SOL     OW11777   3.889   1.905   2.442  0.3933 -0.2969  0.7303
 3884SOL    HW111778   3.930   1.892   2.356 -0.4493 -1.5374  0.4582
 3884SOL    HW211779   3.927   1.986   2.475  0.8729  0.1411 -0.7402
 3885SOL     OW11780   5.582   2.995   2.276  0.0835 -0.0802  0.2236
 3885SOL    HW111781   5.559   2.922   2.219  0.2991  0.7840 -1.0603
 3885SOL    HW211782   5.498   3.034   2.300  0.0127  0.0385 -0.2049
 3886SOL     OW11783   2.048   4.079   3.845  0.4418  0.3600 -0.6335
 3886SOL    HW111784   2.075   4.101   3.934  0.8203  0.5993 -0.8040
 3886SOL    HW211785   2.064   3.985   3.838 -1.4308 -0.1173  0.1849
 3887SOL     OW11786   3.100   0.084   0.186 -0.0670 -0.2394  0.0827
 3887SOL    HW111787   3.036   0.149   0.155 -0.0124  0.3905  1.1729
 3887SOL    HW211788   3.048   0.024   0.240 -0.0728 -1.0125 -0.7278
 3888SOL     OW11789   0.993   3.452   3.672 -0.0404 -0.2185 -0.2463
 3888SOL    HW111790   0.920   3.414   3.722  0.5686 -0.6408  0.3575
 3888SOL    HW211791   1.022   3.526   3.725  1.7491 -1.6739  1.1025
 3889SOL     OW11792   5.231   5.633   3.607  0.3944  0.1328  0.4615
 3889SOL    HW111793   5.306   5.632   3.546 -0.6697  0.1828 -0.9519
 3889SOL    HW211794   5.248   5.559   3.666  0.5462 -1.3040 -1.2035
 3890SOL     OW11795   3.062   1.544   0.781 -0.0383  0.2963  0.1087
 3890SOL    HW111796   3.129   1.542   0.712 -1.4614  0.6361 -1.4079
 3890SOL    HW211797   2.997   1.607   0.749  0.4896  2.8527  3.1447
 3891SOL     OW11798   1.084   5.934   1.065  0.1511 -0.1178  0.1264
 3891SOL    HW111799   1.100   5.918   0.972  0.9413  0.0472  0.2253
 3891SOL    HW211800   1.163   5.902   1.109 -0.6928 -1.3384  0.8724
 3892SOL     OW11801   3.516   1.199   0.313  0.3856  0.2409  0.3479
 3892SOL    HW111802   3.483   1.287   0.334  0.6098  0.3872  0.0982
 3892SOL    HW211803   3.607   1.213   0.288  0.7088 -0.1822  1.2115
 3893SOL     OW11804   3.913   2.865   3.366 -0.2730  0.0553 -0.0446
 3893SOL    HW111805   3.975   2.935   3.348  0.2603 -0.7238 -1.6618
 3893SOL    HW211806   3.884   2.880   3.456  2.6540  0.1985  1.0708
 3894SOL     OW11807   1.295   4.066   4.090 -0.6681  0.5985 -0.5949
 3894SOL    HW111808   1.330   4.005   4.025 -3.1622 -0.8310 -0.8518
 3894SOL    HW211809   1.302   4.020   4.174  0.8313  1.6725 -0.0249
 3895SOL     OW11810   6.376   1.422   2.795  1.1275  0.3635 -0.1838
 3895SOL    HW111811   6.364   1.503   2.844  1.3200  0.7230 -0.7193
 3895SOL    HW211812   6.346   1.353   2.855 -1.3711  0.9610 -0.5434
 3896SOL     OW11813   1.859   2.705   4.164  0.1158 -0.8907  0.0967
 3896SOL    HW111814   1.767   2.732   4.157 -0.8002 -3.3499  0.5671
 3896SOL    HW211815   1.876   2.659   4.081  0.1421 -2.2337  0.7921
 3897SOL     OW11816   1.102   5.839   4.434 -0.8991 -0.2180 -0.0403
 3897SOL    HW111817   1.128   5.928   4.409 -1.4352 -0.5467 -2.1148
 3897SOL    HW211818   1.169   5.811   4.496  1.3324  0.5036 -1.8415
 3898SOL     OW11819   1.667   0.753   0.336 -0.2761  0.0044  0.1362
 3898SOL    HW111820   1.686   0.659   0.335  1.8185  0.3288 -0.0675
 3898SOL    HW211821   1.707   0.784   0.418  0.5414  0.9059 -0.5604
 3899SOL     OW11822   4.020   1.223   3.976 -1.0397 -0.8127  0.3983
 3899SOL    HW111823   4.051   1.245   4.064  0.1844 -2.0901  0.3393
 3899SOL    HW211824   4.042   1.131   3.965 -2.0291 -0.9415 -0.9220
 3900SOL     OW11825   5.314   5.796   2.528 -0.0261 -0.4256 -0.1910
 3900SOL    HW111826   5.223   5.783   2.498 -0.5237  1.5586  0.1700
 3900SOL    HW211827   5.327   5.891   2.525  2.0751 -0.6215 -0.2108
 3901SOL     OW11828   2.542   0.049   1.349 -0.2153  0.5184 -0.1132
 3901SOL    HW111829   2.537   0.140   1.320 -3.5892  0.6339  0.0092
 3901SOL    HW211830   2.478   0.043   1.420  1.6412 -1.5361  1.7015
 3902SOL     OW11831   1.371   6.021   1.968  0.1593  0.0413 -0.4974
 3902SOL    HW111832   1.326   5.997   2.049  0.9522 -2.0263 -0.5477
 3902SOL    HW211833   1.423   5.944   1.946  1.8948  1.3890 -1.6880
 3903SOL     OW11834   4.909   3.827   4.204 -0.3342 -0.0248 -0.1902
 3903SOL    HW111835   4.845   3.779   4.257  0.6171 -0.2789  0.8032
 3903SOL    HW211836   4.868   3.911   4.187 -1.2012 -0.4254 -0.1711
 3904SOL     OW11837   4.879   5.444   2.859  0.3302 -0.4808 -0.1493
 3904SOL    HW111838   4.908   5.420   2.771  1.2975  0.1088 -0.0195
 3904SOL    HW211839   4.885   5.540   2.860  0.9894 -0.5039  0.7519
 3905SOL     OW11840   4.565   2.791   2.492  0.1868 -0.1757 -0.4419
 3905SOL    HW111841   4.471   2.802   2.478 -0.2870  0.1663  2.0766
 3905SOL    HW211842   4.588   2.715   2.438 -1.8785 -1.2038 -0.1012
 3906SOL     OW11843   4.392   1.265   1.776 -0.6147 -0.2611  0.1395
 3906SOL    HW111844   4.332   1.314   1.833  1.5119  1.3174  1.3521
 3906SOL    HW211845   4.383   1.306   1.690  0.7648  2.3576  1.0047
 3907SOL     OW11846   3.202   5.757   4.409 -0.4242 -0.3105  0.6103
 3907SOL    HW111847   3.141   5.722   4.474 -0.6654 -0.9088  0.0800
 3907SOL    HW211848   3.153   5.829   4.368  0.2481  1.1078  2.0381
 3908SOL     OW11849   4.887   5.639   3.888 -0.5905  0.2492  0.2832
 3908SOL    HW111850   4.795   5.612   3.881 -1.0701  1.8990 -2.1859
 3908SOL    HW211851   4.913   5.661   3.799  1.7853  1.2267  1.0525
 3909SOL     OW11852   2.756   3.695   2.121  0.2300  0.6521  0.7431
 3909SOL    HW111853   2.706   3.662   2.196 -1.5715  2.3695  0.4659
 3909SOL    HW211854   2.796   3.618   2.083 -3.5899 -1.5137  0.0408
 3910SOL     OW11855   5.714   0.863   0.742  0.8375 -0.2445 -0.5008
 3910SOL    HW111856   5.678   0.951   0.753 -0.3385 -0.8497  1.2201
 3910SOL    HW211857   5.757   0.844   0.825  1.4166 -1.1773 -0.9830
 3911SOL     OW11858   2.606   2.801   3.625  0.3166  0.4028 -0.3276
 3911SOL    HW111859   2.551   2.827   3.699  1.0447  0.0393  0.3609
 3911SOL    HW211860   2.548   2.809   3.549 -0.2979  1.2871  0.2009
 3912SOL     OW11861   6.126   3.695   2.925  0.1868  0.1687  0.2053
 3912SOL    HW111862   6.050   3.722   2.976  0.2476 -1.2290  1.1545
 3912SOL    HW211863   6.117   3.599   2.918  2.2323 -0.1843  1.0541
 3913SOL     OW11864   3.814   3.534   3.894  0.2166 -0.3294  0.6482
 3913SOL    HW111865   3.810   3.496   3.982  1.6382 -2.9697 -0.2152
 3913SOL    HW211866   3.895   3.585   3.895  0.4651 -0.7177  0.7651
 3914SOL     OW11867   0.572   4.854   0.072  0.9264 -0.0422  0.2934
 3914SOL    HW111868   0.476   4.853   0.075  0.9233 -1.0533  0.6990
 3914SOL    HW211869   0.593   4.825  -0.017  0.8338 -0.7811  0.4993
 3915SOL     OW11870   5.302   5.148   0.007  0.2350 -0.2365 -0.7004
 3915SOL    HW111871   5.357   5.223  -0.013  1.8076 -1.3459 -0.9494
 3915SOL    HW211872   5.233   5.151  -0.059 -1.7226  2.5562  1.0412
 3916SOL     OW11873   3.362   0.576   3.466  0.3836 -0.0913 -0.0881
 3916SOL    HW111874   3.307   0.518   3.414 -0.1938 -2.1521  2.3829
 3916SOL    HW211875   3.446   0.529   3.473  0.8855  0.7488 -0.1324
 3917SOL     OW11876   0.791   0.839   1.350  0.2421  0.5369  0.0201
 3917SOL    HW111877   0.879   0.856   1.385 -0.5665  0.2294  2.5923
 3917SOL    HW211878   0.793   0.748   1.323  0.9763  0.8561 -1.1785
 3918SOL     OW11879   6.226   4.233   0.911  0.6249 -0.4431 -0.0971
 3918SOL    HW111880   6.139   4.227   0.872  1.1772 -0.1079 -1.5081
 3918SOL    HW211881   6.230   4.322   0.947 -0.6266 -1.3480  2.8893
 3919SOL     OW11882   0.994   2.848   1.976  0.1405 -0.1740 -0.3746
 3919SOL    HW111883   0.920   2.909   1.977 -0.7715 -1.1258  1.8706
 3919SOL    HW211884   1.071   2.904   1.966 -0.7142  1.1748  0.0849
 3920SOL     OW11885   2.595   5.661   2.256 -0.7908 -0.3103  0.1606
 3920SOL    HW111886   2.615   5.683   2.347  1.7592 -0.3601 -0.2235
 3920SOL    HW211887   2.654   5.717   2.204  0.7560 -2.7770 -1.1752
 3921SOL     OW11888   2.383   3.068   3.081 -0.6088 -0.6416 -0.3674
 3921SOL    HW111889   2.346   2.980   3.090 -0.1460 -1.1687 -2.4897
 3921SOL    HW211890   2.474   3.054   3.058 -0.0357  0.5147  0.8833
 3922SOL     OW11891   2.722   2.606   2.351  0.5069 -0.4288  0.1225
 3922SOL    HW111892   2.697   2.606   2.444  2.0121 -1.5524  0.6084
 3922SOL    HW211893   2.665   2.671   2.311 -0.0454  0.2919  1.8774
 3923SOL     OW11894   6.203   3.326   2.523 -0.5030 -0.0500 -0.0342
 3923SOL    HW111895   6.286   3.311   2.477 -0.6593  0.2860 -0.4374
 3923SOL    HW211896   6.164   3.238   2.531 -0.2044 -0.1841 -0.0197
 3924SOL     OW11897   3.829   6.083   2.892  0.2829  0.0548 -0.0776
 3924SOL    HW111898   3.781   6.113   2.815  1.7752 -0.1477 -1.1745
 3924SOL    HW211899   3.829   6.159   2.951 -0.5828  0.3378 -0.4165
 3925SOL     OW11900   1.239   1.123   2.877 -0.1951  0.1556  0.3290
 3925SOL    HW111901   1.191   1.105   2.959  0.0529 -0.5306  0.3405
 3925SOL    HW211902   1.197   1.066   2.813 -0.9698  1.3217 -0.2692
 3926SOL     OW11903   4.082   0.640   4.195  0.4872 -0.3133 -0.0039
 3926SOL    HW111904   3.996   0.682   4.189  0.5014 -0.3629 -0.6612
 3926SOL    HW211905   4.100   0.608   4.106  0.1584 -2.3728  0.5739
 3927SOL     OW11906   5.483   1.001   0.483 -0.5829  0.3109  0.5589
 3927SOL    HW111907   5.542   0.926   0.475 -0.9924 -0.1100  1.2810
 3927SOL    HW211908   5.428   0.980   0.558 -2.1498  0.3414 -0.4815
 3928SOL     OW11909   1.396   3.056   4.182  0.1837 -0.4349  0.0646
 3928SOL    HW111910   1.439   3.142   4.179 -0.2702 -0.1714 -2.0101
 3928SOL    HW211911   1.310   3.072   4.144  0.0758 -1.7969 -0.3477
 3929SOL     OW11912   2.423   2.144   2.427 -0.4069  0.8043 -0.2302
 3929SOL    HW111913   2.503   2.102   2.459  1.1251  2.7089 -1.1357
 3929SOL    HW211914   2.376   2.169   2.507 -0.0528 -0.2405  0.3392
 3930SOL     OW11915   4.684   3.194   3.825 -0.7136 -0.1829 -0.0961
 3930SOL    HW111916   4.685   3.104   3.792 -0.8514 -0.0645 -0.4377
 3930SOL    HW211917   4.629   3.190   3.903 -2.0803 -0.1239 -0.9854
 3931SOL     OW11918   5.870   1.521   2.717  0.2594  1.0084  0.3589
 3931SOL    HW111919   5.907   1.610   2.713  0.6605  0.8309 -1.0482
 3931SOL    HW211920   5.775   1.535   2.713  0.3258  1.3950 -0.2777
 3932SOL     OW11921   0.688   1.193   1.020 -0.2879 -0.6685 -0.3522
 3932SOL    HW111922   0.594   1.182   1.029 -0.2146 -2.0572 -0.6736
 3932SOL    HW211923   0.723   1.104   1.033  1.0324 -0.1083  0.3171
 3933SOL     OW11924   0.350   6.046   3.405  0.2798  0.2174 -0.0064
 3933SOL    HW111925   0.388   6.083   3.485 -0.5252  0.3630  0.3293
 3933SOL    HW211926   0.256   6.045   3.422  0.1973 -1.5574 -0.1629
 3934SOL     OW11927   0.285   2.786   1.771  0.7657 -0.0173  0.0052
 3934SOL    HW111928   0.340   2.709   1.755 -0.3224 -0.3963 -3.6575
 3934SOL    HW211929   0.309   2.848   1.702 -2.5108  0.1608 -1.3244
 3935SOL     OW11930   4.213   4.449   2.447  0.0573  0.0444  0.0080
 3935SOL    HW111931   4.210   4.504   2.368 -1.8444 -1.1727 -0.9458
 3935SOL    HW211932   4.191   4.361   2.415 -0.5121 -0.5801  1.8590
 3936SOL     OW11933   3.063   1.148   2.637  0.2795 -0.0553 -0.1889
 3936SOL    HW111934   3.001   1.093   2.685 -0.9373  0.2141 -1.3411
 3936SOL    HW211935   3.149   1.118   2.667 -0.3044  0.5236  2.6009
 3937SOL     OW11936   0.969   5.831   2.799 -0.0083 -0.0429  0.2456
 3937SOL    HW111937   0.912   5.881   2.741 -1.6136 -0.2187  1.5145
 3937SOL    HW211938   1.007   5.896   2.859 -0.6065 -0.1106  0.7196
 3938SOL     OW11939   3.225   4.835   0.701  0.4238  0.0063 -0.0304
 3938SOL    HW111940   3.281   4.810   0.628  2.0625  1.9546  0.3527
 3938SOL    HW211941   3.171   4.906   0.667 -2.0002 -1.7429 -0.3531
 3939SOL     OW11942   2.591   5.902   1.431  0.5477  0.9382  0.2606
 3939SOL    HW111943   2.581   5.996   1.419  0.6976  0.8210 -0.9703
 3939SOL    HW211944   2.507   5.865   1.402  1.3494  0.5541 -1.9054
 3940SOL     OW11945   5.025   5.082   1.404 -0.2199 -0.2168 -0.0537
 3940SOL    HW111946   5.021   5.166   1.360 -0.7846 -0.2250 -0.0381
 3940SOL    HW211947   5.073   5.099   1.485  1.2612 -0.2978 -0.8382
 3941SOL     OW11948   5.992   2.762   1.322  0.3452 -0.1878  0.3762
 3941SOL    HW111949   6.028   2.781   1.409 -0.9698  1.3052  0.6861
 3941SOL    HW211950   5.957   2.846   1.292  0.0378 -0.8400 -1.2625
 3942SOL     OW11951   4.145   2.412   2.783  0.4140 -0.4244  0.2204
 3942SOL    HW111952   4.235   2.413   2.814  0.5794  0.2467 -0.2123
 3942SOL    HW211953   4.148   2.461   2.700  0.3877 -3.5263 -1.9785
 3943SOL     OW11954   4.500   4.872   0.588  0.3009  0.2290 -0.0502
 3943SOL    HW111955   4.414   4.905   0.613 -0.2268 -0.7045 -0.5297
 3943SOL    HW211956   4.540   4.844   0.670 -0.9739 -1.7918  0.0354
 3944SOL     OW11957   5.014   6.006   2.510  0.3500  0.4240 -0.3323
 3944SOL    HW111958   4.963   6.027   2.431  1.3924  0.2446 -1.0984
 3944SOL    HW211959   5.105   6.018   2.483  0.7782 -0.4722  0.6037
 3945SOL     OW11960   5.887   1.046   0.530 -0.0706 -0.9264  0.0489
 3945SOL    HW111961   5.798   1.080   0.524  0.4299  0.7745  1.0705
 3945SOL    HW211962   5.876   0.951   0.539 -1.7150 -0.8437 -0.4972
 3946SOL     OW11963   3.519   1.402   3.010 -0.3183  0.2810  0.0367
 3946SOL    HW111964   3.530   1.466   3.081  1.7109  0.9008 -0.6956
 3946SOL    HW211965   3.607   1.370   2.993 -1.1791 -4.2174  1.4727
 3947SOL     OW11966   0.433   5.191   3.041  0.0926  0.1446 -0.3474
 3947SOL    HW111967   0.373   5.119   3.056 -0.0273  0.4782  1.1754
 3947SOL    HW211968   0.506   5.174   3.100 -1.2081  2.5196  2.5430
 3948SOL     OW11969   0.409   6.211   2.773  0.2455 -0.1800 -0.1680
 3948SOL    HW111970   0.503   6.202   2.790 -0.0509 -0.8789  1.5919
 3948SOL    HW211971   0.370   6.221   2.860 -1.5204 -2.3659 -0.5061
 3949SOL     OW11972   4.180   0.249   4.211 -0.2063 -0.4406  0.7289
 3949SOL    HW111973   4.215   0.164   4.239 -0.6523  0.1578  3.9408
 3949SOL    HW211974   4.118   0.229   4.142  1.3883 -2.3422 -0.3379
 3950SOL     OW11975   5.145   3.591   2.268  0.0315 -0.2547  0.0133
 3950SOL    HW111976   5.097   3.628   2.341 -0.7540  1.1134 -1.0896
 3950SOL    HW211977   5.087   3.524   2.232  0.1741 -0.5325  0.2920
 3951SOL     OW11978   6.231   3.509   3.712 -0.3000 -0.4911 -0.6091
 3951SOL    HW111979   6.233   3.540   3.621 -0.7353  1.0020 -0.1680
 3951SOL    HW211980   6.141   3.527   3.741 -0.1772 -0.9771  0.1062
 3952SOL     OW11981   1.082   4.516   3.947 -0.0390  0.3994 -0.2130
 3952SOL    HW111982   1.118   4.429   3.931  0.0979  0.5332 -0.6809
 3952SOL    HW211983   1.121   4.545   4.029  0.7741  0.4593 -0.6021
 3953SOL     OW11984   4.639   2.971   0.051 -0.4242  0.2141 -0.5436
 3953SOL    HW111985   4.734   2.961   0.048 -0.2480  1.5745 -1.7283
 3953SOL    HW211986   4.617   2.968   0.144  0.4749 -1.8566 -0.2771
 3954SOL     OW11987   0.886   2.264   3.651  0.3918  0.4592  0.2116
 3954SOL    HW111988   0.951   2.283   3.719  0.0537  1.9936  0.1872
 3954SOL    HW211989   0.918   2.311   3.574 -1.6109  3.1874  0.7329
 3955SOL     OW11990   3.622   5.640   4.136  0.3784 -0.1823 -0.4043
 3955SOL    HW111991   3.580   5.723   4.159  3.0185  1.2151  0.1858
 3955SOL    HW211992   3.621   5.589   4.217 -0.0160 -0.1197 -0.3663
 3956SOL     OW11993   6.060   5.314   0.690 -0.0874  0.1746 -0.0879
 3956SOL    HW111994   6.000   5.258   0.639 -1.5634  2.1547 -0.7657
 3956SOL    HW211995   6.025   5.311   0.779  1.6155 -2.1059  0.7031
 3957SOL     OW11996   3.797   2.277   0.578  0.6042 -0.3918 -0.1511
 3957SOL    HW111997   3.852   2.326   0.516 -1.0232  1.0735 -0.6126
 3957SOL    HW211998   3.829   2.187   0.573  2.4651  0.2240 -0.8526
 3958SOL     OW11999   0.580   4.012   1.750 -0.3449  0.3270  0.4745
 3958SOL    HW112000   0.617   4.066   1.680  3.4348 -4.2219 -2.2251
 3958SOL    HW212001   0.645   4.016   1.820  0.6390 -1.1124 -0.2552
 3959SOL     OW12002   5.902   5.110   4.391 -0.1354  1.1493 -0.3959
 3959SOL    HW112003   5.976   5.072   4.343 -1.0122  0.3156 -1.1790
 3959SOL    HW212004   5.939   5.186   4.436  1.1166  0.9539 -1.0054
 3960SOL     OW12005   4.086   1.443   1.623 -0.1408  0.3910  0.0537
 3960SOL    HW112006   4.091   1.389   1.701 -0.0898 -1.1369 -0.9240
 3960SOL    HW212007   4.002   1.422   1.584  0.1229  0.5756 -0.6481
 3961SOL     OW12008   1.634   3.606   1.412  0.3938  0.0242 -0.1806
 3961SOL    HW112009   1.697   3.608   1.484 -0.6964  0.8226  0.8414
 3961SOL    HW212010   1.601   3.696   1.407 -3.5036 -0.7956  2.1802
 3962SOL     OW12011   2.358   2.305   0.142  0.3278 -0.1237  0.2173
 3962SOL    HW112012   2.383   2.219   0.108  0.1522 -0.0095 -0.2165
 3962SOL    HW212013   2.345   2.292   0.235  0.0151 -0.6356  0.1064
 3963SOL     OW12014   3.236   2.784   4.190 -0.0089  0.6841 -0.0426
 3963SOL    HW112015   3.176   2.721   4.230  0.6950  1.1253  1.9316
 3963SOL    HW212016   3.179   2.853   4.157 -0.6873  0.8882  1.3920
 3964SOL     OW12017   0.851   1.933   1.911  0.5243 -0.2991 -0.0240
 3964SOL    HW112018   0.943   1.957   1.926  0.3522  1.1512 -0.8713
 3964SOL    HW212019   0.837   1.951   1.818 -0.9412  0.9360  0.3583
 3965SOL     OW12020   1.430   2.484   1.799  0.3298 -0.2201 -0.2966
 3965SOL    HW112021   1.402   2.541   1.870 -1.7936  0.4626 -1.4893
 3965SOL    HW212022   1.376   2.406   1.808  0.3445 -0.3076 -0.8582
 3966SOL     OW12023   1.964   0.539   4.275 -0.3662  0.1968 -0.4046
 3966SOL    HW112024   1.881   0.493   4.261 -0.2197 -0.1015 -0.3085
 3966SOL    HW212025   2.012   0.525   4.193 -0.8571  1.3446 -0.9246
 3967SOL     OW12026   1.830   1.478   1.797  0.3826  0.0463 -0.4678
 3967SOL    HW112027   1.823   1.496   1.891 -0.4902  1.2014 -0.6968
 3967SOL    HW212028   1.865   1.389   1.792 -1.6153 -0.9935  1.0039
 3968SOL     OW12029   1.276   5.625   1.781  0.4733  0.2063  0.3609
 3968SOL    HW112030   1.227   5.543   1.789  0.6634  0.0081 -0.3576
 3968SOL    HW212031   1.210   5.693   1.790  0.2977 -0.0223  0.8733
 3969SOL     OW12032   2.977   3.354   4.348 -0.4890  1.0737 -0.4708
 3969SOL    HW112033   3.039   3.340   4.277  1.5717 -1.8583  1.4471
 3969SOL    HW212034   2.928   3.272   4.354 -0.7382  1.2717  1.2503
 3970SOL     OW12035   3.965   5.078   2.684  0.4599  0.0305  0.0641
 3970SOL    HW112036   3.974   5.067   2.589 -1.5801 -1.3443 -0.0893
 3970SOL    HW212037   3.888   5.026   2.707 -0.1096  1.5580  2.2605
 3971SOL     OW12038   0.109   3.160   2.092 -0.3103 -0.7138 -0.0367
 3971SOL    HW112039   0.145   3.226   2.034 -1.4234  0.5427  0.5720
 3971SOL    HW212040   0.174   3.151   2.162  0.2628 -0.9827 -0.5817
 3972SOL     OW12041   2.556   0.947   2.149  0.2349 -0.0930 -0.3980
 3972SOL    HW112042   2.618   0.881   2.178 -0.5328 -1.2180 -1.1694
 3972SOL    HW212043   2.607   1.004   2.091  0.9559  0.1465  0.4320
 3973SOL     OW12044   2.037   4.561   3.366  0.1802  0.0061  0.1738
 3973SOL    HW112045   1.982   4.639   3.370 -0.9927 -0.7183 -0.4866
 3973SOL    HW212046   2.088   4.563   3.447 -1.0400  0.6018  0.9850
 3974SOL     OW12047   5.852   3.970   3.334  0.0602  0.2036  0.5860
 3974SOL    HW112048   5.901   3.925   3.403  0.1852  0.1401  0.4566
 3974SOL    HW212049   5.765   3.983   3.371 -0.2362 -0.8800  0.3249
 3975SOL     OW12050   1.696   4.489   0.719 -0.3317  0.0714  0.0754
 3975SOL    HW112051   1.707   4.513   0.811  0.7537 -1.6876  0.5033
 3975SOL    HW212052   1.624   4.425   0.719 -0.1791 -0.1098 -0.2463
 3976SOL     OW12053   5.431   2.918   0.829  0.1272  0.4368 -0.4241
 3976SOL    HW112054   5.354   2.893   0.882  0.3394 -2.1678 -1.0522
 3976SOL    HW212055   5.506   2.888   0.880  0.5095  0.3215 -1.0311
 3977SOL     OW12056   3.278   2.058   0.297 -0.1125 -0.0514  0.3588
 3977SOL    HW112057   3.217   2.017   0.359 -2.8106  0.2376 -1.7100
 3977SOL    HW212058   3.289   2.147   0.329 -2.1810  0.3780  0.1676
 3978SOL     OW12059   2.892   4.293   0.833  0.5294  0.6539 -0.5778
 3978SOL    HW112060   2.937   4.222   0.878 -0.2715 -0.4909 -1.4769
 3978SOL    HW212061   2.802   4.290   0.866  0.1324  0.3062 -1.6054
 3979SOL     OW12062   4.071   0.703   2.084  0.3598  0.0097 -0.1255
 3979SOL    HW112063   3.995   0.646   2.097  1.3996 -2.1348 -1.9333
 3979SOL    HW212064   4.094   0.691   1.992  1.7097  2.2118 -0.2190
 3980SOL     OW12065   6.167   4.967   1.002  0.0007 -0.1102 -0.2366
 3980SOL    HW112066   6.095   4.925   0.954  0.7680 -1.8824  0.0205
 3980SOL    HW212067   6.239   4.971   0.939  0.6169 -1.2760  0.3413
 3981SOL     OW12068   6.101   2.674   1.070 -0.2307  0.7641 -0.0043
 3981SOL    HW112069   6.046   2.689   1.147  0.7859 -0.8915  1.1714
 3981SOL    HW212070   6.049   2.617   1.013 -0.7275  1.4460 -0.2637
 3982SOL     OW12071   0.581   4.987   2.545  0.0589 -0.5058  0.1579
 3982SOL    HW112072   0.524   5.049   2.498 -0.7390 -0.0045  1.6633
 3982SOL    HW212073   0.601   4.920   2.480  1.0346  1.2764 -1.6338
 3983SOL     OW12074   0.681   3.829   4.227  0.7239 -0.0871  0.7166
 3983SOL    HW112075   0.663   3.904   4.170  0.8509 -1.0259 -0.6477
 3983SOL    HW212076   0.624   3.843   4.303 -1.2400  0.1236 -0.6475
 3984SOL     OW12077   3.821   0.645   3.364  0.1473 -0.4077  0.1696
 3984SOL    HW112078   3.910   0.679   3.367  0.2642 -0.6255 -0.5556
 3984SOL    HW212079   3.776   0.689   3.437  0.2988  1.2947 -0.6456
 3985SOL     OW12080   4.869   5.993   2.294  0.4636  0.0491 -0.1774
 3985SOL    HW112081   4.781   5.965   2.321  1.4336 -1.5119  2.0088
 3985SOL    HW212082   4.883   5.951   2.209 -0.8828  0.4325 -0.6352
 3986SOL     OW12083   3.773   4.100   1.288  0.0236 -0.3939  0.2396
 3986SOL    HW112084   3.729   4.175   1.329  0.0853  0.3460 -0.9465
 3986SOL    HW212085   3.758   4.112   1.195  2.9206  0.1197 -0.3424
 3987SOL     OW12086   0.149   1.931   4.429 -0.6732  0.0215 -0.1652
 3987SOL    HW112087   0.158   1.840   4.399  1.5250  0.5726 -1.6306
 3987SOL    HW212088   0.054   1.946   4.430 -1.1367 -2.2091  0.0474
 3988SOL     OW12089   1.287   3.695   1.350  0.0497  0.0086  0.0742
 3988SOL    HW112090   1.279   3.755   1.276  2.1241  1.2797  0.6912
 3988SOL    HW212091   1.223   3.726   1.414 -0.6748 -0.1164 -0.5706
 3989SOL     OW12092   0.701   3.999   1.142  0.8481 -0.0890 -0.1174
 3989SOL    HW112093   0.717   3.972   1.233  0.8062 -3.3707 -0.8471
 3989SOL    HW212094   0.783   3.980   1.097  0.4849  0.3144 -0.9810
 3990SOL     OW12095   0.094   0.592   1.085 -0.2789  0.4191  0.1255
 3990SOL    HW112096   0.075   0.507   1.044  3.1415 -0.3888 -0.3935
 3990SOL    HW212097   0.109   0.571   1.177 -1.5091  1.0081  0.5141
 3991SOL     OW12098   3.386   4.727   1.785  0.3604  0.0165 -0.5990
 3991SOL    HW112099   3.391   4.695   1.695  0.1296  2.0939 -1.4540
 3991SOL    HW212100   3.444   4.669   1.834  1.9094 -0.1765 -2.4303
 3992SOL     OW12101   0.404   6.310   2.485 -0.1615 -0.5696  0.6372
 3992SOL    HW112102   0.499   6.312   2.496  0.0954  1.9138 -0.5006
 3992SOL    HW212103   0.369   6.309   2.574  0.8984 -1.4948  1.0854
 3993SOL     OW12104   3.305   3.172   2.709 -0.2153  0.8440  0.1683
 3993SOL    HW112105   3.354   3.158   2.790  0.9183  1.2956 -0.3955
 3993SOL    HW212106   3.345   3.111   2.647  1.9874  3.2650 -1.1947
 3994SOL     OW12107   2.055   2.624   1.469 -0.4755 -0.5683  0.3411
 3994SOL    HW112108   2.043   2.643   1.562  3.0648 -0.3055  1.0331
 3994SOL    HW212109   2.141   2.662   1.448  0.6627 -3.5887 -1.9920
 3995SOL     OW12110   4.492   5.180   2.467  0.2107  0.1068 -0.2417
 3995SOL    HW112111   4.494   5.276   2.470 -2.1020  0.2686 -0.7277
 3995SOL    HW212112   4.457   5.154   2.552 -1.9030 -0.0052 -1.0393
 3996SOL     OW12113   3.434   3.949   1.421  0.0253 -0.1172  0.3819
 3996SOL    HW112114   3.388   3.876   1.462  1.1748 -0.7291  0.6603
 3996SOL    HW212115   3.367   3.992   1.367 -1.0631 -0.4492  1.3754
 3997SOL     OW12116   5.473   2.182   0.829  0.1554  0.1660 -0.4691
 3997SOL    HW112117   5.543   2.205   0.891  0.6667  0.5260 -1.1567
 3997SOL    HW212118   5.397   2.164   0.885  0.8851 -0.6325  0.3317
 3998SOL     OW12119   0.350   5.097   3.370 -0.1584 -0.1273  0.0063
 3998SOL    HW112120   0.280   5.150   3.409 -1.2653 -1.8212  0.5802
 3998SOL    HW212121   0.308   5.050   3.298 -0.1461 -2.2247  1.1835
 3999SOL     OW12122   4.298   5.763   3.703  0.2815  0.0961  0.3462
 3999SOL    HW112123   4.211   5.791   3.676  0.6316  1.1560  0.2086
 3999SOL    HW212124   4.349   5.761   3.622 -0.0943 -2.8458 -0.0155
 4000SOL     OW12125   1.741   2.428   3.079  0.1463  0.3218  0.2976
 4000SOL    HW112126   1.742   2.492   3.151  0.4741 -0.0275  0.6089
 4000SOL    HW212127   1.740   2.343   3.122 -1.8720  0.0577 -0.0779
 4001SOL     OW12128   3.982   6.301   3.992 -0.3552 -0.0713 -0.3745
 4001SOL    HW112129   4.029   6.384   3.979 -1.6980  1.0606  1.2019
 4001SOL    HW212130   3.909   6.323   4.050 -1.1069 -2.2914 -0.2830
 4002SOL     OW12131   2.064   0.728   0.128  0.3485 -0.0745  0.1758
 4002SOL    HW112132   2.073   0.637   0.156  0.0928  0.2955  1.6198
 4002SOL    HW212133   2.075   0.725   0.033 -0.8708 -1.7785 -0.0001
 4003SOL     OW12134   6.028   2.847   0.328 -0.1249  0.0264  0.0288
 4003SOL    HW112135   5.978   2.928   0.338 -0.1790 -0.1484  2.0322
 4003SOL    HW212136   6.017   2.801   0.412 -0.7446 -2.4656 -1.2068
 4004SOL     OW12137   4.226   5.513   3.669 -0.2134 -0.1937  0.4801
 4004SOL    HW112138   4.153   5.559   3.711  0.7474  0.2276  1.8383
 4004SOL    HW212139   4.273   5.582   3.622 -0.4525 -0.3876 -0.0538
 4005SOL     OW12140   1.950   3.358   3.996  0.0722  0.3364  0.2262
 4005SOL    HW112141   1.940   3.263   4.001 -1.8050  0.4765  0.3476
 4005SOL    HW212142   1.995   3.382   4.078  0.0775 -0.3902  0.4455
 4006SOL     OW12143   2.518   5.682   1.121 -0.1681 -0.2395  0.6244
 4006SOL    HW112144   2.518   5.707   1.029 -0.2320  2.0176  1.1104
 4006SOL    HW212145   2.586   5.615   1.128 -0.5561 -0.9200 -1.0963
 4007SOL     OW12146   4.857   1.846   0.976 -0.1309 -0.0011  0.0525
 4007SOL    HW112147   4.771   1.879   1.000 -0.1344  1.3771 -1.5260
 4007SOL    HW212148   4.842   1.755   0.950 -0.5061 -0.7773  2.4725
 4008SOL     OW12149   3.575   0.946   3.919  0.3603 -0.4563  0.3273
 4008SOL    HW112150   3.661   0.925   3.955 -0.5177 -1.1761  2.3051
 4008SOL    HW212151   3.526   0.864   3.924 -0.3469 -0.2116 -1.2651
 4009SOL     OW12152   2.139   2.467   2.661  0.4765  0.2353 -0.1441
 4009SOL    HW112153   2.154   2.441   2.570 -0.5775  0.2155 -0.3368
 4009SOL    HW212154   2.056   2.427   2.684  1.2549 -0.7454  1.2426
 4010SOL     OW12155   3.790   0.618   0.036  0.0502 -0.4276  0.3928
 4010SOL    HW112156   3.696   0.610   0.020 -0.0088  0.1117  0.4400
 4010SOL    HW212157   3.797   0.639   0.130  0.3275 -2.3624  0.8959
 4011SOL     OW12158   5.955   0.216   2.880  0.3969 -0.3041 -0.2857
 4011SOL    HW112159   5.874   0.265   2.868 -0.1893 -1.5455 -2.6270
 4011SOL    HW212160   6.010   0.243   2.807  1.2575 -0.9995  0.0711
 4012SOL     OW12161   0.831   2.583   1.854 -0.7917 -0.0733  0.3616
 4012SOL    HW112162   0.789   2.631   1.783  2.6505  2.2849 -0.5777
 4012SOL    HW212163   0.813   2.635   1.932 -2.2540 -1.0904  0.7838
 4013SOL     OW12164   1.092   5.728   3.915  0.4753  0.4714  0.6106
 4013SOL    HW112165   1.087   5.714   4.009 -0.9413  0.8569  0.6432
 4013SOL    HW212166   1.008   5.769   3.892  0.0887 -0.9927 -1.0493
 4014SOL     OW12167   2.847   0.595   2.834 -0.0391 -0.0840 -0.2819
 4014SOL    HW112168   2.806   0.509   2.836  0.7150 -0.4523 -0.2010
 4014SOL    HW212169   2.837   0.624   2.743  1.0267 -0.9341 -0.7081
 4015SOL     OW12170   1.119   2.202   2.319  0.0620  0.3073 -0.0010
 4015SOL    HW112171   1.061   2.138   2.360 -1.5964  1.7617  0.1152
 4015SOL    HW212172   1.173   2.150   2.258 -1.7250 -1.1178 -0.5377
 4016SOL     OW12173   4.675   0.028   3.475  0.3161 -0.5261  0.6778
 4016SOL    HW112174   4.695  -0.045   3.533 -0.2743 -2.6712 -1.5173
 4016SOL    HW212175   4.585   0.013   3.446  0.5868  0.2967 -0.8483
 4017SOL     OW12176   4.586   5.259   3.233  0.0914 -0.1755 -0.4614
 4017SOL    HW112177   4.646   5.238   3.162  0.0554 -1.6595 -0.1130
 4017SOL    HW212178   4.524   5.322   3.195  1.2926  0.7107 -1.0786
 4018SOL     OW12179   0.757   1.521   3.913  0.5442 -0.0690  0.5030
 4018SOL    HW112180   0.777   1.446   3.969 -0.1436 -1.0100 -0.4240
 4018SOL    HW212181   0.762   1.597   3.971  1.0039 -0.8553  1.5481
 4019SOL     OW12182   5.091   5.280   0.813 -0.6663 -0.1654 -0.0862
 4019SOL    HW112183   4.998   5.260   0.809 -0.6231 -0.2851 -0.8906
 4019SOL    HW212184   5.117   5.259   0.903 -1.3235 -0.5329  0.0286
 4020SOL     OW12185   0.685   1.799   0.951 -0.0564 -0.6529 -0.7614
 4020SOL    HW112186   0.705   1.753   1.032  0.9946 -0.0416 -0.6481
 4020SOL    HW212187   0.661   1.888   0.978 -0.1141 -0.5600 -1.1018
 4021SOL     OW12188   1.150   0.953   3.795 -0.0246  0.3705  0.6055
 4021SOL    HW112189   1.082   0.923   3.735  0.7263 -3.3012  1.1062
 4021SOL    HW212190   1.208   1.006   3.741 -0.8326 -0.3936 -1.1701
 4022SOL     OW12191   2.736   3.210   1.306  0.2073  0.3149 -0.1325
 4022SOL    HW112192   2.786   3.244   1.231  2.0166 -0.9040  0.3889
 4022SOL    HW212193   2.645   3.232   1.286  0.3585 -0.8663 -3.2897
 4023SOL     OW12194   4.158   6.123   1.032 -0.1222  0.0721  0.0132
 4023SOL    HW112195   4.186   6.034   1.051  0.9362 -0.0648 -1.7548
 4023SOL    HW212196   4.168   6.170   1.115  0.6639 -1.1328  0.6531
 4024SOL     OW12197   2.586   0.558   3.259 -0.9351  0.3152  0.0631
 4024SOL    HW112198   2.518   0.505   3.300  0.5961 -1.0854  1.0539
 4024SOL    HW212199   2.580   0.643   3.303 -0.7836 -0.4337  1.6615
 4025SOL     OW12200   3.512   0.493   3.200 -0.4976  0.0288  0.1978
 4025SOL    HW112201   3.436   0.546   3.178 -0.6636  0.0109  0.7033
 4025SOL    HW212202   3.533   0.446   3.120 -1.0982 -0.0641  0.0842
 4026SOL     OW12203   6.059   5.225   3.057  0.6519 -0.4255 -0.3343
 4026SOL    HW112204   6.116   5.302   3.056  0.7743 -0.4623 -2.2297
 4026SOL    HW212205   5.977   5.257   3.095  0.7223  0.6393 -0.9954
 4027SOL     OW12206   2.018   5.004   1.322  0.1655 -0.0286  0.7136
 4027SOL    HW112207   1.993   4.925   1.370  2.0216 -1.2474 -0.0782
 4027SOL    HW212208   2.102   4.982   1.282  0.5626  2.2157  0.0164
 4028SOL     OW12209   2.494   0.238   3.087  0.1188  0.3924  0.3040
 4028SOL    HW112210   2.450   0.297   3.148 -0.4282  0.9908 -0.6198
 4028SOL    HW212211   2.511   0.159   3.138  0.5995  1.2095  1.5019
 4029SOL     OW12212   5.493   3.978   0.537  0.1627  0.2329 -0.2364
 4029SOL    HW112213   5.456   4.008   0.454  0.3468 -0.3956 -0.5562
 4029SOL    HW212214   5.573   4.030   0.547  0.1385  0.3150 -0.4579
 4030SOL     OW12215   3.544   1.840   3.870 -0.4885 -0.2741  0.2011
 4030SOL    HW112216   3.631   1.867   3.843 -0.8916 -0.1361 -1.1158
 4030SOL    HW212217   3.504   1.919   3.906 -0.9015  0.4572 -1.6026
 4031SOL     OW12218   2.820   0.314   3.886  0.0894 -0.1610  0.0118
 4031SOL    HW112219   2.741   0.343   3.840  0.1073 -0.0987  0.0206
 4031SOL    HW212220   2.870   0.266   3.820  0.4327  0.4945 -0.2237
 4032SOL     OW12221   4.519   4.357   0.918  0.2146  0.0048 -0.6372
 4032SOL    HW112222   4.444   4.402   0.957 -0.8200 -0.9340 -1.3858
 4032SOL    HW212223   4.582   4.348   0.989 -0.6287  0.3258  0.1922
 4033SOL     OW12224   3.759   5.939   1.246  0.6789 -0.1407 -0.8124
 4033SOL    HW112225   3.845   5.911   1.213  0.0956 -0.2599 -2.4074
 4033SOL    HW212226   3.740   6.019   1.198 -0.5017 -0.6413 -1.2366
 4034SOL     OW12227   0.197   5.043   3.086 -0.3782  0.3035 -0.2391
 4034SOL    HW112228   0.191   4.963   3.033  0.6471 -1.7652  2.3196
 4034SOL    HW212229   0.111   5.051   3.127 -0.5159  0.6243 -0.5797
 4035SOL     OW12230   1.332   1.585   3.159  0.3440 -0.3934  0.2538
 4035SOL    HW112231   1.342   1.510   3.218 -0.9732  0.1986  1.3330
 4035SOL    HW212232   1.258   1.634   3.195 -0.3335  0.2184 -1.6996
 4036SOL     OW12233   2.819   3.133   4.224 -0.6957 -0.0961  0.5077
 4036SOL    HW112234   2.907   3.111   4.193  0.2081  2.6817  0.5064
 4036SOL    HW212235   2.776   3.174   4.149 -1.7540 -0.7218  0.7300
 4037SOL     OW12236   1.584   5.580   0.557  0.0585  0.0697 -0.2408
 4037SOL    HW112237   1.554   5.562   0.646 -3.1074 -1.2841 -1.2665
 4037SOL    HW212238   1.580   5.495   0.513 -1.6265  1.0190 -2.2685
 4038SOL     OW12239   0.492   3.802   2.069  0.2838 -0.5322  0.1877
 4038SOL    HW112240   0.457   3.757   2.146  1.9822  0.5304  1.7342
 4038SOL    HW212241   0.504   3.733   2.004  1.0723 -2.0247  1.7612
 4039SOL     OW12242   0.467   2.080   1.981 -0.6178 -0.1772 -0.0374
 4039SOL    HW112243   0.411   2.008   2.012 -0.1795 -0.2117  0.7309
 4039SOL    HW212244   0.513   2.110   2.059  2.8324 -2.1851 -0.8662
 4040SOL     OW12245   4.235   2.561   0.544 -0.1822  0.6096  0.3301
 4040SOL    HW112246   4.197   2.627   0.485  1.6100 -0.7961 -2.9466
 4040SOL    HW212247   4.176   2.486   0.538  0.0189  0.4512  0.2942
 4041SOL     OW12248   0.783   4.604   2.915  0.4968 -0.1146 -0.0005
 4041SOL    HW112249   0.816   4.550   2.843  0.2937  1.2642 -1.2300
 4041SOL    HW212250   0.799   4.694   2.887  1.5750  0.5449  2.2844
 4042SOL     OW12251   1.022   2.646   2.157 -0.4411  0.7044 -0.1366
 4042SOL    HW112252   1.011   2.696   2.076  0.0330  1.0437 -0.0024
 4042SOL    HW212253   0.933   2.628   2.186 -0.6229  1.1489 -0.3904
 4043SOL     OW12254   4.726   0.974   1.246 -0.2258  0.5554 -0.2105
 4043SOL    HW112255   4.734   0.927   1.329 -1.4437  0.7125  0.0400
 4043SOL    HW212256   4.674   0.915   1.191 -1.5149  1.4142  0.0019
 4044SOL     OW12257   6.009   3.753   0.871  0.7609 -0.0287 -0.5660
 4044SOL    HW112258   5.981   3.824   0.814  0.7989  0.1905 -0.3161
 4044SOL    HW212259   5.998   3.787   0.960  0.9557 -0.2667 -0.4464
 4045SOL     OW12260   1.508   1.098   3.173 -0.1705 -0.1783  0.3805
 4045SOL    HW112261   1.508   1.157   3.247  0.4919 -0.7692  0.8795
 4045SOL    HW212262   1.528   1.154   3.097  0.0231  0.2940  0.7715
 4046SOL     OW12263   0.106   6.059   0.192  0.3046 -0.5763  0.1907
 4046SOL    HW112264   0.091   6.011   0.111  2.1660 -1.8909  0.4845
 4046SOL    HW212265   0.104   5.993   0.260  3.6807 -0.6787  0.5475
 4047SOL     OW12266   4.220   0.072   3.206 -0.0729  0.5202 -0.2845
 4047SOL    HW112267   4.182  -0.007   3.169  1.8180 -0.3392 -0.6325
 4047SOL    HW212268   4.249   0.046   3.294  1.3614  0.4690 -0.7202
 4048SOL     OW12269   5.660   0.359   0.690  0.4048 -0.1253 -0.5991
 4048SOL    HW112270   5.582   0.315   0.657  0.7810  0.2100 -2.0780
 4048SOL    HW212271   5.638   0.452   0.688  0.3423 -0.0855  0.4888
 4049SOL     OW12272   4.223   6.400   4.297 -0.1719 -0.1828 -0.1588
 4049SOL    HW112273   4.257   6.376   4.383 -0.4007 -0.1114 -0.0465
 4049SOL    HW212274   4.134   6.365   4.296 -0.5234  0.6440  0.0149
 4050SOL     OW12275   2.573   1.478   2.309 -0.3010 -0.6324 -0.4082
 4050SOL    HW112276   2.539   1.561   2.343  0.6856  0.7582 -2.3660
 4050SOL    HW212277   2.655   1.465   2.357  0.1151  0.2126 -0.8457
 4051SOL     OW12278   5.373   5.035   2.360 -0.1177 -0.0952  0.0647
 4051SOL    HW112279   5.394   5.064   2.449  1.9215  1.8036 -0.8465
 4051SOL    HW212280   5.455   5.000   2.327  0.2389  2.1472 -1.9475
 4052SOL     OW12281   2.096   3.282   2.490 -0.6238  0.4051 -0.2156
 4052SOL    HW112282   2.071   3.304   2.580 -1.1245 -0.8842  0.0100
 4052SOL    HW212283   2.192   3.277   2.492 -0.5020 -3.2944  1.4345
 4053SOL     OW12284   0.043   3.426   3.232  0.7034  0.6805  0.0207
 4053SOL    HW112285  -0.032   3.400   3.178  2.0162  0.9167 -2.1347
 4053SOL    HW212286   0.077   3.344   3.267 -0.2108  0.5189  0.6042
 4054SOL     OW12287   0.363   0.903   0.408 -0.6020 -0.3258  0.4055
 4054SOL    HW112288   0.341   0.845   0.334  0.2550 -1.7052  1.1451
 4054SOL    HW212289   0.457   0.918   0.399 -0.9234  2.0567 -0.4110
 4055SOL     OW12290   0.573   5.598   1.322  0.4242  0.4676  0.3443
 4055SOL    HW112291   0.634   5.585   1.394 -0.8978 -0.8485  1.3151
 4055SOL    HW212292   0.497   5.641   1.361 -0.1627  0.1078 -0.3409
 4056SOL     OW12293   4.674   6.327   1.712  0.2330  0.9288 -0.1707
 4056SOL    HW112294   4.667   6.315   1.617  1.8458 -1.0488 -0.1681
 4056SOL    HW212295   4.600   6.278   1.748  1.1905 -0.9063 -0.4584
 4057SOL     OW12296   3.252   5.020   4.278  0.0307  0.1327 -0.4887
 4057SOL    HW112297   3.159   5.042   4.284  0.1527  0.4917  0.3061
 4057SOL    HW212298   3.277   5.049   4.190 -0.6843 -0.3397 -0.8709
 4058SOL     OW12299   1.532   1.699   3.002 -0.4236  0.1468  0.9189
 4058SOL    HW112300   1.533   1.793   3.019 -0.1712  0.1872  0.6986
 4058SOL    HW212301   1.453   1.668   3.045 -1.2082  0.6607 -0.0803
 4059SOL     OW12302   1.170   5.583   2.406  0.3543 -0.5293  0.0226
 4059SOL    HW112303   1.155   5.636   2.484 -1.0654  1.2481 -1.2901
 4059SOL    HW212304   1.127   5.500   2.425  1.0147 -0.6137  1.4678
 4060SOL     OW12305   5.144   3.185   0.562  0.3870 -0.1195 -0.0401
 4060SOL    HW112306   5.158   3.279   0.558 -0.6822  0.0965  0.4386
 4060SOL    HW212307   5.158   3.163   0.654 -1.8667  0.1138  0.4864
 4061SOL     OW12308   4.373   2.837   0.167 -0.2844  0.0203 -0.4540
 4061SOL    HW112309   4.416   2.771   0.113 -1.4529 -0.8880 -0.3526
 4061SOL    HW212310   4.444   2.874   0.219  0.7029  0.1722 -1.8064
 4062SOL     OW12311   3.192   5.893   2.375 -0.5630  0.1033  0.2488
 4062SOL    HW112312   3.193   5.812   2.426  1.1988  0.0457  0.2560
 4062SOL    HW212313   3.244   5.955   2.427 -1.5532  1.1525  0.0738
 4063SOL     OW12314   1.721   2.126   0.005 -0.0347 -0.2579 -0.1722
 4063SOL    HW112315   1.658   2.057  -0.015 -1.6903  1.3683 -1.2615
 4063SOL    HW212316   1.681   2.206  -0.030  2.6048  1.0116 -0.8093
 4064SOL     OW12317   2.002   0.309   2.117  0.1605  0.0408 -0.4308
 4064SOL    HW112318   2.040   0.366   2.049  0.6479  0.8009  0.4366
 4064SOL    HW212319   2.073   0.297   2.180  0.1838 -1.8335 -0.7185
 4065SOL     OW12320   4.792   5.238   3.056 -0.2373  0.3595  0.2636
 4065SOL    HW112321   4.829   5.312   3.009  1.0454 -0.2152  0.2794
 4065SOL    HW212322   4.867   5.182   3.075 -1.2448 -1.4209 -0.5616
 4066SOL     OW12323   2.134   0.577   4.506  0.7018 -0.5581 -0.1819
 4066SOL    HW112324   2.084   0.569   4.425  0.7991 -1.9240 -0.1423
 4066SOL    HW212325   2.108   0.663   4.541  0.1492 -0.2325 -1.3034
 4067SOL     OW12326   2.584   1.644   1.988 -0.1487 -0.2838  0.2142
 4067SOL    HW112327   2.509   1.681   2.033  0.2051  0.8161 -0.0311
 4067SOL    HW212328   2.622   1.718   1.940 -1.1918 -1.4489 -2.9835
 4068SOL     OW12329   0.956   5.279   3.928 -0.3634  0.2070  0.2195
 4068SOL    HW112330   0.950   5.184   3.921 -0.0965  0.1759  0.3563
 4068SOL    HW212331   0.881   5.312   3.879  0.6883 -0.0083 -1.7451
 4069SOL     OW12332   3.759   1.238   0.388  0.3970 -0.2515  0.6943
 4069SOL    HW112333   3.732   1.230   0.479  1.2021 -1.4797  0.8642
 4069SOL    HW212334   3.799   1.325   0.382 -0.3310  0.1487  1.3022
 4070SOL     OW12335   2.759   0.885   0.789  0.2753 -0.0498 -0.5879
 4070SOL    HW112336   2.793   0.802   0.756  1.5915 -0.1220  0.7466
 4070SOL    HW212337   2.686   0.861   0.846  1.0730 -0.4159  0.3324
 4071SOL     OW12338   0.357   5.625   4.374 -0.0015  0.0675  0.5632
 4071SOL    HW112339   0.377   5.623   4.468  0.6897  1.3527  0.4877
 4071SOL    HW212340   0.301   5.702   4.363 -3.6444 -2.1487  0.4267
 4072SOL     OW12341   5.284   1.916   1.064 -0.1980 -0.5485 -0.3385
 4072SOL    HW112342   5.270   1.977   1.136 -0.8253  0.3500 -1.1799
 4072SOL    HW212343   5.375   1.887   1.075 -0.6952 -1.7624  1.7337
 4073SOL     OW12344   2.905   1.601   1.168  0.2192  0.2148  0.5525
 4073SOL    HW112345   2.887   1.695   1.162 -0.7906  0.0523 -2.4659
 4073SOL    HW212346   2.825   1.564   1.206 -0.5874  0.4716 -0.7751
 4074SOL     OW12347   5.836   6.219   0.274 -0.2877  0.0420  0.2677
 4074SOL    HW112348   5.901   6.238   0.206  0.2312  1.1245  1.0087
 4074SOL    HW212349   5.756   6.200   0.225  0.1863  0.2747 -0.6554
 4075SOL     OW12350   1.114   0.252   0.708 -0.2036 -0.4460  0.2775
 4075SOL    HW112351   1.054   0.319   0.739  0.2290 -0.1499  0.4927
 4075SOL    HW212352   1.134   0.200   0.786  0.9055  0.3136  0.5488
 4076SOL     OW12353   5.494   1.348   0.081  0.0821  0.0662  0.0142
 4076SOL    HW112354   5.496   1.292   0.159  0.8023 -1.0933 -0.7732
 4076SOL    HW212355   5.429   1.307   0.024  0.1476  0.4355 -0.3319
 4077SOL     OW12356   5.903   4.843   0.592 -0.4904 -0.2531  0.1994
 4077SOL    HW112357   5.956   4.883   0.523  0.1937 -1.8257 -0.2734
 4077SOL    HW212358   5.813   4.864   0.568 -0.2094  1.9697  0.6934
 4078SOL     OW12359   0.878   1.398   0.437  0.6244 -0.8753  0.2764
 4078SOL    HW112360   0.924   1.481   0.451 -1.4386  0.4716 -0.1152
 4078SOL    HW212361   0.899   1.374   0.347 -1.1288  1.0719 -0.8312
 4079SOL     OW12362   0.628   2.361   1.051 -0.4910 -0.3598 -1.0643
 4079SOL    HW112363   0.706   2.400   1.013 -1.0019 -0.9813 -2.9803
 4079SOL    HW212364   0.650   2.346   1.143  1.3112  0.2486 -1.3305
 4080SOL     OW12365   5.407   4.950   3.156 -0.0515  0.4115  0.4470
 4080SOL    HW112366   5.481   4.976   3.211 -0.4464 -0.2641  1.3666
 4080SOL    HW212367   5.330   4.979   3.205 -0.4439 -0.8230  0.6444
 4081SOL     OW12368   1.842   5.673   1.317  0.1169 -0.5930  0.2763
 4081SOL    HW112369   1.937   5.668   1.321  0.2012  0.2071  3.0736
 4081SOL    HW212370   1.812   5.633   1.398 -1.7365  1.3447  0.7199
 4082SOL     OW12371   3.939   5.370   2.775 -0.1578  0.1338  0.5959
 4082SOL    HW112372   3.971   5.302   2.835  1.2588  1.0969  1.0327
 4082SOL    HW212373   3.927   5.324   2.691  0.2298 -0.7630  1.0063
 4083SOL     OW12374   2.899   4.915   3.678 -0.7530 -0.2939 -0.0665
 4083SOL    HW112375   2.857   4.942   3.596 -0.4516 -1.0060 -0.4786
 4083SOL    HW212376   2.858   4.831   3.700  0.7911 -1.3586 -0.8386
 4084SOL     OW12377   4.541   1.323   3.760 -0.0569  0.2260  0.5111
 4084SOL    HW112378   4.457   1.350   3.724  0.2908  0.9066  0.1544
 4084SOL    HW212379   4.528   1.322   3.855 -0.6961 -0.5493  0.4311
 4085SOL     OW12380   1.463   0.359   1.466 -0.1019  0.1417  0.2294
 4085SOL    HW112381   1.379   0.406   1.469 -0.6412 -0.4430 -1.8365
 4085SOL    HW212382   1.460   0.299   1.540 -2.0361 -0.5538 -0.2944
 4086SOL     OW12383   0.846   4.742   3.580 -0.2504  0.1547 -0.6971
 4086SOL    HW112384   0.775   4.688   3.615 -0.4008  1.7522  1.9772
 4086SOL    HW212385   0.920   4.726   3.638  0.8554  0.3424 -1.9484
 4087SOL     OW12386   3.793   1.390   1.641  0.1011 -0.3199 -0.2597
 4087SOL    HW112387   3.802   1.295   1.638  0.6620 -0.2686 -0.5485
 4087SOL    HW212388   3.782   1.416   1.549  1.6811  0.0105 -0.4269
 4088SOL     OW12389   4.452   4.674   0.349 -0.1193 -0.0233 -0.0799
 4088SOL    HW112390   4.475   4.667   0.442 -0.1407 -1.8183 -0.1460
 4088SOL    HW212391   4.512   4.740   0.315  0.2566  0.2892  1.0965
 4089SOL     OW12392   0.694   2.920   0.727 -0.3879  0.2601 -0.2504
 4089SOL    HW112393   0.668   2.950   0.814  0.5964  1.8378 -0.4176
 4089SOL    HW212394   0.651   2.981   0.667  0.4258  0.3949 -0.7270
 4090SOL     OW12395   2.208   4.988   4.457  0.7753 -0.0341 -0.3898
 4090SOL    HW112396   2.164   4.929   4.396 -0.8183 -1.0031  1.4758
 4090SOL    HW212397   2.299   4.988   4.430  0.5477 -2.0611 -1.4922
 4091SOL     OW12398   1.492   5.904   4.393 -0.1299 -0.2116  0.0361
 4091SOL    HW112399   1.571   5.875   4.348 -0.6132 -0.1548 -0.9062
 4091SOL    HW212400   1.510   5.994   4.420  0.9470 -0.8834  1.9310
 4092SOL     OW12401   2.818   5.580   1.656 -0.1146 -0.0814 -0.0627
 4092SOL    HW112402   2.768   5.547   1.731 -0.3807  0.0990 -0.1538
 4092SOL    HW212403   2.895   5.621   1.694 -0.2535  0.0187  0.1155
 4093SOL     OW12404   6.262   4.899   3.727 -0.6952 -0.0416  0.3382
 4093SOL    HW112405   6.227   4.885   3.639 -0.5019 -0.9105  0.3840
 4093SOL    HW212406   6.289   4.991   3.727  0.6860 -0.3625 -1.0268
 4094SOL     OW12407   1.280   4.305   4.230  0.2649 -0.2857  0.0697
 4094SOL    HW112408   1.314   4.229   4.183  1.6830 -0.1812  0.7860
 4094SOL    HW212409   1.355   4.336   4.282 -0.5539  0.9706  0.6103
 4095SOL     OW12410   1.741   4.958   3.924  0.1972  0.0891  0.7275
 4095SOL    HW112411   1.776   4.895   3.986  0.2667  1.2099  1.8969
 4095SOL    HW212412   1.769   4.925   3.838  1.3858 -0.7395  1.3786
 4096SOL     OW12413   0.098   2.552   3.917  0.0471 -0.1951  0.5306
 4096SOL    HW112414   0.048   2.510   3.847 -0.9973  1.1016  0.4102
 4096SOL    HW212415   0.083   2.497   3.994 -1.2557 -0.0967  0.3885
 4097SOL     OW12416   0.862   3.249   0.067 -0.1606 -0.0365  0.0174
 4097SOL    HW112417   0.934   3.297   0.107  1.1615 -1.0373 -0.9689
 4097SOL    HW212418   0.794   3.315   0.051  0.8403  1.1267  0.2970
 4098SOL     OW12419   4.930   2.116   0.088  0.4721  0.2544 -0.4533
 4098SOL    HW112420   4.970   2.093   0.172 -0.5169  0.4667  0.1057
 4098SOL    HW212421   4.991   2.177   0.048  0.7061  0.5786  0.3713
 4099SOL     OW12422   4.702   2.368   3.153  0.3683  0.5297  0.0763
 4099SOL    HW112423   4.793   2.384   3.130  0.5553 -0.0644  0.3801
 4099SOL    HW212424   4.683   2.281   3.120 -0.2539  0.8419 -0.4412
 4100SOL     OW12425   4.069   2.742   3.767  0.3346 -0.3108 -0.0063
 4100SOL    HW112426   4.061   2.673   3.833  0.7143 -1.3232 -0.9577
 4100SOL    HW212427   4.142   2.796   3.798 -0.1015 -0.1732  0.8615
 4101SOL     OW12428   3.720   4.635   0.096 -0.1771 -0.2780  0.0961
 4101SOL    HW112429   3.637   4.683   0.099 -0.9015 -1.4286  2.0959
 4101SOL    HW212430   3.699   4.553   0.052 -0.0430 -0.4858  0.4171
 4102SOL     OW12431   5.965   3.412   2.026 -0.0089  0.0531 -0.1657
 4102SOL    HW112432   6.019   3.335   2.047  0.8071  0.4707 -0.6150
 4102SOL    HW212433   5.904   3.419   2.100  2.1447  0.9791  1.7887
 4103SOL     OW12434   5.568   1.993   3.218 -0.5252 -0.5741  0.2578
 4103SOL    HW112435   5.497   1.962   3.163  0.0225 -0.7084 -0.3998
 4103SOL    HW212436   5.526   2.050   3.282 -1.0602  0.9595 -1.2916
 4104SOL     OW12437   0.740   4.726   1.619 -0.0900 -0.5665  0.3798
 4104SOL    HW112438   0.812   4.662   1.627  0.7031  0.1059 -0.7848
 4104SOL    HW212439   0.777   4.797   1.566 -0.5653  1.4249  2.4111
 4105SOL     OW12440   1.496   1.770   1.621 -0.5374  0.5626 -0.1948
 4105SOL    HW112441   1.454   1.853   1.596 -0.5715  0.9404  0.9923
 4105SOL    HW212442   1.561   1.755   1.552 -2.8515 -0.3614 -2.4900
 4106SOL     OW12443   0.056   4.838   2.522  0.0891  0.1131  0.3151
 4106SOL    HW112444   0.148   4.856   2.503  0.2095  0.0489  0.8055
 4106SOL    HW212445   0.059   4.773   2.592 -0.3186  0.6432  0.8476
 4107SOL     OW12446   0.071   4.752   1.776 -0.4406  0.0730  0.2980
 4107SOL    HW112447   0.051   4.829   1.722  0.3900 -0.3343 -0.6617
 4107SOL    HW212448   0.083   4.787   1.864  4.3512  2.1229 -0.5122
 4108SOL     OW12449   5.588   5.774   3.962 -0.3706  0.0713  0.0650
 4108SOL    HW112450   5.493   5.769   3.968 -0.3197 -0.7154  0.5268
 4108SOL    HW212451   5.617   5.788   4.052 -0.0900  2.6911 -0.2506
 4109SOL     OW12452   0.095   5.142   0.911 -0.1773 -0.0776  0.2563
 4109SOL    HW112453   0.118   5.071   0.971 -2.6738 -0.8816  0.4859
 4109SOL    HW212454   0.112   5.222   0.962 -1.1830 -0.6941  1.6849
 4110SOL     OW12455   6.396   1.129   0.865 -0.1732 -0.3479  0.1506
 4110SOL    HW112456   6.397   1.043   0.909 -0.0014 -1.6387 -2.0799
 4110SOL    HW212457   6.312   1.132   0.819 -0.9681  1.5642  1.4559
 4111SOL     OW12458   0.562   2.597   0.301  0.3816 -0.4213  0.1837
 4111SOL    HW112459   0.576   2.502   0.295  0.7365 -0.3176 -1.0213
 4111SOL    HW212460   0.612   2.633   0.228 -0.9071  0.5720 -0.2634
 4112SOL     OW12461   2.468   1.396   4.345  0.0738 -0.0339  0.3812
 4112SOL    HW112462   2.471   1.301   4.346 -1.0615 -0.0917  0.3023
 4112SOL    HW212463   2.483   1.420   4.254  0.2737 -0.1326  0.3868
 4113SOL     OW12464   5.963   4.629   3.377  0.4912 -0.5121 -0.1771
 4113SOL    HW112465   5.867   4.628   3.371  0.4904 -0.4819 -0.1675
 4113SOL    HW212466   5.987   4.536   3.380  0.5736 -0.5904 -1.7701
 4114SOL     OW12467   0.147   0.899   1.634  0.9946  0.7806 -0.3137
 4114SOL    HW112468   0.230   0.938   1.606  2.2058 -2.6511 -2.9710
 4114SOL    HW212469   0.097   0.891   1.553  0.8235 -2.3786 -0.1219
 4115SOL     OW12470   5.669   6.332   1.038 -0.3639 -0.4496  0.3942
 4115SOL    HW112471   5.583   6.337   0.995 -0.7696  1.1212  1.2081
 4115SOL    HW212472   5.648   6.314   1.130  0.3757 -2.1479  0.2986
 4116SOL     OW12473   1.659   3.318   3.287 -0.1473  0.6270 -0.1047
 4116SOL    HW112474   1.652   3.393   3.228  1.6772  0.3625 -0.7963
 4116SOL    HW212475   1.601   3.252   3.249 -0.8956  1.2763 -0.1442
 4117SOL     OW12476   3.108   4.912   3.456 -0.5102  0.1758 -0.4137
 4117SOL    HW112477   3.112   4.925   3.551  0.0799  2.7151 -0.6447
 4117SOL    HW212478   3.193   4.874   3.434  0.3684  1.7724 -0.0555
 4118SOL     OW12479   4.498   0.312   0.442  0.1321  0.4021 -0.4289
 4118SOL    HW112480   4.505   0.381   0.375 -0.3806 -0.2753 -1.2261
 4118SOL    HW212481   4.509   0.230   0.393 -1.9149 -0.2265 -0.0451
 4119SOL     OW12482   3.568   4.619   0.789  0.1920 -0.6754  0.0467
 4119SOL    HW112483   3.554   4.711   0.766  1.3872 -0.7383 -1.1850
 4119SOL    HW212484   3.483   4.590   0.822 -0.8766  0.3349 -1.4980
 4120SOL     OW12485   3.157   3.449   2.021  0.4115  0.0927  0.4668
 4120SOL    HW112486   3.151   3.482   1.931  0.5738 -2.3068 -0.6101
 4120SOL    HW212487   3.069   3.416   2.040  0.8604 -1.4737  0.1411
 4121SOL     OW12488   5.757   3.741   1.813  0.2607  0.0727  0.2006
 4121SOL    HW112489   5.715   3.655   1.806 -0.9509  0.6747 -0.4547
 4121SOL    HW212490   5.848   3.721   1.836  0.1620 -1.4099 -0.4802
 4122SOL     OW12491   0.228   6.130   1.971  0.2471 -0.2513  0.3968
 4122SOL    HW112492   0.142   6.169   1.953 -0.3979 -1.7867 -0.2189
 4122SOL    HW212493   0.255   6.169   2.054 -1.5464 -0.4065  1.1519
 4123SOL     OW12494   6.127   6.374   3.083  0.0072 -0.5480 -0.7451
 4123SOL    HW112495   6.047   6.409   3.043 -0.2297  0.4842  0.4909
 4123SOL    HW212496   6.167   6.321   3.014 -0.9002  0.2187 -1.9544
 4124SOL     OW12497   3.583   4.512   0.525  0.5584  0.1288  0.1424
 4124SOL    HW112498   3.604   4.568   0.599 -1.0267 -0.2821  0.9768
 4124SOL    HW212499   3.667   4.498   0.481  1.8041 -0.3729  2.3719
 4125SOL     OW12500   3.872   5.165   4.281  0.7319  0.0847  0.1150
 4125SOL    HW112501   3.862   5.167   4.376  1.2818  1.1844  0.1814
 4125SOL    HW212502   3.966   5.172   4.267  0.6143  0.7190 -0.4953
 4126SOL     OW12503   0.605   4.283   1.043 -0.3761  0.4330 -0.4230
 4126SOL    HW112504   0.672   4.238   1.094 -0.5240  1.0889  0.3868
 4126SOL    HW212505   0.522   4.248   1.075 -0.4830  1.0739  0.0488
 4127SOL     OW12506   3.353   1.546   1.257  0.4774 -0.6546  0.2706
 4127SOL    HW112507   3.272   1.543   1.308 -1.0039  3.7715 -0.9407
 4127SOL    HW212508   3.331   1.502   1.175  0.0912 -1.1809  0.6350
 4128SOL     OW12509   4.940   3.046   1.402  0.0540  0.2480  1.0191
 4128SOL    HW112510   4.940   3.058   1.497 -3.1601 -0.7672  1.4299
 4128SOL    HW212511   4.920   2.953   1.390 -1.2191  0.6205 -0.4974
 4129SOL     OW12512   3.435   4.360   4.223  0.0817  0.2492  0.6332
 4129SOL    HW112513   3.345   4.331   4.203 -0.0598  0.0992  1.3950
 4129SOL    HW212514   3.469   4.393   4.140 -0.5388 -0.0665  0.2352
 4130SOL     OW12515   4.581   1.167   1.951 -0.5419 -0.7614 -0.1782
 4130SOL    HW112516   4.595   1.074   1.933 -1.0866 -0.7557 -0.7393
 4130SOL    HW212517   4.511   1.192   1.890 -0.2179  0.0801 -0.2297
 4131SOL     OW12518   1.068   1.682   2.221 -0.2961  0.1835  1.2948
 4131SOL    HW112519   0.992   1.641   2.263 -1.1409  0.2627 -0.0210
 4131SOL    HW212520   1.055   1.665   2.128 -0.0134  2.2823  0.7814
 4132SOL     OW12521   2.652   0.586   1.161 -0.1988 -0.0897 -0.6651
 4132SOL    HW112522   2.700   0.560   1.083 -0.1501 -1.1308 -0.3195
 4132SOL    HW212523   2.718   0.627   1.218 -0.0704 -0.0605 -0.8334
 4133SOL     OW12524   3.938   3.535   1.776 -0.2237 -0.0378 -0.2094
 4133SOL    HW112525   3.860   3.506   1.821 -0.5934 -0.5280 -1.1025
 4133SOL    HW212526   3.997   3.459   1.780  0.6636  0.6382  1.3106
 4134SOL     OW12527   1.217   4.923   0.142  0.1879 -0.2476  0.6321
 4134SOL    HW112528   1.137   4.968   0.115  1.2487  0.5358 -1.7936
 4134SOL    HW212529   1.235   4.957   0.230 -1.0977  1.1105  0.4481
 4135SOL     OW12530   2.792   4.185   0.432 -0.0556  0.2280  0.5188
 4135SOL    HW112531   2.802   4.208   0.339  1.0171  0.5081  0.6714
 4135SOL    HW212532   2.842   4.252   0.479  0.6996 -0.7412  1.1875
 4136SOL     OW12533   0.684   3.040   2.494  0.3013 -0.0188  0.0814
 4136SOL    HW112534   0.771   3.056   2.458 -0.3967  2.1225 -1.0196
 4136SOL    HW212535   0.681   3.094   2.573 -0.2161  0.5818 -0.3234
 4137SOL     OW12536   1.866   2.533   3.893  0.0583  0.8302 -0.2003
 4137SOL    HW112537   1.892   2.459   3.948 -0.0470  0.2249 -0.9309
 4137SOL    HW212538   1.945   2.558   3.845 -0.4495 -0.7557 -2.1259
 4138SOL     OW12539   5.573   3.657   0.172 -0.5880 -0.0884 -0.1921
 4138SOL    HW112540   5.489   3.690   0.140 -0.8982 -1.2045 -0.6507
 4138SOL    HW212541   5.567   3.665   0.267 -1.0960  0.1076 -0.2340
 4139SOL     OW12542   2.235   3.370   2.214  0.1697 -0.1317  0.7732
 4139SOL    HW112543   2.257   3.292   2.266  0.0794 -0.5490  0.2122
 4139SOL    HW212544   2.317   3.393   2.170  0.5366  0.8744  1.8838
 4140SOL     OW12545   2.928   2.145   3.684 -0.6760  0.2527 -0.2526
 4140SOL    HW112546   2.933   2.052   3.662 -1.6993 -0.0214  0.5447
 4140SOL    HW212547   2.851   2.177   3.637 -1.7577  0.0934  1.2599
 4141SOL     OW12548   3.654   2.073   0.827  0.1344  0.0329 -0.2749
 4141SOL    HW112549   3.659   2.079   0.731  0.8616 -0.6639 -0.3015
 4141SOL    HW212550   3.629   1.982   0.843  0.8601 -0.0938  0.2037
 4142SOL     OW12551   2.968   0.631   4.173  0.1472  0.1465 -0.4523
 4142SOL    HW112552   2.995   0.719   4.199  1.1019 -0.1191 -0.4665
 4142SOL    HW212553   3.031   0.606   4.105 -0.3900 -0.3751 -0.7707
 4143SOL     OW12554   4.387   2.593   1.703  0.7613  0.1073 -0.0214
 4143SOL    HW112555   4.461   2.644   1.737  1.0033  0.3314 -0.8362
 4143SOL    HW212556   4.352   2.647   1.631  1.9207 -1.4242 -1.9341
 4144SOL     OW12557   5.162   0.288   1.068  0.3418  0.1323 -0.0494
 4144SOL    HW112558   5.253   0.314   1.074  0.9057 -1.2391 -1.3783
 4144SOL    HW212559   5.136   0.270   1.159  0.3785  3.1953  0.7984
 4145SOL     OW12560   1.121   4.869   1.169 -0.1498  0.1416 -0.1585
 4145SOL    HW112561   1.143   4.913   1.087  2.5349 -1.4134 -0.5065
 4145SOL    HW212562   1.188   4.801   1.179  0.0289  0.4442  3.5548
 4146SOL     OW12563   6.287   4.091   3.634  0.2416  0.6680  0.5745
 4146SOL    HW112564   6.231   4.131   3.701  1.8932  3.1562  0.7536
 4146SOL    HW212565   6.323   4.013   3.676 -2.7906 -1.1278  0.4381
 4147SOL     OW12566   4.401   1.194   0.613 -0.0681 -0.5782 -0.4616
 4147SOL    HW112567   4.411   1.122   0.551  2.4703  0.1782 -1.1709
 4147SOL    HW212568   4.461   1.172   0.684 -1.9248 -0.7646  1.2197
 4148SOL     OW12569   6.173   0.942   2.735  0.1831 -0.2471 -0.3004
 4148SOL    HW112570   6.083   0.960   2.762  0.3231 -1.1635  0.9468
 4148SOL    HW212571   6.169   0.854   2.697  0.4241  0.0720 -1.1105
 4149SOL     OW12572   3.183   4.422   1.310  0.4732  0.0128  0.1233
 4149SOL    HW112573   3.176   4.513   1.281  3.2072  0.4462  0.2582
 4149SOL    HW212574   3.119   4.374   1.257 -0.3429  1.8451 -0.7038
 4150SOL     OW12575   5.600   1.800   2.187 -0.0062 -0.9476  0.1240
 4150SOL    HW112576   5.638   1.863   2.249 -0.2676 -1.0453  0.3905
 4150SOL    HW212577   5.511   1.832   2.172 -0.4166 -1.6661  0.8768
 4151SOL     OW12578   2.069   5.820   0.478  0.0338 -0.1617 -0.0343
 4151SOL    HW112579   2.032   5.907   0.462 -2.4241 -1.0054  0.1019
 4151SOL    HW212580   2.069   5.812   0.573 -2.8162 -1.2086  0.0578
 4152SOL     OW12581   1.525   5.140   0.372 -0.5206  0.4077 -0.0646
 4152SOL    HW112582   1.582   5.175   0.305 -0.9166  2.2237  0.4415
 4152SOL    HW212583   1.578   5.140   0.452 -0.6947  0.3584  0.0534
 4153SOL     OW12584   5.320   4.200   0.734  0.5150  0.5601 -0.4915
 4153SOL    HW112585   5.365   4.142   0.674  1.9657 -0.1277  1.1094
 4153SOL    HW212586   5.360   4.286   0.719  0.3633  0.5637 -0.9281
 4154SOL     OW12587   0.823   5.998   3.959 -0.0619  0.3671 -0.2883
 4154SOL    HW112588   0.902   6.018   4.009 -0.1451 -1.0543  0.5044
 4154SOL    HW212589   0.766   6.074   3.974  1.0983  1.4337 -0.8932
 4155SOL     OW12590   6.153   4.925   3.478 -0.4297 -0.3522  0.0909
 4155SOL    HW112591   6.147   5.011   3.436  0.4893  0.5064  1.5341
 4155SOL    HW212592   6.184   4.867   3.408 -2.2693  0.1299 -1.2599
 4156SOL     OW12593   3.996   4.526   1.420 -0.6370 -0.1150 -0.0382
 4156SOL    HW112594   4.075   4.493   1.463 -1.7258 -1.3517  1.1800
 4156SOL    HW212595   3.930   4.459   1.435 -2.0737  1.0473 -0.6323
 4157SOL     OW12596   0.504   3.320   0.331 -0.0379  0.6467  0.0157
 4157SOL    HW112597   0.447   3.294   0.259 -0.7013 -0.0165  0.7443
 4157SOL    HW212598   0.582   3.265   0.322  0.7551  1.8566 -1.2373
 4158SOL     OW12599   6.215   3.413   0.086 -0.8844 -0.1671  0.2460
 4158SOL    HW112600   6.133   3.384   0.045  0.0454  1.2786 -3.2863
 4158SOL    HW212601   6.283   3.363   0.041  0.2990  0.7690  0.8947
 4159SOL     OW12602   4.468   0.349   3.438 -0.1596 -0.0998 -0.2490
 4159SOL    HW112603   4.527   0.405   3.489  0.5319 -1.5323  0.6418
 4159SOL    HW212604   4.447   0.276   3.497  1.1740 -2.2180 -2.0829
 4160SOL     OW12605   1.425   5.276   3.494 -0.2660  0.6923 -0.0854
 4160SOL    HW112606   1.436   5.222   3.572 -0.6441 -0.0105 -0.4956
 4160SOL    HW212607   1.410   5.213   3.424 -1.8031  1.3325 -0.4160
 4161SOL     OW12608   1.884   4.548   4.525 -0.1327  0.0480  0.0300
 4161SOL    HW112609   1.957   4.513   4.473 -0.7327 -2.0560  0.4059
 4161SOL    HW212610   1.908   4.528   4.615 -1.3691 -1.3467  0.1260
 4162SOL     OW12611   0.881   0.200   1.310  0.4719  0.2693  0.4991
 4162SOL    HW112612   0.853   0.147   1.385 -1.0643 -0.0720 -0.2484
 4162SOL    HW212613   0.800   0.231   1.270  0.9714 -1.3717 -2.2988
 4163SOL     OW12614   3.655   1.481   2.406  0.4757 -0.1003 -0.3853
 4163SOL    HW112615   3.663   1.473   2.311 -2.0487 -0.9021 -0.7000
 4163SOL    HW212616   3.570   1.525   2.420  1.5357  1.7160  1.5877
 4164SOL     OW12617   1.512   1.030   3.951  0.3758  0.1547  0.0135
 4164SOL    HW112618   1.445   0.962   3.948  0.9850 -0.4878  0.3216
 4164SOL    HW212619   1.595   0.982   3.949  0.8695  0.7195  2.0168
 4165SOL     OW12620   0.185   5.871   4.426  0.0836  0.5228 -0.1878
 4165SOL    HW112621   0.149   5.881   4.513  0.0509  1.1075 -0.2629
 4165SOL    HW212622   0.120   5.912   4.368  1.6701  3.6632 -0.1728
 4166SOL     OW12623   0.270   2.284   0.844 -0.1254 -0.2050  0.0128
 4166SOL    HW112624   0.175   2.287   0.835 -0.4442  1.0359  2.2423
 4166SOL    HW212625   0.288   2.337   0.922  2.1385 -2.4741  1.3491
 4167SOL     OW12626   3.693   3.298   3.815 -0.2920  0.0317 -0.4420
 4167SOL    HW112627   3.604   3.328   3.795 -1.3198 -0.8494  2.0390
 4167SOL    HW212628   3.740   3.376   3.843 -1.1843  0.2043  0.7116
 4168SOL     OW12629   4.145   3.767   2.679  0.3475  0.8857  0.3995
 4168SOL    HW112630   4.128   3.827   2.606  0.8351  0.4114 -0.1312
 4168SOL    HW212631   4.074   3.783   2.741 -0.6168  0.6758 -0.5884
 4169SOL     OW12632   6.070   5.039   4.163  0.1187  0.6766 -0.2326
 4169SOL    HW112633   6.149   5.092   4.171  0.7729 -0.0306 -1.3996
 4169SOL    HW212634   6.102   4.950   4.154 -0.7162  0.4792 -1.9056
 4170SOL     OW12635   0.707   4.602   1.855  0.4702  0.2090  0.3127
 4170SOL    HW112636   0.697   4.648   1.772  0.9999  0.7307  0.5218
 4170SOL    HW212637   0.658   4.521   1.844  0.5519  0.2579 -0.5140
 4171SOL     OW12638   3.273   4.037   0.135 -0.0727  0.3459 -0.1164
 4171SOL    HW112639   3.183   4.011   0.117 -0.0544  0.9548 -1.2383
 4171SOL    HW212640   3.327   3.971   0.092 -0.0240  1.0546 -1.2234
 4172SOL     OW12641   4.175   3.995   1.202 -0.4299 -0.0701  0.9052
 4172SOL    HW112642   4.088   3.958   1.188 -1.7635  2.9336 -0.8906
 4172SOL    HW212643   4.175   4.024   1.294 -0.1295 -2.2489  1.7039
 4173SOL     OW12644   4.128   3.030   4.365 -0.5309 -0.6730  0.1814
 4173SOL    HW112645   4.172   3.054   4.446  0.6788  0.0192 -0.6100
 4173SOL    HW212646   4.035   3.038   4.385 -0.2701  1.1173  1.0754
 4174SOL     OW12647   1.815   0.106   1.367 -0.2604  0.5109 -0.2014
 4174SOL    HW112648   1.886   0.166   1.390  0.0506  0.7109 -1.5668
 4174SOL    HW212649   1.794   0.126   1.276 -1.9429  0.3033  0.0812
 4175SOL     OW12650   5.744   0.717   0.508 -0.3188 -0.3581 -0.5623
 4175SOL    HW112651   5.738   0.762   0.592  0.7182  3.0076 -1.9390
 4175SOL    HW212652   5.835   0.689   0.502 -0.1331  0.2836 -0.8751
 4176SOL     OW12653   5.782   0.957   1.364 -0.3734 -0.3198 -0.4978
 4176SOL    HW112654   5.728   0.960   1.444  2.2944 -0.1358  1.5840
 4176SOL    HW212655   5.848   0.890   1.382  0.6411  0.0294 -2.4210
 4177SOL     OW12656   2.584   4.496   2.025  0.2261  0.0845  0.0612
 4177SOL    HW112657   2.673   4.504   1.992  1.2935  1.0411  2.6342
 4177SOL    HW212658   2.558   4.586   2.046  0.7085 -0.3208  3.5669
 4178SOL     OW12659   0.368   3.816   1.742 -0.3477 -0.2651  0.2401
 4178SOL    HW112660   0.440   3.869   1.777 -0.5137 -0.6469  1.2046
 4178SOL    HW212661   0.396   3.725   1.757  0.8952 -0.7551 -3.1622
 4179SOL     OW12662   0.441   6.072   0.978  0.6296  0.3319  0.2038
 4179SOL    HW112663   0.511   6.008   0.965  0.6904  0.5497 -0.7044
 4179SOL    HW212664   0.361   6.020   0.984  0.7626  0.1285  0.2111
 4180SOL     OW12665   3.448   2.645   1.656  0.3059 -0.4508  0.3274
 4180SOL    HW112666   3.439   2.551   1.640 -0.1321 -0.2748 -0.5971
 4180SOL    HW212667   3.372   2.685   1.614  0.3184  0.3080  0.9599
 4181SOL     OW12668   5.294   2.071   0.636  0.5374 -0.4184  0.4890
 4181SOL    HW112669   5.226   2.138   0.638  0.0157 -0.9421  0.7895
 4181SOL    HW212670   5.353   2.095   0.708  0.5728 -0.0670  0.3466
 4182SOL     OW12671   0.817   5.205   0.972 -0.0351  0.4809  0.0591
 4182SOL    HW112672   0.875   5.248   0.910 -0.5509 -0.0677 -0.8515
 4182SOL    HW212673   0.789   5.125   0.927 -1.0063  0.4244  0.7052
 4183SOL     OW12674   1.494   1.067   2.578 -0.0286 -0.2433 -0.0805
 4183SOL    HW112675   1.581   1.063   2.538 -0.4848 -2.3759 -1.2061
 4183SOL    HW212676   1.509   1.055   2.672  0.9058 -0.4518 -0.2428
 4184SOL     OW12677   5.783   6.208   2.371  0.3199 -0.2573 -0.3096
 4184SOL    HW112678   5.878   6.202   2.384  0.3376  1.5777  1.2885
 4184SOL    HW212679   5.773   6.234   2.280  1.0320 -3.2062 -1.4562
 4185SOL     OW12680   4.941   0.455   3.223  0.1824 -0.1939  0.1939
 4185SOL    HW112681   4.850   0.469   3.196  0.5874  0.9466 -0.7232
 4185SOL    HW212682   4.933   0.410   3.308 -1.2597  0.6371  0.5783
 4186SOL     OW12683   4.082   1.888   4.139  0.2559 -0.4998  0.1252
 4186SOL    HW112684   4.065   1.844   4.222 -2.4358 -0.4247 -0.1970
 4186SOL    HW212685   4.050   1.826   4.073  2.3612 -0.5904 -0.9831
 4187SOL     OW12686   2.281   2.480   1.040  1.1179 -1.0120  0.1278
 4187SOL    HW112687   2.284   2.459   0.947  1.2598 -0.7415  0.0672
 4187SOL    HW212688   2.201   2.439   1.072  0.4932 -0.2200 -0.3404
 4188SOL     OW12689   1.368   2.349   4.229 -0.1074 -0.0587  0.0478
 4188SOL    HW112690   1.344   2.339   4.137  1.1912 -0.8677 -0.2542
 4188SOL    HW212691   1.429   2.277   4.246  0.3670  0.5744  1.2992
 4189SOL     OW12692   5.314   2.431   4.118 -0.3416  0.8067 -0.0741
 4189SOL    HW112693   5.291   2.499   4.054  1.1777  0.7177 -0.7941
 4189SOL    HW212694   5.409   2.439   4.129 -0.1095 -1.0620 -0.0427
 4190SOL     OW12695   1.566   2.016   2.722  0.3717 -0.2017  0.3342
 4190SOL    HW112696   1.615   2.094   2.698  0.6090 -0.0940  1.1188
 4190SOL    HW212697   1.487   2.020   2.669  0.1365  0.8473  0.7269
 4191SOL     OW12698   1.279   0.939   4.512 -0.5942  0.2822 -0.2841
 4191SOL    HW112699   1.362   0.988   4.514 -0.7493  0.5401  0.3406
 4191SOL    HW212700   1.295   0.864   4.569 -0.6805  0.1422 -0.4440
 4192SOL     OW12701   4.821   6.087   2.685  0.5256 -0.1358  0.1805
 4192SOL    HW112702   4.901   6.078   2.633  0.6617 -0.6320  0.4690
 4192SOL    HW212703   4.750   6.083   2.620  0.6485 -1.5418  0.0717
 4193SOL     OW12704   5.204   5.904   3.216  0.3161 -0.7195 -0.6411
 4193SOL    HW112705   5.296   5.918   3.241 -0.0204  0.3610  0.1675
 4193SOL    HW212706   5.193   5.956   3.137 -0.1106  1.2098  0.5537
 4194SOL     OW12707   2.816   5.363   4.169  0.4671  0.9145  0.1080
 4194SOL    HW112708   2.801   5.271   4.191 -0.2701  1.2153  0.9831
 4194SOL    HW212709   2.848   5.402   4.251  2.7903  1.0733 -0.7335
 4195SOL     OW12710   1.190   4.149   4.534 -0.0006 -0.5630 -0.5343
 4195SOL    HW112711   1.162   4.154   4.443  0.2384  0.2366 -0.5805
 4195SOL    HW212712   1.229   4.235   4.552  1.4713 -1.2354 -0.1847
 4196SOL     OW12713   6.214   1.474   0.084  0.5128  0.0551 -0.8584
 4196SOL    HW112714   6.235   1.384   0.059 -2.2492 -0.3957 -2.2429
 4196SOL    HW212715   6.218   1.523   0.002  0.5608  0.8820 -0.3781
 4197SOL     OW12716   4.518   1.925   4.284  0.3921 -0.0874 -0.1597
 4197SOL    HW112717   4.565   2.008   4.276  0.2433  0.0480  0.3616
 4197SOL    HW212718   4.521   1.904   4.377  1.7829 -1.4559 -0.4255
 4198SOL     OW12719   1.828   2.956   0.617 -0.7532 -0.0817  0.3701
 4198SOL    HW112720   1.855   2.865   0.612  0.6960  0.2117  1.2952
 4198SOL    HW212721   1.872   2.999   0.544 -1.2299 -0.0679  0.0829
 4199SOL     OW12722   4.374   5.596   1.571 -0.1273 -0.1504  0.0748
 4199SOL    HW112723   4.437   5.641   1.627  1.4818 -2.3400  0.2891
 4199SOL    HW212724   4.301   5.573   1.629  0.3220 -0.1830  0.6383
 4200SOL     OW12725   1.535   4.117   3.893 -0.4197 -0.4986 -0.1897
 4200SOL    HW112726   1.457   4.117   3.838  0.0864 -0.2408 -0.9498
 4200SOL    HW212727   1.576   4.202   3.878 -0.5305 -0.1910  1.0287
 4201SOL     OW12728   4.995   2.909   0.864 -0.1056  0.5170  0.6170
 4201SOL    HW112729   4.909   2.870   0.884 -0.4526  0.3348 -0.9876
 4201SOL    HW212730   4.976   2.977   0.800  0.9988 -0.0542 -0.4011
 4202SOL     OW12731   3.014   4.854   2.422 -0.3898 -0.3493  0.4417
 4202SOL    HW112732   3.075   4.927   2.415 -0.6028  0.0186  1.7733
 4202SOL    HW212733   3.025   4.805   2.341  2.2382 -0.7626  0.8635
 4203SOL     OW12734   5.198   2.940   2.394  0.2404  0.2824 -0.7415
 4203SOL    HW112735   5.215   2.970   2.304 -4.6062 -0.5581 -2.5371
 4203SOL    HW212736   5.135   3.003   2.429  0.4605 -0.4951  1.3233
 4204SOL     OW12737   4.385   2.009   2.828  0.0086  0.1973 -0.6436
 4204SOL    HW112738   4.461   1.989   2.883 -0.6923  1.8839  1.1358
 4204SOL    HW212739   4.328   1.933   2.838  0.5854 -0.2149 -0.3491
 4205SOL     OW12740   3.537   5.082   2.556 -0.4432 -0.0197 -0.1927
 4205SOL    HW112741   3.593   5.037   2.620  0.2011  0.9920  0.0025
 4205SOL    HW212742   3.580   5.068   2.472  0.6339  1.3760  0.0384
 4206SOL     OW12743   1.842   1.910   4.171  0.2657  0.0870  0.4941
 4206SOL    HW112744   1.813   1.960   4.246 -2.5038  2.2884 -1.6093
 4206SOL    HW212745   1.768   1.853   4.150  0.5795  0.1290 -0.9310
 4207SOL     OW12746   3.558   3.595   3.405 -0.6268 -0.0714  0.4905
 4207SOL    HW112747   3.587   3.622   3.491  1.8046 -1.5438  0.3029
 4207SOL    HW212748   3.563   3.499   3.406 -1.4453 -0.2038 -1.0161
 4208SOL     OW12749   3.186   3.872   3.667 -0.6322 -0.4948 -0.8056
 4208SOL    HW112750   3.274   3.895   3.696 -0.2445 -1.8819 -0.7492
 4208SOL    HW212751   3.150   3.953   3.632  0.8604  0.0006 -1.3234
 4209SOL     OW12752   6.018   3.852   3.945 -0.0507  0.2544 -0.2541
 4209SOL    HW112753   6.057   3.938   3.927  1.2725 -0.3136 -0.3948
 4209SOL    HW212754   5.975   3.828   3.863 -0.2501  0.6826 -0.2817
 4210SOL     OW12755   5.327   0.038   1.136 -0.1834 -0.4014 -0.4603
 4210SOL    HW112756   5.282   0.018   1.219  0.5115 -1.4424 -0.2950
 4210SOL    HW212757   5.283  -0.017   1.071 -1.3949  1.1300 -1.0663
 4211SOL     OW12758   4.317   6.399   1.552  0.7009  1.2377 -0.0604
 4211SOL    HW112759   4.228   6.396   1.516  1.3867 -0.2385 -1.9693
 4211SOL    HW212760   4.374   6.381   1.477  2.3974 -1.3824  1.5514
 4212SOL     OW12761   6.299   4.244   2.424  0.0897 -0.7064  0.4203
 4212SOL    HW112762   6.314   4.167   2.479  1.1181 -0.9256 -0.1145
 4212SOL    HW212763   6.205   4.258   2.428  0.1118 -0.5444  2.4266
 4213SOL     OW12764   0.214   1.071   2.184  0.3942 -0.6257 -0.3856
 4213SOL    HW112765   0.282   1.082   2.251  0.3891 -0.9718 -0.3159
 4213SOL    HW212766   0.204   1.157   2.145 -0.0531 -0.2608  0.4896
 4214SOL     OW12767   3.906   4.755   4.083 -0.0910 -0.1857  0.4970
 4214SOL    HW112768   3.969   4.706   4.030  0.6065  0.9213  0.2540
 4214SOL    HW212769   3.841   4.689   4.109  1.3760 -1.4907  1.1521
 4215SOL     OW12770   0.523   3.221   1.755 -0.0941 -0.1426 -0.2194
 4215SOL    HW112771   0.442   3.231   1.706  1.1536  1.3850 -2.2689
 4215SOL    HW212772   0.577   3.164   1.701  0.8146  0.3132  0.1682
 4216SOL     OW12773   5.019   1.264   3.417 -0.6138 -0.3469 -0.6025
 4216SOL    HW112774   5.043   1.175   3.393  3.1300 -0.3107  1.5324
 4216SOL    HW212775   4.930   1.257   3.451 -0.4272 -3.3980 -0.2160
 4217SOL     OW12776   5.338   3.332   3.894  0.2043 -0.6904 -0.2484
 4217SOL    HW112777   5.303   3.405   3.946  0.4384  0.1173 -1.1702
 4217SOL    HW212778   5.392   3.374   3.828  0.3672 -1.7210 -0.8002
 4218SOL     OW12779   4.890   3.165   0.716 -0.3984  0.4012 -0.3194
 4218SOL    HW112780   4.801   3.196   0.698 -0.0483  2.5988  0.9664
 4218SOL    HW212781   4.933   3.166   0.631 -1.5465 -0.7532 -0.9799
 4219SOL     OW12782   0.137   0.851   4.213 -0.1008  0.3592 -0.9913
 4219SOL    HW112783   0.100   0.787   4.273  0.6168 -0.4151 -1.3200
 4219SOL    HW212784   0.181   0.798   4.146  0.1971  1.1991 -1.4956
 4220SOL     OW12785   1.249   0.519   3.874 -0.0847  0.5263  0.1548
 4220SOL    HW112786   1.282   0.541   3.786 -1.0646  0.5328 -0.2347
 4220SOL    HW212787   1.325   0.481   3.918  0.1980 -0.5175 -1.0743
 4221SOL     OW12788   1.930   1.987   1.855 -0.1556 -0.0516  0.0521
 4221SOL    HW112789   1.900   2.028   1.774 -0.2416  0.8424  0.5156
 4221SOL    HW212790   1.879   1.907   1.862  0.4602 -0.6068 -1.2089
 4222SOL     OW12791   6.276   1.503   0.987 -0.0690 -0.4709  0.0180
 4222SOL    HW112792   6.343   1.513   0.919  0.8834  1.7238  1.0496
 4222SOL    HW212793   6.193   1.503   0.939  0.5600  0.5820 -1.2207
 4223SOL     OW12794   2.298   6.114   2.133 -0.5177  0.5377 -0.0128
 4223SOL    HW112795   2.353   6.071   2.067 -0.1405  1.4013 -0.2935
 4223SOL    HW212796   2.360   6.144   2.199 -0.7978  0.4406  0.2965
 4224SOL     OW12797   3.175   2.694   3.570  0.3814 -0.5252 -0.4258
 4224SOL    HW112798   3.146   2.643   3.646  0.3425 -1.3670 -0.9821
 4224SOL    HW212799   3.095   2.711   3.521  0.4512 -0.2762 -0.4569
 4225SOL     OW12800   5.688   3.466   1.795 -0.1242  0.6454 -0.0460
 4225SOL    HW112801   5.716   3.374   1.787  0.5823  0.6668  1.5625
 4225SOL    HW212802   5.688   3.498   1.704  2.4083 -0.1782 -0.5150
 4226SOL     OW12803   3.055   0.728   2.309 -0.4022  0.1271  0.3450
 4226SOL    HW112804   2.991   0.713   2.379 -1.5418 -2.8070 -0.9802
 4226SOL    HW212805   3.126   0.667   2.329  0.3513  0.8583  0.0035
 4227SOL     OW12806   1.456   4.026   1.097 -0.2400  0.0700 -0.2691
 4227SOL    HW112807   1.450   4.079   1.018  1.8194  0.0275 -0.5616
 4227SOL    HW212808   1.547   3.997   1.100 -0.3607 -0.4425  1.8150
 4228SOL     OW12809   2.196   3.535   3.327  0.1564  0.1215 -0.0365
 4228SOL    HW112810   2.165   3.623   3.305 -0.2806 -0.0539 -0.1509
 4228SOL    HW212811   2.152   3.514   3.410 -0.6065 -0.4016 -0.5463
 4229SOL     OW12812   1.653   2.950   2.429 -0.6414  0.2116  0.7709
 4229SOL    HW112813   1.634   2.937   2.522 -1.3370 -0.2224  0.5774
 4229SOL    HW212814   1.747   2.935   2.422 -0.5287  0.5199  1.4422
 4230SOL     OW12815   4.084   3.320   3.959  0.0325  0.5753  0.1213
 4230SOL    HW112816   4.073   3.414   3.950  1.4121  0.8518  0.7938
 4230SOL    HW212817   4.101   3.306   4.052  2.5731  0.0906 -0.2688
 4231SOL     OW12818   1.802   3.538   4.389 -0.0233 -0.4670 -0.1971
 4231SOL    HW112819   1.877   3.579   4.346 -1.4758  2.0448 -0.7814
 4231SOL    HW212820   1.736   3.529   4.319 -1.3811  0.7490  0.8048
 4232SOL     OW12821   1.669   5.911   1.918  0.3824  0.4468  0.2841
 4232SOL    HW112822   1.596   5.850   1.909  0.3797  0.3451  0.9156
 4232SOL    HW212823   1.731   5.884   1.850  0.2375 -0.0588  0.3423
 4233SOL     OW12824   1.579   2.996   0.694 -0.7183 -0.6385  0.1560
 4233SOL    HW112825   1.656   2.944   0.670  0.7064  1.1210  0.4750
 4233SOL    HW212826   1.527   3.000   0.614 -0.3675 -1.6273 -0.1584
 4234SOL     OW12827   1.568   4.250   2.689 -0.2535  0.3280 -0.5551
 4234SOL    HW112828   1.547   4.344   2.684  0.5732  0.4997 -1.7291
 4234SOL    HW212829   1.483   4.207   2.699 -0.8239  1.1470 -1.4424
 4235SOL     OW12830   5.342   4.036   2.915  0.1375 -0.0310 -0.1487
 4235SOL    HW112831   5.277   3.978   2.876 -0.0036 -1.6172  2.1056
 4235SOL    HW212832   5.313   4.124   2.891 -0.6675 -0.7372 -2.2446
 4236SOL     OW12833   0.276   0.309   0.111  0.5630 -0.1661 -0.1292
 4236SOL    HW112834   0.297   0.240   0.174  2.3056  0.8453  0.5466
 4236SOL    HW212835   0.203   0.274   0.061 -0.8992 -1.1519  2.2945
 4237SOL     OW12836   5.844   3.137   4.394 -0.1677  0.3078 -0.5782
 4237SOL    HW112837   5.861   3.156   4.302  1.3985 -0.2840 -0.4813
 4237SOL    HW212838   5.760   3.091   4.395  0.4723 -1.0470 -1.9393
 4238SOL     OW12839   4.593   0.040   1.967  0.1738 -0.5364  0.3473
 4238SOL    HW112840   4.553   0.073   2.047  0.2207 -0.4539  0.3374
 4238SOL    HW212841   4.538  -0.034   1.940 -1.6380  1.1610 -1.1695
 4239SOL     OW12842   2.670   2.229   2.925 -0.4328  0.2479  1.1172
 4239SOL    HW112843   2.645   2.319   2.947  1.2329  0.7577  1.2711
 4239SOL    HW212844   2.730   2.239   2.851 -1.1821 -0.8869  0.3073
 4240SOL     OW12845   2.941   0.106   1.471 -0.2374 -0.1655 -0.4704
 4240SOL    HW112846   2.924   0.021   1.431  0.1369 -0.4871  0.0205
 4240SOL    HW212847   3.034   0.104   1.492 -0.4451 -0.1202  0.6017
 4241SOL     OW12848   5.564   0.635   0.747 -0.5102 -0.2760  0.1553
 4241SOL    HW112849   5.605   0.599   0.826 -2.2610  0.3714  1.4812
 4241SOL    HW212850   5.597   0.725   0.742 -1.0406 -0.0433  0.6848
 4242SOL     OW12851   4.306   3.674   2.959 -0.0018  0.1888  0.1912
 4242SOL    HW112852   4.390   3.630   2.965  1.0403  1.9302 -0.1992
 4242SOL    HW212853   4.290   3.684   2.866 -0.6396 -0.0804  0.2610
 4243SOL     OW12854   2.186   4.822   4.034  0.1092  0.3274 -0.1992
 4243SOL    HW112855   2.099   4.806   3.998  0.2011 -2.0878  0.2825
 4243SOL    HW212856   2.243   4.763   3.985  1.1063  0.4404  0.7469
 4244SOL     OW12857   4.096   3.589   3.921  0.4984  0.1668  0.3767
 4244SOL    HW112858   4.186   3.591   3.889  1.2581  0.0389  2.2581
 4244SOL    HW212859   4.073   3.680   3.938  0.0461  0.2485 -0.5338
 4245SOL     OW12860   0.245   4.390   4.159 -0.1755  0.0966  0.1247
 4245SOL    HW112861   0.251   4.385   4.254 -1.6319 -0.2234  0.2482
 4245SOL    HW212862   0.334   4.375   4.128  0.9338  2.6072  1.4579
 4246SOL     OW12863   1.396   3.913   1.948  0.0310  0.3698  0.0471
 4246SOL    HW112864   1.414   3.868   1.866 -0.7445  1.5730 -0.8568
 4246SOL    HW212865   1.383   4.005   1.923 -1.8742  0.5385  1.2363
 4247SOL     OW12866   4.602   2.115   3.420  0.2248  0.5864 -0.2948
 4247SOL    HW112867   4.613   2.129   3.514 -0.1234  1.5694 -0.3851
 4247SOL    HW212868   4.649   2.187   3.379 -0.1814  0.5417 -0.8568
 4248SOL     OW12869   0.535   5.936   3.873  0.0891  0.3620 -0.0827
 4248SOL    HW112870   0.553   5.934   3.779 -0.9605  0.4773 -0.3160
 4248SOL    HW212871   0.620   5.948   3.913  0.6652 -0.4592 -0.9701
 4249SOL     OW12872   0.205   2.017   2.926  0.4885  0.2588 -0.1017
 4249SOL    HW112873   0.114   2.045   2.926  0.4255  0.0591 -0.0061
 4249SOL    HW212874   0.255   2.097   2.941  0.2843  0.2497  0.7551
 4250SOL     OW12875   3.677   3.220   4.238  0.0002 -0.2784 -0.1956
 4250SOL    HW112876   3.640   3.138   4.205  0.5320 -0.6908  0.1944
 4250SOL    HW212877   3.650   3.224   4.329  0.7158 -0.4906  0.0425
 4251SOL     OW12878   5.654   4.135   3.750  0.0902  0.0795 -0.0890
 4251SOL    HW112879   5.740   4.142   3.708  0.1560 -0.0974  0.0145
 4251SOL    HW212880   5.593   4.173   3.687 -0.3075 -2.8067 -1.8038
 4252SOL     OW12881   5.287   1.161   4.241 -0.0551  0.1206  0.1217
 4252SOL    HW112882   5.249   1.243   4.210 -0.3330 -0.4984 -1.3066
 4252SOL    HW212883   5.213   1.100   4.244  0.3159 -0.3336  0.2259
 4253SOL     OW12884   4.912   1.651   3.318 -1.6513  0.8508 -0.6144
 4253SOL    HW112885   4.999   1.669   3.352 -1.6481 -1.5543  1.1619
 4253SOL    HW212886   4.861   1.626   3.395 -3.4151  0.4863 -1.7796
 4254SOL     OW12887   3.939   3.177   3.781 -0.0882  0.2014  0.8454
 4254SOL    HW112888   3.999   3.234   3.830  2.2602  0.2669 -1.6111
 4254SOL    HW212889   3.860   3.229   3.770 -0.0738  0.8375  2.8793
 4255SOL     OW12890   1.428   4.674   3.837  0.2470 -0.2705 -0.4074
 4255SOL    HW112891   1.427   4.691   3.931 -0.1605 -0.8591 -0.2922
 4255SOL    HW212892   1.444   4.759   3.797  0.3988 -0.0083  0.1927
 4256SOL     OW12893   0.956   1.307   0.173  0.0637  0.2832  0.3697
 4256SOL    HW112894   0.938   1.224   0.129  0.2554 -0.1179  1.0250
 4256SOL    HW212895   0.923   1.374   0.113 -1.3954 -0.3099  0.4434
 4257SOL     OW12896   4.523   0.555   4.201 -0.4212  0.3777 -0.3945
 4257SOL    HW112897   4.588   0.626   4.199 -1.8468  1.8154 -0.2723
 4257SOL    HW212898   4.480   0.565   4.285 -0.0701 -1.3255  0.0495
 4258SOL     OW12899   0.517   3.046   0.558 -0.0942  0.3341 -0.1210
 4258SOL    HW112900   0.572   3.043   0.479 -1.7658 -2.9865 -1.5445
 4258SOL    HW212901   0.428   3.051   0.526 -1.0081 -2.8417  1.1187
 4259SOL     OW12902   2.375   6.293   1.804 -0.1446 -0.1463  0.6155
 4259SOL    HW112903   2.355   6.322   1.893 -1.0607  1.1596  0.0490
 4259SOL    HW212904   2.365   6.198   1.807 -0.9869 -0.0652  1.7218
 4260SOL     OW12905   1.263   5.927   4.183 -0.0734  0.3902 -0.3282
 4260SOL    HW112906   1.294   5.960   4.267  1.0818 -1.1031 -0.0740
 4260SOL    HW212907   1.205   5.995   4.150 -1.1974  0.7344  2.0029
 4261SOL     OW12908   2.743   1.402   0.574 -0.5604 -0.4176 -0.1470
 4261SOL    HW112909   2.814   1.347   0.606 -1.9695 -2.1813  0.2621
 4261SOL    HW212910   2.667   1.378   0.628 -1.3994  1.8065 -0.1044
 4262SOL     OW12911   3.296   4.785   3.288 -0.8849 -0.1779  0.2356
 4262SOL    HW112912   3.295   4.873   3.250 -0.1542  0.2538  1.1377
 4262SOL    HW212913   3.374   4.744   3.252 -0.3731  0.1151  0.9690
 4263SOL     OW12914   3.969   3.365   2.561  0.2685 -0.1430 -0.0375
 4263SOL    HW112915   3.908   3.414   2.505  0.6718  0.7219  0.2395
 4263SOL    HW212916   4.038   3.336   2.501 -1.0787 -2.5305 -0.6936
 4264SOL     OW12917   3.988   1.435   2.758 -0.6983 -0.4636 -0.2881
 4264SOL    HW112918   4.049   1.441   2.832 -1.4785  2.7686  0.4085
 4264SOL    HW212919   4.040   1.464   2.683 -0.9847  1.5601  0.1699
 4265SOL     OW12920   3.841   6.149   4.304 -0.2538  0.3147  0.2336
 4265SOL    HW112921   3.858   6.147   4.398  1.2302  0.8823  0.0268
 4265SOL    HW212922   3.906   6.090   4.266 -0.4535  0.5339 -0.4836
 4266SOL     OW12923   1.132   5.023   0.921 -0.3359 -0.0261 -0.0396
 4266SOL    HW112924   1.104   5.106   0.883 -1.1537 -0.5314 -0.6223
 4266SOL    HW212925   1.111   4.958   0.853 -3.0779 -1.1854  1.5572
 4267SOL     OW12926   3.314   2.393   2.861  0.0401 -0.3472  0.1896
 4267SOL    HW112927   3.277   2.305   2.869  0.5953 -0.4901  2.0995
 4267SOL    HW212928   3.401   2.386   2.899  0.7028  0.7484 -0.9697
 4268SOL     OW12929   2.839   1.642   0.140 -0.2963 -0.2008 -0.5276
 4268SOL    HW112930   2.857   1.632   0.046  0.2439 -1.2507 -0.3465
 4268SOL    HW212931   2.751   1.607   0.151 -0.2413 -0.3725 -0.6113
 4269SOL     OW12932   2.929   0.921   4.459  0.2826 -0.1601 -0.4487
 4269SOL    HW112933   2.949   0.990   4.396  1.0158 -1.9303 -2.3888
 4269SOL    HW212934   2.990   0.850   4.438 -2.6303 -2.8974 -1.3117
 4270SOL     OW12935   6.167   4.245   0.529 -0.0205 -0.0882 -0.1038
 4270SOL    HW112936   6.217   4.318   0.494  0.2389  0.5491  1.4205
 4270SOL    HW212937   6.233   4.191   0.574 -0.4499 -0.1960  0.4197
 4271SOL     OW12938   3.260   2.894   2.824 -0.5154 -0.1037  0.1438
 4271SOL    HW112939   3.168   2.917   2.831 -0.2154  1.6855 -0.7103
 4271SOL    HW212940   3.275   2.882   2.730  0.0886 -0.5860  0.2874
 4272SOL     OW12941   1.001   4.971   1.935 -0.3261 -0.4137  0.3011
 4272SOL    HW112942   1.093   4.972   1.963 -0.1232 -1.2256 -0.2786
 4272SOL    HW212943   0.972   4.882   1.951 -1.2759  0.0148  1.2032
 4273SOL     OW12944   3.929   6.092   1.735 -0.4402  0.0645 -0.0812
 4273SOL    HW112945   3.841   6.058   1.753 -1.4610  2.6993  0.8256
 4273SOL    HW212946   3.927   6.114   1.642  0.5007 -2.5354 -0.8986
 4274SOL     OW12947   1.397   0.566   3.359  1.4646 -0.0122 -0.2103
 4274SOL    HW112948   1.334   0.621   3.313 -0.8727 -1.7633  0.4725
 4274SOL    HW212949   1.460   0.540   3.292 -0.6710 -0.9471 -2.1378
 4275SOL     OW12950   0.157   5.861   1.973  0.1013  0.3226 -0.6055
 4275SOL    HW112951   0.241   5.841   1.932  0.0809  1.2211 -1.1379
 4275SOL    HW212952   0.163   5.954   1.994 -0.4475  0.2121  0.1456
 4276SOL     OW12953   4.681   0.001   4.278  0.5432  0.7182  0.1647
 4276SOL    HW112954   4.774   0.008   4.303  0.6157  3.0477 -0.3058
 4276SOL    HW212955   4.635   0.054   4.343  0.1757  3.0541 -1.7107
 4277SOL     OW12956   0.309   4.037   3.141  0.3624  0.0284 -0.2661
 4277SOL    HW112957   0.394   3.998   3.158  0.2554 -0.8446 -1.4581
 4277SOL    HW212958   0.247   3.983   3.190  0.4682  0.7620  0.7332
 4278SOL     OW12959   4.798   5.263   4.011  0.1207  0.2007  0.1159
 4278SOL    HW112960   4.843   5.182   4.036  1.0966  0.9065  0.7716
 4278SOL    HW212961   4.827   5.281   3.922 -0.7957 -0.5894 -0.3895
 4279SOL     OW12962   3.045   4.591   4.168  0.1979 -0.4105  0.2901
 4279SOL    HW112963   3.127   4.573   4.123 -0.0849 -0.4254 -0.2404
 4279SOL    HW212964   3.030   4.684   4.155 -0.4687 -0.6263 -0.6961
 4280SOL     OW12965   2.609   2.499   2.707 -0.4876  0.0052 -0.3611
 4280SOL    HW112966   2.600   2.461   2.620 -0.9388  1.1581 -0.8654
 4280SOL    HW212967   2.526   2.546   2.721 -0.7760 -0.7987  1.0541
 4281SOL     OW12968   3.874   4.441   1.079  0.2845 -0.3105  0.3275
 4281SOL    HW112969   3.927   4.367   1.110  2.3875  0.3702 -1.1581
 4281SOL    HW212970   3.908   4.459   0.991 -1.8628  0.8899 -0.3947
 4282SOL     OW12971   0.075   3.725   0.883  0.4061  0.3745 -0.2179
 4282SOL    HW112972   0.074   3.714   0.978  0.4085 -4.3848 -0.2875
 4282SOL    HW212973  -0.018   3.727   0.858  0.4049  1.0521 -0.2009
 4283SOL     OW12974   0.158   2.909   1.303 -0.2221 -0.1212  0.4442
 4283SOL    HW112975   0.199   2.837   1.256 -0.3645  0.2172 -0.2187
 4283SOL    HW212976   0.195   2.988   1.265 -0.9314  0.1775  0.3267
 4284SOL     OW12977   1.920   3.584   3.172 -0.3079  0.7299 -0.7699
 4284SOL    HW112978   1.912   3.566   3.266 -1.3052 -0.5272 -1.0268
 4284SOL    HW212979   1.878   3.669   3.161 -1.7896  0.1582 -0.2253
 4285SOL     OW12980   1.025   2.816   4.153 -0.1172 -0.3456  0.4482
 4285SOL    HW112981   0.933   2.809   4.182  0.0851  1.0645  1.7142
 4285SOL    HW212982   1.020   2.863   4.070 -0.5671  1.1210  1.2271
 4286SOL     OW12983   5.496   2.451   2.464  0.1521 -0.0137 -0.5070
 4286SOL    HW112984   5.547   2.410   2.534 -1.4370  0.0619  0.8183
 4286SOL    HW212985   5.510   2.395   2.388  2.5109  0.2712 -0.4455
 4287SOL     OW12986   6.221   5.458   3.057  0.0038  0.6339 -0.2073
 4287SOL    HW112987   6.160   5.526   3.030 -2.0217 -0.2761  1.4837
 4287SOL    HW212988   6.284   5.503   3.114 -1.2840  1.1996  0.8734
 4288SOL     OW12989   1.505   2.070   1.871 -0.3360  0.2579 -0.2366
 4288SOL    HW112990   1.428   2.125   1.862 -0.7723 -0.0552  1.0510
 4288SOL    HW212991   1.557   2.113   1.939  1.2081  1.0243 -1.7403
 4289SOL     OW12992   6.325   2.949   0.604 -0.6412 -0.3565  0.1805
 4289SOL    HW112993   6.371   3.004   0.667 -2.5910  1.5642  0.1977
 4289SOL    HW212994   6.242   2.927   0.647 -1.0480 -1.0249 -0.8495
 4290SOL     OW12995   5.597   0.591   1.272  0.4759 -0.5181 -0.1569
 4290SOL    HW112996   5.587   0.683   1.295 -0.9360 -0.1774 -1.7153
 4290SOL    HW212997   5.507   0.558   1.268  0.7890 -1.3584 -1.6388
 4291SOL     OW12998   4.141   5.952   0.542  0.2684  0.0977  0.2158
 4291SOL    HW112999   4.069   5.896   0.571 -0.7134  0.0747 -1.8914
 4291SOL    HW213000   4.191   5.898   0.482  2.0733  0.1733  1.4960
 4292SOL     OW13001   2.769   6.188   1.581  0.4102  0.4493  0.0842
 4292SOL    HW113002   2.795   6.096   1.587  2.6790  0.8969 -0.7667
 4292SOL    HW213003   2.831   6.234   1.638  0.1504  1.5348 -0.4546
 4293SOL     OW13004   3.183   5.063   2.388 -0.0239 -0.0336 -0.6663
 4293SOL    HW113005   3.118   5.131   2.405  1.3456  1.1609  0.4161
 4293SOL    HW213006   3.260   5.111   2.358  1.1231 -1.0163  0.4491
 4294SOL     OW13007   0.398   1.624   4.387  0.2194  0.1843  0.2475
 4294SOL    HW113008   0.342   1.638   4.311  1.4877 -1.1310 -1.0634
 4294SOL    HW213009   0.348   1.565   4.444 -1.0279  1.7267  0.8786
 4295SOL     OW13010   1.550   4.986   2.144  0.3998  0.2419 -0.0749
 4295SOL    HW113011   1.618   4.920   2.161  1.2246  0.9981 -0.2650
 4295SOL    HW213012   1.544   4.989   2.049  0.1913  0.2737 -0.0601
 4296SOL     OW13013   1.779   5.043   3.271 -0.4135  0.3930 -0.1588
 4296SOL    HW113014   1.801   4.950   3.264 -0.6378 -0.1576  3.1590
 4296SOL    HW213015   1.684   5.045   3.258 -0.6230 -0.1890  0.9560
 4297SOL     OW13016   3.994   5.076   2.411  0.4972  0.6754  0.3367
 4297SOL    HW113017   4.067   5.022   2.381  0.2774  0.5308  0.0550
 4297SOL    HW213018   4.003   5.158   2.363 -1.1666 -0.3180 -2.0674
 4298SOL     OW13019   2.645   4.233   1.500  0.1589  0.4915  0.1693
 4298SOL    HW113020   2.640   4.295   1.573 -1.9397  0.1613  0.4424
 4298SOL    HW213021   2.582   4.266   1.436  0.0568 -0.5803 -0.3258
 4299SOL     OW13022   4.460   3.560   1.552 -0.1409  0.2153 -0.2951
 4299SOL    HW113023   4.549   3.550   1.586  0.6734  1.2551 -1.8551
 4299SOL    HW213024   4.416   3.615   1.617  0.6614  0.4561  0.0753
 4300SOL     OW13025   2.252   3.999   1.664  0.2688 -0.0756  0.0489
 4300SOL    HW113026   2.208   4.083   1.675 -0.5837 -0.1431 -1.9772
 4300SOL    HW213027   2.322   4.016   1.601 -0.9748 -1.0700 -1.7763
 4301SOL     OW13028   1.875   2.689   0.658  0.4660 -0.2689  0.5138
 4301SOL    HW113029   1.841   2.655   0.741  0.3675 -0.2178  0.4942
 4301SOL    HW213030   1.873   2.614   0.599 -0.5613 -0.0360  0.2178
 4302SOL     OW13031   2.202   0.499   2.551 -0.2926 -0.3171 -0.0670
 4302SOL    HW113032   2.136   0.540   2.606  0.0837 -0.6764  0.6875
 4302SOL    HW213033   2.285   0.529   2.588  0.0192  0.9302 -1.5926
 4303SOL     OW13034   1.715   2.734   1.434  0.0799 -0.3797 -0.1837
 4303SOL    HW113035   1.778   2.696   1.372  1.3405 -2.0396  1.8302
 4303SOL    HW213036   1.663   2.660   1.465  0.5608 -0.0341  1.7515
 4304SOL     OW13037   0.842   5.483   4.108 -0.5902 -0.1123  0.2923
 4304SOL    HW113038   0.891   5.558   4.143 -1.6594  0.4876  0.5833
 4304SOL    HW213039   0.890   5.458   4.030 -0.4223  1.1608 -0.0612
 4305SOL     OW13040   2.128   5.079   3.642  0.4645 -0.1288 -0.2058
 4305SOL    HW113041   2.076   5.078   3.723 -1.1078 -0.2910 -1.1446
 4305SOL    HW213042   2.064   5.079   3.572  1.5792 -3.4040 -1.6115
 4306SOL     OW13043   3.445   3.867   0.801  0.7614  0.4820  0.6465
 4306SOL    HW113044   3.520   3.855   0.860  1.3254 -1.3427 -0.2637
 4306SOL    HW213045   3.376   3.813   0.839  0.1733  1.4604  1.0164
 4307SOL     OW13046   1.116   2.629   1.779 -0.0609 -0.2643  0.1416
 4307SOL    HW113047   1.030   2.601   1.809  0.1618 -4.7473 -1.8023
 4307SOL    HW213048   1.100   2.673   1.696 -0.3910  0.8639  0.7654
 4308SOL     OW13049   6.064   4.128   1.150 -0.6840 -0.1946 -0.1414
 4308SOL    HW113050   6.008   4.199   1.181 -0.3205  0.1262 -0.2028
 4308SOL    HW213051   6.131   4.172   1.098 -1.5029 -0.7475 -1.7721
 4309SOL     OW13052   0.317   6.156   0.031 -0.1535  0.0313 -0.4909
 4309SOL    HW113053   0.253   6.118   0.091  1.1894 -0.1688  0.9669
 4309SOL    HW213054   0.396   6.168   0.085  1.2768 -0.3953 -2.2831
 4310SOL     OW13055   4.419   2.871   0.567 -0.0591  0.6955 -0.1164
 4310SOL    HW113056   4.372   2.850   0.647  1.4571  1.0244  0.9556
 4310SOL    HW213057   4.454   2.788   0.537 -1.7891  0.3157 -1.3475
 4311SOL     OW13058   0.971   3.748   2.249  0.1418 -0.0304  0.2490
 4311SOL    HW113059   0.937   3.662   2.273 -1.8550  0.3107 -0.8694
 4311SOL    HW213060   1.046   3.730   2.194 -0.3808 -1.0995 -0.1736
 4312SOL     OW13061   2.690   0.923   4.287  0.3930 -0.5366  0.2616
 4312SOL    HW113062   2.625   0.937   4.219 -0.8686 -1.9964  1.0252
 4312SOL    HW213063   2.758   0.989   4.271 -0.6758  0.2906 -1.3147
 4313SOL     OW13064   2.013   3.664   1.255 -0.1170 -0.4982 -0.5119
 4313SOL    HW113065   1.933   3.641   1.208 -3.5137  1.5483  3.0693
 4313SOL    HW213066   2.017   3.603   1.329 -0.6927  1.3085  1.2161
 4314SOL     OW13067   3.640   4.653   1.339 -0.3080 -0.1761  0.0466
 4314SOL    HW113068   3.593   4.571   1.325  1.1536 -1.1388  0.2759
 4314SOL    HW213069   3.703   4.633   1.409  0.2385  1.0793 -0.0338
 4315SOL     OW13070   3.908   4.543   0.278  0.4512  0.1828 -0.8141
 4315SOL    HW113071   3.950   4.472   0.231 -0.7476 -0.7015 -0.6628
 4315SOL    HW213072   3.843   4.578   0.217 -1.5951 -1.4163  0.1874
 4316SOL     OW13073   4.726   2.478   3.414  0.4822  0.8861 -0.2321
 4316SOL    HW113074   4.722   2.466   3.319  0.7070  0.9064 -0.2442
 4316SOL    HW213075   4.634   2.472   3.443  0.5379 -1.7699 -0.1262
 4317SOL     OW13076   0.326   1.036   0.901 -0.5876  0.1102 -0.6275
 4317SOL    HW113077   0.320   1.051   0.996 -0.2282  0.2781 -0.6292
 4317SOL    HW213078   0.236   1.015   0.875 -1.0387  1.6013 -0.5081
 4318SOL     OW13079   2.939   3.149   3.383  0.5363  0.5253 -0.0889
 4318SOL    HW113080   2.947   3.213   3.454  2.1355  0.1438  0.1455
 4318SOL    HW213081   2.881   3.082   3.418  0.6563  0.7411  0.5539
 4319SOL     OW13082   0.745   3.381   1.821 -0.0130  0.2013 -0.7474
 4319SOL    HW113083   0.665   3.333   1.797  0.7567 -2.1005  0.6675
 4319SOL    HW213084   0.795   3.386   1.739 -0.5778 -0.5435 -1.1631
 4320SOL     OW13085   2.593   0.407   4.464 -0.4591  0.2899 -0.4701
 4320SOL    HW113086   2.613   0.500   4.459 -0.3671  0.2826 -0.2566
 4320SOL    HW213087   2.498   0.404   4.478 -0.3349  0.3879  0.5363
 4321SOL     OW13088   0.288   0.072   3.775 -0.4143 -0.3652 -0.4261
 4321SOL    HW113089   0.199   0.101   3.758 -0.8155 -1.4216 -0.3162
 4321SOL    HW213090   0.283   0.029   3.860 -0.0981 -1.4835 -0.9326
 4322SOL     OW13091   0.678   4.032   1.448 -0.1923 -0.0858 -0.1336
 4322SOL    HW113092   0.754   4.086   1.426  0.2538 -0.4712  0.4333
 4322SOL    HW213093   0.603   4.083   1.416  0.0071  1.8470  2.0063
 4323SOL     OW13094   1.652   0.408   0.151  0.0296  0.4308  0.7746
 4323SOL    HW113095   1.589   0.463   0.104  0.7165  0.5584 -0.0385
 4323SOL    HW213096   1.694   0.356   0.083 -0.8608 -1.4865  1.5180
 4324SOL     OW13097   1.429   5.465   2.325 -0.0481 -0.1159  0.0611
 4324SOL    HW113098   1.445   5.444   2.234  2.5396 -0.3727  0.4197
 4324SOL    HW213099   1.343   5.507   2.326 -0.1212  0.0649 -2.4831
 4325SOL     OW13100   3.859   5.745   4.253  0.0853  0.1072  0.7725
 4325SOL    HW113101   3.896   5.832   4.238  1.0692 -0.5619 -1.4667
 4325SOL    HW213102   3.781   5.742   4.197  1.2835 -1.0402 -1.0369
 4326SOL     OW13103   1.545   4.109   0.106 -0.1929  0.3917 -0.0685
 4326SOL    HW113104   1.499   4.039   0.151  0.6925 -0.1696  0.0017
 4326SOL    HW213105   1.512   4.189   0.146 -0.2964 -0.0378  0.7406
 4327SOL     OW13106   5.458   2.029   2.832  0.6182  0.2446  0.1613
 4327SOL    HW113107   5.441   1.963   2.900  0.4271  0.6983  0.5647
 4327SOL    HW213108   5.549   2.016   2.808  0.5437 -0.2648  0.1256
 4328SOL     OW13109   5.803   2.581   1.085  0.2557 -0.5800  0.4000
 4328SOL    HW113110   5.839   2.571   0.997  1.2811  0.8391  0.5831
 4328SOL    HW213111   5.774   2.493   1.110 -1.3309 -0.8507 -1.8008
 4329SOL     OW13112   0.675   2.465   3.279 -0.6017 -0.5476 -0.0080
 4329SOL    HW113113   0.619   2.502   3.346 -0.4282 -2.5887  1.4380
 4329SOL    HW213114   0.692   2.375   3.308  1.8139 -0.7018 -1.3413
 4330SOL     OW13115   2.606   3.271   3.022  0.5319 -0.1224  1.3519
 4330SOL    HW113116   2.667   3.201   3.000  3.5922  2.4198  0.2871
 4330SOL    HW213117   2.618   3.285   3.116  2.3024  0.6956  1.0836
 4331SOL     OW13118   1.566   5.960   3.280  0.0002 -0.1460 -0.4362
 4331SOL    HW113119   1.600   5.892   3.223 -0.2395 -2.2247  1.5804
 4331SOL    HW213120   1.486   5.922   3.317  0.2263  0.8942  1.3666
 4332SOL     OW13121   1.847   4.775   3.239  0.0055 -0.6167  0.1215
 4332SOL    HW113122   1.782   4.707   3.221  0.5124 -0.9399 -0.5802
 4332SOL    HW213123   1.909   4.769   3.167  1.2610 -0.8647  1.1344
 4333SOL     OW13124   0.104   5.176   3.472 -0.0304 -0.3530  0.7786
 4333SOL    HW113125   0.048   5.144   3.401  1.3296 -2.0875  0.3487
 4333SOL    HW213126   0.079   5.268   3.483 -0.4925 -0.0136 -1.8079
 4334SOL     OW13127   1.398   2.417   0.928 -0.1002 -0.5362 -0.0242
 4334SOL    HW113128   1.308   2.407   0.898 -0.0444  2.3002 -1.9106
 4334SOL    HW213129   1.451   2.378   0.858  0.1257 -0.6708  0.2192
 4335SOL     OW13130   6.338   6.146   0.500  0.1163  0.2766 -0.5262
 4335SOL    HW113131   6.292   6.222   0.537  1.1961  0.8560 -0.2986
 4335SOL    HW213132   6.430   6.162   0.520  0.4649 -0.6783 -1.2462
 4336SOL     OW13133   2.739   4.791   0.954 -0.2386  0.2511 -0.2337
 4336SOL    HW113134   2.809   4.816   1.015  0.0242 -1.2124  0.1291
 4336SOL    HW213135   2.681   4.867   0.953  1.2197  1.4541 -0.4121
 4337SOL     OW13136   5.896   4.223   2.869  0.3528  0.1760 -0.6087
 4337SOL    HW113137   5.910   4.194   2.778 -0.5335  2.7304 -1.7432
 4337SOL    HW213138   5.802   4.238   2.875  0.6517  3.2832 -0.6023
 4338SOL     OW13139   1.353   4.601   1.345  0.2920 -0.0407 -0.4576
 4338SOL    HW113140   1.388   4.641   1.265 -0.7893  0.1852 -0.8489
 4338SOL    HW213141   1.372   4.508   1.336  0.3278  0.0042 -0.9023
 4339SOL     OW13142   4.682   0.476   1.602 -0.6434 -0.2383  0.9436
 4339SOL    HW113143   4.651   0.502   1.688 -2.0334  0.7877  0.2205
 4339SOL    HW213144   4.608   0.492   1.544  0.6526  0.5263 -0.6841
 4340SOL     OW13145   6.357   0.644   0.365 -0.3941  1.0090  0.1650
 4340SOL    HW113146   6.441   0.631   0.320 -0.3099 -0.8018  0.6961
 4340SOL    HW213147   6.371   0.723   0.418  0.9270  0.8530  0.1302
 4341SOL     OW13148   5.900   4.311   0.472  0.2944  0.2344 -0.1095
 4341SOL    HW113149   5.981   4.265   0.490  0.0064 -0.3416 -0.2406
 4341SOL    HW213150   5.907   4.393   0.521  1.6608  0.9850 -1.4119
 4342SOL     OW13151   0.734   5.386   2.940 -0.1143 -0.1576 -1.0592
 4342SOL    HW113152   0.798   5.449   2.908 -0.5153  1.4814  0.9117
 4342SOL    HW213153   0.651   5.434   2.941 -0.3577 -0.4350  0.9570
 4343SOL     OW13154   0.399   6.347   1.022 -0.3532  0.2500  0.0884
 4343SOL    HW113155   0.398   6.254   1.000  2.9518 -0.2190  0.8214
 4343SOL    HW213156   0.405   6.392   0.938  2.5235 -0.7369 -0.4423
 4344SOL     OW13157   4.358   3.778   1.072 -0.7326 -0.4011 -0.3963
 4344SOL    HW113158   4.374   3.775   1.167  0.2595 -2.4128 -0.5186
 4344SOL    HW213159   4.283   3.719   1.059 -2.2539  1.4242 -0.7811
 4345SOL     OW13160   4.500   1.599   2.004  0.3854  0.1317  0.0504
 4345SOL    HW113161   4.563   1.527   2.014 -0.6895 -1.1119 -1.2142
 4345SOL    HW213162   4.484   1.604   1.909 -0.3615  1.3585  0.1942
 4346SOL     OW13163   3.919   5.860   2.755 -0.0829 -0.0385 -0.5535
 4346SOL    HW113164   3.905   5.786   2.815 -0.4219 -0.8188 -1.5372
 4346SOL    HW213165   3.909   5.938   2.810 -1.0713 -0.6964  0.2655
 4347SOL     OW13166   0.030   0.696   3.596  0.4286 -0.2015  0.1101
 4347SOL    HW113167  -0.046   0.644   3.570 -0.6558  1.5588 -0.6475
 4347SOL    HW213168   0.004   0.736   3.679  1.0308 -0.4804  0.4407
 4348SOL     OW13169   2.608   2.015   3.221  0.6514  0.5968  0.3049
 4348SOL    HW113170   2.546   2.079   3.188 -0.8854 -0.7294  0.4000
 4348SOL    HW213171   2.569   1.982   3.303  0.5597 -1.4227 -0.4230
 4349SOL     OW13172   1.742   6.267   2.604 -0.5900  0.2034 -0.3841
 4349SOL    HW113173   1.808   6.313   2.552  0.1230  2.6998  2.1980
 4349SOL    HW213174   1.784   6.185   2.628  0.2814  0.3621 -1.2555
 4350SOL     OW13175   6.250   2.466   0.356  0.4915  0.4394  0.0364
 4350SOL    HW113176   6.329   2.494   0.404  1.4398 -1.5178 -0.2028
 4350SOL    HW213177   6.256   2.371   0.354 -1.2010  0.2824 -1.2138
 4351SOL     OW13178   1.926   5.766   3.547 -0.1743  0.2407  0.1160
 4351SOL    HW113179   1.849   5.799   3.593 -0.3881  0.0253 -0.0835
 4351SOL    HW213180   1.904   5.773   3.454 -0.3851 -0.8161  0.0650
 4352SOL     OW13181   6.288   1.990   3.685  0.1911 -0.3459 -0.2189
 4352SOL    HW113182   6.306   2.024   3.598  1.6041  1.3645  0.5955
 4352SOL    HW213183   6.198   2.016   3.703  0.8045  2.3792 -0.1138
 4353SOL     OW13184   2.896   2.326   4.208 -0.1975  0.0485 -0.3606
 4353SOL    HW113185   2.820   2.307   4.152  0.2931  0.2696 -1.1376
 4353SOL    HW213186   2.863   2.388   4.272 -0.4097  1.2101 -1.5021
 4354SOL     OW13187   0.307   4.460   0.923 -0.0601 -0.1110 -0.1502
 4354SOL    HW113188   0.215   4.441   0.904  0.3767 -1.2778 -1.4221
 4354SOL    HW213189   0.338   4.508   0.847  0.0424  1.8463  1.0037
 4355SOL     OW13190   1.741   5.178   2.990  0.1331  0.0891  0.1396
 4355SOL    HW113191   1.719   5.135   3.073 -0.7015 -1.6107 -0.8576
 4355SOL    HW213192   1.660   5.224   2.966  0.4414  0.7571  0.3179
 4356SOL     OW13193   5.349   3.647   0.917  0.7074  0.1391 -0.2367
 4356SOL    HW113194   5.352   3.704   0.840  0.5970  0.0592 -0.3009
 4356SOL    HW213195   5.368   3.559   0.883  0.9014  0.1417 -0.1344
 4357SOL     OW13196   4.230   2.148   4.410 -0.3493  0.1680  0.2545
 4357SOL    HW113197   4.154   2.125   4.356 -0.4748  1.1947 -0.0479
 4357SOL    HW213198   4.192   2.179   4.492 -0.2148 -0.1218  0.4276
 4358SOL     OW13199   2.424   1.599   2.656 -0.4136  0.2995  0.2437
 4358SOL    HW113200   2.385   1.675   2.699 -0.2605  0.7869 -0.4419
 4358SOL    HW213201   2.503   1.633   2.615  0.2129 -0.4498  0.7513
 4359SOL     OW13202   5.242   0.147   3.862  0.2783  0.3671  0.2263
 4359SOL    HW113203   5.284   0.063   3.843 -0.0237 -0.0880  1.4060
 4359SOL    HW213204   5.274   0.170   3.949 -2.2804 -0.3338  1.5324
 4360SOL     OW13205   4.269   2.382   1.822 -0.1630 -0.5454  0.7377
 4360SOL    HW113206   4.339   2.325   1.853  0.8498  1.4826  2.8343
 4360SOL    HW213207   4.312   2.445   1.764 -1.4187 -2.1077 -2.3575
 4361SOL     OW13208   1.922   6.258   1.352  0.2338  0.2320 -0.0358
 4361SOL    HW113209   1.906   6.349   1.376  2.0089  1.7504 -3.3496
 4361SOL    HW213210   1.962   6.220   1.430  0.7252  2.7356  1.1511
 4362SOL     OW13211   0.191   1.752   1.371 -0.3415 -0.2645 -0.5582
 4362SOL    HW113212   0.171   1.735   1.463 -1.0320  0.3903 -0.5721
 4362SOL    HW213213   0.116   1.801   1.338  0.3722  0.4759 -1.1817
 4363SOL     OW13214   1.565   2.373   2.187 -0.0148  0.2985  0.4463
 4363SOL    HW113215   1.633   2.428   2.146  0.7284 -0.1627  1.0099
 4363SOL    HW213216   1.587   2.284   2.159 -1.0187  0.2164 -0.1990
 4364SOL     OW13217   4.597   1.212   0.381 -0.3156 -0.0351 -0.1998
 4364SOL    HW113218   4.563   1.273   0.446  1.3858  0.8746 -0.0596
 4364SOL    HW213219   4.575   1.125   0.416 -0.2477  0.4364  1.1289
 4365SOL     OW13220   1.608   4.168   3.495  0.0586 -0.6039  0.5653
 4365SOL    HW113221   1.625   4.238   3.431 -2.8838  1.3898  1.5557
 4365SOL    HW213222   1.687   4.166   3.549  0.9584  0.7114 -0.5421
 4366SOL     OW13223   4.348   1.115   3.023  0.5338  0.2728 -0.2079
 4366SOL    HW113224   4.356   1.021   3.006  0.1518  0.5407 -2.5292
 4366SOL    HW213225   4.436   1.149   3.014  1.0078  0.0958  2.2448
 4367SOL     OW13226   4.254   3.470   1.392 -0.5552 -0.0083  0.6145
 4367SOL    HW113227   4.317   3.491   1.461  0.7886  0.4574 -0.6301
 4367SOL    HW213228   4.192   3.543   1.392  1.4063  1.9151 -0.7211
 4368SOL     OW13229   5.057   5.700   0.169 -0.1062 -0.2702 -0.0502
 4368SOL    HW113230   5.046   5.607   0.147 -0.9790  0.1380 -1.6481
 4368SOL    HW213231   5.124   5.731   0.108 -0.3191  0.2908 -0.0060
 4369SOL     OW13232   1.271   0.061   2.937  0.2638 -0.2469  0.5298
 4369SOL    HW113233   1.259   0.155   2.933 -0.7869 -0.2259  2.1668
 4369SOL    HW213234   1.361   0.049   2.968 -0.1326  0.3849  2.1638
 4370SOL     OW13235   1.197   3.050   1.987 -0.0950  0.3174  0.8784
 4370SOL    HW113236   1.281   3.005   1.990 -0.8512 -1.3975 -0.4309
 4370SOL    HW213237   1.219   3.140   1.961  1.4637  0.7997  3.2352
 4371SOL     OW13238   3.043   4.459   2.097  0.6094  0.3310 -0.5376
 4371SOL    HW113239   3.125   4.497   2.066  0.2370  1.7495  0.0954
 4371SOL    HW213240   3.068   4.405   2.172  1.0268  0.1321 -0.8129
 4372SOL     OW13241   5.010   5.058   1.070 -0.0945  0.0414 -0.1484
 4372SOL    HW113242   4.916   5.076   1.066 -0.0307  0.9974  1.1712
 4372SOL    HW213243   5.022   5.009   1.151  0.7163  2.1876  1.2247
 4373SOL     OW13244   5.502   1.655   0.197 -0.1132  0.3390 -0.1139
 4373SOL    HW113245   5.481   1.685   0.109 -1.0214 -1.2218 -0.4918
 4373SOL    HW213246   5.524   1.563   0.187 -0.3044  0.0948  1.2998
 4374SOL     OW13247   0.105   3.580   4.096  0.0256 -0.2034  0.3969
 4374SOL    HW113248   0.134   3.525   4.168 -1.3414 -0.5063  0.7766
 4374SOL    HW213249   0.067   3.519   4.032 -0.5178  0.2006  0.3193
 4375SOL     OW13250   1.956   4.420   2.289 -0.4163 -0.1939 -0.2147
 4375SOL    HW113251   1.899   4.372   2.350  0.2565 -0.4699  0.2280
 4375SOL    HW213252   2.043   4.383   2.304  0.2546  1.4612  0.4979
 4376SOL     OW13253   3.092   2.305   1.818  0.3357  0.6106  0.0687
 4376SOL    HW113254   3.112   2.333   1.907  1.7725  1.4048 -0.4338
 4376SOL    HW213255   3.083   2.386   1.768 -0.1817  0.1812 -0.5816
 4377SOL     OW13256   0.868   1.181   1.622 -0.2809 -0.0053  0.4384
 4377SOL    HW113257   0.889   1.262   1.577 -1.0485 -0.2004 -0.3127
 4377SOL    HW213258   0.817   1.130   1.559 -1.1247 -0.4355  1.4088
 4378SOL     OW13259   5.189   3.318   4.151  0.4026  0.5368  0.3552
 4378SOL    HW113260   5.105   3.365   4.152  0.9335  1.5548  1.0333
 4378SOL    HW213261   5.189   3.269   4.069 -0.9130  0.3700  0.4118
 4379SOL     OW13262   0.644   3.585   2.870  0.5160  0.2844  0.3334
 4379SOL    HW113263   0.716   3.638   2.835  0.9739 -1.6417 -2.2178
 4379SOL    HW213264   0.578   3.585   2.800 -0.8881 -0.0405  1.5511
 4380SOL     OW13265   0.868   6.402   1.510  0.8858  0.1866  0.3725
 4380SOL    HW113266   0.959   6.384   1.486  0.3681 -0.1356 -1.8564
 4380SOL    HW213267   0.870   6.419   1.604  2.7103 -3.4517  1.3627
 4381SOL     OW13268   4.173   2.742   2.940 -0.1845 -0.1321 -0.4997
 4381SOL    HW113269   4.201   2.737   2.848  0.3997 -2.2369 -0.3246
 4381SOL    HW213270   4.217   2.669   2.982  0.7869  1.5808  1.8809
 4382SOL     OW13271   1.395   6.277   2.206 -0.0844  0.3809 -0.1406
 4382SOL    HW113272   1.394   6.206   2.142  0.0343 -0.0366  0.3101
 4382SOL    HW213273   1.471   6.259   2.261 -0.9422 -0.0660  0.9771
 4383SOL     OW13274   3.545   0.431   0.780 -0.2473  0.2312  0.7979
 4383SOL    HW113275   3.579   0.517   0.802 -0.3428  0.4061  0.2867
 4383SOL    HW213276   3.526   0.390   0.864 -0.8696  0.9686  1.0359
 4384SOL     OW13277   2.394   6.108   3.088  0.1302  0.1962  0.3522
 4384SOL    HW113278   2.364   6.174   3.150 -0.5794  0.8877 -0.6642
 4384SOL    HW213279   2.356   6.026   3.120 -1.8576  0.8130 -0.1060
 4385SOL     OW13280   2.562   4.586   3.442  0.5163  0.0355  0.1058
 4385SOL    HW113281   2.493   4.591   3.508 -0.2728  2.3343 -0.6823
 4385SOL    HW213282   2.515   4.585   3.359  1.4918 -1.3620 -0.4918
 4386SOL     OW13283   5.578   2.397   3.555 -0.3746 -0.2678 -0.5599
 4386SOL    HW113284   5.592   2.305   3.580 -1.8661 -0.0183  1.8565
 4386SOL    HW213285   5.513   2.392   3.485 -0.5096 -1.0684 -0.4050
 4387SOL     OW13286   2.372   2.820   2.417  0.1014 -0.3781 -0.0454
 4387SOL    HW113287   2.423   2.821   2.336 -1.0855  2.0839 -0.9610
 4387SOL    HW213288   2.438   2.827   2.486  1.1589  1.2760 -1.0747
 4388SOL     OW13289   2.259   1.439   2.442 -0.1658 -0.3652  0.1263
 4388SOL    HW113290   2.326   1.376   2.467  0.9036  1.3999  2.4525
 4388SOL    HW213291   2.292   1.523   2.474 -1.6412  1.4164 -2.3415
 4389SOL     OW13292   1.078   4.461   0.414 -0.0033 -0.2959 -0.4612
 4389SOL    HW113293   0.992   4.465   0.455  0.2435  1.6047  0.0528
 4389SOL    HW213294   1.091   4.548   0.377  0.7737 -1.2005 -2.6589
 4390SOL     OW13295   4.271   2.575   3.608 -0.1458  0.1164 -0.0333
 4390SOL    HW113296   4.233   2.646   3.557 -0.7929  0.1219  0.4431
 4390SOL    HW213297   4.232   2.583   3.694  1.0177  0.1814  0.5280
 4391SOL     OW13298   4.724   2.035   3.701  0.4838 -0.1849 -0.1006
 4391SOL    HW113299   4.694   2.076   3.782  1.2527  0.1683  0.0272
 4391SOL    HW213300   4.800   2.087   3.675  1.0314 -1.0742 -0.3559
 4392SOL     OW13301   2.656   2.425   3.918  0.2844  0.1027 -0.0765
 4392SOL    HW113302   2.609   2.348   3.951 -0.9301 -0.1414 -2.0481
 4392SOL    HW213303   2.739   2.390   3.887  2.6289  0.6464  4.1465
 4393SOL     OW13304   3.450   3.331   3.594  0.1925  0.0646 -0.3921
 4393SOL    HW113305   3.418   3.338   3.684  0.0084  0.7269 -0.4942
 4393SOL    HW213306   3.394   3.391   3.544 -0.4167 -1.0846 -1.1612
 4394SOL     OW13307   3.827   3.915   2.481  0.1051  0.2082 -0.5139
 4394SOL    HW113308   3.779   3.992   2.453  0.8771  0.9754  0.1579
 4394SOL    HW213309   3.919   3.940   2.472  0.4013  0.0446  1.3401
 4395SOL     OW13310   4.364   4.043   1.004 -0.1482 -0.0769 -0.2418
 4395SOL    HW113311   4.293   4.044   1.069 -1.1511 -0.9457 -1.2394
 4395SOL    HW213312   4.387   3.950   0.996  1.8269  0.2262  0.7150
 4396SOL     OW13313   0.217   5.129   0.648  0.3950  0.2983 -0.5078
 4396SOL    HW113314   0.250   5.052   0.695  0.8791  0.8118  0.0284
 4396SOL    HW213315   0.140   5.156   0.698  2.0257  2.0754  1.4246
 4397SOL     OW13316   6.240   2.181   0.348  0.2266 -0.1221 -0.1204
 4397SOL    HW113317   6.281   2.202   0.432  0.4369 -0.9186 -0.0135
 4397SOL    HW213318   6.232   2.086   0.348 -0.3529 -0.0875 -0.7407
 4398SOL     OW13319   3.735   4.398   0.750 -0.2091 -0.0997 -0.8073
 4398SOL    HW113320   3.684   4.480   0.751  0.5601  0.4001 -0.8316
 4398SOL    HW213321   3.820   4.423   0.784  0.2458 -0.7576 -1.4068
 4399SOL     OW13322   4.316   3.943   0.725  0.7358 -0.5759  0.1371
 4399SOL    HW113323   4.238   3.977   0.769 -1.5471 -3.1837 -1.2526
 4399SOL    HW213324   4.361   4.021   0.692 -2.1858  1.2056 -0.3010
 4400SOL     OW13325   3.451   0.106   1.379 -0.4392  0.3394 -0.1594
 4400SOL    HW113326   3.507   0.181   1.401 -0.5505  0.0118  1.5086
 4400SOL    HW213327   3.456   0.049   1.456 -0.1317 -1.5649 -1.4424
 4401SOL     OW13328   1.244   0.768   2.957  0.2051 -0.0241 -0.2640
 4401SOL    HW113329   1.245   0.674   2.942 -0.2641 -0.2397  0.8631
 4401SOL    HW213330   1.170   0.800   2.905 -0.2325 -0.4348  0.0910
 4402SOL     OW13331   6.311   6.078   3.749 -0.0917  0.5688 -0.2489
 4402SOL    HW113332   6.380   6.137   3.719  0.1041  0.7147  0.4494
 4402SOL    HW213333   6.324   5.998   3.697  2.0650 -0.2814  1.3004
 4403SOL     OW13334   5.861   2.055   2.523  0.3308  0.4684  0.4641
 4403SOL    HW113335   5.946   2.051   2.567  1.6046 -0.4731 -1.7298
 4403SOL    HW213336   5.882   2.077   2.432 -1.6037 -0.9837 -0.4907
 4404SOL     OW13337   5.800   3.499   2.251  0.4629 -0.1998  0.1189
 4404SOL    HW113338   5.781   3.518   2.343  1.3329 -1.6671  0.6795
 4404SOL    HW213339   5.719   3.462   2.216  0.4093 -0.5737  0.6176
 4405SOL     OW13340   2.174   3.997   3.552 -0.0015  0.0719  0.1900
 4405SOL    HW113341   2.193   4.048   3.473  1.1174  0.5232  0.6968
 4405SOL    HW213342   2.259   3.987   3.594 -0.3842 -1.1624  0.7656
 4406SOL     OW13343   5.255   6.294   0.118  0.0872  0.6146 -0.4135
 4406SOL    HW113344   5.314   6.259   0.185  1.3350  0.1407 -1.6753
 4406SOL    HW213345   5.167   6.270   0.149  0.5428  0.7884  1.2248
 4407SOL     OW13346   0.041   3.835   3.507  0.4141  0.5358 -0.1081
 4407SOL    HW113347   0.117   3.776   3.511  0.0968  0.0768 -0.5262
 4407SOL    HW213348  -0.009   3.814   3.586  1.1690  1.5116  0.6800
 4408SOL     OW13349   4.875   0.487   3.722  0.1788  0.0824  0.0967
 4408SOL    HW113350   4.952   0.440   3.752 -0.0015  0.1821  0.7304
 4408SOL    HW213351   4.910   0.559   3.669  0.4512 -0.9250 -1.1874
 4409SOL     OW13352   4.031   6.006   4.194  0.1258  0.0453 -0.3485
 4409SOL    HW113353   4.104   6.006   4.256  0.6877  1.8595 -0.8907
 4409SOL    HW213354   4.073   6.015   4.108 -0.6529 -1.8489 -1.0392
 4410SOL     OW13355   5.733   3.573   2.510  0.2027 -0.2333 -0.1530
 4410SOL    HW113356   5.785   3.640   2.554  0.2004 -0.2995 -0.0485
 4410SOL    HW213357   5.642   3.594   2.533  0.1524  0.0965 -0.6302
 4411SOL     OW13358   4.727   4.500   2.857 -0.8540  0.3149  0.3066
 4411SOL    HW113359   4.765   4.520   2.943 -0.2057  0.5780 -0.0220
 4411SOL    HW213360   4.691   4.412   2.866 -0.3542  0.1420  0.7113
 4412SOL     OW13361   3.416   5.418   3.079  0.0495 -0.6666 -0.3609
 4412SOL    HW113362   3.487   5.423   3.143 -0.1061 -0.0545 -0.2252
 4412SOL    HW213363   3.397   5.325   3.072 -0.7994 -0.7120  1.4747
 4413SOL     OW13364   4.918   3.871   2.254 -0.1571 -0.0355 -0.7415
 4413SOL    HW113365   4.957   3.930   2.318 -1.4033  1.3361 -1.1444
 4413SOL    HW213366   4.984   3.862   2.185 -0.2883  1.8530 -1.2070
 4414SOL     OW13367   5.762   2.643   2.079  0.2799  0.1265  0.4371
 4414SOL    HW113368   5.826   2.631   2.149  2.2587 -2.1259 -1.4204
 4414SOL    HW213369   5.812   2.679   2.006 -1.0376  0.0382 -0.5934
 4415SOL     OW13370   3.147   4.041   4.166  0.4891  0.4632  0.2882
 4415SOL    HW113371   3.169   4.123   4.212 -0.6025  0.9206  0.0771
 4415SOL    HW213372   3.074   4.005   4.217  0.8578 -0.3168  0.2878
 4416SOL     OW13373   4.285   4.987   3.067  0.3297  0.3187  0.4494
 4416SOL    HW113374   4.200   4.962   3.031  0.3362  0.7696  0.1112
 4416SOL    HW213375   4.346   4.976   2.995  0.2981  1.4940  0.2101
 4417SOL     OW13376   2.177   0.400   0.587 -0.4995  0.6819  0.3645
 4417SOL    HW113377   2.117   0.354   0.646 -0.6273  0.3218 -0.0329
 4417SOL    HW213378   2.142   0.489   0.582 -0.6593  0.6334  0.6007
 4418SOL     OW13379   2.427   1.817   2.189 -0.5607 -0.3460 -0.6690
 4418SOL    HW113380   2.407   1.786   2.277 -1.1801 -2.5689 -1.4588
 4418SOL    HW213381   2.516   1.851   2.195  0.4819 -2.8110  0.4043
 4419SOL     OW13382   4.220   0.495   0.542 -0.1269 -0.4121  0.0432
 4419SOL    HW113383   4.238   0.580   0.503  0.0619 -0.7746 -0.7015
 4419SOL    HW213384   4.220   0.511   0.637 -0.9380  0.5679 -0.0935
 4420SOL     OW13385   4.805   0.633   2.325 -0.0379 -0.0960 -0.6907
 4420SOL    HW113386   4.732   0.695   2.325 -1.4561 -1.5940 -0.5277
 4420SOL    HW213387   4.852   0.651   2.405 -1.5894 -0.3971  0.3865
 4421SOL     OW13388   0.651   5.771   2.640  0.5761 -0.3881 -0.3955
 4421SOL    HW113389   0.627   5.803   2.553 -0.9309  1.6262  0.5945
 4421SOL    HW213390   0.619   5.681   2.641  0.4226 -0.4004 -1.8206
 4422SOL     OW13391   2.723   2.827   1.166 -0.6447  0.3636  0.3101
 4422SOL    HW113392   2.634   2.800   1.142 -0.5695 -0.0784  0.5052
 4422SOL    HW213393   2.778   2.753   1.142 -0.5795 -0.1954  1.8979
 4423SOL     OW13394   1.773   3.439   2.969  0.1787  0.2581 -0.4012
 4423SOL    HW113395   1.827   3.426   3.047 -0.8043 -1.1389  0.1229
 4423SOL    HW213396   1.706   3.501   2.997 -0.7086 -0.9042  0.2394
 4424SOL     OW13397   3.067   1.223   2.025  0.0376 -0.4895  0.0055
 4424SOL    HW113398   3.050   1.164   1.952 -1.3998  0.8747 -0.8860
 4424SOL    HW213399   3.004   1.197   2.093 -0.7640  0.0984 -0.4797
 4425SOL     OW13400   5.133   2.755   1.275 -0.2633 -0.2706 -0.0384
 4425SOL    HW113401   5.147   2.816   1.203 -1.7020 -0.1371 -0.2682
 4425SOL    HW213402   5.039   2.758   1.292 -0.0545 -0.6235  1.5789
 4426SOL     OW13403   5.496   2.769   4.175 -0.6421  0.0482  0.4152
 4426SOL    HW113404   5.587   2.749   4.199 -0.7142  0.2451  0.8647
 4426SOL    HW213405   5.444   2.703   4.221 -0.6531 -1.1307 -1.1292
 4427SOL     OW13406   6.217   4.780   3.242  0.4389 -0.1643  0.2475
 4427SOL    HW113407   6.233   4.832   3.163  0.3562 -0.3879  0.0833
 4427SOL    HW213408   6.220   4.689   3.213  0.0008 -0.2408  0.4255
 4428SOL     OW13409   4.524   4.059   2.304  0.3047  0.1327 -0.3031
 4428SOL    HW113410   4.555   4.016   2.384  0.0975  0.4898 -0.0217
 4428SOL    HW213411   4.558   4.149   2.312 -0.1314  0.3060 -0.3748
 4429SOL     OW13412   6.082   0.410   0.337 -0.2580 -0.7731  0.0234
 4429SOL    HW113413   6.007   0.440   0.389  0.4467 -0.8515  1.1689
 4429SOL    HW213414   6.064   0.441   0.248 -1.5233 -0.5937  0.3021
 4430SOL     OW13415   3.127   1.208   0.881  0.0984 -0.0977 -0.3863
 4430SOL    HW113416   3.048   1.261   0.892 -0.8430 -1.1132 -1.5323
 4430SOL    HW213417   3.178   1.253   0.815  0.3230  0.3821  0.1020
 4431SOL     OW13418   3.681   4.928   0.962 -0.0583  0.1864 -0.1318
 4431SOL    HW113419   3.695   4.843   1.003  0.0315 -0.5296 -1.5697
 4431SOL    HW213420   3.628   4.911   0.885 -0.4368  1.5150 -0.2289
 4432SOL     OW13421   1.902   3.651   2.084  0.1983 -0.4844  0.2915
 4432SOL    HW113422   1.940   3.563   2.076  1.2575 -0.1000  0.7578
 4432SOL    HW213423   1.921   3.677   2.174 -0.3896  0.1132  0.2617
 4433SOL     OW13424   3.967   1.711   3.956  0.0631  0.7315  0.0044
 4433SOL    HW113425   3.927   1.636   4.001  1.3495  1.0605  1.9361
 4433SOL    HW213426   4.040   1.673   3.907  0.7035  0.6462  0.9658
 4434SOL     OW13427   2.130   4.107   2.792 -0.2082 -0.3714 -0.1553
 4434SOL    HW113428   2.219   4.127   2.765 -0.1318 -0.1844  0.2192
 4434SOL    HW213429   2.095   4.051   2.722 -0.1218  0.3177 -0.7717
 4435SOL     OW13430   2.198   5.634   3.926 -0.1977  0.3665  0.4475
 4435SOL    HW113431   2.181   5.710   3.870  0.0014 -0.2499 -0.4794
 4435SOL    HW213432   2.165   5.560   3.877  1.5531 -0.4257  0.3252
 4436SOL     OW13433   5.120   0.873   3.596  0.0654 -0.0725 -0.5064
 4436SOL    HW113434   5.116   0.920   3.513  0.9259 -0.6671 -0.9199
 4436SOL    HW213435   5.031   0.842   3.612 -0.1665  0.3005 -1.0519
 4437SOL     OW13436   2.384   3.160   4.054 -0.0939 -0.3915 -0.1420
 4437SOL    HW113437   2.411   3.070   4.074  1.8560  0.1809  0.2357
 4437SOL    HW213438   2.349   3.194   4.137  2.1735  0.0719  0.7741
 4438SOL     OW13439   1.644   1.594   3.293  0.1337  0.0237 -0.0693
 4438SOL    HW113440   1.644   1.606   3.198  0.1432  0.5942 -0.0016
 4438SOL    HW213441   1.723   1.542   3.311 -0.2130 -0.6662 -0.4304
 4439SOL     OW13442   5.445   1.578   4.444  0.3996  0.2659  0.1411
 4439SOL    HW113443   5.518   1.555   4.387  0.0865 -0.4139 -0.0089
 4439SOL    HW213444   5.371   1.591   4.384  0.2654  0.3885  0.3311
 4440SOL     OW13445   2.448   5.903   2.268  0.0619 -0.1913  0.1495
 4440SOL    HW113446   2.410   5.827   2.312  3.5775 -2.1365  0.5284
 4440SOL    HW213447   2.473   5.963   2.339 -0.7486  0.3374  0.0211
 4441SOL     OW13448   0.494   2.679   4.525 -0.5086  0.1683 -0.0836
 4441SOL    HW113449   0.565   2.736   4.496 -0.0569 -0.0512  0.5317
 4441SOL    HW213450   0.539   2.602   4.562 -1.0826 -0.2318 -0.1846
 4442SOL     OW13451   2.589   5.361   2.882  0.0281  0.2393  0.3104
 4442SOL    HW113452   2.603   5.400   2.796 -0.4540  1.1395  0.6054
 4442SOL    HW213453   2.575   5.268   2.865  3.2532 -0.3646 -0.2539
 4443SOL     OW13454   0.169   5.409   0.642  0.2372 -0.4349 -0.4200
 4443SOL    HW113455   0.093   5.368   0.600  0.9751 -0.6970 -1.6050
 4443SOL    HW213456   0.228   5.336   0.658  0.4481 -0.1689  0.0269
 4444SOL     OW13457   5.617   3.943   2.865 -0.2197 -0.1881  0.4536
 4444SOL    HW113458   5.534   3.907   2.898 -0.2396  0.0225  0.6359
 4444SOL    HW213459   5.602   4.037   2.863  0.4181 -0.0187  1.6479
 4445SOL     OW13460   5.115   4.556   2.755  0.0231  0.6968  0.0777
 4445SOL    HW113461   5.125   4.521   2.667  2.5764 -2.0716  1.1378
 4445SOL    HW213462   5.190   4.614   2.767  1.3554 -1.0143  0.9906
 4446SOL     OW13463   1.503   6.067   1.041  0.0321  0.1730 -0.3625
 4446SOL    HW113464   1.575   6.068   1.104  0.8706 -1.7709 -1.1060
 4446SOL    HW213465   1.489   5.974   1.023 -1.5425  0.5572 -1.5271
 4447SOL     OW13466   4.050   0.397   1.984  0.2448  0.1924  0.3281
 4447SOL    HW113467   3.997   0.401   2.063  1.2568 -1.1522  1.1682
 4447SOL    HW213468   4.116   0.329   2.003 -0.2254 -1.1839 -2.1435
 4448SOL     OW13469   3.264   3.318   0.160  0.7053  0.8274 -0.5206
 4448SOL    HW113470   3.223   3.253   0.217  2.1778 -0.3186 -0.6550
 4448SOL    HW213471   3.207   3.395   0.166 -0.3705  0.0099  0.7498
 4449SOL     OW13472   0.679   3.101   0.332 -0.4717 -0.0485  0.2695
 4449SOL    HW113473   0.618   3.034   0.301 -0.2156 -0.4880  0.6890
 4449SOL    HW213474   0.760   3.083   0.284 -0.7346  0.7256 -0.5201
 4450SOL     OW13475   4.869   2.696   2.608 -0.2588 -0.0568 -0.2971
 4450SOL    HW113476   4.852   2.759   2.537 -0.1520 -1.7061 -1.9579
 4450SOL    HW213477   4.921   2.745   2.672  0.6423  1.3223 -1.9029
 4451SOL     OW13478   1.271   5.150   3.044 -0.4095  0.1930  0.4713
 4451SOL    HW113479   1.200   5.213   3.053 -0.8061 -0.1796  0.0529
 4451SOL    HW213480   1.228   5.069   3.017  0.0466 -0.3553  1.2967
 4452SOL     OW13481   6.134   0.412   3.722  0.1751 -0.1008  0.1338
 4452SOL    HW113482   6.172   0.458   3.797 -1.1527 -0.3908  1.0571
 4452SOL    HW213483   6.055   0.371   3.757 -0.1790 -0.7599 -1.3057
 4453SOL     OW13484   0.542   3.603   1.766 -0.1966 -0.3022  0.1062
 4453SOL    HW113485   0.605   3.563   1.825 -1.2324  0.6756  2.0721
 4453SOL    HW213486   0.576   3.585   1.678  2.5066 -0.2918  0.9673
 4454SOL     OW13487   1.228   2.639   4.111  0.0299  0.0684  0.3108
 4454SOL    HW113488   1.150   2.690   4.128 -0.6338 -1.1835  1.4142
 4454SOL    HW213489   1.282   2.651   4.190 -0.9151 -2.0793  1.4797
 4455SOL     OW13490   1.710   6.105   4.528  0.9421 -0.2871 -0.2706
 4455SOL    HW113491   1.724   6.127   4.436 -1.2875  3.2968 -0.1638
 4455SOL    HW213492   1.793   6.126   4.571  1.5951 -0.6608 -1.2853
 4456SOL     OW13493   5.346   1.491   0.605 -0.3378 -0.2716  0.4456
 4456SOL    HW113494   5.437   1.500   0.633 -0.1987 -0.4608  0.0632
 4456SOL    HW213495   5.351   1.469   0.512 -0.7046 -2.2216  0.8058
 4457SOL     OW13496   3.477   3.380   1.584 -0.1808 -0.1409 -0.1285
 4457SOL    HW113497   3.486   3.287   1.602  2.6782 -0.6426 -2.5795
 4457SOL    HW213498   3.389   3.390   1.547 -0.3739 -1.9868 -0.3225
 4458SOL     OW13499   2.480   3.280   1.497 -0.2076  0.5790 -0.0664
 4458SOL    HW113500   2.445   3.285   1.586 -0.5202 -0.7290 -0.0695
 4458SOL    HW213501   2.561   3.330   1.500  0.3235 -0.2587  1.2559
 4459SOL     OW13502   3.880   2.233   0.269  0.1776  0.9492 -0.0377
 4459SOL    HW113503   3.888   2.174   0.194  1.8296 -1.2918  1.6127
 4459SOL    HW213504   3.786   2.233   0.290 -0.0669  0.1135 -0.9978
 4460SOL     OW13505   5.467   3.453   4.175 -0.1864 -0.8720 -0.5376
 4460SOL    HW113506   5.493   3.531   4.126 -2.0206  1.1288  1.2699
 4460SOL    HW213507   5.394   3.417   4.126  0.3471 -1.2074 -1.1175
 4461SOL     OW13508   1.994   3.957   4.270  0.0855 -0.7033  0.0061
 4461SOL    HW113509   2.022   3.869   4.294 -1.5631 -1.2425  0.1792
 4461SOL    HW213510   1.900   3.950   4.258 -0.1697  1.1147  0.3767
 4462SOL     OW13511   0.033   3.803   1.653 -0.2231  0.1052 -0.4784
 4462SOL    HW113512   0.089   3.872   1.689 -2.2118  1.9462 -0.5093
 4462SOL    HW213513   0.000   3.756   1.729 -0.4905  0.6266 -0.2632
 4463SOL     OW13514   2.019   1.590   3.548 -0.1379 -0.3657  0.3809
 4463SOL    HW113515   1.973   1.519   3.593 -1.3121  0.0577 -0.0725
 4463SOL    HW213516   1.962   1.666   3.558  0.9681  0.4868  0.6486
 4464SOL     OW13517   3.413   5.863   3.914 -0.2976 -0.0185  0.1380
 4464SOL    HW113518   3.319   5.847   3.907 -0.3291 -1.4489  2.2381
 4464SOL    HW213519   3.443   5.805   3.983  1.9410  1.2897  0.4731
 4465SOL     OW13520   6.272   5.646   0.022  0.6130  1.0686 -0.1175
 4465SOL    HW113521   6.358   5.666  -0.014  0.4191  0.5304 -0.9295
 4465SOL    HW213522   6.256   5.716   0.085  1.5785  1.2510 -0.0430
 4466SOL     OW13523   5.844   2.496   1.668  0.1877  0.1437 -0.3828
 4466SOL    HW113524   5.920   2.461   1.715  0.6763  1.0943 -0.4112
 4466SOL    HW213525   5.826   2.432   1.600  1.5303  0.2852 -0.9325
 4467SOL     OW13526   2.609   3.876   4.089  0.2115  0.3628 -0.1256
 4467SOL    HW113527   2.671   3.949   4.082  0.7139  0.5153  2.9812
 4467SOL    HW213528   2.636   3.830   4.169 -2.4458 -0.8297  0.2841
 4468SOL     OW13529   1.103   2.363   3.792  0.4144 -0.5298  0.2402
 4468SOL    HW113530   1.027   2.410   3.828 -0.2946  0.2023 -1.9120
 4468SOL    HW213531   1.177   2.392   3.847 -0.5037  0.6106  0.9699
 4469SOL     OW13532   0.804   3.007   1.845  0.2098  0.0082 -0.7413
 4469SOL    HW113533   0.787   3.101   1.840  0.8273  0.1749 -0.0476
 4469SOL    HW213534   0.856   2.987   1.767  1.5733  0.6228 -0.0660
 4470SOL     OW13535   3.190   6.087   3.551 -0.2499 -0.0889  0.4264
 4470SOL    HW113536   3.228   6.168   3.584 -0.5413  0.4723 -0.5229
 4470SOL    HW213537   3.095   6.103   3.551 -0.2600  0.2457 -1.2520
 4471SOL     OW13538   1.039   5.768   1.791 -0.2969  0.4456 -0.0785
 4471SOL    HW113539   0.974   5.801   1.729 -1.2747 -1.7981 -0.4639
 4471SOL    HW213540   0.996   5.693   1.832  1.3030  0.1826  1.3389
 4472SOL     OW13541   2.464   3.716   4.305  0.0688  0.7340 -0.2137
 4472SOL    HW113542   2.400   3.722   4.234 -1.0164 -0.3642  0.5724
 4472SOL    HW213543   2.455   3.626   4.337  0.7502  1.0844  1.0842
 4473SOL     OW13544   4.771   3.488   4.072 -0.1932 -0.0945 -0.6060
 4473SOL    HW113545   4.802   3.418   4.130 -0.1985 -0.2323 -0.7659
 4473SOL    HW213546   4.677   3.470   4.061 -0.7629  1.2296  1.1667
 4474SOL     OW13547   6.088   0.833   1.218  1.1048 -0.3597 -0.2878
 4474SOL    HW113548   6.124   0.832   1.307  1.5720 -1.0720 -0.4716
 4474SOL    HW213549   6.012   0.775   1.222  1.0873 -0.3400 -0.3360
 4475SOL     OW13550   0.220   5.029   2.360  0.4186  0.3779  0.0759
 4475SOL    HW113551   0.141   5.034   2.306 -0.2919  1.6065  1.1266
 4475SOL    HW213552   0.290   5.064   2.304 -0.3843  2.0747  0.0154
 4476SOL     OW13553   6.364   5.804   3.020 -0.0433  0.7563 -0.0015
 4476SOL    HW113554   6.280   5.831   3.057 -1.1027 -0.1531 -1.5295
 4476SOL    HW213555   6.349   5.799   2.926  2.7378  4.0713 -1.0531
 4477SOL     OW13556   6.231   4.797   0.510  0.0513  0.2173 -0.3851
 4477SOL    HW113557   6.221   4.880   0.557 -2.1208  0.7198 -1.4634
 4477SOL    HW213558   6.222   4.730   0.579 -1.1713  0.9138  0.2046
 4478SOL     OW13559   4.428   3.142   2.324 -0.2423  0.0688  0.4310
 4478SOL    HW113560   4.449   3.163   2.414 -1.8500  0.0970  0.8652
 4478SOL    HW213561   4.416   3.227   2.281  2.2231  0.1636 -0.4017
 4479SOL     OW13562   5.668   0.234   0.947 -0.2160 -0.2685  0.1289
 4479SOL    HW113563   5.640   0.149   0.913  0.5688 -1.4018  2.0167
 4479SOL    HW213564   5.680   0.288   0.869 -0.6609 -1.9021 -1.1855
 4480SOL     OW13565   1.148   1.348   1.238  0.3988  0.5859 -0.0852
 4480SOL    HW113566   1.106   1.270   1.202  1.7323 -0.8417  1.1508
 4480SOL    HW213567   1.170   1.401   1.162  0.8698 -1.0373 -1.1873
 4481SOL     OW13568   0.553   2.349   0.740 -0.2895  0.5308 -0.1174
 4481SOL    HW113569   0.485   2.372   0.803  0.2704  1.9099  0.0492
 4481SOL    HW213570   0.511   2.358   0.654 -1.2320 -1.9231 -0.0849
 4482SOL     OW13571   5.343   4.322   2.627  0.0993 -0.0141  0.2320
 4482SOL    HW113572   5.350   4.327   2.722 -0.3265 -1.0845  0.3427
 4482SOL    HW213573   5.422   4.366   2.595  0.8072 -0.5807  1.1012
 4483SOL     OW13574   4.468   4.224   2.773  0.2437 -0.0833  0.4978
 4483SOL    HW113575   4.449   4.296   2.833  1.7719 -0.2540  1.3057
 4483SOL    HW213576   4.544   4.254   2.723 -0.6460 -0.1767 -1.0114
 4484SOL     OW13577   4.544   2.278   2.582  0.5995 -0.2366 -0.4926
 4484SOL    HW113578   4.552   2.183   2.590 -0.2971 -0.2843  0.0469
 4484SOL    HW213579   4.606   2.312   2.647 -1.2355 -0.5510  1.6721
 4485SOL     OW13580   1.440   5.215   1.421  0.6246  0.0319  0.3107
 4485SOL    HW113581   1.449   5.194   1.328 -0.4005 -0.0463  0.2101
 4485SOL    HW213582   1.477   5.304   1.428 -1.5556  1.1942 -0.7511
 4486SOL     OW13583   1.916   5.994   2.649  0.3582 -0.5233  0.0554
 4486SOL    HW113584   1.908   5.905   2.686 -0.2605 -1.1539 -1.4479
 4486SOL    HW213585   1.914   5.981   2.555  0.2227  1.1183 -0.2178
 4487SOL     OW13586   5.984   2.496   3.892  0.3899 -0.2497  0.3051
 4487SOL    HW113587   5.913   2.512   3.954  0.1290 -0.9419  0.2100
 4487SOL    HW213588   6.057   2.550   3.924  0.4850 -1.0510  1.6074
 4488SOL     OW13589   4.395   4.010   1.714  0.0145  0.6855  0.2531
 4488SOL    HW113590   4.314   3.973   1.749 -0.2091  2.3370  1.7628
 4488SOL    HW213591   4.463   3.982   1.776  0.3567  0.4462 -0.2207
 4489SOL     OW13592   3.568   4.871   0.339 -0.1318  0.1334 -0.0366
 4489SOL    HW113593   3.570   4.902   0.430  0.5417  0.2046 -0.0644
 4489SOL    HW213594   3.509   4.932   0.294 -0.5383  0.0466  0.3651
 4490SOL     OW13595   2.838   5.293   0.135 -0.4249 -0.4681 -0.6471
 4490SOL    HW113596   2.856   5.324   0.224 -0.6413 -1.8283 -0.0737
 4490SOL    HW213597   2.744   5.277   0.133 -0.4496 -0.2892 -1.1805
 4491SOL     OW13598   1.246   1.941   4.144 -0.3768  0.4004  0.0485
 4491SOL    HW113599   1.221   1.868   4.200  0.4164 -0.6570 -0.8850
 4491SOL    HW213600   1.333   1.966   4.174  0.5017 -0.8442 -1.2276
 4492SOL     OW13601   4.791   0.394   4.118 -0.5488 -0.3469  0.4548
 4492SOL    HW113602   4.796   0.315   4.064 -0.2818 -0.3324  0.4562
 4492SOL    HW213603   4.723   0.447   4.075 -0.0753 -0.1658 -0.1005
 4493SOL     OW13604   2.564   3.559   3.386 -0.3379 -0.1246 -0.0252
 4493SOL    HW113605   2.648   3.583   3.346 -0.9485 -0.1901 -1.4730
 4493SOL    HW213606   2.545   3.472   3.351 -1.0696 -0.0583  0.1745
 4494SOL     OW13607   3.226   5.623   3.640 -0.1750 -0.1903 -0.2917
 4494SOL    HW113608   3.165   5.561   3.680 -0.4653 -0.7705 -1.5094
 4494SOL    HW213609   3.312   5.593   3.668 -0.3409 -0.8386 -0.4263
 4495SOL     OW13610   4.072   0.136   2.772  0.2647  0.0700 -0.2341
 4495SOL    HW113611   4.128   0.182   2.835 -1.1843 -0.1906  1.3816
 4495SOL    HW213612   4.079   0.043   2.797 -1.6004  0.1059  0.7949
 4496SOL     OW13613   0.740   4.143   2.410  0.7160  0.2895  0.6903
 4496SOL    HW113614   0.742   4.135   2.314  0.6939 -1.2714  0.7574
 4496SOL    HW213615   0.828   4.118   2.438  0.1437 -1.5837  1.1028
 4497SOL     OW13616   6.200   4.529   1.313  0.0155  0.3178  0.6755
 4497SOL    HW113617   6.165   4.443   1.337  2.7334 -0.8410  1.2727
 4497SOL    HW213618   6.135   4.591   1.346 -2.0865 -1.4287  0.2629
 4498SOL     OW13619   5.579   5.263   0.727 -0.5431 -0.6033 -0.7789
 4498SOL    HW113620   5.587   5.315   0.807  0.8529 -1.0628 -0.5572
 4498SOL    HW213621   5.574   5.329   0.657  0.5072 -0.1184 -0.4528
 4499SOL     OW13622   0.599   2.349   3.726 -0.0334  0.2098 -0.0337
 4499SOL    HW113623   0.621   2.352   3.819 -1.8860 -1.8244  0.6285
 4499SOL    HW213624   0.681   2.325   3.682  0.2399 -3.1633  1.7175
 4500SOL     OW13625   4.575   2.763   1.156 -0.2040  0.1339  0.0827
 4500SOL    HW113626   4.531   2.678   1.154 -0.5489  0.3119  0.0224
 4500SOL    HW213627   4.659   2.748   1.113 -1.2517  0.3948 -2.3326
 4501SOL     OW13628   1.985   3.439   0.602 -0.3772  0.2861  0.2352
 4501SOL    HW113629   1.930   3.366   0.573 -0.5783  0.9514 -1.2454
 4501SOL    HW213630   2.048   3.399   0.662 -1.2416 -0.8537  0.4593
 4502SOL     OW13631   5.032   1.193   2.794  1.2827  0.0503 -0.2931
 4502SOL    HW113632   5.044   1.287   2.786  0.0747  0.3131  0.3930
 4502SOL    HW213633   4.938   1.180   2.780  1.5718 -1.2259 -1.5653
 4503SOL     OW13634   0.258   1.594   3.735  0.2890  0.3410  0.6545
 4503SOL    HW113635   0.203   1.601   3.657  2.3840 -0.7730 -1.1640
 4503SOL    HW213636   0.197   1.592   3.808 -1.9146  0.7538 -0.9874
 4504SOL     OW13637   2.667   5.119   1.045 -0.2322  0.1237  1.0126
 4504SOL    HW113638   2.701   5.176   0.976  0.2006 -0.5482  0.6479
 4504SOL    HW213639   2.745   5.086   1.089 -0.4302 -0.7306  0.7580
 4505SOL     OW13640   0.857   5.090   3.295  0.2641 -0.1615  0.3842
 4505SOL    HW113641   0.885   5.001   3.275  0.2854 -0.1085  0.1648
 4505SOL    HW213642   0.886   5.106   3.385 -0.0977 -0.5153  0.5677
 4506SOL     OW13643   5.107   4.948   2.781 -0.3654  0.4246 -0.1389
 4506SOL    HW113644   5.015   4.929   2.801 -0.0335 -0.6574  0.6022
 4506SOL    HW213645   5.136   4.873   2.728  0.1946  0.4982  0.0474
 4507SOL     OW13646   0.197   3.434   4.306  0.3887  0.0699 -0.4339
 4507SOL    HW113647   0.169   3.415   4.395  2.9433 -2.4378  0.1049
 4507SOL    HW213648   0.283   3.476   4.316  1.8529 -2.2713 -1.4079
 4508SOL     OW13649   0.735   4.819   0.523  0.2875  0.0447 -0.3274
 4508SOL    HW113650   0.680   4.775   0.589  1.0154  0.5227  0.6545
 4508SOL    HW213651   0.673   4.856   0.461 -0.4527 -0.2352  0.2115
 4509SOL     OW13652   1.498   2.388   1.477 -0.5236 -0.4554  0.9066
 4509SOL    HW113653   1.438   2.461   1.490  0.2696  0.0837  1.7948
 4509SOL    HW213654   1.476   2.354   1.390  0.3264  2.0622 -0.4931
 4510SOL     OW13655   2.514   4.255   1.205  0.5375  0.3008 -0.0638
 4510SOL    HW113656   2.437   4.288   1.252 -0.2329  0.7933 -1.5493
 4510SOL    HW213657   2.479   4.195   1.140  1.5643 -0.4426  0.0299
 4511SOL     OW13658   3.373   3.395   3.843 -0.3713 -0.0344  0.4428
 4511SOL    HW113659   3.354   3.331   3.912 -3.6281  0.6527  0.5015
 4511SOL    HW213660   3.365   3.480   3.887  1.7543  0.5649 -0.0746
 4512SOL     OW13661   2.028   4.352   2.714 -0.4535 -0.0127  0.2269
 4512SOL    HW113662   2.046   4.300   2.636  2.9090  2.4451 -1.1134
 4512SOL    HW213663   2.065   4.301   2.786 -1.3097 -1.2288 -0.1279
 4513SOL     OW13664   1.323   1.886   1.236  0.5336 -0.8208  0.2720
 4513SOL    HW113665   1.261   1.824   1.201  0.3932 -1.4811  1.5649
 4513SOL    HW213666   1.409   1.844   1.225  0.7288 -0.2108 -0.8822
 4514SOL     OW13667   0.818   2.538   2.671 -0.5362 -0.1578  0.2270
 4514SOL    HW113668   0.817   2.488   2.752 -1.5090 -1.0593 -0.2952
 4514SOL    HW213669   0.841   2.474   2.603  0.0717  0.5307 -0.2524
 4515SOL     OW13670   3.255   3.434   2.630  0.1155  0.5641 -0.5017
 4515SOL    HW113671   3.268   3.347   2.668 -0.7574  0.8583  0.5507
 4515SOL    HW213672   3.232   3.417   2.539  0.7341 -0.2455 -0.5297
 4516SOL     OW13673   4.884   2.113   3.170 -0.1724  0.2836  0.3458
 4516SOL    HW113674   4.920   2.139   3.085  0.1228 -1.0673  0.0081
 4516SOL    HW213675   4.789   2.112   3.156 -0.1313 -2.2153 -0.8390
 4517SOL     OW13676   3.996   3.592   0.282 -0.4755  0.0911 -0.9272
 4517SOL    HW113677   4.067   3.582   0.344 -1.0883 -1.2290 -0.3682
 4517SOL    HW213678   3.942   3.662   0.319 -0.2313  0.1012 -0.5792
 4518SOL     OW13679   4.928   4.294   1.702 -0.1652 -0.2923 -0.1290
 4518SOL    HW113680   4.883   4.363   1.652 -1.0449 -1.0621 -0.4467
 4518SOL    HW213681   4.984   4.251   1.638  0.4291  0.1303  0.0831
 4519SOL     OW13682   1.869   3.365   1.829  0.3819  0.0389 -0.0191
 4519SOL    HW113683   1.817   3.398   1.902 -0.5105 -0.1980 -0.5175
 4519SOL    HW213684   1.854   3.427   1.758  0.2779 -0.3602 -0.3589
 4520SOL     OW13685   4.758   1.528   3.535  0.0785  0.4452  0.1182
 4520SOL    HW113686   4.741   1.584   3.611 -1.2885  0.1549  0.0782
 4520SOL    HW213687   4.676   1.529   3.485  0.1915 -1.0850 -0.2027
 4521SOL     OW13688   4.004   3.720   4.503 -0.2289 -0.1977  0.0099
 4521SOL    HW113689   3.990   3.815   4.495 -0.1269 -0.1427  0.4094
 4521SOL    HW213690   4.043   3.695   4.420  2.0116  0.5530  0.6870
 4522SOL     OW13691   1.332   3.427   4.369  0.2048  0.2598 -0.1958
 4522SOL    HW113692   1.338   3.368   4.294 -0.0751 -0.7279  0.5050
 4522SOL    HW213693   1.315   3.513   4.331  1.8194  0.1715 -1.3493
 4523SOL     OW13694   5.695   0.497   2.632 -0.2531 -0.4489 -0.4430
 4523SOL    HW113695   5.743   0.573   2.663 -0.4742 -0.2576 -0.5676
 4523SOL    HW213696   5.757   0.449   2.577 -0.4797  0.2792 -1.3659
 4524SOL     OW13697   4.365   0.324   4.462  0.0628  0.0665 -0.3591
 4524SOL    HW113698   4.388   0.416   4.465 -0.3068  0.2093  2.1857
 4524SOL    HW213699   4.299   0.318   4.392  1.4259  1.2565 -1.9006
 4525SOL     OW13700   2.800   3.588   1.337  0.0740 -0.6714  0.8609
 4525SOL    HW113701   2.730   3.648   1.313  0.1665 -0.3955  1.2567
 4525SOL    HW213702   2.825   3.546   1.255 -2.2251 -2.6574  0.9475
 4526SOL     OW13703   5.668   0.552   0.998  0.3031 -0.4353 -0.1892
 4526SOL    HW113704   5.614   0.517   1.069 -1.5147 -0.4410 -1.4559
 4526SOL    HW213705   5.680   0.645   1.021 -1.0063 -0.2192 -0.2417
 4527SOL     OW13706   4.708   2.583   2.797 -0.1054  0.3696  0.0306
 4527SOL    HW113707   4.749   2.617   2.718  0.9939 -1.8270 -0.4891
 4527SOL    HW213708   4.780   2.569   2.858 -0.4615 -0.9216  0.1985
 4528SOL     OW13709   4.931   6.247   3.407 -0.1840  0.0035 -0.0593
 4528SOL    HW113710   4.940   6.332   3.451 -0.4202  0.2163 -0.4128
 4528SOL    HW213711   4.921   6.184   3.478 -2.5511  0.5439  0.2376
 4529SOL     OW13712   4.853   1.451   3.925  0.1114  0.4081 -0.0945
 4529SOL    HW113713   4.800   1.379   3.959  1.1984 -0.6402 -0.4628
 4529SOL    HW213714   4.791   1.508   3.879 -0.8532 -0.0280  0.6115
 4530SOL     OW13715   3.205   3.830   1.195 -0.0956 -0.0987  0.7418
 4530SOL    HW113716   3.123   3.878   1.197 -1.0668 -1.2404 -1.9583
 4530SOL    HW213717   3.272   3.895   1.214 -1.3233  2.2529 -1.6597
 4531SOL     OW13718   4.784   3.259   1.361  0.7893  0.6862 -0.8703
 4531SOL    HW113719   4.847   3.187   1.355 -1.1190 -1.1667 -1.0395
 4531SOL    HW213720   4.807   3.304   1.443  0.7890 -1.6262  0.6000
 4532SOL     OW13721   0.895   3.462   2.789 -0.2206  0.0158  0.0339
 4532SOL    HW113722   0.907   3.481   2.696  2.2247 -0.1093  0.2016
 4532SOL    HW213723   0.958   3.519   2.833 -0.5101 -0.7129  1.5166
 4533SOL     OW13724   2.315   5.314   2.128 -0.3687  0.2599  0.6295
 4533SOL    HW113725   2.393   5.323   2.073 -0.9288 -0.6161 -0.3818
 4533SOL    HW213726   2.249   5.368   2.084 -1.1371 -1.2786 -0.2722
 4534SOL     OW13727   5.618   4.422   2.632  0.2419 -0.1585  0.0988
 4534SOL    HW113728   5.687   4.473   2.676  0.7152 -0.4252 -0.3151
 4534SOL    HW213729   5.648   4.415   2.541  0.8713 -2.2428  0.3612
 4535SOL     OW13730   3.475   6.001   2.554 -0.0621 -0.1689 -0.3526
 4535SOL    HW113731   3.401   6.045   2.597  0.8632  0.6181  0.5563
 4535SOL    HW213732   3.553   6.041   2.595  0.9060 -2.5993  0.5495
 4536SOL     OW13733   3.668   5.284   1.947 -0.0167 -0.2107  0.6727
 4536SOL    HW113734   3.601   5.341   1.985 -0.0524  0.5551 -0.4195
 4536SOL    HW213735   3.730   5.269   2.018 -1.0411 -0.4799  1.5543
 4537SOL     OW13736   0.063   0.394   1.745  0.4551 -0.3835  0.0474
 4537SOL    HW113737  -0.031   0.409   1.738  0.5130 -0.0983 -0.1815
 4537SOL    HW213738   0.072   0.328   1.813  0.1356  0.1110  0.5816
 4538SOL     OW13739   5.462   1.465   3.803  0.5029  0.1096 -0.0912
 4538SOL    HW113740   5.557   1.460   3.815  0.4540  0.8589  0.7714
 4538SOL    HW213741   5.426   1.456   3.891 -0.0863  2.1172 -0.0427
 4539SOL     OW13742   5.795   1.689   4.534  0.1258 -0.1783  0.0256
 4539SOL    HW113743   5.764   1.605   4.568 -0.1346 -0.8745 -1.6911
 4539SOL    HW213744   5.886   1.694   4.563 -0.1891 -0.4376  1.1539
 4540SOL     OW13745   2.778   0.332   3.302  0.1687 -0.2811 -0.0768
 4540SOL    HW113746   2.694   0.331   3.256  0.3265 -2.2398 -0.4843
 4540SOL    HW213747   2.844   0.330   3.233  0.5758  0.6957  0.2480
 4541SOL     OW13748   5.609   5.264   3.525 -0.5480  0.0558 -0.1801
 4541SOL    HW113749   5.703   5.265   3.541 -0.7354  0.6967  1.2106
 4541SOL    HW213750   5.573   5.324   3.590 -1.9497 -0.3615 -0.4980
 4542SOL     OW13751   3.932   5.628   1.848 -0.4206  0.2814 -0.4450
 4542SOL    HW113752   3.950   5.722   1.858  0.1518  0.4458 -2.2728
 4542SOL    HW213753   3.837   5.622   1.842 -0.5111  0.6207  0.3889
 4543SOL     OW13754   0.208   1.597   2.377  0.0468  0.7837  0.1531
 4543SOL    HW113755   0.258   1.667   2.336  1.7593 -0.4217 -0.0502
 4543SOL    HW213756   0.266   1.561   2.444  1.0407 -2.6441 -2.0241
 4544SOL     OW13757   0.690   5.415   0.190 -0.0791  0.1764 -0.1592
 4544SOL    HW113758   0.648   5.330   0.178 -1.2498  0.6357  0.4692
 4544SOL    HW213759   0.768   5.411   0.133 -0.8354 -0.7952 -1.2152
 4545SOL     OW13760   4.041   4.749   2.790  0.3832  0.3403 -0.3786
 4545SOL    HW113761   4.040   4.797   2.872  0.4604 -1.7678  1.0121
 4545SOL    HW213762   4.132   4.725   2.777  0.1712 -0.6846 -0.1458
 4546SOL     OW13763   1.074   3.725   2.721  0.3774 -0.1289 -0.3525
 4546SOL    HW113764   1.100   3.749   2.809  0.6080  0.0130 -0.4583
 4546SOL    HW213765   1.144   3.668   2.689  2.0043  2.2355 -1.5794
 4547SOL     OW13766   4.832   3.285   2.246  0.5422  0.2859  0.0837
 4547SOL    HW113767   4.777   3.340   2.301 -1.5913 -1.0976 -0.4381
 4547SOL    HW213768   4.811   3.313   2.156  2.0401  0.8049 -0.1627
 4548SOL     OW13769   5.791   0.640   2.280 -0.2314  0.2177 -0.1239
 4548SOL    HW113770   5.746   0.673   2.358 -2.1999  0.0190 -1.0570
 4548SOL    HW213771   5.807   0.717   2.226  0.4711  0.2677  0.1366
 4549SOL     OW13772   4.218   5.119   0.105 -0.2300  0.3503 -0.0501
 4549SOL    HW113773   4.258   5.189   0.158 -1.7149  1.6240 -0.4496
 4549SOL    HW213774   4.149   5.083   0.160  0.9002 -1.3754  0.3961
 4550SOL     OW13775   0.414   4.843   3.805  0.0013  0.5184 -0.0052
 4550SOL    HW113776   0.357   4.775   3.839 -0.7519  1.5402  0.9130
 4550SOL    HW213777   0.501   4.821   3.838 -0.2056 -0.0577  0.1624
 4551SOL     OW13778   1.391   5.450   0.223  0.3366 -0.0377 -0.3371
 4551SOL    HW113779   1.428   5.388   0.159  0.8306 -0.3889  0.2593
 4551SOL    HW213780   1.359   5.523   0.170  3.1247  1.0189 -0.9428
 4552SOL     OW13781   4.291   5.635   2.011  0.1601  0.7633 -0.1492
 4552SOL    HW113782   4.254   5.721   1.990 -1.1294  1.2752  2.9946
 4552SOL    HW213783   4.216   5.582   2.036  1.0995  0.0768  1.6192
 4553SOL     OW13784   0.222   3.424   1.176 -0.0760 -0.4751  0.0485
 4553SOL    HW113785   0.141   3.471   1.198  1.3469  1.5431  1.7486
 4553SOL    HW213786   0.258   3.472   1.102  1.1575  1.1142  1.5103
 4554SOL     OW13787   2.737   5.603   2.811 -0.1574  0.0180  0.6531
 4554SOL    HW113788   2.739   5.684   2.862  1.5161  1.2413 -1.0741
 4554SOL    HW213789   2.792   5.543   2.860  1.7454  1.2840  0.2853
 4555SOL     OW13790   4.146   6.320   1.246 -0.3680  0.4584 -0.5099
 4555SOL    HW113791   4.220   6.380   1.237 -0.7150  1.5717  2.1411
 4555SOL    HW213792   4.081   6.370   1.295 -1.0806 -1.7772  1.1369
 4556SOL     OW13793   1.765   5.488   2.638 -0.5075  0.4405 -0.1056
 4556SOL    HW113794   1.824   5.423   2.598  1.9199  1.4138  1.4183
 4556SOL    HW213795   1.714   5.522   2.564 -0.0492 -1.3293 -1.3906
 4557SOL     OW13796   4.363   0.114   1.211 -0.0009 -0.0024 -0.4440
 4557SOL    HW113797   4.286   0.169   1.221  0.0868  0.1528 -0.6077
 4557SOL    HW213798   4.355   0.076   1.123 -0.1714 -0.4282 -0.2522
 4558SOL     OW13799   6.387   0.147   0.208 -0.1595 -0.5218 -0.2733
 4558SOL    HW113800   6.398   0.058   0.242 -0.4056  0.0018  1.4131
 4558SOL    HW213801   6.410   0.204   0.282  1.4455  0.9138 -1.6923
 4559SOL     OW13802   4.558   3.598   0.884  0.3939 -0.2270  0.5184
 4559SOL    HW113803   4.591   3.688   0.884 -1.0947  0.3802 -0.0922
 4559SOL    HW213804   4.606   3.555   0.954  2.1158  0.6366 -0.0145
 4560SOL     OW13805   1.992   5.508   4.084 -0.3648 -0.6325 -0.5548
 4560SOL    HW113806   1.961   5.584   4.035  1.1461 -0.0982 -0.7911
 4560SOL    HW213807   2.039   5.455   4.019  0.6539 -0.5239  0.0632
 4561SOL     OW13808   6.172   1.928   0.401  0.0523 -0.4732  0.4170
 4561SOL    HW113809   6.214   1.878   0.471 -1.1548 -1.1696  0.7084
 4561SOL    HW213810   6.142   1.861   0.340 -2.5268 -0.3488  1.3140
 4562SOL     OW13811   1.402   2.354   2.422  0.0488  0.3468  0.3640
 4562SOL    HW113812   1.455   2.370   2.344 -0.2190  0.8528  0.2776
 4562SOL    HW213813   1.457   2.298   2.477 -0.0832 -0.7286 -0.5427
 4563SOL     OW13814   3.737   6.005   2.304 -0.4612 -0.0876 -0.5128
 4563SOL    HW113815   3.805   5.956   2.258  0.1805  0.7558 -0.5248
 4563SOL    HW213816   3.781   6.038   2.383 -0.3224  1.7741 -1.2619
 4564SOL     OW13817   5.602   4.219   2.823  0.2839 -0.3312  0.1293
 4564SOL    HW113818   5.613   4.279   2.750 -0.7126 -0.1415  0.1034
 4564SOL    HW213819   5.533   4.258   2.877 -0.4735 -1.4655  0.0692
 4565SOL     OW13820   5.754   4.262   4.440  0.3348  0.5038  0.2096
 4565SOL    HW113821   5.842   4.232   4.414 -0.1329 -0.1975 -0.7251
 4565SOL    HW213822   5.722   4.192   4.497 -0.5343 -0.6506 -1.5053
 4566SOL     OW13823   1.553   6.408   4.173  0.0922  0.2454  0.3289
 4566SOL    HW113824   1.525   6.497   4.194  2.3976  1.2295 -0.1058
 4566SOL    HW213825   1.617   6.386   4.242  2.7156  0.8059 -1.6099
 4567SOL     OW13826   2.800   6.410   3.070  0.0420  0.3308 -0.0227
 4567SOL    HW113827   2.820   6.317   3.064  1.4971  0.6413 -1.0249
 4567SOL    HW213828   2.711   6.419   3.034 -0.5531 -0.7329  1.0435
 4568SOL     OW13829   5.031   6.254   2.800  0.7202  0.2553 -0.3048
 4568SOL    HW113830   5.046   6.346   2.822  1.9627  0.2134 -0.8062
 4568SOL    HW213831   4.936   6.243   2.805  0.5306  1.5903 -0.3291
 4569SOL     OW13832   2.035   4.694   2.285 -0.1168 -1.1539 -0.6329
 4569SOL    HW113833   1.998   4.606   2.290 -0.4154 -1.0242 -0.4797
 4569SOL    HW213834   1.986   4.745   2.350  0.2369 -0.9382 -0.5277
 4570SOL     OW13835   5.680   0.741   0.166  0.1054 -0.9055  0.2859
 4570SOL    HW113836   5.712   0.663   0.212  0.8588 -0.4257  0.6075
 4570SOL    HW213837   5.599   0.712   0.123  0.8411 -2.1314 -0.3901
 4571SOL     OW13838   1.663   3.907   1.729  0.1570 -0.0886  0.4503
 4571SOL    HW113839   1.706   3.822   1.717  0.0523  0.0707 -2.9998
 4571SOL    HW213840   1.735   3.966   1.751  1.0076 -0.5452 -0.8495
 4572SOL     OW13841   6.016   5.000   0.056 -0.0494  0.8245  0.6204
 4572SOL    HW113842   5.946   5.065   0.043  0.3513  1.2898  0.7286
 4572SOL    HW213843   5.971   4.916   0.053 -0.3152  0.8896 -1.9870
 4573SOL     OW13844   3.732   5.345   1.333 -0.4842  0.2179  0.6390
 4573SOL    HW113845   3.771   5.258   1.325  0.6845  0.5506  1.8793
 4573SOL    HW213846   3.694   5.346   1.421 -0.5675  0.9196  0.6075
 4574SOL     OW13847   1.941   0.996   0.032 -0.3654  0.3560  0.1498
 4574SOL    HW113848   1.957   0.905   0.054 -2.4807 -0.0942  0.2530
 4574SOL    HW213849   1.900   1.033   0.110 -1.0885  0.8911 -0.4536
 4575SOL     OW13850   0.023   4.868   0.314 -0.1491  0.0122  0.0578
 4575SOL    HW113851  -0.030   4.796   0.349  0.9929 -0.6054  0.6638
 4575SOL    HW213852  -0.013   4.947   0.355 -1.8049 -0.0790 -1.0655
 4576SOL     OW13853   3.416   3.000   3.941 -0.0885 -0.3386 -0.5693
 4576SOL    HW113854   3.343   2.990   3.880  0.6903  1.8491 -2.1001
 4576SOL    HW213855   3.489   3.027   3.886  1.4047 -0.6604  1.1010
 4577SOL     OW13856   5.391   0.917   3.018  0.1107  0.3127  0.1932
 4577SOL    HW113857   5.317   0.902   3.077  0.3995 -0.1236  0.4598
 4577SOL    HW213858   5.441   0.987   3.060  1.7531 -1.6531  1.9788
 4578SOL     OW13859   5.215   5.433   1.923  0.0181  0.1144  0.4545
 4578SOL    HW113860   5.230   5.417   1.830 -1.1195 -1.3248  0.4513
 4578SOL    HW213861   5.196   5.527   1.929  0.2941  0.2663 -0.7281
 4579SOL     OW13862   1.319   2.060   2.574 -0.1533  0.5297 -0.2485
 4579SOL    HW113863   1.224   2.045   2.574 -0.0359 -0.3952  0.4248
 4579SOL    HW213864   1.334   2.121   2.645 -0.0593 -1.2951  1.4778
 4580SOL     OW13865   0.619   5.850   0.884  0.1723 -0.4710  0.4051
 4580SOL    HW113866   0.673   5.805   0.949 -0.8280  0.4996  2.0565
 4580SOL    HW213867   0.545   5.790   0.868  1.1074 -1.3571 -1.0907
 4581SOL     OW13868   6.181   5.365   4.476  0.6098  0.0163 -0.0259
 4581SOL    HW113869   6.238   5.419   4.530  1.6857 -0.7336 -0.3617
 4581SOL    HW213870   6.099   5.359   4.526  0.1921  2.3586 -0.2142
 4582SOL     OW13871   1.765   2.448   2.605 -0.3654  0.0112 -0.0591
 4582SOL    HW113872   1.770   2.453   2.701  0.0416 -0.4899 -0.0439
 4582SOL    HW213873   1.821   2.519   2.575 -0.4482  0.1354  0.0769
 4583SOL     OW13874   5.086   4.232   1.499  0.4603  0.2457  0.4279
 4583SOL    HW113875   5.068   4.261   1.410  3.2385  0.9949 -0.0738
 4583SOL    HW213876   5.102   4.138   1.491 -2.5952 -0.5195  0.9457
 4584SOL     OW13877   0.408   1.060   2.863 -0.0829  0.2297  0.7782
 4584SOL    HW113878   0.495   1.092   2.887  0.0348  0.1239  0.4980
 4584SOL    HW213879   0.368   1.034   2.946  0.0401  0.5549  0.9402
 4585SOL     OW13880   4.179   3.629   1.643  0.0076  0.4210 -0.2305
 4585SOL    HW113881   4.094   3.622   1.687 -0.6755  1.6031 -1.2395
 4585SOL    HW213882   4.159   3.673   1.560  1.7813  2.1659  0.1282
 4586SOL     OW13883   4.751   1.602   1.333  0.1379  0.1895  0.2189
 4586SOL    HW113884   4.748   1.526   1.392 -0.3366 -0.9684 -1.1646
 4586SOL    HW213885   4.782   1.566   1.250 -0.4059  1.4610 -0.5938
 4587SOL     OW13886   6.232   2.864   3.764 -0.7246 -0.4681  0.7295
 4587SOL    HW113887   6.258   2.841   3.675  0.6480 -0.2685  1.0308
 4587SOL    HW213888   6.139   2.888   3.757 -0.3473  0.8577 -0.8968
 4588SOL     OW13889   6.245   3.642   0.743  0.6418  0.7707  0.4090
 4588SOL    HW113890   6.279   3.681   0.663 -0.3591  0.0939 -0.3909
 4588SOL    HW213891   6.180   3.704   0.775 -0.9743 -0.0867 -0.8812
 4589SOL     OW13892   5.193   6.049   2.082  0.0356  0.5135 -0.4228
 4589SOL    HW113893   5.251   6.094   2.143  1.6498 -2.4504  0.6381
 4589SOL    HW213894   5.239   6.053   1.998  0.8039 -0.0563 -0.0566
 4590SOL     OW13895   6.005   3.674   2.203  0.7494 -0.0967  0.4560
 4590SOL    HW113896   5.928   3.617   2.209  1.4003 -0.9765  1.0627
 4590SOL    HW213897   5.971   3.758   2.174 -0.6921  0.0220  2.1510
 4591SOL     OW13898   2.190   0.203   3.900 -0.1731  0.0252  0.1895
 4591SOL    HW113899   2.160   0.286   3.936  0.7259  0.3383  0.2650
 4591SOL    HW213900   2.283   0.198   3.924  1.0742  1.0243 -3.2497
 4592SOL     OW13901   0.104   4.280   3.506  0.2037  0.0015 -0.0545
 4592SOL    HW113902   0.055   4.259   3.586  1.2174 -2.4951  0.1043
 4592SOL    HW213903   0.047   4.341   3.459 -1.9572 -0.8398  1.1489
 4593SOL     OW13904   5.397   3.807   0.726 -0.2066 -0.2835 -0.0653
 4593SOL    HW113905   5.425   3.892   0.693 -1.9700  0.4828  0.2028
 4593SOL    HW213906   5.474   3.751   0.717  1.0703  1.3495 -0.1391
 4594SOL     OW13907   3.837   2.938   4.382  0.2330 -0.6887  0.2653
 4594SOL    HW113908   3.758   2.984   4.353  1.9049  1.5651 -1.4211
 4594SOL    HW213909   3.845   2.863   4.323 -0.7742 -1.2520  0.7764
 4595SOL     OW13910   1.811   0.709   4.416 -0.3037  0.6147  0.3697
 4595SOL    HW113911   1.868   0.648   4.370 -1.2680  1.0782 -1.6751
 4595SOL    HW213912   1.753   0.654   4.468  0.3113 -0.0183  0.4078
 4596SOL     OW13913   6.387   0.326   0.432  0.2928 -0.2898  0.1650
 4596SOL    HW113914   6.329   0.393   0.398  0.1192 -0.9907 -1.0261
 4596SOL    HW213915   6.461   0.374   0.468  0.6572  0.5717 -1.5499
 4597SOL     OW13916   2.087   4.953   1.840  0.1577 -0.6869  0.1328
 4597SOL    HW113917   2.082   5.048   1.846 -1.1844 -0.6582 -0.6865
 4597SOL    HW213918   2.011   4.922   1.890 -0.3571 -1.2233 -0.9255
 4598SOL     OW13919   2.839   3.674   3.396  0.0454  0.3693 -0.1277
 4598SOL    HW113920   2.814   3.765   3.412 -0.3626  0.0272  1.6119
 4598SOL    HW213921   2.918   3.661   3.447 -0.2865 -0.4179  0.2155
 4599SOL     OW13922   0.832   3.242   0.824  0.5782 -0.1067 -0.4220
 4599SOL    HW113923   0.881   3.309   0.873 -0.7222 -0.2952  1.3297
 4599SOL    HW213924   0.853   3.160   0.870  0.3807 -0.5545 -1.1031
 4600SOL     OW13925   0.781   3.761   3.961 -0.0363  0.2607 -0.6776
 4600SOL    HW113926   0.755   3.752   4.053 -0.6641  0.8756 -0.7762
 4600SOL    HW213927   0.700   3.785   3.916  0.3330  0.3006 -1.3421
 4601SOL     OW13928   1.639   1.157   0.126 -0.5980  0.7037  0.4425
 4601SOL    HW113929   1.621   1.206   0.046  0.3261  0.3062 -0.0495
 4601SOL    HW213930   1.621   1.066   0.103  1.6411  0.2747 -0.0819
 4602SOL     OW13931   5.258   1.591   1.408  0.7066  0.0480 -0.0198
 4602SOL    HW113932   5.203   1.556   1.478  1.2749 -1.0348 -0.0780
 4602SOL    HW213933   5.235   1.684   1.404 -1.2598 -0.3624 -0.1666
 4603SOL     OW13934   1.847   4.046   0.881 -0.2937 -0.0154 -0.5779
 4603SOL    HW113935   1.856   3.988   0.806  0.8221  2.0009 -2.2253
 4603SOL    HW213936   1.885   4.129   0.852 -0.7200  1.2560  1.9151
 4604SOL     OW13937   2.419   2.252   1.075 -0.9153 -0.2805 -0.0537
 4604SOL    HW113938   2.371   2.334   1.088  0.9486  1.0182 -0.5524
 4604SOL    HW213939   2.459   2.261   0.989  0.7316 -0.9195  0.5632
 4605SOL     OW13940   5.749   3.741   1.477  0.0071  0.1371 -0.4765
 4605SOL    HW113941   5.711   3.771   1.394 -0.8262 -1.6842 -0.8601
 4605SOL    HW213942   5.771   3.649   1.461 -2.1040 -1.0078  1.8004
 4606SOL     OW13943   5.861   1.197   2.260 -0.0813  0.5234 -0.6442
 4606SOL    HW113944   5.955   1.215   2.257 -0.3314  2.4724  0.0401
 4606SOL    HW213945   5.828   1.257   2.327 -1.8153 -0.1229 -0.8342
 4607SOL     OW13946   5.562   0.115   3.947  0.5022  0.5436  0.1661
 4607SOL    HW113947   5.516   0.116   3.863  0.4098  0.3265  0.2116
 4607SOL    HW213948   5.573   0.207   3.969 -0.3460  0.6082  0.3899
 4608SOL     OW13949   4.761   4.922   3.443 -0.1562 -0.2123  0.3023
 4608SOL    HW113950   4.816   4.999   3.435 -0.6654  0.4844  2.3795
 4608SOL    HW213951   4.736   4.919   3.535 -2.9265 -0.9170 -0.2694
 4609SOL     OW13952   5.199   0.396   0.810  0.5902 -0.4482  0.2352
 4609SOL    HW113953   5.197   0.366   0.901 -0.5600  1.6062  1.0380
 4609SOL    HW213954   5.120   0.357   0.770  0.4869 -0.4831  0.4722
 4610SOL     OW13955   1.326   0.985   2.343 -0.2609 -0.3150  0.8716
 4610SOL    HW113956   1.372   0.963   2.423 -0.9538  0.2118  1.4439
 4610SOL    HW213957   1.234   0.993   2.369 -0.5222 -0.2489  0.0028
 4611SOL     OW13958   3.783   2.452   3.016 -0.2464 -0.4428  0.0266
 4611SOL    HW113959   3.852   2.385   3.008  0.5756  0.4763 -2.9177
 4611SOL    HW213960   3.831   2.534   3.028 -1.0321 -0.0272  0.4527
 4612SOL     OW13961   1.758   1.416   2.063 -0.6539  0.0306 -0.3631
 4612SOL    HW113962   1.681   1.369   2.031 -0.7171  1.3848 -2.7133
 4612SOL    HW213963   1.823   1.348   2.080 -2.3150 -1.2020  2.0850
 4613SOL     OW13964   5.425   6.124   1.047 -0.2887  0.2384 -0.4203
 4613SOL    HW113965   5.402   6.147   1.137 -0.4513  1.4234 -0.7335
 4613SOL    HW213966   5.362   6.056   1.023  0.7131 -1.2626  0.8157
 4614SOL     OW13967   1.554   4.501   2.275  0.4412 -0.5578 -0.7913
 4614SOL    HW113968   1.542   4.417   2.320 -0.7511 -0.3868 -0.7224
 4614SOL    HW213969   1.465   4.527   2.250  0.8327  0.4922 -1.1693
 4615SOL     OW13970   1.468   2.000   2.280  0.5434  0.8523 -0.6835
 4615SOL    HW113971   1.438   2.040   2.362  0.8442 -0.6342  0.2490
 4615SOL    HW213972   1.404   2.026   2.215 -2.5692 -1.4314  0.9423
 4616SOL     OW13973   6.314   4.717   3.929  0.4154  0.3839 -0.2110
 4616SOL    HW113974   6.274   4.636   3.898 -0.1837  1.5364 -3.0057
 4616SOL    HW213975   6.290   4.783   3.864  1.4657  2.7046  1.4620
 4617SOL     OW13976   3.665   2.897   0.119 -0.0905 -0.0470  0.3865
 4617SOL    HW113977   3.658   2.830   0.051 -1.4409 -0.5052  0.9038
 4617SOL    HW213978   3.634   2.977   0.076  0.8000  0.1102 -0.0141
 4618SOL     OW13979   2.594   0.441   3.742  0.4470 -0.4353  0.2301
 4618SOL    HW113980   2.548   0.486   3.672 -0.9920 -0.2228  1.2368
 4618SOL    HW213981   2.582   0.496   3.819 -0.4250 -1.9210  1.2619
 4619SOL     OW13982   4.943   3.250   0.980  0.1632  0.0327 -0.3914
 4619SOL    HW113983   4.894   3.211   0.908  1.0230 -2.3492  0.1376
 4619SOL    HW213984   4.923   3.344   0.974 -1.3064 -0.2638 -2.5002
 4620SOL     OW13985   2.358   0.754   3.804 -0.1907 -0.5517  0.1576
 4620SOL    HW113986   2.306   0.833   3.816  1.0204  0.5744 -1.2014
 4620SOL    HW213987   2.418   0.775   3.732  1.3590 -2.1262  0.8199
 4621SOL     OW13988   3.563   4.145   4.383 -0.0512  0.3640  0.2101
 4621SOL    HW113989   3.481   4.131   4.430  0.8992 -0.3897  1.8071
 4621SOL    HW213990   3.556   4.235   4.350 -0.8964  0.9379  1.7214
 4622SOL     OW13991   0.947   2.477   3.091  0.3509 -0.6505 -0.3348
 4622SOL    HW113992   0.964   2.568   3.065 -0.7076 -0.4424 -0.4075
 4622SOL    HW213993   0.974   2.473   3.183 -3.0926  1.0014  1.1262
 4623SOL     OW13994   1.384   2.854   1.007 -0.4959  0.2075  0.2909
 4623SOL    HW113995   1.366   2.947   1.021 -0.8092  0.0751  0.8640
 4623SOL    HW213996   1.312   2.824   0.952  0.0805  0.4763 -0.6480
 4624SOL     OW13997   0.438   4.135   1.333  0.7245 -0.6234 -0.0554
 4624SOL    HW113998   0.399   4.172   1.254  2.2832  0.2520 -0.5064
 4624SOL    HW213999   0.365   4.128   1.395 -0.0573  1.6745 -0.5023
 4625SOL     OW14000   1.786   3.239   0.600  0.2863 -0.1044  0.4176
 4625SOL    HW114001   1.713   3.276   0.550  0.3724  0.1903  0.5095
 4625SOL    HW214002   1.788   3.147   0.573  0.8077  0.1951 -0.7064
 4626SOL     OW14003   3.098   6.078   3.973  0.2171  0.3856 -0.2442
 4626SOL    HW114004   3.065   6.130   3.900  1.8485 -0.4127 -1.6942
 4626SOL    HW214005   3.110   5.990   3.937  0.7023 -0.1753  1.1255
 4627SOL     OW14006   2.368   2.625   4.141  0.1213 -0.4963  0.0910
 4627SOL    HW114007   2.461   2.646   4.136 -0.3429  2.0788 -0.0917
 4627SOL    HW214008   2.330   2.695   4.193 -1.8044 -1.2565 -0.1295
 4628SOL     OW14009   1.253   2.399   3.555 -0.1082  0.2317 -0.1738
 4628SOL    HW114010   1.183   2.371   3.614 -0.6136 -1.6016 -1.4778
 4628SOL    HW214011   1.299   2.468   3.604 -0.3886 -1.1551  2.4192
 4629SOL     OW14012   1.169   5.989   2.159 -0.1865 -0.7441 -0.2808
 4629SOL    HW114013   1.087   5.940   2.166 -0.6039  0.0456  1.3937
 4629SOL    HW214014   1.143   6.074   2.125  0.1558 -0.8821 -0.9120
 4630SOL     OW14015   2.886   1.088   4.214 -0.4449 -0.3090  0.1058
 4630SOL    HW114016   2.823   1.140   4.164  0.3962  1.3769  0.6740
 4630SOL    HW214017   2.919   1.024   4.151 -1.3485 -0.0322 -0.7072
 4631SOL     OW14018   3.537   0.745   3.300  0.4953 -0.0402 -0.5484
 4631SOL    HW114019   3.592   0.747   3.222  2.1236 -1.7705  0.3726
 4631SOL    HW214020   3.514   0.652   3.311  0.0822  0.1697  0.8483
 4632SOL     OW14021   0.552   4.462   0.515 -0.1941  0.1188  0.3459
 4632SOL    HW114022   0.495   4.394   0.550 -0.1051 -0.1306  0.0069
 4632SOL    HW214023   0.512   4.544   0.545 -0.4550 -0.0691  0.5219
 4633SOL     OW14024   3.747   4.875   2.719  1.0586  0.1633  0.5356
 4633SOL    HW114025   3.827   4.835   2.687  0.4689  1.4051 -3.7246
 4633SOL    HW214026   3.677   4.833   2.669 -0.2504  2.3608  0.2308
 4634SOL     OW14027   6.237   2.267   3.967 -0.2307  0.1022  0.3144
 4634SOL    HW114028   6.184   2.328   4.018 -1.1387 -0.4386  0.0746
 4634SOL    HW214029   6.301   2.233   4.030 -0.3704  0.5446  0.7064
 4635SOL     OW14030   5.798   1.623   0.767  0.4084 -0.3351  0.0626
 4635SOL    HW114031   5.846   1.614   0.684  1.0318 -0.6805  0.4428
 4635SOL    HW214032   5.751   1.707   0.759  1.4910  0.2891 -0.1336
 4636SOL     OW14033   2.366   5.927   0.953  0.1501  0.2013 -0.3729
 4636SOL    HW114034   2.455   5.893   0.940 -0.5707 -1.9976 -0.2600
 4636SOL    HW214035   2.376   5.990   1.024  1.7922  1.2018 -1.3409
 4637SOL     OW14036   5.638   3.641   0.702  0.3202 -0.3246 -0.3608
 4637SOL    HW114037   5.669   3.595   0.780 -0.3091  0.7207  0.5850
 4637SOL    HW214038   5.699   3.713   0.691 -1.4221  1.7594  1.5263
 4638SOL     OW14039   2.625   3.463   3.688 -0.1072 -0.1016  0.5649
 4638SOL    HW114040   2.605   3.547   3.646  0.5174 -0.9800 -1.8386
 4638SOL    HW214041   2.543   3.415   3.687 -0.2779  0.1564  1.1855
 4639SOL     OW14042   5.037   2.710   3.566  0.3109  0.2375 -0.3963
 4639SOL    HW114043   5.120   2.690   3.523  0.1674 -1.7564  0.0639
 4639SOL    HW214044   5.015   2.798   3.536  2.3682  0.6949 -0.8470
 4640SOL     OW14045   3.744   0.179   1.363  0.1178  0.3138  0.5993
 4640SOL    HW114046   3.709   0.258   1.404 -0.8898 -0.5023  1.4397
 4640SOL    HW214047   3.729   0.191   1.270 -0.9335  0.7090  0.7991
 4641SOL     OW14048   4.870   5.536   1.449  0.0494  0.3304  1.0290
 4641SOL    HW114049   4.861   5.483   1.528 -0.1654  0.7314  1.2867
 4641SOL    HW214050   4.938   5.600   1.470  0.6960 -0.1694  0.5261
 4642SOL     OW14051   0.954   0.233   0.349 -0.4382  0.5054 -0.1889
 4642SOL    HW114052   0.944   0.239   0.254  1.0670  2.1745 -0.3558
 4642SOL    HW214053   1.049   0.230   0.363 -0.5855  0.9800  1.2524
 4643SOL     OW14054   3.927   5.573   1.175 -0.8926  0.0190  0.0440
 4643SOL    HW114055   3.987   5.498   1.183  0.9268  1.1264 -1.4630
 4643SOL    HW214056   3.883   5.559   1.091 -0.7165  0.4908 -0.1332
 4644SOL     OW14057   2.871   0.942   1.543 -0.6556  0.1783 -0.1333
 4644SOL    HW114058   2.854   1.014   1.482 -0.1805 -0.0394 -0.5400
 4644SOL    HW214059   2.789   0.931   1.591 -1.4445 -0.3592 -1.5004
 4645SOL     OW14060   3.252   5.506   2.197  0.2493  0.2806  0.0662
 4645SOL    HW114061   3.168   5.497   2.152  0.6017 -1.5313 -0.4085
 4645SOL    HW214062   3.228   5.522   2.288 -0.5215  1.8013 -0.3419
 4646SOL     OW14063   4.916   1.881   2.684  0.2933 -0.1007  0.3084
 4646SOL    HW114064   5.008   1.904   2.691 -0.0775  2.2063 -0.5495
 4646SOL    HW214065   4.881   1.892   2.773  0.9056 -1.9086  0.8537
 4647SOL     OW14066   4.334   2.097   1.527  0.0911  0.4833 -0.1342
 4647SOL    HW114067   4.332   2.189   1.500  1.0912  0.9273  1.1242
 4647SOL    HW214068   4.370   2.051   1.451  3.4736  1.7592  0.3089
 4648SOL     OW14069   4.844   2.252   3.573 -0.5244 -0.0733 -0.1632
 4648SOL    HW114070   4.796   2.321   3.528  0.8300  1.0765  0.0278
 4648SOL    HW214071   4.911   2.225   3.510  0.4804  0.5363  0.6019
 4649SOL     OW14072   4.002   5.410   1.425  0.1964 -0.2643 -0.0431
 4649SOL    HW114073   3.919   5.386   1.385  0.8357 -0.3303 -1.4718
 4649SOL    HW214074   4.048   5.326   1.437 -0.7361 -0.5747  3.0336
 4650SOL     OW14075   4.016   0.833   2.877  0.2913  0.2300  0.1337
 4650SOL    HW114076   4.097   0.791   2.905  0.4544  0.3769 -0.1115
 4650SOL    HW214077   3.949   0.798   2.936  0.3883 -0.5104 -0.1704
 4651SOL     OW14078   1.733   4.309   1.908  0.5127 -0.6175  0.3909
 4651SOL    HW114079   1.757   4.312   1.816 -1.1715  0.1063 -0.1021
 4651SOL    HW214080   1.786   4.377   1.950  2.4773 -1.9724  0.3949
 4652SOL     OW14081   6.052   2.087   3.883 -0.1163 -0.0255  0.0943
 4652SOL    HW114082   6.133   2.122   3.919 -0.3265 -0.3165  0.8794
 4652SOL    HW214083   6.022   2.155   3.823  1.6865 -0.6713 -1.8015
 4653SOL     OW14084   4.868   5.346   2.431 -0.5163  0.1946  0.4389
 4653SOL    HW114085   4.951   5.360   2.478  0.7104 -1.5143 -0.9389
 4653SOL    HW214086   4.838   5.260   2.462 -0.4469 -0.2901 -0.7255
 4654SOL     OW14087   2.652   1.595   0.982 -0.1068 -1.0068 -0.0570
 4654SOL    HW114088   2.567   1.562   1.013 -0.5457  1.5791  2.3630
 4654SOL    HW214089   2.636   1.619   0.891 -2.3176 -0.0120  0.4536
 4655SOL     OW14090   5.166   1.926   2.789 -0.4575 -0.2725  0.1015
 4655SOL    HW114091   5.151   1.998   2.851  1.5147  0.6516 -0.3265
 4655SOL    HW214092   5.261   1.914   2.788 -0.6448 -2.8656  0.0075
 4656SOL     OW14093   2.587   4.829   3.889 -0.2321 -0.0458 -0.0746
 4656SOL    HW114094   2.602   4.921   3.910 -0.0852 -0.1691  0.3863
 4656SOL    HW214095   2.569   4.828   3.795  0.0679  0.4164 -0.1415
 4657SOL     OW14096   1.565   6.364   3.903 -0.4435  0.5150  0.7128
 4657SOL    HW114097   1.565   6.455   3.873  0.8089  0.6476  1.0204
 4657SOL    HW214098   1.555   6.369   3.998 -1.3015  0.2532  0.6584
 4658SOL     OW14099   2.015   2.666   1.737  0.0290  0.2499 -0.1424
 4658SOL    HW114100   2.096   2.672   1.789  0.0813  1.1752 -0.2883
 4658SOL    HW214101   1.945   2.684   1.800  0.0837  1.2401 -0.3234
 4659SOL     OW14102   6.409   4.832   4.481 -0.6159  0.1837 -0.6630
 4659SOL    HW114103   6.453   4.870   4.405 -2.0128  0.8346 -1.2096
 4659SOL    HW214104   6.328   4.882   4.490 -2.2976 -2.1522 -0.9890
 4660SOL     OW14105   3.301   4.446   2.446  0.0145  0.4872  0.1217
 4660SOL    HW114106   3.378   4.396   2.419 -0.3461 -0.0464  0.0624
 4660SOL    HW214107   3.236   4.428   2.379 -0.0801  1.1662  0.0159
 4661SOL     OW14108   2.959   5.840   3.711  0.0171 -0.4649  0.2429
 4661SOL    HW114109   3.000   5.909   3.658 -0.1477  0.3438  1.1029
 4661SOL    HW214110   2.911   5.787   3.648 -1.9029  1.6389 -0.3493
 4662SOL     OW14111   0.929   3.098   3.985 -0.2216 -0.4175  0.0611
 4662SOL    HW114112   0.893   3.170   3.933  0.8059  1.4504  1.6959
 4662SOL    HW214113   0.858   3.074   4.045 -0.1534  0.2211  0.4102
 4663SOL     OW14114   0.975   4.396   3.533  0.1673 -0.0439 -0.0667
 4663SOL    HW114115   0.937   4.414   3.619  0.9529  0.0063  0.2883
 4663SOL    HW214116   1.013   4.309   3.541  0.6285  0.1372 -0.2217
 4664SOL     OW14117   0.225   5.619   3.363 -0.0116  0.0044 -0.3342
 4664SOL    HW114118   0.157   5.604   3.297 -2.4457  0.7032  1.7045
 4664SOL    HW214119   0.259   5.705   3.342 -1.8315  0.9045  0.0010
 4665SOL     OW14120   4.535   0.368   2.030 -0.4833  0.1342  0.0049
 4665SOL    HW114121   4.601   0.363   2.098 -0.3152 -1.1624 -0.1899
 4665SOL    HW214122   4.542   0.284   1.984 -0.4300  1.0146 -1.7600
 4666SOL     OW14123   5.760   1.482   3.791  0.0596 -0.4975 -0.0997
 4666SOL    HW114124   5.807   1.526   3.720  0.4395  1.6771  1.2925
 4666SOL    HW214125   5.810   1.402   3.806 -0.0947 -1.1214 -2.2200
 4667SOL     OW14126   1.483   0.146   3.061 -0.1997  0.2431  0.2512
 4667SOL    HW114127   1.525   0.219   3.017 -1.9129  1.9731  1.1886
 4667SOL    HW214128   1.428   0.186   3.129 -2.4579 -1.7509 -0.0955
 4668SOL     OW14129   5.690   5.884   3.311  0.4132 -0.4400 -0.4808
 4668SOL    HW114130   5.699   5.920   3.223 -1.0084 -0.0077 -0.5100
 4668SOL    HW214131   5.771   5.836   3.327  0.3488 -1.3524 -2.4094
 4669SOL     OW14132   4.057   4.259   1.149  0.2462 -0.3269  1.0135
 4669SOL    HW114133   4.060   4.167   1.124 -1.2246 -0.1174 -0.2145
 4669SOL    HW214134   4.134   4.271   1.205  3.8636 -1.1005 -2.8058
 4670SOL     OW14135   4.174   6.255   3.348 -0.8441 -0.2743  0.5956
 4670SOL    HW114136   4.125   6.239   3.267  0.3787  0.0915 -0.2700
 4670SOL    HW214137   4.227   6.176   3.360  0.1944  0.3226  0.0953
 4671SOL     OW14138   0.486   0.715   1.114  0.4617  0.0766 -0.5153
 4671SOL    HW114139   0.433   0.733   1.192  0.7751 -0.7569 -0.0843
 4671SOL    HW214140   0.424   0.724   1.041 -0.2659 -0.7493 -0.0410
 4672SOL     OW14141   2.030   2.095   4.257 -0.3118  0.4861 -0.3475
 4672SOL    HW114142   1.983   2.022   4.216 -0.9227 -0.2482  1.4513
 4672SOL    HW214143   1.960   2.155   4.286  0.1434  1.4328 -1.0808
 4673SOL     OW14144   2.321   3.587   1.814  0.0303  0.2307 -0.3817
 4673SOL    HW114145   2.240   3.578   1.864  0.0321  0.3940 -0.3477
 4673SOL    HW214146   2.294   3.577   1.722  0.0592 -0.2843 -0.3410
 4674SOL     OW14147   0.710   0.487   0.349 -0.3872 -0.6018 -0.2315
 4674SOL    HW114148   0.672   0.411   0.304 -0.4459  0.1633 -1.5679
 4674SOL    HW214149   0.685   0.562   0.295  1.1066  0.1928  0.0809
 4675SOL     OW14150   3.107   5.095   1.273  0.3330 -0.1660  0.0787
 4675SOL    HW114151   3.155   5.033   1.328 -0.8221  0.6337  2.2293
 4675SOL    HW214152   3.174   5.140   1.222  1.3391 -2.0688 -0.4668
 4676SOL     OW14153   2.667   0.375   4.107 -0.3735 -0.0165  0.1761
 4676SOL    HW114154   2.638   0.464   4.086 -1.5757 -0.7217 -1.5543
 4676SOL    HW214155   2.733   0.355   4.041  1.5832  0.2145  1.8299
 4677SOL     OW14156   4.394   3.404   1.176  0.5006  0.3578  0.9184
 4677SOL    HW114157   4.341   3.430   1.252  0.2682  1.4056  0.4374
 4677SOL    HW214158   4.357   3.321   1.148 -0.1946  0.5359  1.2521
 4678SOL     OW14159   2.107   4.453   4.377 -0.1537 -0.3926  0.1304
 4678SOL    HW114160   2.059   4.471   4.296  0.6438 -2.6505 -1.0422
 4678SOL    HW214161   2.180   4.397   4.349  1.9883  1.0626  2.0704
 4679SOL     OW14162   5.006   4.228   4.151 -0.0390  0.0119  0.0243
 4679SOL    HW114163   5.098   4.204   4.139  0.0277 -0.3178  1.0263
 4679SOL    HW214164   4.957   4.150   4.122  0.0063  0.0393 -0.1307
 4680SOL     OW14165   0.192   0.477   0.484  0.4785 -0.5147 -0.4715
 4680SOL    HW114166   0.222   0.471   0.393  1.8579 -0.7625 -0.0467
 4680SOL    HW214167   0.210   0.567   0.509  2.1413 -0.9613  0.1480
 4681SOL     OW14168   2.844   3.629   3.975 -0.3126 -0.3553 -0.2393
 4681SOL    HW114169   2.926   3.674   3.995 -0.4123 -0.3436  0.1523
 4681SOL    HW214170   2.798   3.624   4.058 -0.1958 -1.4140 -0.2159
 4682SOL     OW14171   4.836   5.564   1.890  0.2576  0.6935 -0.5614
 4682SOL    HW114172   4.866   5.486   1.936  0.8045  0.6497 -0.9672
 4682SOL    HW214173   4.798   5.619   1.958 -2.6099 -0.9319 -0.4957
 4683SOL     OW14174   0.877   5.938   0.424  0.3880 -0.0167  0.0219
 4683SOL    HW114175   0.876   5.882   0.502  1.5121 -0.7357 -0.4316
 4683SOL    HW214176   0.813   6.007   0.443  0.6275 -0.1602  1.5712
 4684SOL     OW14177   3.467   6.387   4.186 -0.3780 -0.2883  0.2579
 4684SOL    HW114178   3.553   6.414   4.154 -0.4890  0.8906  0.8289
 4684SOL    HW214179   3.484   6.308   4.238  0.2082 -0.5908 -0.3619
 4685SOL     OW14180   5.105   4.916   4.466  0.3154 -0.6728 -0.3868
 4685SOL    HW114181   5.043   4.909   4.539 -1.2421 -0.5952 -1.5980
 4685SOL    HW214182   5.103   5.008   4.441  1.6973 -0.4583  0.0916
 4686SOL     OW14183   3.122   5.632   1.601 -0.4618 -0.3720 -0.4225
 4686SOL    HW114184   3.137   5.696   1.531  0.7209 -0.6741 -0.4866
 4686SOL    HW214185   3.203   5.633   1.653 -1.2497 -0.2604  0.8904
 4687SOL     OW14186   2.866   5.943   4.143 -0.5067 -0.7634  0.4067
 4687SOL    HW114187   2.778   5.944   4.180 -0.0113  0.4229  1.7374
 4687SOL    HW214188   2.854   5.973   4.052 -1.3716  1.0024  1.0089
 4688SOL     OW14189   3.153   5.912   1.839 -0.0645  0.1063  0.3698
 4688SOL    HW114190   3.220   5.951   1.896  0.6344 -0.1160 -0.2719
 4688SOL    HW214191   3.192   5.913   1.752 -0.2837 -1.4018  0.1999
 4689SOL     OW14192   0.413   4.926   1.001  0.3263 -0.0006 -0.3455
 4689SOL    HW114193   0.424   4.930   0.906  1.1367 -2.3587 -0.4667
 4689SOL    HW214194   0.360   4.848   1.017 -2.3523  1.7920  1.1522
 4690SOL     OW14195   5.113   5.880   4.284 -0.2527  0.1374  0.2985
 4690SOL    HW114196   5.066   5.838   4.213  1.5329  0.1639 -1.0298
 4690SOL    HW214197   5.048   5.937   4.326 -1.2674  0.7302 -1.8062
 4691SOL     OW14198   3.092   5.456   1.872 -0.4254 -0.2652 -0.8928
 4691SOL    HW114199   3.040   5.414   1.940 -0.5404  0.9798 -0.1557
 4691SOL    HW214200   3.164   5.394   1.855 -1.5428 -1.5631 -1.2248
 4692SOL     OW14201   1.703   3.949   1.198 -0.0784  0.3906 -0.2419
 4692SOL    HW114202   1.760   3.911   1.130  1.4662 -0.1754  1.2194
 4692SOL    HW214203   1.739   4.037   1.211  0.4873  0.0537  0.6441
 4693SOL     OW14204   2.413   1.800   2.452  0.1360  0.1652 -0.5247
 4693SOL    HW114205   2.486   1.858   2.471 -0.1159 -0.2252  3.0570
 4693SOL    HW214206   2.371   1.786   2.537 -1.1948 -3.4686 -1.4151
 4694SOL     OW14207   0.404   0.119   2.872 -0.6106  0.0670 -0.3063
 4694SOL    HW114208   0.365   0.036   2.899 -1.8247 -0.3816 -2.8507
 4694SOL    HW214209   0.366   0.136   2.786  0.5193  2.6861 -0.4631
 4695SOL     OW14210   0.520   0.635   1.511  0.1197 -0.0701 -0.3174
 4695SOL    HW114211   0.470   0.630   1.593  1.3073  1.9646  0.6873
 4695SOL    HW214212   0.611   0.646   1.539  0.8902 -1.2296 -2.0198
 4696SOL     OW14213   5.392   1.836   3.006 -0.0880 -0.3707  0.6795
 4696SOL    HW114214   5.311   1.812   3.052 -0.6535 -0.4380 -0.2847
 4696SOL    HW214215   5.417   1.757   2.959  1.4590 -0.8516  2.1265
 4697SOL     OW14216   1.863   4.169   3.625 -0.5136  0.2300 -0.6151
 4697SOL    HW114217   1.934   4.220   3.586 -1.1121  2.0623  0.4487
 4697SOL    HW214218   1.907   4.109   3.685  0.2115 -0.3607 -1.6705
 4698SOL     OW14219   4.611   5.264   0.410  0.8802  0.6960  0.4260
 4698SOL    HW114220   4.534   5.322   0.408 -0.3124 -0.5829  2.3887
 4698SOL    HW214221   4.628   5.250   0.503  0.4665 -2.6359  0.2572
 4699SOL     OW14222   0.800   5.193   4.200  0.6000  0.2000 -0.3084
 4699SOL    HW114223   0.720   5.216   4.153  0.5394 -0.5080 -0.5683
 4699SOL    HW214224   0.846   5.277   4.211 -0.5384  0.7602  0.5823
 4700SOL     OW14225   5.846   6.403   1.502 -0.3125 -0.2672 -0.4839
 4700SOL    HW114226   5.883   6.487   1.474 -2.2991  0.9783  0.2331
 4700SOL    HW214227   5.898   6.380   1.579 -0.5645  1.0793  0.1533
 4701SOL     OW14228   5.509   1.084   1.474  0.7134  0.6473 -0.5681
 4701SOL    HW114229   5.434   1.142   1.468  0.3101  0.0982 -1.0607
 4701SOL    HW214230   5.523   1.071   1.568  1.8406  2.7833 -0.3146
 4702SOL     OW14231   3.151   2.847   2.357 -0.2528  0.2129  0.0987
 4702SOL    HW114232   3.220   2.880   2.298  0.6332 -0.9855  0.4041
 4702SOL    HW214233   3.073   2.844   2.302  0.1488  0.6903 -0.5347
 4703SOL     OW14234   0.257   5.373   3.810 -0.0077 -0.2245  0.8932
 4703SOL    HW114235   0.249   5.394   3.717 -2.0102 -0.0666  1.0143
 4703SOL    HW214236   0.325   5.305   3.813  0.1358 -0.2373 -0.6717
 4704SOL     OW14237   6.388   1.680   2.686  0.1196  0.4975 -0.3235
 4704SOL    HW114238   6.401   1.587   2.670  0.2771  0.4691 -0.0456
 4704SOL    HW214239   6.345   1.684   2.772 -1.1566  0.6198 -0.9242
 4705SOL     OW14240   4.564   2.943   2.190 -0.1709  0.0045 -0.1183
 4705SOL    HW114241   4.651   2.961   2.225 -0.4593 -1.6207  1.8402
 4705SOL    HW214242   4.509   3.013   2.225  0.1331  0.3879 -0.3894
 4706SOL     OW14243   0.812   2.307   0.599  0.0570  0.5864  0.0181
 4706SOL    HW114244   0.743   2.242   0.610  0.6373  0.1326  1.3691
 4706SOL    HW214245   0.788   2.377   0.660 -0.2482  1.4167 -0.9952
 4707SOL     OW14246   1.695   1.670   1.435 -0.1435 -0.3043  0.5525
 4707SOL    HW114247   1.778   1.706   1.466  0.2308 -0.0641 -0.6423
 4707SOL    HW214248   1.720   1.597   1.378 -0.7369 -0.1491  0.0716
 4708SOL     OW14249   0.647   0.004   1.095  0.4569 -0.6070 -0.3840
 4708SOL    HW114250   0.556  -0.016   1.074  0.3789  0.6224 -1.4741
 4708SOL    HW214251   0.642   0.057   1.175  0.3485 -1.4163  0.1760
 4709SOL     OW14252   0.734   2.250   2.362 -0.1996  0.2682  0.3804
 4709SOL    HW114253   0.642   2.251   2.333  0.4730 -0.7113 -2.4874
 4709SOL    HW214254   0.770   2.170   2.324  1.7293  0.1820  2.0592
 4710SOL     OW14255   1.950   1.636   3.233 -0.0779  0.1374  0.4293
 4710SOL    HW114256   1.957   1.730   3.217 -1.6631  0.1014 -1.1921
 4710SOL    HW214257   1.999   1.621   3.313  1.6672  2.0425 -0.1169
 4711SOL     OW14258   2.897   1.254   3.046  0.5043 -0.3027 -0.1624
 4711SOL    HW114259   2.936   1.339   3.025 -0.2861  0.6091  1.6354
 4711SOL    HW214260   2.810   1.275   3.080  0.5231 -1.7559  0.9803
 4712SOL     OW14261   3.534   6.027   0.401 -0.3098 -0.6116  0.0836
 4712SOL    HW114262   3.484   6.108   0.403  0.0611 -0.3497 -0.5981
 4712SOL    HW214263   3.565   6.020   0.311  0.1469 -1.2116  0.2745
 4713SOL     OW14264   3.864   5.788   0.910  0.0520  0.3915 -0.3761
 4713SOL    HW114265   3.790   5.727   0.908 -0.0139  0.3488  1.1446
 4713SOL    HW214266   3.940   5.733   0.889 -0.1211 -0.0170  0.0202
 4714SOL     OW14267   5.786   2.839   4.511 -0.2912  0.2168  0.1322
 4714SOL    HW114268   5.796   2.760   4.564  0.5833  0.5267  0.4608
 4714SOL    HW214269   5.770   2.806   4.423 -0.0460 -0.3220  0.2788
 4715SOL     OW14270   6.222   1.963   1.583  0.1158  0.0853 -0.2778
 4715SOL    HW114271   6.134   1.943   1.615  0.0776 -0.4348 -0.6759
 4715SOL    HW214272   6.272   1.882   1.599  0.0594 -0.2472 -1.6031
 4716SOL     OW14273   1.268   5.001   0.395  0.1463  0.0723 -0.1394
 4716SOL    HW114274   1.263   5.094   0.417 -1.3718  0.1624 -0.6267
 4716SOL    HW214275   1.362   4.984   0.383  0.4315  2.0850 -2.1304
 4717SOL     OW14276   3.758   4.178   0.967 -0.4324 -0.2709 -0.1379
 4717SOL    HW114277   3.706   4.251   1.001  0.3628  0.2245  0.0430
 4717SOL    HW214278   3.784   4.206   0.879 -1.4341 -1.0224 -0.7218
 4718SOL     OW14279   4.479   0.880   0.842  0.2030  0.0966 -0.5314
 4718SOL    HW114280   4.537   0.954   0.827  1.4585 -0.7756 -0.3441
 4718SOL    HW214281   4.506   0.814   0.778  0.1709 -0.7397  0.2638
 4719SOL     OW14282   5.260   1.907   0.105  0.2833  0.3840 -0.0917
 4719SOL    HW114283   5.298   1.864   0.028  0.0359 -3.5234  1.4892
 4719SOL    HW214284   5.167   1.887   0.099  0.0763  1.0632  0.6531
 4720SOL     OW14285   3.021   6.025   1.449 -0.1085  0.1535  0.4271
 4720SOL    HW114286   3.051   5.945   1.407 -0.9613  0.0200  0.0209
 4720SOL    HW214287   2.987   6.078   1.377  1.4783  1.4286  0.5007
 4721SOL     OW14288   0.121   2.089   3.894  0.0222 -0.1113  0.0383
 4721SOL    HW114289   0.183   2.061   3.961  0.1219 -1.4346 -0.5534
 4721SOL    HW214290   0.071   2.010   3.872 -1.6202  0.7947  0.1865
 4722SOL     OW14291   4.175   1.568   3.062 -0.2797 -0.1260 -0.1702
 4722SOL    HW114292   4.179   1.476   3.036 -0.2505 -0.3646  0.6082
 4722SOL    HW214293   4.088   1.578   3.101 -0.7128  0.4740 -1.2172
 4723SOL     OW14294   4.346   3.056   1.856 -0.0486 -0.1350 -0.6103
 4723SOL    HW114295   4.370   3.149   1.861 -0.2623 -0.0490 -1.1117
 4723SOL    HW214296   4.416   3.016   1.805  1.5850 -0.8211  1.7867
 4724SOL     OW14297   1.254   1.115   0.897  0.4960  0.0110 -0.0979
 4724SOL    HW114298   1.335   1.125   0.847  0.7791 -0.1549  0.3163
 4724SOL    HW214299   1.202   1.052   0.848  1.2488 -1.0383  0.3811
 4725SOL     OW14300   3.986   1.930   4.396  0.0156  0.0386  0.1608
 4725SOL    HW114301   3.949   1.894   4.476 -1.4679 -0.0866 -0.5196
 4725SOL    HW214302   3.920   1.913   4.329  0.8951  0.7406 -0.9624
 4726SOL     OW14303   4.426   3.080   2.699  0.0254  0.0566  0.0648
 4726SOL    HW114304   4.498   3.086   2.637  0.9157 -1.6824  0.8017
 4726SOL    HW214305   4.457   3.125   2.778  0.3237 -0.6379  0.3605
 4727SOL     OW14306   1.644   0.746   2.469 -0.0527 -0.4320  0.3558
 4727SOL    HW114307   1.695   0.780   2.395 -0.7350 -0.6992 -0.2593
 4727SOL    HW214308   1.710   0.720   2.533  0.5596 -0.1603 -0.1375
 4728SOL     OW14309   2.666   2.170   3.555  0.2854  0.4304 -0.1853
 4728SOL    HW114310   2.617   2.091   3.535 -0.1810  1.1322 -2.2879
 4728SOL    HW214311   2.613   2.216   3.620 -0.6707  0.0878 -0.6904
 4729SOL     OW14312   2.831   3.458   1.097 -0.5482 -0.0189 -0.0016
 4729SOL    HW114313   2.794   3.480   1.011  0.5911 -2.9194 -1.4880
 4729SOL    HW214314   2.925   3.460   1.083 -0.2977  0.0255  1.4409
 4730SOL     OW14315   6.212   3.588   1.100  0.0208  0.4299 -0.0412
 4730SOL    HW114316   6.282   3.605   1.163  0.2973  0.0206 -0.2311
 4730SOL    HW214317   6.179   3.675   1.077  0.0630  0.5945  0.4992
 4731SOL     OW14318   2.943   2.415   0.368  0.1559  0.4028 -0.1563
 4731SOL    HW114319   2.976   2.401   0.457 -0.7766 -0.5094  0.0929
 4731SOL    HW214320   2.847   2.410   0.377  0.0033  1.1216 -1.0939
 4732SOL     OW14321   5.541   0.392   4.473 -0.1071  0.1536  0.2491
 4732SOL    HW114322   5.620   0.445   4.467 -1.0867  1.6266 -0.9614
 4732SOL    HW214323   5.479   0.433   4.413 -1.2948 -1.8644 -0.0986
 4733SOL     OW14324   0.065   4.402   3.152 -0.0802  0.7192  0.2364
 4733SOL    HW114325   0.145   4.368   3.111  1.0815  1.2580  1.8672
 4733SOL    HW214326   0.011   4.324   3.167  1.0416  0.0178  0.8896
 4734SOL     OW14327   3.079   1.410   0.300  0.4396  0.2795 -0.0799
 4734SOL    HW114328   3.074   1.386   0.208 -1.6021  1.4383 -0.3833
 4734SOL    HW214329   3.161   1.460   0.307  0.8975 -0.2690 -1.1119
 4735SOL     OW14330   3.737   4.538   3.757 -0.0040 -0.2505  0.1437
 4735SOL    HW114331   3.793   4.516   3.832  0.8277 -0.8517 -0.6229
 4735SOL    HW214332   3.735   4.459   3.704 -3.0436 -0.9677  0.9240
 4736SOL     OW14333   4.090   2.487   1.367  0.3291 -0.1424  0.5013
 4736SOL    HW114334   4.002   2.452   1.351  1.1031 -2.1375  0.0481
 4736SOL    HW214335   4.081   2.538   1.448 -1.0296 -1.2451  1.1297
 4737SOL     OW14336   4.417   1.408   1.557 -0.3713  0.0222 -0.1451
 4737SOL    HW114337   4.368   1.475   1.508 -0.8454  0.4471  0.8345
 4737SOL    HW214338   4.497   1.395   1.507 -0.6884  0.6478 -0.8577
 4738SOL     OW14339   5.387   0.735   1.504 -0.1903  0.0472 -0.4742
 4738SOL    HW114340   5.294   0.758   1.503  0.0317  1.0449 -0.2588
 4738SOL    HW214341   5.428   0.800   1.447  0.9351  2.5786  2.6340
 4739SOL     OW14342   0.623   0.930   0.298  0.2252  0.0614 -0.1380
 4739SOL    HW114343   0.719   0.922   0.294  0.4891  0.1074  2.4263
 4739SOL    HW214344   0.605   1.017   0.264  1.3277  0.5932  0.4971
 4740SOL     OW14345   5.171   1.715   3.495  0.0313 -0.2024  0.1233
 4740SOL    HW114346   5.155   1.683   3.583  0.6808 -0.2605  0.2252
 4740SOL    HW214347   5.264   1.699   3.479  0.2815  1.1366 -0.0174
 4741SOL     OW14348   5.994   0.093   2.065  0.2861 -0.1168 -0.7802
 4741SOL    HW114349   5.916   0.139   2.036 -0.6128 -0.8555  0.2909
 4741SOL    HW214350   6.067   0.146   2.032 -0.6487  1.9036  0.0604
 4742SOL     OW14351   0.638   1.442   3.300  0.1614 -0.4167 -0.3821
 4742SOL    HW114352   0.575   1.514   3.306 -0.3039 -0.7528 -1.0298
 4742SOL    HW214353   0.634   1.400   3.386  1.9028  1.4463  0.7754
 4743SOL     OW14354   6.367   4.931   0.799  0.2949 -0.3167 -0.3246
 4743SOL    HW114355   6.404   5.011   0.837 -1.4058  0.6945 -0.6039
 4743SOL    HW214356   6.438   4.893   0.748  1.4841  0.3930  0.6900
 4744SOL     OW14357   3.566   4.736   2.563 -0.0586 -0.3897 -0.1338
 4744SOL    HW114358   3.474   4.713   2.572 -0.5511  1.5514  1.2246
 4744SOL    HW214359   3.603   4.670   2.504 -2.4629 -0.8150 -1.3868
 4745SOL     OW14360   4.715   2.691   0.256 -0.6203  0.4037  0.2512
 4745SOL    HW114361   4.807   2.696   0.279 -0.3222  0.4619 -0.8436
 4745SOL    HW214362   4.679   2.776   0.281  0.2101  1.3693 -1.4534
 4746SOL     OW14363   1.421   5.015   0.948  0.5042 -0.0823 -0.3451
 4746SOL    HW114364   1.325   5.013   0.944  0.4255 -2.0043  0.5239
 4746SOL    HW214365   1.443   5.108   0.955 -1.1449  0.6043 -2.2876
 4747SOL     OW14366   4.181   1.958   1.029  0.3813  0.4144  0.6496
 4747SOL    HW114367   4.092   1.985   1.054  0.1973  0.4412  0.0039
 4747SOL    HW214368   4.238   2.005   1.089  0.1094  2.5794 -0.5682
 4748SOL     OW14369   4.038   0.156   3.980  0.3859 -0.3359 -0.6526
 4748SOL    HW114370   4.077   0.201   3.905 -0.2265  0.4422 -0.5225
 4748SOL    HW214371   3.947   0.186   3.982  0.7186  0.9248  1.2807
 4749SOL     OW14372   5.560   6.305   1.698  0.7112  0.0907 -0.1984
 4749SOL    HW114373   5.533   6.360   1.624 -0.2204  0.8009  0.6305
 4749SOL    HW214374   5.552   6.216   1.665 -1.3904  0.2856 -0.4961
 4750SOL     OW14375   6.382   4.373   0.026 -0.5855  0.1998  0.5003
 4750SOL    HW114376   6.385   4.469   0.024  0.9559  0.2727  1.9575
 4750SOL    HW214377   6.381   4.351   0.119  0.2121 -1.1859  0.2374
 4751SOL     OW14378   0.977   6.107   1.374  0.3110  0.3149 -0.3017
 4751SOL    HW114379   0.999   6.028   1.423  0.9425  0.3497 -0.5022
 4751SOL    HW214380   1.034   6.175   1.410 -0.4798  0.7805  0.1142
 4752SOL     OW14381   4.894   2.922   3.425  0.2289  0.5707  0.6048
 4752SOL    HW114382   4.939   3.000   3.392 -0.6198  0.5844 -0.7059
 4752SOL    HW214383   4.801   2.944   3.416 -0.0316 -0.6349  0.0524
 4753SOL     OW14384   6.170   6.038   3.142 -0.2159 -0.6163 -0.3686
 4753SOL    HW114385   6.077   6.050   3.165  0.0687  1.6129  0.0387
 4753SOL    HW214386   6.216   6.049   3.225  0.4670 -1.6279 -0.5816
 4754SOL     OW14387   5.716   2.392   0.751 -0.1228 -0.1856 -0.1745
 4754SOL    HW114388   5.765   2.311   0.765  0.7996 -0.0798 -2.1778
 4754SOL    HW214389   5.672   2.379   0.667 -1.1015  0.9076  0.1114
 4755SOL     OW14390   5.586   1.378   3.486  0.3239  0.5289 -0.0748
 4755SOL    HW114391   5.649   1.305   3.487 -0.6552 -0.3932 -0.8660
 4755SOL    HW214392   5.529   1.361   3.560 -0.5968 -0.2200 -0.9020
 4756SOL     OW14393   4.751   1.074   0.015  0.0368  0.1042 -0.0962
 4756SOL    HW114394   4.753   0.995  -0.040  1.0617  0.0578 -0.0230
 4756SOL    HW214395   4.833   1.071   0.064  0.1600  1.2784 -0.1804
 4757SOL     OW14396   5.628   3.475   1.499  0.4259 -0.0672  0.0223
 4757SOL    HW114397   5.604   3.545   1.438  0.7245 -0.9013 -1.1225
 4757SOL    HW214398   5.718   3.453   1.477  1.0896  0.5354  1.7745
 4758SOL     OW14399   2.177   2.320   3.790  0.3647  0.0476 -0.4159
 4758SOL    HW114400   2.169   2.395   3.849 -2.5560  0.4017 -0.9658
 4758SOL    HW214401   2.173   2.244   3.849 -1.4369  0.3993  0.0233
 4759SOL     OW14402   1.178   0.090   0.136 -0.4968  0.4284 -0.3865
 4759SOL    HW114403   1.270   0.114   0.125 -0.8997  1.9611 -0.9258
 4759SOL    HW214404   1.165   0.088   0.231  0.4220 -1.5528 -0.2037
 4760SOL     OW14405   3.095   4.685   1.807 -0.1372  0.4508  0.6015
 4760SOL    HW114406   3.189   4.694   1.796  0.0395  0.4748  1.8746
 4760SOL    HW214407   3.076   4.729   1.890 -1.0308 -0.7817  1.1137
 4761SOL     OW14408   4.963   0.594   2.067 -0.7470 -0.0019  0.1673
 4761SOL    HW114409   4.913   0.562   2.143 -0.5406 -0.3580  0.1563
 4761SOL    HW214410   4.995   0.680   2.094  1.3001 -1.0286  1.4328
 4762SOL     OW14411   5.226   3.368   1.427  0.1643  0.3425  0.1042
 4762SOL    HW114412   5.285   3.411   1.365  1.1531 -0.1971  0.6280
 4762SOL    HW214413   5.275   3.365   1.509 -1.4837  2.0530  1.3286
 4763SOL     OW14414   3.039   0.477   1.518  0.0927 -0.0497 -0.5622
 4763SOL    HW114415   3.087   0.554   1.488  0.1972 -0.2431 -0.8945
 4763SOL    HW214416   2.977   0.511   1.582 -0.7075  0.4955 -1.5836
 4764SOL     OW14417   3.580   5.323   0.328 -0.1786 -0.0729 -0.2518
 4764SOL    HW114418   3.539   5.376   0.259 -0.1292 -0.7376 -0.8190
 4764SOL    HW214419   3.608   5.386   0.394 -1.5130  0.4889 -0.1424
 4765SOL     OW14420   0.945   1.419   1.864 -0.2359  0.3502 -0.2753
 4765SOL    HW114421   0.891   1.357   1.815  0.4034 -0.4828  0.0349
 4765SOL    HW214422   0.932   1.395   1.955 -0.4371  1.0770 -0.1004
 4766SOL     OW14423   5.022   2.181   2.906 -0.2074  0.1065  1.1466
 4766SOL    HW114424   4.951   2.155   2.847  0.7552  0.1903 -0.1201
 4766SOL    HW214425   5.003   2.272   2.926 -0.7618 -0.0351  1.3130
 4767SOL     OW14426   5.966   1.103   1.831  0.2543 -0.2824  0.0529
 4767SOL    HW114427   6.045   1.093   1.884 -1.3593 -2.3107  2.6078
 4767SOL    HW214428   5.963   1.196   1.811  2.9085  0.0119  0.2970
 4768SOL     OW14429   1.096   6.045   0.314 -0.3402  0.4259  0.7171
 4768SOL    HW114430   1.017   6.006   0.353  0.1768 -1.7667 -0.1556
 4768SOL    HW214431   1.129   6.104   0.382 -3.1214  2.2648  0.8039
 4769SOL     OW14432   4.397   1.771   3.844  0.5626  0.6712  0.0983
 4769SOL    HW114433   4.395   1.849   3.900  2.2350 -0.0141  1.2713
 4769SOL    HW214434   4.393   1.806   3.755 -1.0066  1.8951  0.5677
 4770SOL     OW14435   5.074   0.815   1.776 -0.2238  0.2220  0.0892
 4770SOL    HW114436   5.000   0.861   1.736 -2.0182 -0.9229  1.7644
 4770SOL    HW214437   5.079   0.848   1.865  0.2471 -0.8272  0.4899
 4771SOL     OW14438   3.386   5.565   3.384  0.3985  0.3262  0.0920
 4771SOL    HW114439   3.455   5.595   3.325  0.6545 -1.3445 -0.5571
 4771SOL    HW214440   3.337   5.645   3.406  1.8000  1.3955 -0.3581
 4772SOL     OW14441   5.907   5.451   3.701 -0.1551  0.2203  0.4551
 4772SOL    HW114442   5.945   5.377   3.750 -0.8347  0.1053  0.8280
 4772SOL    HW214443   5.859   5.501   3.767 -1.3937 -0.1214 -0.1291
 4773SOL     OW14444   5.191   2.906   2.994 -0.0204 -0.2397 -0.3778
 4773SOL    HW114445   5.280   2.931   2.967 -0.1562  2.5312  1.0959
 4773SOL    HW214446   5.201   2.874   3.084 -0.5293  1.3650  0.3117
 4774SOL     OW14447   2.908   1.038   3.369 -0.4222  0.1552  0.1826
 4774SOL    HW114448   2.946   0.966   3.420 -1.3548 -0.2599  0.3330
 4774SOL    HW214449   2.938   1.022   3.279 -0.6110 -0.4364  0.2153
 4775SOL     OW14450   2.213   4.081   0.513 -0.2441 -0.2517 -0.3030
 4775SOL    HW114451   2.203   4.176   0.513 -0.4392 -0.2664 -0.6830
 4775SOL    HW214452   2.125   4.048   0.494  0.0720 -0.4593 -1.6085
 4776SOL     OW14453   0.579   3.290   1.322  0.4933  0.6564  0.0501
 4776SOL    HW114454   0.555   3.381   1.303 -2.0765  0.2403  0.5308
 4776SOL    HW214455   0.593   3.250   1.236  0.6004  1.2721 -0.2293
 4777SOL     OW14456   1.421   0.198   3.819  0.0095 -0.2863  0.4594
 4777SOL    HW114457   1.370   0.130   3.774 -1.3601  1.1551 -0.3814
 4777SOL    HW214458   1.360   0.236   3.882 -0.4725  2.1011 -1.1896
 4778SOL     OW14459   4.361   2.628   4.036 -0.1513  0.2046 -0.0116
 4778SOL    HW114460   4.440   2.576   4.023 -0.7609 -0.4701 -1.3313
 4778SOL    HW214461   4.377   2.708   3.987 -1.3583 -1.2036 -3.2612
 4779SOL     OW14462   3.069   4.714   2.872  0.1257 -0.1037  0.1048
 4779SOL    HW114463   3.005   4.674   2.813 -0.0685  0.5434 -0.1503
 4779SOL    HW214464   3.107   4.641   2.920 -0.2135 -0.5812 -0.3301
 4780SOL     OW14465   3.949   1.822   3.590 -0.5200  0.5851 -0.3758
 4780SOL    HW114466   3.911   1.876   3.660  1.0702  1.7593 -0.3196
 4780SOL    HW214467   3.999   1.883   3.536 -0.8797 -0.4356 -2.0196
 4781SOL     OW14468   3.172   3.010   1.318  0.1553 -0.1914 -0.7521
 4781SOL    HW114469   3.081   2.999   1.290 -0.0266 -2.5228  0.2929
 4781SOL    HW214470   3.223   2.967   1.249  0.4736  0.6840 -1.0933
 4782SOL     OW14471   4.614   5.996   2.515  0.7144  0.5801 -0.4267
 4782SOL    HW114472   4.604   5.941   2.592  0.6306 -0.2489 -1.0041
 4782SOL    HW214473   4.607   5.936   2.441  1.3480  1.2553 -1.0768
 4783SOL     OW14474   2.323   2.703   1.460 -0.3218  0.1598 -0.6083
 4783SOL    HW114475   2.414   2.708   1.491 -0.3760 -1.5806  0.0723
 4783SOL    HW214476   2.323   2.752   1.378  1.6641 -1.0579 -1.4886
 4784SOL     OW14477   0.704   0.299   2.491 -0.2458 -0.3703  0.1882
 4784SOL    HW114478   0.610   0.317   2.479  0.1495  1.0144 -2.0072
 4784SOL    HW214479   0.748   0.376   2.457  1.7073 -1.7079 -0.6882
 4785SOL     OW14480   1.597   4.087   0.433  0.4302 -0.0540  0.6689
 4785SOL    HW114481   1.628   4.177   0.420 -2.5367  1.2416  0.8804
 4785SOL    HW214482   1.619   4.067   0.524  1.2116  0.3807  0.5952
 4786SOL     OW14483   3.520   6.210   0.707 -0.0673  0.2451 -0.0426
 4786SOL    HW114484   3.547   6.154   0.635 -0.4910  1.2913 -1.0764
 4786SOL    HW214485   3.601   6.246   0.743  0.1103  0.7963 -0.9446
 4787SOL     OW14486   5.576   2.543   0.484 -0.3339  0.0530  0.2613
 4787SOL    HW114487   5.550   2.595   0.408 -6.5279  0.1648  1.3727
 4787SOL    HW214488   5.603   2.607   0.550 -0.7411  0.8708 -0.3321
 4788SOL     OW14489   0.604   0.099   0.429 -0.0868  0.2527  0.5374
 4788SOL    HW114490   0.593   0.016   0.383  0.2069  0.8787 -0.7457
 4788SOL    HW214491   0.685   0.088   0.480  0.0302 -0.2054  0.2607
 4789SOL     OW14492   3.575   6.325   2.183 -0.4172  0.1392  0.1265
 4789SOL    HW114493   3.584   6.245   2.132 -0.1946  0.2147  0.0444
 4789SOL    HW214494   3.603   6.300   2.271  1.5456  0.5620 -0.2903
 4790SOL     OW14495   4.954   6.170   1.022 -0.1342  0.0075 -0.4154
 4790SOL    HW114496   4.877   6.172   1.079 -0.0497  0.1546 -0.3065
 4790SOL    HW214497   4.933   6.104   0.955  0.2407 -1.0772  0.4701
 4791SOL     OW14498   4.261   4.838   2.074 -0.1003 -0.3511  0.1123
 4791SOL    HW114499   4.230   4.912   2.022  0.1982 -1.6122 -2.1399
 4791SOL    HW214500   4.342   4.869   2.113 -0.2283  0.6529 -0.3433
 4792SOL     OW14501   5.068   5.173   3.113 -0.2354  0.6541  0.4496
 4792SOL    HW114502   5.134   5.221   3.064  0.6770 -1.8102 -1.0920
 4792SOL    HW214503   5.057   5.091   3.066 -2.0649 -0.4871  2.4536
 4793SOL     OW14504   0.139   4.772   4.013  0.4860 -0.3963 -0.3005
 4793SOL    HW114505   0.066   4.717   3.985  0.0376 -0.3474  0.6921
 4793SOL    HW214506   0.111   4.862   3.992  0.2525 -0.3783  0.0691
 4794SOL     OW14507   2.047   6.012   2.190  0.1689  0.0884 -0.0680
 4794SOL    HW114508   2.008   6.070   2.125  0.5622  0.0498 -0.3427
 4794SOL    HW214509   2.141   6.022   2.179  0.3791  1.7698  1.9335
 4795SOL     OW14510   3.183   4.344   3.325 -0.5450  0.1666 -0.1678
 4795SOL    HW114511   3.112   4.325   3.386  1.4696  0.1592  2.5391
 4795SOL    HW214512   3.169   4.283   3.252 -2.5534 -0.7159  0.8051
 4796SOL     OW14513   6.081   2.004   0.991 -0.1636 -0.6640  0.9197
 4796SOL    HW114514   6.118   2.083   1.031 -3.1216  0.2096  2.5972
 4796SOL    HW214515   6.127   1.932   1.034  1.8784  0.0551  0.1575
 4797SOL     OW14516   4.035   3.736   3.346 -0.8501 -0.2260  0.3940
 4797SOL    HW114517   4.058   3.799   3.278 -0.5844  0.7535  1.3311
 4797SOL    HW214518   4.038   3.651   3.302 -0.0136  0.2857 -0.6436
 4798SOL     OW14519   1.024   4.259   3.043  0.0410  0.3234  0.2509
 4798SOL    HW114520   0.998   4.185   3.098  0.1123 -0.9715 -1.3339
 4798SOL    HW214521   0.941   4.300   3.019 -0.3703 -1.2429 -1.3861
 4799SOL     OW14522   3.691   3.205   0.366  0.4216 -0.2522  0.2285
 4799SOL    HW114523   3.770   3.233   0.412  1.0274  0.1057 -0.9310
 4799SOL    HW214524   3.663   3.283   0.318 -0.5944 -0.4051  0.5433
 4800SOL     OW14525   1.307   4.887   3.513 -0.0990  0.0275 -0.3087
 4800SOL    HW114526   1.237   4.822   3.502  0.3162 -0.4388 -0.2483
 4800SOL    HW214527   1.271   4.950   3.576  0.3431 -1.4541  1.6180
 4801SOL     OW14528   2.967   2.017   3.227 -0.0506  0.8521 -0.1702
 4801SOL    HW114529   2.952   1.937   3.277 -1.5349  0.8398 -0.5204
 4801SOL    HW214530   2.999   1.987   3.142  2.7798  0.8864  0.6808
 4802SOL     OW14531   3.872   4.230   3.457 -0.2163  0.0017  0.2131
 4802SOL    HW114532   3.914   4.161   3.406 -0.9962 -0.6311  0.3874
 4802SOL    HW214533   3.931   4.306   3.449  0.1727 -0.3812 -0.7837
 4803SOL     OW14534   3.800   1.996   3.133 -0.9741  0.0281 -0.2446
 4803SOL    HW114535   3.758   2.054   3.070 -2.2112 -0.4007  0.1244
 4803SOL    HW214536   3.855   1.939   3.079 -0.5858  0.8176 -0.7219
 4804SOL     OW14537   4.459   3.852   3.562 -0.2607  0.0120 -0.1751
 4804SOL    HW114538   4.412   3.921   3.515 -0.3383  0.3380  0.3658
 4804SOL    HW214539   4.545   3.890   3.580 -0.3165 -0.0146  0.1579
 4805SOL     OW14540   6.187   5.181   1.147  0.5053 -0.6415 -0.1109
 4805SOL    HW114541   6.159   5.099   1.105  0.1466 -0.2095 -0.7549
 4805SOL    HW214542   6.277   5.193   1.118 -0.2170  0.5198 -2.3178
 4806SOL     OW14543   1.635   4.065   2.083 -0.6561  0.4852 -0.5920
 4806SOL    HW114544   1.562   4.032   2.031 -0.6127  3.3025 -2.9940
 4806SOL    HW214545   1.643   4.157   2.056  2.6174  0.9051  0.8972
 4807SOL     OW14546   6.373   5.901   1.797  0.1794 -0.1588  0.0930
 4807SOL    HW114547   6.306   5.835   1.817  0.2921 -1.3539 -2.6511
 4807SOL    HW214548   6.451   5.871   1.844 -0.5781  0.1088  1.6753
 4808SOL     OW14549   3.578   0.042   2.775  0.2455  0.3395 -0.3076
 4808SOL    HW114550   3.485   0.062   2.781 -0.2410 -1.6814  0.2063
 4808SOL    HW214551   3.621   0.119   2.813 -1.2616  0.9176  0.4003
 4809SOL     OW14552   0.261   2.716   0.851  0.3345 -0.0218  0.0799
 4809SOL    HW114553   0.211   2.771   0.790  1.4260  1.1036  0.1126
 4809SOL    HW214554   0.199   2.651   0.881 -1.0235  1.0774 -0.1375
 4810SOL     OW14555   6.042   5.733   4.056  0.4006 -0.0403 -0.9527
 4810SOL    HW114556   5.976   5.695   3.998  1.3858 -2.4038 -0.7743
 4810SOL    HW214557   6.013   5.706   4.144  0.6090  0.6395 -0.6664
 4811SOL     OW14558   2.032   0.903   3.315  0.0678 -0.7452  0.0645
 4811SOL    HW114559   1.949   0.854   3.310  0.1127 -0.7683 -0.6485
 4811SOL    HW214560   2.092   0.852   3.260  0.1786 -0.0203 -0.5123
 4812SOL     OW14561   2.897   5.437   0.969 -0.4691 -0.0396  0.3893
 4812SOL    HW114562   2.897   5.479   0.883 -1.3492  0.3594  0.5612
 4812SOL    HW214563   2.983   5.458   1.006 -1.0276  2.1938  0.7013
 4813SOL     OW14564   4.197   1.452   2.596 -0.1243  0.1237  0.4386
 4813SOL    HW114565   4.258   1.487   2.662 -1.1599  0.2544  1.3817
 4813SOL    HW214566   4.220   1.497   2.515  2.5835 -1.4893  0.0490
 4814SOL     OW14567   2.431   5.205   0.692 -0.0974 -0.5226  0.5207
 4814SOL    HW114568   2.525   5.205   0.669 -0.1987 -0.0546  0.0435
 4814SOL    HW214569   2.430   5.220   0.786  0.3298 -1.8846  0.7811
 4815SOL     OW14570   1.161   4.889   3.938  0.0323  0.2307  0.5572
 4815SOL    HW114571   1.170   4.947   4.014  0.5708 -0.3417  0.9532
 4815SOL    HW214572   1.249   4.851   3.927 -0.1801 -0.1095 -0.0120
 4816SOL     OW14573   3.167   2.621   3.087  0.0893  0.5654  0.0897
 4816SOL    HW114574   3.205   2.708   3.104  0.3334  0.1494  2.2975
 4816SOL    HW214575   3.227   2.560   3.131 -0.4374 -0.6820 -0.8097
 4817SOL     OW14576   3.358   4.532   4.460 -0.1422  0.0230 -0.0879
 4817SOL    HW114577   3.359   4.611   4.406 -0.9572  0.9264  1.1155
 4817SOL    HW214578   3.356   4.459   4.397 -0.6913  0.9827 -1.2557
 4818SOL     OW14579   0.374   6.258   0.743 -0.8364  0.4830  0.2455
 4818SOL    HW114580   0.464   6.232   0.761 -0.4673  0.9131 -0.8262
 4818SOL    HW214581   0.321   6.201   0.798  0.0911  0.5488  1.2689
 4819SOL     OW14582   1.918   0.257   3.646  0.9597  0.0865 -0.2050
 4819SOL    HW114583   1.875   0.327   3.595 -0.2102  0.4568  1.1396
 4819SOL    HW214584   2.011   0.265   3.624  0.6555  0.8804 -1.4440
 4820SOL     OW14585   3.087   4.848   2.028  0.2796  0.3586 -0.3353
 4820SOL    HW114586   3.168   4.899   2.035  0.2624  0.3818 -0.3046
 4820SOL    HW214587   3.064   4.828   2.119 -1.6342  3.2929  0.0815
 4821SOL     OW14588   0.334   1.115   0.573 -0.0005  0.5992 -0.1345
 4821SOL    HW114589   0.257   1.066   0.602 -0.6487  1.7863  0.3022
 4821SOL    HW214590   0.369   1.064   0.500 -2.4896  1.0074 -1.8704
 4822SOL     OW14591   4.416   4.461   2.963  0.3029 -0.7369  0.0729
 4822SOL    HW114592   4.334   4.448   3.009  0.0311  2.0055  0.7246
 4822SOL    HW214593   4.478   4.487   3.031  0.9721 -0.2786 -0.6775
 4823SOL     OW14594   3.494   0.379   1.414 -0.4777  0.1566  0.3101
 4823SOL    HW114595   3.444   0.415   1.341 -1.3489  0.0004  0.8037
 4823SOL    HW214596   3.544   0.454   1.447  1.3402 -0.0967 -1.4606
 4824SOL     OW14597   4.125   4.343   3.025 -0.0682 -0.0784 -0.1229
 4824SOL    HW114598   4.038   4.345   2.984 -0.2532  0.0426  0.2678
 4824SOL    HW214599   4.167   4.265   2.988  0.1676  0.5674 -1.3225
 4825SOL     OW14600   3.539   4.645   2.300 -0.0660  0.4967 -0.6143
 4825SOL    HW114601   3.492   4.562   2.297  0.2578  0.2008  0.8459
 4825SOL    HW214602   3.472   4.710   2.321 -0.0071  0.1908  0.6978
 4826SOL     OW14603   3.142   3.102   3.627 -0.5758  0.3250  0.0534
 4826SOL    HW114604   3.085   3.179   3.626 -0.3355  0.5015 -0.4816
 4826SOL    HW214605   3.174   3.093   3.537  1.2719  1.0082  0.5427
 4827SOL     OW14606   5.853   5.576   0.883  0.1387  0.2404  0.1348
 4827SOL    HW114607   5.768   5.564   0.842  0.4063 -0.3095 -0.2910
 4827SOL    HW214608   5.877   5.490   0.916  0.4014  0.4509  0.5114
 4828SOL     OW14609   0.800   2.809   2.880 -0.6886 -1.0427  0.7457
 4828SOL    HW114610   0.778   2.724   2.841 -1.8584 -0.8752  0.9623
 4828SOL    HW214611   0.769   2.803   2.970 -0.2494 -0.5859  0.9331
 4829SOL     OW14612   6.093   3.501   1.636  0.1259 -0.0859  0.2258
 4829SOL    HW114613   6.131   3.433   1.692 -1.8079 -1.2521  0.3085
 4829SOL    HW214614   6.058   3.565   1.698  1.3440  0.6896  0.1645
 4830SOL     OW14615   2.699   3.092   1.771 -0.0964  0.4202  0.7079
 4830SOL    HW114616   2.624   3.150   1.758 -0.0535  0.1891 -1.0256
 4830SOL    HW214617   2.717   3.056   1.684  2.1342  0.5947  0.9836
 4831SOL     OW14618   6.202   5.659   1.975 -0.3387 -0.1933  0.4576
 4831SOL    HW114619   6.173   5.571   1.999  2.4650 -1.3882  0.1895
 4831SOL    HW214620   6.183   5.666   1.882  0.0101 -0.8213  0.3311
 4832SOL     OW14621   3.272   1.897   3.955 -0.3417 -0.0569 -0.0579
 4832SOL    HW114622   3.296   1.837   4.026  2.0069 -0.7450 -1.2189
 4832SOL    HW214623   3.198   1.853   3.912 -1.8599  0.3912  1.7807
 4833SOL     OW14624   4.006   4.368   0.104  0.4312  0.0868  0.0730
 4833SOL    HW114625   4.054   4.285   0.100  0.8706  0.2770  0.8630
 4833SOL    HW214626   4.016   4.406   0.017  0.0807 -0.7519 -0.3586
 4834SOL     OW14627   0.014   0.370   0.964 -0.4719  0.0135  0.3342
 4834SOL    HW114628  -0.030   0.291   0.995  0.2334  0.4056  2.7368
 4834SOL    HW214629   0.100   0.341   0.936 -0.5819 -0.1966  0.2164
 4835SOL     OW14630   2.941   1.149   1.352 -0.1909 -0.0422  0.0633
 4835SOL    HW114631   2.883   1.166   1.278  0.4557 -0.5954 -0.5961
 4835SOL    HW214632   3.029   1.152   1.315  0.2273  0.6785  1.0153
 4836SOL     OW14633   3.538   2.335   3.014  0.4167 -0.1494  0.3539
 4836SOL    HW114634   3.572   2.248   2.996 -1.3003 -0.7505 -0.4737
 4836SOL    HW214635   3.615   2.391   3.018  1.6101 -1.6803  1.0349
 4837SOL     OW14636   2.234   4.599   0.705 -0.7371 -0.0231  0.2548
 4837SOL    HW114637   2.317   4.606   0.659 -0.5914 -1.8265  0.1169
 4837SOL    HW214638   2.248   4.644   0.788  0.0888  0.4027 -0.0973
 4838SOL     OW14639   1.250   3.683   3.962 -0.5352 -0.2831  0.3194
 4838SOL    HW114640   1.171   3.700   3.910  0.0053  1.2834 -0.0813
 4838SOL    HW214641   1.322   3.693   3.900  0.1460  1.7881  1.2691
 4839SOL     OW14642   5.805   0.970   1.636  0.2607  0.5086 -0.5289
 4839SOL    HW114643   5.864   1.039   1.667 -0.0391  0.5707 -0.0899
 4839SOL    HW214644   5.724   0.985   1.683 -0.1361  0.4582 -1.1685
 4840SOL     OW14645   0.502   5.570   2.925  0.1650  0.5862 -0.4996
 4840SOL    HW114646   0.436   5.603   2.987  0.9284  0.4433  0.4450
 4840SOL    HW214647   0.455   5.506   2.872 -0.6871  1.2124 -0.5430
 4841SOL     OW14648   4.853   3.510   0.942  0.3911  0.0655  0.5645
 4841SOL    HW114649   4.861   3.605   0.941 -1.4115  0.2875 -0.3466
 4841SOL    HW214650   4.790   3.492   1.012 -1.7719 -0.0323 -1.1827
 4842SOL     OW14651   2.034   5.702   2.469  0.5895  0.5903  0.2292
 4842SOL    HW114652   2.051   5.652   2.389  3.2435  0.8438  0.4302
 4842SOL    HW214653   2.029   5.637   2.538  0.6483  0.4473  0.1004
 4843SOL     OW14654   5.334   1.438   0.312 -0.0440  0.9185  0.0700
 4843SOL    HW114655   5.305   1.518   0.268 -0.4017  0.2223 -1.0536
 4843SOL    HW214656   5.255   1.384   0.318  0.3465  0.3310  0.0740
 4844SOL     OW14657   3.691   2.636   3.628 -0.1231  0.5527 -0.0306
 4844SOL    HW114658   3.667   2.558   3.578  0.7508 -1.3892  2.2154
 4844SOL    HW214659   3.608   2.680   3.646 -0.5322  1.0501 -2.4533
 4845SOL     OW14660   4.143   4.620   1.188  0.2029 -0.5310 -0.1851
 4845SOL    HW114661   4.105   4.593   1.272 -0.1360 -0.2250 -0.2395
 4845SOL    HW214662   4.081   4.682   1.152 -0.4108 -1.7505 -1.3727
 4846SOL     OW14663   2.129   0.808   2.117  0.2723 -0.4778  0.1379
 4846SOL    HW114664   2.131   0.737   2.182 -0.6292 -1.8431 -1.1882
 4846SOL    HW214665   2.181   0.775   2.044 -0.3199  0.1446 -0.5943
 4847SOL     OW14666   3.096   5.100   4.506  0.7833 -0.0448  0.0759
 4847SOL    HW114667   3.146   5.181   4.494 -1.0856  1.7256  2.3322
 4847SOL    HW214668   3.027   5.123   4.568  0.1853 -3.5099  1.1169
 4848SOL     OW14669   5.497   2.005   1.924  0.0352 -0.2818 -0.4007
 4848SOL    HW114670   5.410   1.986   1.887 -0.7835  4.4448 -2.3813
 4848SOL    HW214671   5.483   2.082   1.979  2.8478 -0.6053  1.1349
 4849SOL     OW14672   4.338   2.937   1.244  0.4440  0.5378  0.0470
 4849SOL    HW114673   4.383   2.857   1.217 -0.5093 -0.4330  1.1520
 4849SOL    HW214674   4.405   3.006   1.236  1.1355 -0.2096 -1.5045
 4850SOL     OW14675   5.947   1.830   2.046 -0.0064  0.3746 -0.0840
 4850SOL    HW114676   5.889   1.891   2.000 -1.8334 -0.7185  0.5749
 4850SOL    HW214677   5.993   1.783   1.977 -2.3714 -0.9502 -0.9788
 4851SOL     OW14678   1.253   5.653   0.804 -0.2653  0.0336  0.5751
 4851SOL    HW114679   1.241   5.748   0.804 -1.7031 -0.0391  2.2069
 4851SOL    HW214680   1.335   5.639   0.852  0.1758  0.4349 -0.0397
 4852SOL     OW14681   5.992   2.480   2.626 -0.2552 -0.2025 -0.8205
 4852SOL    HW114682   5.921   2.447   2.682 -1.4812  0.8809 -1.6092
 4852SOL    HW214683   5.964   2.457   2.537  0.0899  0.7233 -1.1946
 4853SOL     OW14684   1.617   2.853   3.560 -0.1772 -0.0374 -0.4719
 4853SOL    HW114685   1.662   2.936   3.548 -0.1189 -0.2145 -1.9356
 4853SOL    HW214686   1.688   2.790   3.575 -0.2676  0.2324  1.5903
 4854SOL     OW14687   5.416   3.382   1.634  0.3686  0.2682  0.2405
 4854SOL    HW114688   5.488   3.437   1.603  1.2845 -0.3150  1.1954
 4854SOL    HW214689   5.373   3.435   1.701  1.7908 -0.3538  1.8042
 4855SOL     OW14690   2.094   1.829   4.057  0.3650  0.2562  0.5390
 4855SOL    HW114691   2.020   1.874   4.098 -0.0290 -0.5856  0.8046
 4855SOL    HW214692   2.054   1.771   3.993  0.6125 -1.2329  1.6145
 4856SOL     OW14693   2.164   4.569   2.610  0.0178 -0.2295  0.0447
 4856SOL    HW114694   2.248   4.524   2.614  0.5148  0.6845  1.6106
 4856SOL    HW214695   2.103   4.509   2.653  0.5293  0.2032  1.4908
 4857SOL     OW14696   3.593   4.776   3.317  0.8542 -0.4818 -0.1286
 4857SOL    HW114697   3.611   4.783   3.223 -1.1617 -2.8056 -0.8871
 4857SOL    HW214698   3.608   4.684   3.338  0.7476 -0.1531  1.7300
 4858SOL     OW14699   1.750   1.295   4.115 -0.1254 -0.3202  0.7441
 4858SOL    HW114700   1.690   1.370   4.113  0.4260  0.1297  0.3189
 4858SOL    HW214701   1.837   1.334   4.104  0.1043 -1.1102 -0.7158
 4859SOL     OW14702   4.034   6.371   1.837 -0.0401 -0.9307  0.0928
 4859SOL    HW114703   4.006   6.282   1.818 -3.0574  0.1060 -1.6489
 4859SOL    HW214704   3.972   6.404   1.901  0.2279  0.2504 -0.1955
 4860SOL     OW14705   3.728   1.632   0.147  0.1798 -0.2802 -0.6184
 4860SOL    HW114706   3.791   1.561   0.141 -0.1460 -0.5818 -0.5664
 4860SOL    HW214707   3.694   1.642   0.058  1.0251  0.5761 -0.8780
 4861SOL     OW14708   0.598   5.815   2.915  0.0265 -0.5179  0.1138
 4861SOL    HW114709   0.574   5.725   2.938 -2.3617 -0.6267 -1.9990
 4861SOL    HW214710   0.576   5.823   2.823 -1.9050  2.7497  0.5522
 4862SOL     OW14711   4.810   1.417   0.259  0.0674  0.3435  0.4129
 4862SOL    HW114712   4.750   1.350   0.292  1.2349 -0.8721  0.2610
 4862SOL    HW214713   4.785   1.429   0.168 -1.1611  1.3694  0.8272
 4863SOL     OW14714   4.827   5.794   0.036  0.5025  0.7471  0.1905
 4863SOL    HW114715   4.889   5.778   0.108  0.4188 -0.8734 -0.0328
 4863SOL    HW214716   4.844   5.724  -0.026 -1.0302  0.7041 -0.2501
 4864SOL     OW14717   4.481   1.529   3.120  0.2931  0.1985 -0.2979
 4864SOL    HW114718   4.469   1.449   3.068  1.4173 -1.1148  1.2403
 4864SOL    HW214719   4.419   1.591   3.084  1.2153 -0.3643 -3.4523
 4865SOL     OW14720   5.835   3.157   1.429 -0.2013 -0.1775  0.1298
 4865SOL    HW114721   5.740   3.156   1.423 -0.3170  0.7565  1.2021
 4865SOL    HW214722   5.854   3.216   1.502  1.3028  4.3414 -3.0324
 4866SOL     OW14723   2.194   4.336   2.204 -0.2781 -0.5700  0.6848
 4866SOL    HW114724   2.170   4.265   2.144  1.9950 -0.5282 -0.4686
 4866SOL    HW214725   2.283   4.314   2.233  0.2865  1.4648  0.8005
 4867SOL     OW14726   3.514   4.239   0.572  0.2232  0.2892 -0.4563
 4867SOL    HW114727   3.572   4.314   0.582 -0.4627  1.2644 -2.6123
 4867SOL    HW214728   3.450   4.249   0.643  2.2832 -0.6796  1.8268
 4868SOL     OW14729   2.058   0.849   3.976 -0.0005  0.4368  0.1965
 4868SOL    HW114730   2.127   0.789   4.003  2.2376  1.3201 -2.5403
 4868SOL    HW214731   2.038   0.900   4.054  0.9100 -1.1783  1.6252
 4869SOL     OW14732   6.176   2.391   4.225 -0.3394 -0.1274 -0.3149
 4869SOL    HW114733   6.189   2.312   4.277  0.9813 -1.7165 -2.7037
 4869SOL    HW214734   6.260   2.436   4.228 -0.5741  0.3239 -0.2766
 4870SOL     OW14735   3.691   0.033   3.393 -0.4061  0.4634 -0.1584
 4870SOL    HW114736   3.764  -0.019   3.429  0.5742  0.5418 -1.8089
 4870SOL    HW214737   3.674   0.100   3.459  0.4208 -0.0951  0.6721
 4871SOL     OW14738   1.964   1.426   2.929  0.0018 -0.3230  0.1194
 4871SOL    HW114739   1.995   1.516   2.941  0.3855 -0.6112  1.5459
 4871SOL    HW214740   1.991   1.404   2.839  0.1383  0.8710 -0.1721
 4872SOL     OW14741   5.603   5.446   4.103  0.0018 -0.7329 -0.4134
 4872SOL    HW114742   5.517   5.411   4.083 -0.1922 -1.1888  0.9814
 4872SOL    HW214743   5.660   5.369   4.107  0.3078 -0.5181 -0.5467
 4873SOL     OW14744   1.001   1.360   2.978 -0.2465  1.0502  0.2063
 4873SOL    HW114745   0.929   1.369   3.041 -0.0955  2.3897  0.2518
 4873SOL    HW214746   1.020   1.266   2.977 -3.6394  0.0532 -1.7313
 4874SOL     OW14747   5.033   2.167   3.381 -0.2155  0.0638  0.2371
 4874SOL    HW114748   4.981   2.130   3.310  0.0733 -1.1864  0.6396
 4874SOL    HW214749   5.037   2.098   3.447 -0.5687  1.1974  1.5476
 4875SOL     OW14750   4.742   6.032   1.917 -0.7153  0.3082  0.1862
 4875SOL    HW114751   4.703   6.015   1.831  0.6434  1.1102 -0.6512
 4875SOL    HW214752   4.669   6.019   1.978 -1.9310  0.3905 -1.1211
 4876SOL     OW14753   1.032   3.861   2.480 -0.6815 -0.1194 -0.2943
 4876SOL    HW114754   1.054   3.795   2.546 -2.0262  0.2207  0.5684
 4876SOL    HW214755   0.988   3.812   2.411 -1.6759 -0.1682  0.3432
 4877SOL     OW14756   0.806   3.874   2.988  0.1394 -0.5984 -0.4004
 4877SOL    HW114757   0.855   3.913   2.916 -0.7959  1.3152 -0.1258
 4877SOL    HW214758   0.854   3.795   3.010  1.5686 -0.2223 -1.8132
 4878SOL     OW14759   1.573   5.208   1.706 -0.6619 -0.3160 -0.6004
 4878SOL    HW114760   1.642   5.192   1.642 -2.4443 -1.2372 -2.5372
 4878SOL    HW214761   1.507   5.259   1.658 -0.9493  1.6273  1.4807
 4879SOL     OW14762   6.085   3.033   2.531  0.1266  0.0828  0.3015
 4879SOL    HW114763   6.022   2.964   2.551  1.5050 -1.7099 -0.9632
 4879SOL    HW214764   6.116   3.013   2.443  1.9693  1.2324  0.5863
 4880SOL     OW14765   0.038   1.365   0.349  0.6952  0.2233  0.0691
 4880SOL    HW114766   0.124   1.337   0.381  0.5202  0.1313  0.4754
 4880SOL    HW214767   0.056   1.411   0.267  1.0174 -0.7597 -0.4310
 4881SOL     OW14768   0.826   1.734   3.024  0.3195 -0.0453  0.4784
 4881SOL    HW114769   0.911   1.711   2.988  0.3177  0.6582 -0.0156
 4881SOL    HW214770   0.830   1.706   3.115  0.5375 -1.3457  0.1199
 4882SOL     OW14771   4.830   4.066   2.643 -0.5403  0.5816  0.2815
 4882SOL    HW114772   4.878   4.147   2.627  1.0975 -0.4435 -0.5814
 4882SOL    HW214773   4.892   4.010   2.690 -2.0457  0.1839  2.0311
 4883SOL     OW14774   0.171   4.135   2.827 -0.0230  0.5259 -0.2611
 4883SOL    HW114775   0.260   4.112   2.854 -0.4938  0.2598  1.2151
 4883SOL    HW214776   0.120   4.135   2.908 -1.4455  0.4049 -1.0890
 4884SOL     OW14777   3.152   5.478   3.180  0.1978 -0.6136 -0.1055
 4884SOL    HW114778   3.162   5.537   3.255 -0.5282  0.4581 -0.7887
 4884SOL    HW214779   3.241   5.450   3.159  0.6242  0.4839  0.0840
 4885SOL     OW14780   4.868   3.392   3.702  0.0953 -0.0795 -0.4460
 4885SOL    HW114781   4.798   3.336   3.736 -1.2107  1.3629 -0.5285
 4885SOL    HW214782   4.890   3.355   3.617 -1.1032 -0.2128 -0.7344
 4886SOL     OW14783   5.390   3.201   0.223  1.0261  0.7353  0.3205
 4886SOL    HW114784   5.421   3.265   0.158  1.0677  0.8502  0.4513
 4886SOL    HW214785   5.295   3.209   0.220  1.0497  1.3990  0.9167
 4887SOL     OW14786   1.983   2.208   0.899  0.3538  0.7029 -0.1895
 4887SOL    HW114787   1.993   2.241   0.989 -0.8222 -0.0322  0.2604
 4887SOL    HW214788   1.891   2.181   0.894 -0.0598  2.0593 -2.0896
 4888SOL     OW14789   1.678   5.829   3.663  0.5848 -0.0995 -0.5172
 4888SOL    HW114790   1.586   5.805   3.652  0.0595 -0.3471  2.6172
 4888SOL    HW214791   1.675   5.907   3.718  2.1344 -0.9821  1.0016
 4889SOL     OW14792   3.749   6.358   4.154 -0.0318  0.3965  0.0688
 4889SOL    HW114793   3.778   6.279   4.199 -0.3135  1.2639  1.9582
 4889SOL    HW214794   3.791   6.430   4.202 -1.2340  1.4560 -0.3618
 4890SOL     OW14795   3.681   5.046   4.105 -0.2445  0.6529  0.0807
 4890SOL    HW114796   3.721   4.959   4.100 -1.7274 -0.0798  0.0063
 4890SOL    HW214797   3.751   5.102   4.139  0.5964 -0.6694  0.7023
 4891SOL     OW14798   4.098   3.047   0.801 -0.1642  0.2257  0.6703
 4891SOL    HW114799   4.052   3.102   0.865 -1.2903  2.1669 -1.5247
 4891SOL    HW214800   4.165   3.105   0.764  0.2241 -0.6981 -0.1552
 4892SOL     OW14801   2.957   0.085   2.492  0.2204  0.3173  0.2175
 4892SOL    HW114802   2.907   0.094   2.410  0.0155  2.4706  0.4405
 4892SOL    HW214803   3.042   0.124   2.472  1.3857 -1.8656  0.3012
 4893SOL     OW14804   3.621   5.308   3.246  0.0965 -0.3641 -0.2852
 4893SOL    HW114805   3.607   5.235   3.306 -1.0390 -0.2085 -0.3213
 4893SOL    HW214806   3.667   5.269   3.171  3.3255 -0.2512  1.2938
 4894SOL     OW14807   3.443   3.179   0.474 -0.1905  0.0689 -0.6463
 4894SOL    HW114808   3.525   3.203   0.430 -0.8826  0.4304 -1.8425
 4894SOL    HW214809   3.461   3.095   0.517  0.3264 -0.8137 -2.4230
 4895SOL     OW14810   3.534   5.506   3.705 -0.1977  0.1440 -0.0774
 4895SOL    HW114811   3.471   5.446   3.745  1.0738 -0.5891  1.0091
 4895SOL    HW214812   3.537   5.480   3.613 -1.7917  0.5672 -0.3181
 4896SOL     OW14813   2.922   5.327   2.679 -0.5271  0.2793  0.2883
 4896SOL    HW114814   2.990   5.393   2.681  0.3252 -0.5596  1.0895
 4896SOL    HW214815   2.898   5.314   2.771 -1.6593  0.4208  0.0448
 4897SOL     OW14816   1.078   3.867   4.421  0.0405 -0.2527 -0.3175
 4897SOL    HW114817   1.037   3.935   4.367  0.4501 -0.3795 -0.8019
 4897SOL    HW214818   1.016   3.794   4.418 -0.5700  0.1972  0.4920
 4898SOL     OW14819   1.276   3.937   3.111  0.2091  0.1634  0.3216
 4898SOL    HW114820   1.356   3.885   3.112  0.0655 -0.1167  1.6355
 4898SOL    HW214821   1.304   4.025   3.138  0.1377  0.1847  0.3287
 4899SOL     OW14822   6.202   0.901   0.019  0.0175  0.7736 -0.0699
 4899SOL    HW114823   6.172   0.864   0.102  0.0515  0.0929 -0.3482
 4899SOL    HW214824   6.174   0.992   0.023  0.0013  0.7559  0.6799
 4900SOL     OW14825   5.088   1.302   0.271  0.1487 -0.0026 -0.1407
 4900SOL    HW114826   5.075   1.211   0.296 -0.5016  0.0886 -0.1267
 4900SOL    HW214827   5.003   1.344   0.283  0.4515  0.6282 -0.0714
 4901SOL     OW14828   6.225   5.382   3.891 -0.0962  0.1388  0.1060
 4901SOL    HW114829   6.308   5.351   3.927 -0.8164 -1.9447  0.2691
 4901SOL    HW214830   6.199   5.455   3.947  1.4979  0.7730  0.1278
 4902SOL     OW14831   3.354   2.401   1.634 -0.1468  0.6095  0.1050
 4902SOL    HW114832   3.345   2.321   1.581 -0.0498  2.0194 -2.3804
 4902SOL    HW214833   3.264   2.425   1.656 -0.3704  0.7902 -0.9058
 4903SOL     OW14834   3.366   4.521   0.952  0.5825 -0.7850  0.1716
 4903SOL    HW114835   3.437   4.482   1.002  2.4400 -0.8881 -2.2308
 4903SOL    HW214836   3.295   4.531   1.016  3.0607  0.6015  3.2189
 4904SOL     OW14837   0.790   2.976   0.050 -0.5613 -0.0873  0.0593
 4904SOL    HW114838   0.788   3.071   0.054  1.1799  0.0033  0.8693
 4904SOL    HW214839   0.883   2.955   0.044 -0.8536 -1.7604  0.4390
 4905SOL     OW14840   2.852   1.424   2.703  0.0816  0.7706  0.2081
 4905SOL    HW114841   2.804   1.346   2.731  1.1289 -0.2410 -0.6175
 4905SOL    HW214842   2.904   1.448   2.779  1.7217 -1.0026 -0.1993
 4906SOL     OW14843   4.181   5.757   2.941  0.7927 -0.4553 -0.6268
 4906SOL    HW114844   4.106   5.743   3.000  0.8514  2.1188  0.2909
 4906SOL    HW214845   4.161   5.702   2.865 -0.9142 -1.5293  0.4382
 4907SOL     OW14846   4.911   1.442   2.201  0.0276  0.1399 -0.2911
 4907SOL    HW114847   4.929   1.447   2.295  0.1142 -4.1501  0.3441
 4907SOL    HW214848   4.991   1.475   2.160  1.0746 -0.0726  1.3646
 4908SOL     OW14849   1.140   1.495   1.017  0.1069 -0.1840 -0.3549
 4908SOL    HW114850   1.088   1.569   1.047  0.9254  0.1700  0.2571
 4908SOL    HW214851   1.085   1.451   0.952  0.1822  1.8700 -1.9935
 4909SOL     OW14852   1.202   1.063   0.218  0.6028 -0.3061  0.6237
 4909SOL    HW114853   1.241   1.144   0.250 -1.1462  0.9054 -0.0134
 4909SOL    HW214854   1.145   1.091   0.146  0.5749 -2.2433 -0.2179
 4910SOL     OW14855   1.190   4.114   2.878 -0.0267 -0.0306  0.3726
 4910SOL    HW114856   1.219   4.044   2.936  1.8814  1.0977  0.9761
 4910SOL    HW214857   1.143   4.175   2.936  0.5327  0.3561  0.4400
 4911SOL     OW14858   6.110   3.991   0.434 -0.3378  0.4077  0.0311
 4911SOL    HW114859   6.022   3.995   0.396 -0.7308 -0.0037  0.8585
 4911SOL    HW214860   6.123   4.075   0.477  0.1911  0.9595 -1.1060
 4912SOL     OW14861   4.186   3.881   1.824 -0.2367  0.4819 -0.0711
 4912SOL    HW114862   4.156   3.877   1.915 -0.3277 -2.1626 -0.0684
 4912SOL    HW214863   4.113   3.848   1.772  0.2800  0.6275 -0.9439
 4913SOL     OW14864   0.437   6.408   1.766  0.5810 -0.6923  0.2570
 4913SOL    HW114865   0.477   6.360   1.838  1.2845 -0.5542 -0.0289
 4913SOL    HW214866   0.398   6.485   1.807  3.2687  0.8793  0.3042
 4914SOL     OW14867   4.879   4.028   3.435  0.0595  0.3175  0.3267
 4914SOL    HW114868   4.842   3.974   3.365 -2.1876  1.0402  0.7929
 4914SOL    HW214869   4.855   4.117   3.411 -1.6524  0.5410  2.3179
 4915SOL     OW14870   5.954   1.828   3.818 -0.1294 -0.4112  0.1741
 4915SOL    HW114871   5.983   1.919   3.809  0.4395 -0.4816  1.0725
 4915SOL    HW214872   5.858   1.832   3.811 -0.0654 -0.0137 -1.6449
 4916SOL     OW14873   1.392   0.603   0.316 -0.5367 -0.1454 -0.0838
 4916SOL    HW114874   1.427   0.657   0.387 -0.9161  0.8215 -0.5976
 4916SOL    HW214875   1.386   0.515   0.353  1.1625 -0.1097  0.4482
 4917SOL     OW14876   1.453   3.325   1.834  0.2560  0.8320 -0.1187
 4917SOL    HW114877   1.458   3.400   1.774  0.7208  0.1195 -1.0202
 4917SOL    HW214878   1.513   3.260   1.796  0.0887  0.1080  0.7906
 4918SOL     OW14879   0.206   1.113   4.275  0.2544 -0.0039 -0.4221
 4918SOL    HW114880   0.172   1.025   4.257 -0.3387  0.4320 -1.6413
 4918SOL    HW214881   0.212   1.117   4.370 -2.8856 -0.3013  0.0116
 4919SOL     OW14882   4.907   3.141   4.448 -0.8152 -0.0846 -0.9698
 4919SOL    HW114883   4.871   3.053   4.452 -0.9189 -0.0272  0.1289
 4919SOL    HW214884   4.932   3.161   4.539  0.2864  0.5748 -1.3756
 4920SOL     OW14885   0.326   4.221   1.070 -0.0741  0.1427 -0.1574
 4920SOL    HW114886   0.240   4.259   1.089  0.0121  0.9064 -1.1440
 4920SOL    HW214887   0.363   4.277   1.003  2.0901  1.1180  1.5762
 4921SOL     OW14888   0.784   4.206   4.341  0.1374  0.0293 -0.5942
 4921SOL    HW114889   0.830   4.188   4.424  0.2967 -0.0029 -0.6879
 4921SOL    HW214890   0.693   4.186   4.360  0.3427 -1.3657 -0.8074
 4922SOL     OW14891   5.022   5.403   3.623  0.1375 -0.5063  0.6784
 4922SOL    HW114892   5.054   5.400   3.533  0.3006 -0.2018  0.7263
 4922SOL    HW214893   5.100   5.390   3.677  0.4744  1.6182  0.8421
 4923SOL     OW14894   0.354   4.617   0.710 -0.5828  0.4611  0.0226
 4923SOL    HW114895   0.311   4.612   0.625  1.2524  1.2671 -1.0658
 4923SOL    HW214896   0.377   4.709   0.720  2.5851 -0.0273 -0.5909
 4924SOL     OW14897   2.228   4.945   1.152 -0.1544  0.2781  0.0842
 4924SOL    HW114898   2.208   4.990   1.070  4.5710 -0.4757 -2.2314
 4924SOL    HW214899   2.305   4.991   1.186 -0.1225 -1.2099  2.5384
 4925SOL     OW14900   0.858   2.695   2.370 -0.1600 -0.0627 -0.0693
 4925SOL    HW114901   0.783   2.734   2.416 -1.5214  0.2433 -2.2506
 4925SOL    HW214902   0.922   2.765   2.363 -0.4894  0.2721  0.1954
 4926SOL     OW14903   4.627   2.012   2.642  0.3079  0.1779 -0.1132
 4926SOL    HW114904   4.643   1.957   2.565 -1.4180  1.2141 -1.3860
 4926SOL    HW214905   4.604   1.950   2.711  3.0263 -0.8845  0.0701
 4927SOL     OW14906   4.606   1.406   0.625 -0.3255 -0.9616 -0.5405
 4927SOL    HW114907   4.695   1.374   0.637 -0.0403 -0.0660 -0.0470
 4927SOL    HW214908   4.551   1.342   0.670  0.0041 -1.7736 -1.2386
 4928SOL     OW14909   1.470   1.071   0.740 -0.0996 -0.2292  0.1099
 4928SOL    HW114910   1.528   1.035   0.807  1.3726  0.0373 -0.9157
 4928SOL    HW214911   1.504   1.036   0.658 -0.4618  1.1151 -0.6835
 4929SOL     OW14912   6.284   4.978   2.016 -0.0656 -0.3951  0.0807
 4929SOL    HW114913   6.252   4.996   1.928  1.1393 -0.8426 -0.5054
 4929SOL    HW214914   6.369   4.935   2.002  0.5046  0.1479  1.4688
 4930SOL     OW14915   5.783   0.493   3.147  0.6748 -0.1566  0.4736
 4930SOL    HW114916   5.760   0.505   3.239 -0.3984 -2.2796  0.6031
 4930SOL    HW214917   5.700   0.469   3.105  1.4806 -1.4104 -0.5483
 4931SOL     OW14918   4.165   0.462   3.336  0.3518  0.2588 -0.0208
 4931SOL    HW114919   4.240   0.454   3.278 -1.4743 -0.5618 -2.6623
 4931SOL    HW214920   4.111   0.530   3.296 -1.3812 -0.8412  0.2512
 4932SOL     OW14921   2.106   0.069   3.277 -0.1035  0.7449  0.3898
 4932SOL    HW114922   2.075   0.100   3.361  0.3551  1.9146  0.1585
 4932SOL    HW214923   2.086   0.139   3.215  0.9077  0.5745 -0.1895
 4933SOL     OW14924   0.389   1.772   0.813 -0.2758 -0.3767  0.1729
 4933SOL    HW114925   0.370   1.711   0.884  0.8177  0.2390  1.0393
 4933SOL    HW214926   0.484   1.780   0.813 -0.3734  1.6282  0.3887
 4934SOL     OW14927   3.376   1.765   2.001  0.4019 -0.1636 -0.0406
 4934SOL    HW114928   3.325   1.777   1.921  0.4888  0.2527 -0.0394
 4934SOL    HW214929   3.465   1.749   1.971  1.3162  3.3943 -0.1667
 4935SOL     OW14930   6.412   4.412   0.602 -0.5860  0.0538 -0.3885
 4935SOL    HW114931   6.408   4.327   0.645 -0.2163 -0.1330 -0.7185
 4935SOL    HW214932   6.458   4.396   0.520  0.4137  0.7499 -0.0064
 4936SOL     OW14933   3.451   5.101   3.637  0.7996  0.3213  0.2990
 4936SOL    HW114934   3.370   5.074   3.680  0.5001 -0.1360 -0.5126
 4936SOL    HW214935   3.426   5.178   3.585  0.6126 -0.4238 -0.7626
 4937SOL     OW14936   3.045   4.202   0.551 -0.8855 -0.0647 -0.2089
 4937SOL    HW114937   3.099   4.141   0.601 -0.8717 -0.2928 -0.4969
 4937SOL    HW214938   3.092   4.215   0.468 -0.8793  0.3502 -0.1469
 4938SOL     OW14939   5.652   1.185   3.918 -0.0082  0.0538 -0.1395
 4938SOL    HW114940   5.713   1.156   3.986  0.0682  1.2185  0.3244
 4938SOL    HW214941   5.566   1.153   3.948  0.3214 -1.9553 -1.0013
 4939SOL     OW14942   1.560   3.559   3.126 -0.3712  0.0955  0.2038
 4939SOL    HW114943   1.537   3.626   3.191  0.4018  0.7755 -0.1742
 4939SOL    HW214944   1.501   3.577   3.053 -1.3208 -0.7433  0.7194
 4940SOL     OW14945   1.547   0.640   4.390 -0.3583  0.0216 -0.1414
 4940SOL    HW114946   1.592   0.564   4.352  2.5438  0.4975  1.7420
 4940SOL    HW214947   1.553   0.708   4.323 -1.4562 -0.8314 -1.1958
 4941SOL     OW14948   5.711   6.242   1.306 -0.2089  0.2938 -0.2605
 4941SOL    HW114949   5.638   6.190   1.341 -0.0075  0.6727  0.7982
 4941SOL    HW214950   5.746   6.288   1.382 -0.8128  2.5785 -1.1861
 4942SOL     OW14951   0.842   6.399   2.870 -0.0473 -0.2807 -0.0668
 4942SOL    HW114952   0.929   6.434   2.889  0.6964 -1.9302 -0.1518
 4942SOL    HW214953   0.786   6.438   2.938  0.4671  1.5891 -0.5812
 4943SOL     OW14954   5.119   1.874   0.852  0.4330  0.1205  0.2529
 4943SOL    HW114955   5.036   1.914   0.876  0.8284  1.1871 -0.0146
 4943SOL    HW214956   5.168   1.868   0.934  1.2427  2.4403  0.1004
 4944SOL     OW14957   6.157   2.893   2.313  0.2168 -0.2227 -0.4663
 4944SOL    HW114958   6.221   2.822   2.313  1.7432  0.9829  1.0992
 4944SOL    HW214959   6.173   2.939   2.231 -0.3039 -1.1821 -1.1586
 4945SOL     OW14960   0.924   0.700   0.223  0.0061 -0.3500  0.2675
 4945SOL    HW114961   0.991   0.635   0.199 -0.2221 -0.1348 -1.1445
 4945SOL    HW214962   0.860   0.650   0.273 -0.0153 -1.1763 -0.5181
 4946SOL     OW14963   2.645   2.415   0.657 -0.2605 -0.2746 -0.0249
 4946SOL    HW114964   2.692   2.349   0.708 -0.5720 -0.2752  0.2683
 4946SOL    HW214965   2.692   2.497   0.675 -0.0932 -0.3527 -0.1024
 4947SOL     OW14966   3.364   4.110   4.003  0.5306  0.2145 -0.0236
 4947SOL    HW114967   3.273   4.096   4.030  1.3498 -1.3142  2.6394
 4947SOL    HW214968   3.377   4.048   3.931  0.3017 -2.8821  2.2279
 4948SOL     OW14969   4.104   5.542   1.657  0.4396 -0.0596 -0.1245
 4948SOL    HW114970   4.068   5.528   1.569  2.3390  3.4356 -1.9142
 4948SOL    HW214971   4.038   5.594   1.702  0.5997  0.8685 -0.8798
 4949SOL     OW14972   0.061   1.883   4.136  0.0989  0.1542 -0.4697
 4949SOL    HW114973   0.024   1.846   4.055  1.0668  0.4702 -1.0902
 4949SOL    HW214974   0.116   1.813   4.170 -1.9908 -0.8916  1.2537
 4950SOL     OW14975   3.105   5.085   1.608  0.4785 -0.3291  0.7504
 4950SOL    HW114976   3.189   5.090   1.562 -0.3628 -0.0220 -0.9161
 4950SOL    HW214977   3.075   5.176   1.614 -0.2059 -0.5099  0.3044
 4951SOL     OW14978   4.298   2.500   3.242  0.0919  0.4940  0.3544
 4951SOL    HW114979   4.262   2.579   3.283 -0.4916  0.7181 -0.5395
 4951SOL    HW214980   4.226   2.437   3.245  0.3814  0.1656  0.5815
 4952SOL     OW14981   5.854   0.969   3.736  0.6030  0.0447  0.0095
 4952SOL    HW114982   5.901   0.931   3.661  1.5896 -0.7943  0.9734
 4952SOL    HW214983   5.776   1.009   3.698 -0.3979 -2.6276 -1.2473
 4953SOL     OW14984   4.654   5.484   0.992 -0.5218 -0.1611  0.4578
 4953SOL    HW114985   4.583   5.430   1.026 -0.6213 -0.5747 -0.3593
 4953SOL    HW214986   4.703   5.512   1.070  1.3614 -3.8214  1.0335
 4954SOL     OW14987   1.390   4.120   1.502 -0.5929 -0.0549 -0.2238
 4954SOL    HW114988   1.431   4.033   1.503  0.3530  0.3670 -0.1139
 4954SOL    HW214989   1.296   4.102   1.496 -0.3928 -1.0746 -0.8022
 4955SOL     OW14990   4.013   5.256   0.714 -0.0681  0.0986 -0.4639
 4955SOL    HW114991   3.957   5.311   0.660 -1.9400  0.1799  1.3350
 4955SOL    HW214992   4.047   5.190   0.654 -0.1096  1.4403 -2.1148
 4956SOL     OW14993   4.760   0.122   0.774 -0.6604  0.4595 -0.4833
 4956SOL    HW114994   4.673   0.084   0.787 -0.5360 -0.1021 -1.1389
 4956SOL    HW214995   4.773   0.179   0.849 -1.6578  0.6765 -0.4491
 4957SOL     OW14996   1.687   3.241   2.668 -0.0553 -0.0510 -0.1587
 4957SOL    HW114997   1.730   3.241   2.754 -0.1165 -0.2375 -0.1281
 4957SOL    HW214998   1.650   3.153   2.659 -1.2779  0.3738  0.2395
 4958SOL     OW14999   0.645   0.029   2.316 -0.5975  0.2673 -0.0406
 4958SOL    HW115000   0.693  -0.054   2.314 -1.7677 -0.5730  1.6198
 4958SOL    HW215001   0.611   0.034   2.406 -1.3233  2.1390 -0.3329
 4959SOL     OW15002   5.342   2.653   2.937  0.0292  0.0269  0.5063
 4959SOL    HW115003   5.303   2.647   2.850 -0.9208  0.1508  0.8984
 4959SOL    HW215004   5.267   2.660   2.996  0.6485  1.6828  1.2153
 4960SOL     OW15005   4.752   4.973   1.516 -0.1114  0.2830  0.5875
 4960SOL    HW115006   4.807   4.998   1.591  0.4925 -1.5014  0.8214
 4960SOL    HW215007   4.800   4.902   1.474 -1.9593 -1.0195  0.4663
 4961SOL     OW15008   2.189   0.260   1.684  0.0768  0.0082  0.0122
 4961SOL    HW115009   2.256   0.312   1.729  0.8975 -1.1466  0.1880
 4961SOL    HW215010   2.158   0.198   1.750  0.2062 -0.7121 -0.5839
 4962SOL     OW15011   3.726   0.853   3.065 -0.2269  0.3022 -0.7877
 4962SOL    HW115012   3.756   0.910   3.135 -0.2497 -0.4323 -0.1565
 4962SOL    HW215013   3.734   0.906   2.986 -1.2473  1.5490 -0.1248
 4963SOL     OW15014   1.665   2.030   0.627 -0.3240 -0.0634  0.0554
 4963SOL    HW115015   1.652   1.973   0.702  0.4632  0.5759  0.7230
 4963SOL    HW215016   1.588   2.087   0.627 -0.8001 -0.6909 -0.2308
 4964SOL     OW15017   0.753   2.356   3.959  0.6761  0.4467  0.5562
 4964SOL    HW115018   0.774   2.302   4.035 -1.2642 -2.2010 -0.5065
 4964SOL    HW215019   0.829   2.414   3.950  1.9597 -0.4689  3.2258
 4965SOL     OW15020   0.204   2.620   3.349  0.1368  0.3020  0.8429
 4965SOL    HW115021   0.292   2.605   3.386 -0.0188 -0.0002  1.1042
 4965SOL    HW215022   0.188   2.713   3.363  0.4215  0.3631  0.7826
 4966SOL     OW15023   5.541   5.431   3.737 -0.6761 -0.1584 -0.0944
 4966SOL    HW115024   5.546   5.516   3.695  1.2149  0.1649  0.5671
 4966SOL    HW215025   5.537   5.450   3.831  0.9069 -0.6747  0.1504
 4967SOL     OW15026   3.139   2.289   3.638 -0.1534  0.0939  0.7119
 4967SOL    HW115027   3.169   2.249   3.557  0.3099 -1.2076  1.4716
 4967SOL    HW215028   3.078   2.226   3.675 -0.3005  0.6216  1.4165
 4968SOL     OW15029   5.133   4.482   1.623 -0.4260 -0.4326 -0.1169
 4968SOL    HW115030   5.057   4.424   1.617  0.1237 -1.1394 -0.7664
 4968SOL    HW215031   5.209   4.423   1.617  0.1685  0.3535 -1.2349
 4969SOL     OW15032   5.211   1.199   3.164  0.2110  0.0402 -0.7663
 4969SOL    HW115033   5.143   1.133   3.176  0.5171 -0.2529 -0.6231
 4969SOL    HW215034   5.292   1.156   3.191  0.2995  0.7399  0.2058
 4970SOL     OW15035   0.059   3.164   3.330  0.1125 -0.2734 -0.1160
 4970SOL    HW115036  -0.026   3.154   3.373  0.2822  1.1379  0.6697
 4970SOL    HW215037   0.121   3.174   3.402  0.8860 -0.7290 -0.6878
 4971SOL     OW15038   0.079   1.659   0.819  0.5231 -0.2260  0.4452
 4971SOL    HW115039   0.109   1.569   0.807 -0.2720 -0.3591 -1.1357
 4971SOL    HW215040   0.098   1.702   0.735 -0.5192  0.6119  0.5922
 4972SOL     OW15041   0.809   2.359   2.889 -0.6358  0.3566  0.1312
 4972SOL    HW115042   0.721   2.342   2.922 -0.6164 -0.5359 -0.1947
 4972SOL    HW215043   0.862   2.375   2.967 -1.0426  0.6980  0.3444
 4973SOL     OW15044   0.504   0.152   3.646  0.1612  0.0884 -0.0721
 4973SOL    HW115045   0.545   0.161   3.732  0.2433  1.0286 -0.1857
 4973SOL    HW215046   0.418   0.115   3.664 -0.4260  1.6366  0.6246
 4974SOL     OW15047   0.431   5.481   1.889 -0.6905  0.0804 -0.2977
 4974SOL    HW115048   0.375   5.458   1.963  1.3384 -0.9849  1.0882
 4974SOL    HW215049   0.486   5.404   1.875  0.4132  0.9982 -1.5402
 4975SOL     OW15050   2.447   5.299   3.856  0.3302 -0.0896 -0.3319
 4975SOL    HW115051   2.433   5.231   3.790 -1.2958  0.1564 -0.2993
 4975SOL    HW215052   2.394   5.373   3.827  0.7898  0.5922  0.4768
 4976SOL     OW15053   3.025   1.699   4.198  0.0953  0.1679 -0.0943
 4976SOL    HW115054   3.020   1.630   4.265  1.5253  1.4878  1.5693
 4976SOL    HW215055   2.953   1.679   4.138 -1.6448 -0.9538  2.0550
 4977SOL     OW15056   3.601   1.643   1.792 -0.3881 -0.4104  0.2020
 4977SOL    HW115057   3.651   1.714   1.752  0.1393 -0.8079  0.1388
 4977SOL    HW215058   3.592   1.578   1.722  1.1612 -1.4365  0.8597
 4978SOL     OW15059   0.492   0.944   1.688 -0.0304  0.0034  0.5111
 4978SOL    HW115060   0.564   0.881   1.700 -0.9671 -1.1167  0.6756
 4978SOL    HW215061   0.478   0.980   1.775  0.8884  0.9387  0.3103
 4979SOL     OW15062   2.279   2.230   0.677 -0.2997  0.0061  0.2105
 4979SOL    HW115063   2.296   2.289   0.751 -0.8947  1.6817 -0.8720
 4979SOL    HW215064   2.214   2.276   0.625  0.4374 -0.8405 -1.6118
 4980SOL     OW15065   3.267   5.944   2.770 -0.2322  0.2401  0.1926
 4980SOL    HW115066   3.217   5.919   2.848 -0.1939  1.6243  0.7157
 4980SOL    HW215067   3.213   6.011   2.727  0.1435  0.1153 -0.5037
 4981SOL     OW15068   6.260   3.138   0.401  0.0169 -0.9341 -0.6350
 4981SOL    HW115069   6.194   3.197   0.437  1.6001  1.1707 -0.7543
 4981SOL    HW215070   6.314   3.113   0.476  2.1864  1.9256 -0.9026
 4982SOL     OW15071   3.749   2.928   0.692 -0.5541  0.0300  0.5506
 4982SOL    HW115072   3.768   3.002   0.635 -2.0548  1.5601  1.8147
 4982SOL    HW215073   3.833   2.881   0.699  0.1339  0.7514 -1.3805
 4983SOL     OW15074   3.493   3.662   1.631 -0.3912 -0.2510  0.1535
 4983SOL    HW115075   3.403   3.687   1.611 -0.1104  0.0783 -0.7829
 4983SOL    HW215076   3.499   3.571   1.603  0.1680  0.3681 -2.1160
 4984SOL     OW15077   0.765   2.347   2.077  0.4216 -0.4606 -0.5618
 4984SOL    HW115078   0.693   2.361   2.138 -0.8898 -2.3974 -1.4852
 4984SOL    HW215079   0.790   2.436   2.049  0.2768  0.4379  1.7315
 4985SOL     OW15080   1.536   1.066   2.853  0.1027  0.5648 -0.3050
 4985SOL    HW115081   1.556   0.988   2.904  0.2084  1.1711  0.6443
 4985SOL    HW215082   1.447   1.089   2.879  1.0284  2.4640  1.9819
 4986SOL     OW15083   4.569   5.355   3.491 -0.2166 -0.5092  0.3783
 4986SOL    HW115084   4.594   5.294   3.421  1.4849  1.0682 -0.5646
 4986SOL    HW215085   4.477   5.375   3.472 -0.6042 -2.1020  0.2703
 4987SOL     OW15086   4.753   1.314   2.776 -0.8477  0.2647  0.5731
 4987SOL    HW115087   4.715   1.376   2.714 -0.5523  0.3496  0.4724
 4987SOL    HW215088   4.799   1.370   2.840  0.4607  0.1381 -0.1936
 4988SOL     OW15089   4.986   2.387   3.139  0.3731 -0.3190  0.2602
 4988SOL    HW115090   5.066   2.436   3.156 -0.4699  0.7274  1.5987
 4988SOL    HW215091   4.979   2.325   3.212  0.6850 -1.5053 -0.6530
 4989SOL     OW15092   5.328   4.725   0.996  0.4460 -0.3527 -0.1070
 4989SOL    HW115093   5.398   4.791   0.993 -0.0299  0.2072  0.4182
 4989SOL    HW215094   5.367   4.647   0.959  0.4943  0.7009 -2.7014
 4990SOL     OW15095   3.543   5.766   1.224  0.2200  0.0698 -0.1375
 4990SOL    HW115096   3.630   5.805   1.233  0.2262 -0.1778  1.1621
 4990SOL    HW215097   3.537   5.702   1.295 -0.7987 -0.3768 -0.5772
 4991SOL     OW15098   2.927   2.998   1.226 -0.1456 -0.5057 -0.0966
 4991SOL    HW115099   2.935   3.046   1.144 -0.8725 -0.6432 -0.2591
 4991SOL    HW215100   2.838   2.963   1.225 -0.9478  1.1270  1.6193
 4992SOL     OW15101   5.996   5.615   1.234  0.0528 -0.3924  0.1637
 4992SOL    HW115102   6.032   5.564   1.161  0.7104  0.4325 -0.1200
 4992SOL    HW215103   6.073   5.641   1.285  0.0955  2.1428 -0.9168
 4993SOL     OW15104   4.093   3.937   0.558 -0.0053 -0.2734 -0.1166
 4993SOL    HW115105   4.187   3.917   0.554  0.0837 -0.5943  1.7138
 4993SOL    HW215106   4.076   3.954   0.651 -1.4961  1.3273 -0.5759
 4994SOL     OW15107   3.775   3.537   4.441 -0.1025 -0.1854  0.0169
 4994SOL    HW115108   3.843   3.599   4.469 -0.7636  0.4074  0.3583
 4994SOL    HW215109   3.815   3.451   4.454  1.3649  0.1142 -1.7594
 4995SOL     OW15110   0.863   0.985   0.831  0.0264  0.4052  0.3535
 4995SOL    HW115111   0.811   1.014   0.755 -0.3825 -0.9814  0.0426
 4995SOL    HW215112   0.798   0.943   0.889  0.4933  0.5343  0.9840
 4996SOL     OW15113   2.703   2.102   0.295  0.0714  0.1931  0.1270
 4996SOL    HW115114   2.768   2.038   0.265  0.5670  0.7177  0.0507
 4996SOL    HW215115   2.655   2.056   0.364  1.0352  0.0162  0.7327
 4997SOL     OW15116   4.213   0.016   0.986 -0.0888 -0.6692  0.0723
 4997SOL    HW115117   4.210  -0.055   0.922  0.1780 -0.4663 -0.1747
 4997SOL    HW215118   4.124   0.021   1.021 -0.0055 -1.4124  0.4262
 4998SOL     OW15119   4.520   5.745   0.954  0.1485 -0.4759 -0.6191
 4998SOL    HW115120   4.563   5.666   0.987 -0.6317 -0.8300 -0.4022
 4998SOL    HW215121   4.535   5.742   0.859  1.8122  0.1826 -0.4466
 4999SOL     OW15122   0.563   1.654   3.065 -0.0917  0.3833 -0.1751
 4999SOL    HW115123   0.647   1.696   3.047 -0.0549  0.3362 -0.1153
 4999SOL    HW215124   0.508   1.724   3.100  0.4346  0.0878  1.3870
 5000SOL     OW15125   4.859   1.864   2.942  0.3917  0.0569  0.5360
 5000SOL    HW115126   4.792   1.819   2.994  1.0673 -1.7509 -0.0135
 5000SOL    HW215127   4.933   1.875   3.002 -0.3381  2.3031  1.2268
 5001SOL     OW15128   1.678   5.384   4.280 -0.0359 -0.2551  0.7861
 5001SOL    HW115129   1.644   5.468   4.249 -1.1164 -0.6994  0.6568
 5001SOL    HW215130   1.600   5.333   4.301  0.5252 -1.5543 -0.0073
 5002SOL     OW15131   2.255   1.532   3.681 -0.4087  0.0607  0.2677
 5002SOL    HW115132   2.261   1.447   3.637 -0.5319  1.3844 -2.8576
 5002SOL    HW215133   2.178   1.573   3.642 -0.0985  1.7716  1.2854
 5003SOL     OW15134   1.097   1.511   2.539  0.1591 -0.2177  0.1410
 5003SOL    HW115135   1.053   1.507   2.454 -0.7790 -0.6070  0.6095
 5003SOL    HW215136   1.127   1.422   2.555 -0.4013 -0.3455  0.5565
 5004SOL     OW15137   0.911   3.253   3.462 -0.2181  1.1262 -0.0044
 5004SOL    HW115138   0.927   3.314   3.534 -0.4686  0.5323  0.5792
 5004SOL    HW215139   0.982   3.189   3.468  0.3342  1.5998 -0.9234
 5005SOL     OW15140   2.009   5.277   2.141 -0.5658  0.3944  0.1740
 5005SOL    HW115141   2.047   5.274   2.053  0.0214  1.0480  0.3849
 5005SOL    HW215142   2.010   5.187   2.171  1.4481  0.4111  0.4034
 5006SOL     OW15143   5.261   2.751   1.497 -0.4154 -0.1678  0.3506
 5006SOL    HW115144   5.204   2.725   1.426  1.1918 -1.3610 -0.6514
 5006SOL    HW215145   5.231   2.700   1.573 -1.0262 -0.2907  0.0335
 5007SOL     OW15146   5.285   1.210   1.302 -0.3625  0.0725 -0.1804
 5007SOL    HW115147   5.249   1.123   1.283 -0.1073 -0.1464  0.2978
 5007SOL    HW215148   5.220   1.271   1.268 -1.2751 -0.3076  0.7584
 5008SOL     OW15149   4.009   0.605   0.845 -0.0146 -0.0406 -0.1094
 5008SOL    HW115150   4.066   0.670   0.804  0.3936  1.4406  2.4049
 5008SOL    HW215151   4.066   0.558   0.905 -0.8945 -0.6716  0.2710
 5009SOL     OW15152   0.824   5.859   3.077 -0.1977 -0.1970 -0.0149
 5009SOL    HW115153   0.748   5.834   3.025  0.4146 -1.9703 -0.2161
 5009SOL    HW215154   0.865   5.931   3.029 -0.7357 -0.4622 -0.9100
 5010SOL     OW15155   3.597   5.623   1.000  0.0426  0.2789 -0.1077
 5010SOL    HW115156   3.584   5.684   1.072 -0.9521 -0.0171 -0.0080
 5010SOL    HW215157   3.627   5.542   1.041  1.0264  0.5669 -0.2072
 5011SOL     OW15158   1.684   0.423   0.574 -0.4472 -0.0449 -0.7066
 5011SOL    HW115159   1.736   0.485   0.522 -0.9645 -0.3549 -1.6485
 5011SOL    HW215160   1.694   0.340   0.528 -1.3740 -0.2159 -0.6276
 5012SOL     OW15161   6.363   0.926   2.106 -0.1297 -0.5086 -0.4688
 5012SOL    HW115162   6.326   0.847   2.144  0.9070 -1.6536 -1.6392
 5012SOL    HW215163   6.452   0.930   2.141 -0.5569  0.9889  0.6453
 5013SOL     OW15164   3.352   5.846   3.536  0.2804  0.3618  0.3507
 5013SOL    HW115165   3.282   5.805   3.587 -0.9664 -1.2138 -2.1985
 5013SOL    HW215166   3.333   5.939   3.540 -0.4523  0.2050  1.6815
 5014SOL     OW15167   6.032   1.240   1.165 -0.3115  0.0735  0.0071
 5014SOL    HW115168   6.016   1.164   1.109 -0.5697  0.8082 -0.9827
 5014SOL    HW215169   5.965   1.235   1.233 -0.6357 -0.3306 -0.3320
 5015SOL     OW15170   5.159   5.599   4.388 -0.4731  0.5135  0.1765
 5015SOL    HW115171   5.160   5.694   4.377  0.7989  0.7528  1.7040
 5015SOL    HW215172   5.250   5.575   4.403 -0.6456 -1.0968 -0.8247
 5016SOL     OW15173   3.767   4.559   2.921  0.1834 -0.1060 -0.2318
 5016SOL    HW115174   3.861   4.578   2.924  0.5392 -1.5299 -0.6019
 5016SOL    HW215175   3.748   4.549   2.827 -1.1324  3.1674 -0.5717
 5017SOL     OW15176   2.557   2.775   2.214 -0.4522  0.0239 -0.1369
 5017SOL    HW115177   2.572   2.694   2.166  0.0005  0.5182 -0.8652
 5017SOL    HW215178   2.546   2.842   2.147  0.9558  0.8805  0.3891
 5018SOL     OW15179   1.593   1.640   1.036  0.5946 -0.0788  0.5169
 5018SOL    HW115180   1.622   1.642   0.944 -0.8339 -0.6837 -0.0030
 5018SOL    HW215181   1.579   1.547   1.054  2.2931 -0.1596  1.9080
 5019SOL     OW15182   5.294   0.270   4.084  0.1698 -0.0910  0.6686
 5019SOL    HW115183   5.356   0.259   4.156  1.1991  0.9261  0.0160
 5019SOL    HW215184   5.276   0.364   4.082 -0.6983 -0.2443  0.2645
 5020SOL     OW15185   4.491   0.399   2.485  0.0312 -0.1710  0.1806
 5020SOL    HW115186   4.428   0.384   2.415 -0.3662  0.2556  0.4320
 5020SOL    HW215187   4.507   0.494   2.483 -0.5695 -0.0237  1.1382
 5021SOL     OW15188   5.296   4.244   1.040  0.4093  0.0203  0.0203
 5021SOL    HW115189   5.268   4.233   0.949 -0.0647  1.3051 -0.0423
 5021SOL    HW215190   5.219   4.283   1.083  0.5293 -0.8088  1.0512
 5022SOL     OW15191   0.301   1.017   1.172 -0.3444  0.3455 -0.1971
 5022SOL    HW115192   0.344   0.960   1.235 -0.3630  0.0736 -0.4234
 5022SOL    HW215193   0.220   1.044   1.215 -0.3157  0.2310 -0.0710
 5023SOL     OW15194   0.438   6.035   3.053 -0.4487 -0.2160  0.0468
 5023SOL    HW115195   0.482   6.027   3.138 -0.6976  1.0005  0.3216
 5023SOL    HW215196   0.495   5.987   2.992 -0.6247 -1.7589  0.9700
 5024SOL     OW15197   1.553   3.359   4.516  0.0422  0.5897  0.1122
 5024SOL    HW115198   1.529   3.279   4.563  2.0772  1.0537  2.3022
 5024SOL    HW215199   1.470   3.392   4.481 -1.1663 -1.4701  0.7273
 5025SOL     OW15200   4.606   3.741   4.019 -0.3393 -0.1246 -0.3870
 5025SOL    HW115201   4.692   3.755   3.979 -0.2663  0.5932  0.0041
 5025SOL    HW215202   4.622   3.677   4.089  0.8664  2.8774  2.5857
 5026SOL     OW15203   4.210   3.472   0.428 -0.6182  0.0607  0.7178
 5026SOL    HW115204   4.237   3.418   0.502  0.9440  1.9109  1.6787
 5026SOL    HW215205   4.274   3.452   0.359 -0.3516  0.2869  0.8939
 5027SOL     OW15206   5.279   3.634   4.420 -0.3195 -0.1581 -0.2416
 5027SOL    HW115207   5.367   3.643   4.456 -0.8338 -1.1122  1.4833
 5027SOL    HW215208   5.279   3.692   4.344  0.8820  2.3361  1.3738
 5028SOL     OW15209   2.985   4.007   0.888 -0.3472 -0.5772 -0.1984
 5028SOL    HW115210   3.033   3.936   0.844 -1.0147 -0.4780 -1.1578
 5028SOL    HW215211   2.967   3.973   0.975 -1.3888 -1.9962 -0.8835
 5029SOL     OW15212   1.576   5.888   0.350  0.4956 -0.3231  0.6535
 5029SOL    HW115213   1.660   5.858   0.386  0.9210 -0.6650 -0.5073
 5029SOL    HW215214   1.590   5.886   0.255 -1.1330 -1.3352  0.3604
 5030SOL     OW15215   4.024   4.842   1.052 -0.2100  0.2448 -0.5311
 5030SOL    HW115216   3.939   4.807   1.026  0.6543 -1.2264 -1.6801
 5030SOL    HW215217   4.061   4.878   0.971  1.1940 -1.3531 -0.7082
 5031SOL     OW15218   1.847   3.847   3.203 -0.9505  0.0669  0.3945
 5031SOL    HW115219   1.942   3.848   3.214 -1.0501 -0.4715  1.6036
 5031SOL    HW215220   1.833   3.872   3.111  0.1719  4.2135  0.9738
 5032SOL     OW15221   4.957   3.305   2.635 -0.1342 -0.1034  0.2138
 5032SOL    HW115222   5.041   3.337   2.668 -0.6194 -0.1922  1.6874
 5032SOL    HW215223   4.900   3.382   2.635  0.2159  0.3009 -2.1448
 5033SOL     OW15224   4.912   1.802   2.194 -0.0291 -0.2190 -0.0365
 5033SOL    HW115225   4.974   1.771   2.128 -0.6006  0.1455 -0.7859
 5033SOL    HW215226   4.830   1.758   2.171 -0.1204 -0.5016  0.7818
 5034SOL     OW15227   0.933   0.129   2.578  0.6084  0.7889  0.4569
 5034SOL    HW115228   0.868   0.179   2.528  0.1326 -0.1824  0.0464
 5034SOL    HW215229   0.986   0.085   2.512  1.7829  1.6121  0.7813
 5035SOL     OW15230   4.986   4.304   2.625  0.4445 -0.5988  0.2041
 5035SOL    HW115231   5.035   4.340   2.699  0.2224  0.9759 -0.3525
 5035SOL    HW215232   4.995   4.369   2.556 -1.4264 -0.7976 -0.3353
 5036SOL     OW15233   3.384   4.710   0.471 -0.1206 -0.0305 -0.1545
 5036SOL    HW115234   3.448   4.639   0.475 -1.0794 -1.0189 -1.1238
 5036SOL    HW215235   3.414   4.765   0.399  0.2323  0.1743  0.1375
 5037SOL     OW15236   4.939   1.787   4.527 -0.3211  0.0161 -0.0129
 5037SOL    HW115237   5.021   1.746   4.555 -0.8536 -1.5346 -0.5187
 5037SOL    HW215238   4.966   1.849   4.459  0.4216 -0.9023 -0.6164
 5038SOL     OW15239   5.485   1.764   1.319 -0.1762  0.5765 -0.3528
 5038SOL    HW115240   5.449   1.727   1.400 -0.3386 -0.2422 -0.7697
 5038SOL    HW215241   5.474   1.694   1.255  0.3967  1.0288 -0.9681
 5039SOL     OW15242   0.871   2.060   4.446 -0.3174 -0.0427  0.2493
 5039SOL    HW115243   0.922   2.009   4.510  1.2980 -0.7264 -1.3979
 5039SOL    HW215244   0.935   2.090   4.382 -1.4361  2.7245  0.1367
 5040SOL     OW15245   2.632   2.967   2.970 -0.3678  0.1908 -0.5639
 5040SOL    HW115246   2.614   2.895   2.911  0.0880 -0.4147  0.0068
 5040SOL    HW215247   2.688   3.027   2.919 -1.9345  0.9354 -1.5508
 5041SOL     OW15248   5.629   5.690   1.457  0.3703 -0.6014  0.1120
 5041SOL    HW115249   5.721   5.713   1.456  0.0552  0.9616  0.9984
 5041SOL    HW215250   5.610   5.668   1.548 -0.0636 -1.2896 -0.1283
 5042SOL     OW15251   3.463   1.179   2.827  0.2023 -0.5046 -0.7134
 5042SOL    HW115252   3.439   1.226   2.906  0.0005  0.3985 -1.2767
 5042SOL    HW215253   3.381   1.143   2.794 -0.4304  1.8621 -2.1818
 5043SOL     OW15254   5.181   6.308   0.950  0.7761 -0.0611  0.1705
 5043SOL    HW115255   5.227   6.227   0.928  1.9771  0.6833 -0.2236
 5043SOL    HW215256   5.088   6.284   0.949  0.9842 -2.2385  3.1185
 5044SOL     OW15257   0.197   0.560   2.595  0.3681 -0.2175 -0.2851
 5044SOL    HW115258   0.157   0.601   2.518 -0.0092 -0.1989 -0.0830
 5044SOL    HW215259   0.123   0.534   2.650  0.6289 -0.3707  0.0021
 5045SOL     OW15260   3.867   0.814   4.313 -0.1312  0.2594 -0.0853
 5045SOL    HW115261   3.799   0.750   4.339  1.7397 -1.4447  1.2525
 5045SOL    HW215262   3.877   0.870   4.390  0.3878  0.0705 -0.0099
 5046SOL     OW15263   0.106   1.040   0.324  0.0474 -0.5546  0.2464
 5046SOL    HW115264   0.146   0.959   0.293  0.1199 -0.9828  1.3585
 5046SOL    HW215265   0.142   1.109   0.268 -0.6372 -1.3403 -1.2693
 5047SOL     OW15266   4.229   4.817   3.274 -0.3205 -0.3692 -0.1624
 5047SOL    HW115267   4.178   4.870   3.335  0.2324 -0.0991  0.0785
 5047SOL    HW215268   4.242   4.874   3.198  1.6391  0.5409  0.7123
 5048SOL     OW15269   0.815   1.698   1.215 -0.1083 -0.1876 -0.3898
 5048SOL    HW115270   0.794   1.605   1.216  0.3725 -0.4573 -2.7073
 5048SOL    HW215271   0.766   1.735   1.288 -0.4227 -2.2090  0.5579
 5049SOL     OW15272   5.353   6.289   3.899 -0.5536  0.4132 -0.4094
 5049SOL    HW115273   5.375   6.264   3.809  2.7105 -0.3668  0.3264
 5049SOL    HW215274   5.326   6.207   3.941  0.2321  0.2186 -0.2405
 5050SOL     OW15275   3.457   2.720   4.009 -0.1369  0.3254  0.5852
 5050SOL    HW115276   3.446   2.791   3.946  0.1216 -1.6557 -2.0094
 5050SOL    HW215277   3.374   2.718   4.057 -1.3506  0.7080 -1.2887
 5051SOL     OW15278   4.428   2.103   1.802 -0.1204 -0.1817  0.0608
 5051SOL    HW115279   4.397   2.013   1.810 -0.1969 -0.0836  1.1985
 5051SOL    HW215280   4.413   2.126   1.710 -5.0711  0.4285  0.4692
 5052SOL     OW15281   1.967   2.354   4.064  0.0696  0.6768  0.6909
 5052SOL    HW115282   2.058   2.385   4.072  1.2795 -2.1396  0.2008
 5052SOL    HW215283   1.934   2.353   4.154  0.9402  0.7251  1.0325
 5053SOL     OW15284   4.908   4.800   0.380  0.4899 -0.6185 -0.1121
 5053SOL    HW115285   4.937   4.724   0.430 -0.1861 -0.6488  0.2458
 5053SOL    HW215286   4.986   4.826   0.330  0.6025 -1.8868 -0.6954
 5054SOL     OW15287   1.258   5.380   0.716 -0.0358  0.1098 -0.8276
 5054SOL    HW115288   1.260   5.475   0.726 -0.9992  0.4631 -2.9393
 5054SOL    HW215289   1.279   5.365   0.624  0.6896 -1.8168 -0.4494
 5055SOL     OW15290   6.235   5.811   4.473  0.2816 -0.7640 -0.2197
 5055SOL    HW115291   6.169   5.880   4.479 -0.6032 -1.6089  0.6443
 5055SOL    HW215292   6.306   5.840   4.530 -0.3982 -0.8532  0.7138
 5056SOL     OW15293   3.844   6.102   3.223 -0.2937 -0.1731 -0.0723
 5056SOL    HW115294   3.819   6.189   3.195 -1.6785 -0.5814 -0.2414
 5056SOL    HW215295   3.875   6.113   3.313 -1.5010  0.3724  0.3101
 5057SOL     OW15296   2.483   0.514   2.677  0.4127  0.4219  0.0869
 5057SOL    HW115297   2.544   0.468   2.735 -0.5280  0.8621  1.5651
 5057SOL    HW215298   2.435   0.574   2.736 -0.3731  1.2071 -1.2398
 5058SOL     OW15299   4.059   0.981   0.801 -0.0180  0.0259 -0.0489
 5058SOL    HW115300   4.029   1.050   0.743 -0.3968 -1.2251 -1.4611
 5058SOL    HW215301   4.130   1.022   0.851 -1.5449  2.0077  0.7823
 5059SOL     OW15302   2.252   3.404   3.822 -0.7038 -0.0824 -0.2419
 5059SOL    HW115303   2.312   3.330   3.821  0.4461  0.8034 -0.5192
 5059SOL    HW215304   2.165   3.364   3.816 -0.1111 -1.3866 -1.2005
 5060SOL     OW15305   5.555   3.170   0.911 -0.1771 -0.2818 -0.2673
 5060SOL    HW115306   5.501   3.099   0.879 -2.3116  0.3731  1.3723
 5060SOL    HW215307   5.612   3.129   0.976  1.0170 -0.8836 -1.5855
 5061SOL     OW15308   3.035   2.644   4.311  0.2791 -0.0996 -0.2021
 5061SOL    HW115309   2.953   2.624   4.357 -0.0963 -0.0694 -0.8385
 5061SOL    HW215310   3.082   2.561   4.310  0.2500 -0.1223  0.1534
 5062SOL     OW15311   0.923   0.852   3.147  0.1055  0.0733  0.6868
 5062SOL    HW115312   0.864   0.865   3.222 -0.1578 -0.1534  0.5217
 5062SOL    HW215313   0.962   0.766   3.163 -0.7678 -0.4764  0.0251
 5063SOL     OW15314   5.489   3.115   3.792 -0.3220 -0.1147  0.7506
 5063SOL    HW115315   5.438   3.042   3.755 -0.0096  0.3855 -0.8180
 5063SOL    HW215316   5.424   3.174   3.829 -0.9254  0.2629 -0.7605
 5064SOL     OW15317   2.129   2.987   2.504  0.1939  0.2961 -0.0906
 5064SOL    HW115318   2.199   2.935   2.464 -1.0733  0.0545 -2.3119
 5064SOL    HW215319   2.150   3.078   2.479  0.3563  0.3859  0.3582
 5065SOL     OW15320   1.169   1.213   0.486 -0.1580 -0.1113  0.0412
 5065SOL    HW115321   1.132   1.301   0.484  0.7899  0.3108 -0.6783
 5065SOL    HW215322   1.260   1.226   0.514 -0.1158 -0.9188  0.3242
 5066SOL     OW15323   5.669   1.708   2.656  0.0125 -0.2661  0.0595
 5066SOL    HW115324   5.710   1.779   2.706  1.1771 -0.1854 -0.9158
 5066SOL    HW215325   5.640   1.750   2.575 -1.5473 -0.4593  0.4420
 5067SOL     OW15326   1.482   2.871   1.267 -0.3627 -0.1024  0.1531
 5067SOL    HW115327   1.500   2.891   1.175  0.7994  1.6091  0.6553
 5067SOL    HW215328   1.564   2.836   1.301 -0.9409 -1.2602  0.4754
 5068SOL     OW15329   1.176   3.365   2.218 -0.2664 -0.4806 -0.1106
 5068SOL    HW115330   1.162   3.408   2.133  0.8306  2.4216  0.9145
 5068SOL    HW215331   1.135   3.424   2.281  0.6089 -1.4626  1.4994
 5069SOL     OW15332   5.761   3.331   0.156  0.2644 -0.2715  0.1241
 5069SOL    HW115333   5.769   3.403   0.219  0.2253  1.6967 -1.8784
 5069SOL    HW215334   5.666   3.317   0.149  0.2140  0.1661 -0.1367
 5070SOL     OW15335   2.119   5.446   3.486  0.8563 -0.5518 -0.1185
 5070SOL    HW115336   2.105   5.382   3.417 -1.3936 -0.3655  0.0377
 5070SOL    HW215337   2.105   5.531   3.444  1.7898 -0.2447  0.1224
 5071SOL     OW15338   4.741   4.579   0.617 -0.0701  0.3182  0.7093
 5071SOL    HW115339   4.704   4.497   0.585  1.7731 -0.9968  1.5871
 5071SOL    HW215340   4.669   4.642   0.611 -1.2255 -0.9640 -1.2801
 5072SOL     OW15341   1.341   2.441   4.485  0.1521 -0.1399  0.1482
 5072SOL    HW115342   1.431   2.438   4.516 -0.0384  0.0389  0.7424
 5072SOL    HW215343   1.348   2.437   4.389  0.8071  0.2774  0.1693
 5073SOL     OW15344   0.807   4.461   0.405 -0.2153  0.5060 -0.1337
 5073SOL    HW115345   0.725   4.441   0.451  1.7544 -2.3695  3.0581
 5073SOL    HW215346   0.811   4.396   0.335 -0.3802  0.2106  0.1279
 5074SOL     OW15347   5.454   3.685   2.988  0.9879 -0.0412 -0.9168
 5074SOL    HW115348   5.372   3.668   2.942  0.3860 -0.8867  0.3738
 5074SOL    HW215349   5.497   3.600   2.993  0.3984 -0.3439  1.1090
 5075SOL     OW15350   1.132   4.027   1.381  0.2395 -0.1320  0.0169
 5075SOL    HW115351   1.099   4.092   1.443 -0.8665  0.4348 -1.0703
 5075SOL    HW215352   1.137   3.946   1.432  0.9396  0.6070  1.2240
 5076SOL     OW15353   1.890   4.817   1.495 -0.9719  0.3826  0.7831
 5076SOL    HW115354   1.936   4.793   1.575 -0.2450 -0.5051  0.1422
 5076SOL    HW215355   1.830   4.744   1.479 -0.4885  0.1127  0.0861
 5077SOL     OW15356   0.484   1.246   1.504 -0.0114 -0.0307 -0.8524
 5077SOL    HW115357   0.553   1.285   1.558 -0.3226 -1.1910  0.5134
 5077SOL    HW215358   0.527   1.175   1.458 -0.4744 -2.5183  1.9413
 5078SOL     OW15359   0.901   4.970   4.333  0.0090  0.2136  0.3019
 5078SOL    HW115360   0.903   5.055   4.289  0.6458 -0.1776 -0.4786
 5078SOL    HW215361   0.958   4.983   4.409 -0.9197  0.8302  0.9368
 5079SOL     OW15362   2.168   0.604   2.288 -0.1528  0.6007 -0.3535
 5079SOL    HW115363   2.247   0.568   2.248  0.9160  0.4187  1.6973
 5079SOL    HW215364   2.160   0.558   2.372 -3.7419 -1.0675 -1.1848
 5080SOL     OW15365   2.096   6.064   1.797 -0.3759  0.6115 -0.3810
 5080SOL    HW115366   2.107   5.969   1.806  1.7483  0.6398 -1.5225
 5080SOL    HW215367   2.081   6.077   1.703  0.8221  1.4468 -0.4963
 5081SOL     OW15368   4.800   2.964   0.499  0.4024 -0.7888  0.1555
 5081SOL    HW115369   4.765   2.977   0.587  1.4375  1.8148  0.3525
 5081SOL    HW215370   4.894   2.949   0.512  0.7529  0.5625 -0.4195
 5082SOL     OW15371   5.835   2.903   1.120  0.0907  0.1022  0.3645
 5082SOL    HW115372   5.826   2.815   1.157  0.4723  0.0708  0.3830
 5082SOL    HW215373   5.751   2.945   1.139 -0.0159 -0.1863  0.5443
 5083SOL     OW15374   3.456   3.676   0.227  0.1275  0.1119  0.3443
 5083SOL    HW115375   3.475   3.608   0.292  0.1261  0.1913  0.4279
 5083SOL    HW215376   3.363   3.694   0.238 -0.4507 -1.4421 -1.1594
 5084SOL     OW15377   1.507   0.574   3.076 -0.1924  0.5543  0.2940
 5084SOL    HW115378   1.513   0.633   3.001  1.2342  0.1463  0.0258
 5084SOL    HW215379   1.598   0.554   3.098 -0.5902 -0.1147  1.5270
 5085SOL     OW15380   2.729   0.533   0.127 -0.0337 -0.2358  0.3234
 5085SOL    HW115381   2.784   0.571   0.196 -1.6462 -1.0304  2.2381
 5085SOL    HW215382   2.654   0.497   0.174 -1.0985 -1.2066 -1.8702
 5086SOL     OW15383   4.390   0.585   1.670  0.5302 -0.0042  0.3384
 5086SOL    HW115384   4.379   0.635   1.589  2.0129  0.1623  0.2015
 5086SOL    HW215385   4.386   0.494   1.643  0.4176  0.0450  0.1867
 5087SOL     OW15386   4.509   5.641   1.290 -0.1390 -0.6213 -0.0741
 5087SOL    HW115387   4.460   5.704   1.238  2.7474  0.2506 -2.3050
 5087SOL    HW215388   4.471   5.647   1.378 -2.3665  1.4820 -0.9600
 5088SOL     OW15389   2.376   0.696   0.341 -0.4130  0.2165 -0.3182
 5088SOL    HW115390   2.388   0.680   0.435  0.0112  1.0698 -0.2133
 5088SOL    HW215391   2.425   0.626   0.298  0.6475  0.6522  0.1130
 5089SOL     OW15392   0.410   4.442   3.670  0.2455  0.1842  0.1320
 5089SOL    HW115393   0.387   4.368   3.614  0.4870  0.8726 -0.9406
 5089SOL    HW215394   0.328   4.464   3.716 -0.0201 -0.2633 -0.1140
 5090SOL     OW15395   0.536   0.485   3.423 -0.1640  0.7550 -1.0562
 5090SOL    HW115396   0.453   0.470   3.469  0.4021 -2.0034 -0.6167
 5090SOL    HW215397   0.515   0.471   3.331 -0.2423  0.4420 -0.9911
 5091SOL     OW15398   3.799   1.308   2.960  0.2716  0.2859  0.6686
 5091SOL    HW115399   3.832   1.275   2.877 -1.7495 -0.0632 -0.1221
 5091SOL    HW215400   3.862   1.375   2.987  0.0711  2.0551 -2.3074
 5092SOL     OW15401   0.263   0.262   0.832 -0.3517  0.5685  0.1101
 5092SOL    HW115402   0.325   0.295   0.898  0.2880 -0.9485  0.3546
 5092SOL    HW215403   0.318   0.231   0.761 -0.5918 -1.8886  0.8074
 5093SOL     OW15404   1.528   5.960   4.105 -0.8311 -0.5165 -0.0649
 5093SOL    HW115405   1.509   6.005   4.022  0.7692 -1.3316 -0.9753
 5093SOL    HW215406   1.443   5.929   4.135 -1.6808  1.1019 -0.5663
 5094SOL     OW15407   1.936   2.266   2.771  0.2255 -0.4286 -0.3044
 5094SOL    HW115408   1.979   2.285   2.855 -1.8052  1.7781  0.4742
 5094SOL    HW215409   1.868   2.203   2.793  1.3369 -2.0087 -1.0199
 5095SOL     OW15410   0.318   5.382   1.625 -0.1988 -0.4255 -0.5497
 5095SOL    HW115411   0.355   5.350   1.543  0.0401  0.1631 -0.6826
 5095SOL    HW215412   0.253   5.316   1.650  2.0141 -2.4496  0.5926
 5096SOL     OW15413   0.676   3.569   3.156  0.2272  0.6919 -0.1912
 5096SOL    HW115414   0.649   3.559   3.064 -1.9652  1.0678  0.2905
 5096SOL    HW215415   0.723   3.488   3.176 -2.3576 -1.2458 -0.8160
 5097SOL     OW15416   4.281   1.033   0.953  0.1424  0.1621  0.0608
 5097SOL    HW115417   4.244   0.957   0.999  0.1401 -0.2824 -0.6504
 5097SOL    HW215418   4.366   1.003   0.921  0.1734  0.4830 -0.1696
 5098SOL     OW15419   4.079   5.406   1.975  0.6450  0.2761  0.0520
 5098SOL    HW115420   4.052   5.480   1.921  1.5601  0.0716 -0.7474
 5098SOL    HW215421   4.152   5.366   1.926  0.6046 -0.7609  0.7730
 5099SOL     OW15422   1.800   0.416   3.908  0.8104  0.2097  0.2080
 5099SOL    HW115423   1.803   0.371   3.823  0.0053  1.0207 -0.2890
 5099SOL    HW215424   1.707   0.415   3.932  0.5768  2.1612 -0.2101
 5100SOL     OW15425   0.584   3.194   1.069 -0.7033  0.2487 -0.3303
 5100SOL    HW115426   0.583   3.100   1.047  0.8751 -0.6709  2.4540
 5100SOL    HW215427   0.572   3.238   0.985 -0.0565 -2.4192 -2.1037
 5101SOL     OW15428   1.499   0.580   3.798  0.5057  0.0440 -0.4993
 5101SOL    HW115429   1.546   0.512   3.750  2.8461  1.8205 -1.1280
 5101SOL    HW215430   1.448   0.626   3.732 -0.7503 -0.7563 -0.1476
 5102SOL     OW15431   4.845   3.002   1.939 -0.0480  0.2018 -0.0796
 5102SOL    HW115432   4.930   2.964   1.961 -0.6596 -1.2873 -0.0582
 5102SOL    HW215433   4.782   2.932   1.958 -1.2015  0.9674 -0.8455
 5103SOL     OW15434   0.341   3.196   2.504 -0.7067 -0.4375  0.1176
 5103SOL    HW115435   0.366   3.273   2.554 -1.6969 -0.3071  0.4330
 5103SOL    HW215436   0.348   3.123   2.567 -0.4129 -0.5152 -0.0006
 5104SOL     OW15437   5.189   3.364   3.478  0.2329  0.1432 -0.1691
 5104SOL    HW115438   5.174   3.458   3.472 -2.5051 -0.0617  0.7393
 5104SOL    HW215439   5.158   3.340   3.565  1.7197 -1.5558  0.0139
 5105SOL     OW15440   4.426   4.938   3.541  0.6774  0.4242 -0.4033
 5105SOL    HW115441   4.521   4.953   3.540  1.0305 -0.7973  1.8102
 5105SOL    HW215442   4.394   4.987   3.465  2.8949  1.9292 -0.5910
 5106SOL     OW15443   4.648   3.952   3.793 -0.8380 -0.2046  0.3634
 5106SOL    HW115444   4.696   3.958   3.876  0.5058 -1.3524 -0.2483
 5106SOL    HW215445   4.704   3.898   3.737 -2.4126 -0.7695 -0.7966
 5107SOL     OW15446   0.375   0.104   3.184  0.7053  0.4145  0.3166
 5107SOL    HW115447   0.348   0.083   3.273  1.6369  1.2422  0.8303
 5107SOL    HW215448   0.340   0.032   3.131 -1.7475  0.9703  0.9620
 5108SOL     OW15449   5.711   6.187   3.150 -0.3914 -0.1278  0.4557
 5108SOL    HW115450   5.713   6.278   3.120  2.0679 -0.5952 -1.5044
 5108SOL    HW215451   5.679   6.137   3.075  0.1100 -0.9716  0.7701
 5109SOL     OW15452   2.540   1.533   0.073 -0.5062 -0.6234  0.0438
 5109SOL    HW115453   2.506   1.463   0.017 -0.0537 -1.0757  0.3127
 5109SOL    HW215454   2.576   1.487   0.149  0.4358 -0.1539 -0.0928
 5110SOL     OW15455   6.097   0.720   0.227  0.0449  0.5758  0.0057
 5110SOL    HW115456   6.168   0.681   0.278  0.0165 -0.6124 -0.7924
 5110SOL    HW215457   6.068   0.650   0.169 -0.9020  1.4348 -0.6201
 5111SOL     OW15458   2.240   3.646   3.710 -0.6021  0.8120  0.1929
 5111SOL    HW115459   2.253   3.556   3.741 -0.3193  0.2662 -1.3498
 5111SOL    HW215460   2.323   3.670   3.670 -1.5385  0.4301 -2.3697
 5112SOL     OW15461   3.249   2.570   0.825  0.4016 -0.5657  0.0643
 5112SOL    HW115462   3.173   2.527   0.786  0.2559  0.0295 -0.3421
 5112SOL    HW215463   3.300   2.498   0.864 -1.1901 -0.8418  1.9107
 5113SOL     OW15464   1.482   2.930   2.206 -0.3824  0.3335  0.0983
 5113SOL    HW115465   1.408   2.890   2.251 -0.4283 -0.6742 -0.7763
 5113SOL    HW215466   1.548   2.943   2.274 -0.4772 -1.0424  0.5226
 5114SOL     OW15467   5.484   1.751   1.688  0.3509 -0.3121  0.6931
 5114SOL    HW115468   5.393   1.730   1.670 -0.0283  1.9366 -0.9298
 5114SOL    HW215469   5.501   1.714   1.774 -1.3229 -2.7565  0.1711
 5115SOL     OW15470   6.000   0.074   1.740 -0.7260  0.6940 -0.5477
 5115SOL    HW115471   5.941   0.048   1.810 -1.1827  0.5310 -0.9773
 5115SOL    HW215472   6.080   0.024   1.756 -0.5042  1.2971  0.3287
 5116SOL     OW15473   2.282   3.516   0.192 -0.7280 -0.0623  0.6227
 5116SOL    HW115474   2.190   3.542   0.195 -0.4778  1.0978 -0.0447
 5116SOL    HW215475   2.302   3.512   0.098 -0.7752 -3.2910  0.5210
 5117SOL     OW15476   5.710   0.311   2.900  0.1857  0.1260 -0.3774
 5117SOL    HW115477   5.656   0.298   2.822  0.3862 -1.7456 -0.3041
 5117SOL    HW215478   5.647   0.339   2.967 -0.5181 -0.8450 -0.5839
 5118SOL     OW15479   0.191   1.794   3.366 -0.0767 -0.2349  0.1159
 5118SOL    HW115480   0.148   1.768   3.447 -0.0847  0.3823  0.3225
 5118SOL    HW215481   0.129   1.771   3.297 -0.8468  0.7856  0.4190
 5119SOL     OW15482   5.490   4.511   1.011  0.5155 -0.0073  0.2724
 5119SOL    HW115483   5.455   4.439   1.064  0.3303  0.2700  0.5353
 5119SOL    HW215484   5.559   4.550   1.065  2.3676 -1.4584 -0.8019
 5120SOL     OW15485   5.860   1.598   3.553  0.2168 -0.1926 -0.0494
 5120SOL    HW115486   5.817   1.546   3.484 -0.2679 -0.7009  0.6131
 5120SOL    HW215487   5.949   1.611   3.520  0.7340 -2.3583  0.1714
 5121SOL     OW15488   5.468   5.092   2.609 -0.2044 -0.0631  0.4500
 5121SOL    HW115489   5.561   5.069   2.612  0.0868  0.7790 -0.6855
 5121SOL    HW215490   5.439   5.084   2.700  0.6346 -1.5669  0.6523
 5122SOL     OW15491   2.146   3.814   0.837  0.0096 -0.5911  0.8159
 5122SOL    HW115492   2.192   3.895   0.860 -0.7245 -0.0322  0.3925
 5122SOL    HW215493   2.078   3.842   0.775 -0.4178 -1.5001  0.8490
 5123SOL     OW15494   1.895   4.098   2.185 -0.0565 -0.1344 -0.5861
 5123SOL    HW115495   1.907   4.033   2.255  1.0670  0.5805 -0.0501
 5123SOL    HW215496   1.807   4.082   2.152 -0.8928 -0.1520  1.3880
 5124SOL     OW15497   6.118   5.402   2.504  0.2660 -0.0426 -0.6646
 5124SOL    HW115498   6.204   5.362   2.518  0.0071 -1.7539 -2.8601
 5124SOL    HW215499   6.129   5.454   2.424 -1.0419 -2.2402 -2.5320
 5125SOL     OW15500   1.885   1.411   0.700 -0.4785 -0.2612 -0.3487
 5125SOL    HW115501   1.789   1.404   0.707 -0.4089 -1.8966 -0.0911
 5125SOL    HW215502   1.915   1.320   0.701  1.1449  0.2123  0.2974
 5126SOL     OW15503   2.628   6.191   0.703  0.2676  0.2262  0.6399
 5126SOL    HW115504   2.691   6.238   0.648 -2.4429  1.1243 -2.3221
 5126SOL    HW215505   2.580   6.260   0.749 -0.5753 -0.0775  0.2479
 5127SOL     OW15506   2.548   3.761   2.618  0.0513  0.0340 -0.2813
 5127SOL    HW115507   2.454   3.770   2.604  0.2190  0.8837 -1.0267
 5127SOL    HW215508   2.585   3.752   2.530  0.9595  3.4648 -0.5580
 5128SOL     OW15509   4.347   4.742   0.798 -0.0192  0.2518 -0.2118
 5128SOL    HW115510   4.365   4.676   0.731  1.1603 -0.2013  0.4966
 5128SOL    HW215511   4.252   4.758   0.790 -0.4737 -1.8496 -0.1462
 5129SOL     OW15512   6.353   2.729   2.602 -0.3013 -0.2703  0.1068
 5129SOL    HW115513   6.332   2.717   2.509  0.8018  1.7730 -0.5197
 5129SOL    HW215514   6.342   2.642   2.640  0.0773 -1.4413 -2.1140
 5130SOL     OW15515   3.570   5.451   4.356  0.0704 -0.2541  0.0289
 5130SOL    HW115516   3.583   5.361   4.326  1.1580  0.0020 -0.3391
 5130SOL    HW215517   3.656   5.479   4.388 -0.0771  0.8654 -0.4687
 5131SOL     OW15518   1.517   1.336   3.905  0.4192 -0.4583 -0.0025
 5131SOL    HW115519   1.508   1.242   3.924  0.2402 -0.4575 -0.0853
 5131SOL    HW215520   1.443   1.377   3.948  0.9189 -0.2522  0.7095
 5132SOL     OW15521   1.893   5.469   0.777  0.1528 -0.4472  0.1602
 5132SOL    HW115522   1.861   5.420   0.702  0.9836 -0.2051 -0.3755
 5132SOL    HW215523   1.820   5.527   0.801  0.7666  1.8378 -2.5055
 5133SOL     OW15524   2.738   5.154   2.238  0.4348 -0.1660  0.4754
 5133SOL    HW115525   2.755   5.066   2.204  0.7285  0.5219 -1.4016
 5133SOL    HW215526   2.659   5.145   2.291 -0.1777 -1.3943 -0.5483
 5134SOL     OW15527   2.253   3.898   1.928  0.5159 -0.3594 -0.1772
 5134SOL    HW115528   2.202   3.823   1.897 -1.5987  0.5277  0.7036
 5134SOL    HW215529   2.244   3.963   1.858 -1.9894  0.6871  0.8456
 5135SOL     OW15530   5.330   0.372   2.289 -0.2436  0.1029  0.0690
 5135SOL    HW115531   5.418   0.396   2.263  0.1846 -1.5092 -0.1369
 5135SOL    HW215532   5.284   0.355   2.207  0.1456 -1.7799  0.1491
 5136SOL     OW15533   0.271   1.955   2.548  0.0502 -0.3121 -0.0160
 5136SOL    HW115534   0.302   2.032   2.499 -0.3916  0.1793  0.4485
 5136SOL    HW215535   0.202   1.918   2.492  0.7728 -0.8479 -0.6013
 5137SOL     OW15536   1.745   4.338   4.132 -0.3607  0.1599  0.4413
 5137SOL    HW115537   1.722   4.365   4.044 -0.7789  1.4573  0.9002
 5137SOL    HW215538   1.782   4.250   4.122 -1.4681 -0.2124 -0.8585
 5138SOL     OW15539   5.115   0.178   4.306 -0.4336  0.4393  0.4158
 5138SOL    HW115540   5.158   0.234   4.241  0.8723 -0.7402  0.1743
 5138SOL    HW215541   5.100   0.236   4.380 -0.9499  1.5573 -0.4897
 5139SOL     OW15542   5.609   1.071   2.381  0.4630 -0.3355 -0.0868
 5139SOL    HW115543   5.672   1.075   2.454  0.2212  1.9836  0.1345
 5139SOL    HW215544   5.664   1.063   2.303  0.7597 -2.0757  0.2138
 5140SOL     OW15545   1.149   0.921   2.604 -0.5639 -0.3222 -0.2877
 5140SOL    HW115546   1.090   0.867   2.656  0.4222 -0.1851  1.1163
 5140SOL    HW215547   1.229   0.869   2.596  1.6668  1.5165  3.7003
 5141SOL     OW15548   0.545   5.437   0.420 -0.2673  0.5411 -0.0871
 5141SOL    HW115549   0.537   5.345   0.442  0.8262  0.7018  1.2220
 5141SOL    HW215550   0.587   5.438   0.334  0.3897 -0.2021  0.2041
 5142SOL     OW15551   1.541   6.315   3.086  0.5918  1.4507 -0.5939
 5142SOL    HW115552   1.497   6.398   3.069 -2.3781  0.1248 -0.7678
 5142SOL    HW215553   1.530   6.300   3.180  1.1591  1.2640 -0.5499
 5143SOL     OW15554   3.261   0.234   3.073  0.0743  0.3202 -0.4895
 5143SOL    HW115555   3.327   0.187   3.125 -1.1774 -0.3308  0.6500
 5143SOL    HW215556   3.299   0.240   2.986  2.1629  1.1328  0.3503
 5144SOL     OW15557   5.686   1.027   0.163 -0.1517  0.1747  0.1408
 5144SOL    HW115558   5.779   1.042   0.145  0.1701 -1.0474  0.5988
 5144SOL    HW215559   5.676   0.932   0.161 -1.6651  0.2930 -1.0907
 5145SOL     OW15560   4.475   4.179   4.164  0.1339 -0.8506 -0.2613
 5145SOL    HW115561   4.453   4.095   4.125  0.9853 -0.6509 -1.2620
 5145SOL    HW215562   4.548   4.212   4.111 -0.9054  1.0639 -0.6877
 5146SOL     OW15563   6.204   1.969   1.291  0.5689  0.0640  0.7141
 5146SOL    HW115564   6.239   1.996   1.376  0.3233 -0.2358  0.9207
 5146SOL    HW215565   6.234   1.878   1.281 -0.4514 -0.3586  1.1013
 5147SOL     OW15566   4.340   0.147   3.630 -0.6577  0.6449 -0.5297
 5147SOL    HW115567   4.303   0.059   3.623  0.4617  0.1912 -1.3799
 5147SOL    HW215568   4.364   0.156   3.723  1.3329 -0.9586 -0.7449
 5148SOL     OW15569   6.045   0.219   2.322  0.7607 -0.4071 -0.0439
 5148SOL    HW115570   6.025   0.152   2.257  1.2203  0.9630 -1.7175
 5148SOL    HW215571   6.132   0.196   2.354  0.0767 -1.7515  1.0908
 5149SOL     OW15572   0.314   4.315   2.531  0.2051 -0.3504  0.4640
 5149SOL    HW115573   0.380   4.262   2.576  0.5943  0.1419  0.4878
 5149SOL    HW215574   0.365   4.371   2.472 -0.2000 -0.0418  0.4044
 5150SOL     OW15575   0.683   1.454   1.530 -0.2330 -0.0316  0.5176
 5150SOL    HW115576   0.752   1.432   1.468 -0.2639  1.2685 -0.0413
 5150SOL    HW215577   0.651   1.539   1.502 -0.4883  0.4806  2.1338
 5151SOL     OW15578   3.648   4.801   4.407 -0.4611  0.1817  0.3049
 5151SOL    HW115579   3.670   4.844   4.324 -2.7172  0.1689 -0.4367
 5151SOL    HW215580   3.554   4.787   4.403 -0.5486 -0.7482  2.4913
 5152SOL     OW15581   3.171   0.008   4.527 -0.0466  0.4037  0.0489
 5152SOL    HW115582   3.184   0.030   4.435 -0.3134  1.1963  0.1797
 5152SOL    HW215583   3.189  -0.086   4.533  0.3106  0.4080 -0.7409
 5153SOL     OW15584   6.099   4.492   2.510  0.0629  0.2893 -0.1194
 5153SOL    HW115585   6.153   4.547   2.454  0.3540  0.8472  0.6719
 5153SOL    HW215586   6.009   4.508   2.480  0.1749  0.9256 -0.1367
 5154SOL     OW15587   2.511   5.099   2.407  0.8044  0.3704  0.9790
 5154SOL    HW115588   2.572   5.030   2.435 -0.8500 -0.7682  2.1044
 5154SOL    HW215589   2.424   5.063   2.422 -0.2587  2.9728  2.4524
 5155SOL     OW15590   3.168   4.206   0.959 -1.2329 -0.1842 -0.2046
 5155SOL    HW115591   3.231   4.261   0.911  0.1248  0.4372  1.9851
 5155SOL    HW215592   3.174   4.121   0.916  0.3919  0.1213 -0.7343
 5156SOL     OW15593   0.342   0.287   4.443  0.2275 -0.1715 -0.1015
 5156SOL    HW115594   0.369   0.378   4.435 -0.0228 -0.0834  0.0252
 5156SOL    HW215595   0.420   0.237   4.420  1.0660  0.0592  1.8478
 5157SOL     OW15596   0.254   3.212   3.523  0.6235  0.4062 -0.3043
 5157SOL    HW115597   0.337   3.220   3.476  0.2606  1.1883 -0.8589
 5157SOL    HW215598   0.222   3.302   3.530 -0.5592  0.0671 -0.8237
 5158SOL     OW15599   4.455   0.200   0.707  0.1552 -0.6235  0.0235
 5158SOL    HW115600   4.436   0.121   0.657 -0.3869 -0.2772 -0.3348
 5158SOL    HW215601   4.509   0.253   0.648 -1.0131  0.0664 -0.4889
 5159SOL     OW15602   4.418   0.985   0.432  0.6442  0.2128 -0.6982
 5159SOL    HW115603   4.373   0.906   0.463 -0.1986  0.9596  0.0910
 5159SOL    HW215604   4.478   0.953   0.365  0.7866 -1.1802  0.0118
 5160SOL     OW15605   4.025   5.894   1.892 -0.1787 -0.6514  0.4869
 5160SOL    HW115606   4.106   5.935   1.923 -1.0128  0.5084  1.3626
 5160SOL    HW215607   3.995   5.952   1.822  0.0958 -1.4960 -0.3559
 5161SOL     OW15608   6.143   0.909   3.265  0.3665  0.3165  0.0984
 5161SOL    HW115609   6.209   0.902   3.195  0.0572  0.5688 -0.2256
 5161SOL    HW215610   6.109   0.820   3.275  0.7061  0.1964  0.2229
 5162SOL     OW15611   4.245   4.505   1.554  0.8306 -0.4095  0.2053
 5162SOL    HW115612   4.290   4.445   1.613  0.1962 -0.6770  0.4436
 5162SOL    HW215613   4.199   4.565   1.612 -0.8700 -1.4601  0.0998
 5163SOL     OW15614   1.842   3.612   2.769 -0.2964 -0.1235 -0.1187
 5163SOL    HW115615   1.833   3.585   2.678 -0.3142  0.9935 -0.4873
 5163SOL    HW215616   1.798   3.544   2.819 -2.6024  0.4377 -1.1203
 5164SOL     OW15617   4.344   6.084   1.313 -0.3128  0.0227  0.4376
 5164SOL    HW115618   4.388   6.034   1.244 -1.4459 -1.8787  0.9633
 5164SOL    HW215619   4.366   6.175   1.293 -0.4438 -0.3741 -2.3560
 5165SOL     OW15620   3.922   6.112   2.553 -0.3580 -0.5444 -0.4635
 5165SOL    HW115621   3.832   6.115   2.584 -0.6607 -0.8764 -1.2543
 5165SOL    HW215622   3.975   6.138   2.628 -1.2022  1.6026 -0.4662
 5166SOL     OW15623   4.779   3.930   1.998  0.5069 -0.2088  0.1607
 5166SOL    HW115624   4.828   3.883   2.065  2.7564 -1.0481 -1.8075
 5166SOL    HW215625   4.844   3.954   1.932 -1.1646  2.3133 -0.8915
 5167SOL     OW15626   3.688   5.672   1.760  0.2397 -0.5119 -0.2292
 5167SOL    HW115627   3.684   5.749   1.817  1.9025 -0.4180 -0.1574
 5167SOL    HW215628   3.624   5.691   1.690 -0.6726  0.0869  0.7098
 5168SOL     OW15629   4.936   0.920   3.895 -0.1281  0.3671 -0.0745
 5168SOL    HW115630   4.842   0.900   3.892 -0.1691  0.3850  0.7108
 5168SOL    HW215631   4.972   0.857   3.958 -0.1807  2.3147  2.2071
 5169SOL     OW15632   5.256   1.891   1.871  0.1055  0.2350  0.2758
 5169SOL    HW115633   5.293   1.830   1.808 -1.0822  0.9243 -1.2404
 5169SOL    HW215634   5.187   1.842   1.915 -0.0468  0.1418 -0.0609
 5170SOL     OW15635   3.022   1.272   0.543  0.2883  0.0717 -0.3322
 5170SOL    HW115636   3.047   1.331   0.472  0.2762 -0.5880 -0.9051
 5170SOL    HW215637   3.104   1.256   0.591  0.3146  0.4512 -0.2480
 5171SOL     OW15638   2.919   5.740   4.328 -0.0646 -0.0486  0.2017
 5171SOL    HW115639   2.857   5.737   4.401  0.5920  1.5173  0.9006
 5171SOL    HW215640   2.882   5.804   4.268  0.8624  0.9922  0.6790
 5172SOL     OW15641   2.701   3.175   3.919 -0.6807 -0.2120 -0.1056
 5172SOL    HW115642   2.758   3.098   3.923 -1.1500 -0.7492  3.8233
 5172SOL    HW215643   2.621   3.144   3.877 -0.0141 -1.0458 -0.8534
 5173SOL     OW15644   5.185   2.367   2.653 -0.1441  0.2181 -0.4053
 5173SOL    HW115645   5.245   2.337   2.722  0.4506 -0.0365 -1.0091
 5173SOL    HW215646   5.236   2.431   2.604 -0.7114  0.7180 -0.3642
 5174SOL     OW15647   6.331   6.069   0.977  0.2307 -0.0864  0.4032
 5174SOL    HW115648   6.277   5.990   0.981 -0.9749  0.4307 -1.9356
 5174SOL    HW215649   6.269   6.140   0.993  0.3460  0.4806 -1.2985
 5175SOL     OW15650   0.936   6.184   1.762  0.2473 -0.6132  0.0063
 5175SOL    HW115651   0.987   6.265   1.764 -1.7435  0.8925  2.2877
 5175SOL    HW215652   1.000   6.114   1.772  2.0474  0.6343 -1.5300
 5176SOL     OW15653   2.913   4.006   4.320 -0.6782 -0.1139  0.6183
 5176SOL    HW115654   2.873   3.923   4.347  0.9092 -0.9484  0.6291
 5176SOL    HW215655   2.945   4.044   4.402  1.7595 -1.3388  0.4091
 5177SOL     OW15656   4.965   5.930   2.032 -0.1849  0.5579  0.4653
 5177SOL    HW115657   4.933   5.996   1.970 -2.5035 -0.4963  0.3715
 5177SOL    HW215658   5.053   5.961   2.055  0.8698  1.1598 -3.1202
 5178SOL     OW15659   5.293   5.226   1.443 -0.6249  0.1078 -0.7716
 5178SOL    HW115660   5.281   5.134   1.418 -1.6279  0.0703 -0.2613
 5178SOL    HW215661   5.212   5.269   1.414 -0.1399  0.8637 -1.0681
 5179SOL     OW15662   3.021   4.847   0.314  0.2144 -0.4889 -0.2207
 5179SOL    HW115663   3.026   4.752   0.303 -0.9376 -0.5552 -0.4539
 5179SOL    HW215664   2.960   4.875   0.246  0.4466  0.4094 -0.0782
 5180SOL     OW15665   1.450   4.258   2.415 -0.3197  0.5041  0.8130
 5180SOL    HW115666   1.527   4.202   2.415 -0.0615  0.8210  1.8732
 5180SOL    HW215667   1.385   4.212   2.467 -1.3939 -0.3648 -1.0694
 5181SOL     OW15668   1.386   2.802   4.293  0.0758 -0.0090 -0.1121
 5181SOL    HW115669   1.465   2.753   4.317 -1.2314 -1.9323  0.7487
 5181SOL    HW215670   1.419   2.876   4.242  2.3299 -2.0073 -2.0971
 5182SOL     OW15671   0.250   4.028   2.300 -0.1395  0.0379  0.0843
 5182SOL    HW115672   0.230   3.969   2.227 -1.0157 -0.5172  0.7441
 5182SOL    HW215673   0.246   3.974   2.378  0.9187  0.5938  0.5687
 5183SOL     OW15674   6.181   2.365   1.363  0.3450  0.5126 -0.2866
 5183SOL    HW115675   6.265   2.320   1.372 -0.2769 -0.7365 -0.2102
 5183SOL    HW215676   6.162   2.397   1.451 -0.2009 -1.1182  0.2746
 5184SOL     OW15677   5.801   4.890   2.925  0.0548 -0.2478  0.1853
 5184SOL    HW115678   5.867   4.836   2.969 -0.1595 -1.5671 -0.9827
 5184SOL    HW215679   5.850   4.938   2.858 -0.0244 -0.5080 -0.0627
 5185SOL     OW15680   0.357   3.877   4.192 -0.1644  0.5261 -0.0782
 5185SOL    HW115681   0.405   3.951   4.154  1.9584  1.8703  4.0065
 5185SOL    HW215682   0.276   3.916   4.224  0.1070  0.6433  0.4870
 5186SOL     OW15683   4.997   2.792   2.845  0.0603  0.2140  0.1045
 5186SOL    HW115684   5.068   2.834   2.893 -0.5084  0.8230  0.4465
 5186SOL    HW215685   4.924   2.789   2.907 -0.6540  0.9128 -0.6491
 5187SOL     OW15686   2.062   5.153   0.603  0.0056  0.6343 -0.1614
 5187SOL    HW115687   2.157   5.160   0.612  0.0768  0.3501 -0.6357
 5187SOL    HW215688   2.039   5.221   0.540 -0.3281  1.7806  1.0920
 5188SOL     OW15689   4.860   4.459   3.803  0.2679  0.7920  0.5109
 5188SOL    HW115690   4.860   4.363   3.805 -0.0764  0.6950 -1.1238
 5188SOL    HW215691   4.889   4.485   3.890 -1.7828 -0.7406  1.8218
 5189SOL     OW15692   3.483   0.964   2.534 -0.6782  0.0179  0.1238
 5189SOL    HW115693   3.578   0.957   2.521 -0.5797  0.1105  0.7109
 5189SOL    HW215694   3.462   1.055   2.510 -0.8290 -0.3120 -1.1142
 5190SOL     OW15695   3.624   2.997   1.178  0.4649 -0.1489  0.3767
 5190SOL    HW115696   3.558   3.065   1.160  0.5025  0.2868  1.7005
 5190SOL    HW215697   3.701   3.045   1.207  0.4043 -0.7199  1.6238
 5191SOL     OW15698   5.239   4.524   0.150  0.4531 -0.6164 -0.2366
 5191SOL    HW115699   5.271   4.487   0.233 -1.2727 -1.5529  0.0993
 5191SOL    HW215700   5.221   4.616   0.170  1.6448 -0.3668 -0.1166
 5192SOL     OW15701   4.386   6.076   4.011 -0.6866 -0.5191  0.0586
 5192SOL    HW115702   4.419   6.059   4.099 -0.1992  1.0733  0.2408
 5192SOL    HW215703   4.408   6.167   3.994 -2.3622 -0.2265 -1.0271
 5193SOL     OW15704   4.850   5.767   2.878 -0.0659  0.3235  0.0985
 5193SOL    HW115705   4.822   5.757   2.968  2.3068  1.2544  1.1168
 5193SOL    HW215706   4.822   5.856   2.853  0.7782  0.7711  0.6476
 5194SOL     OW15707   5.770   3.770   4.449 -0.7455  0.2761  0.1236
 5194SOL    HW115708   5.765   3.835   4.379 -0.1451  0.4691  0.2459
 5194SOL    HW215709   5.861   3.773   4.478 -0.5526 -0.9971 -0.2132
 5195SOL     OW15710   4.750   2.790   0.753  0.0371 -0.5043  0.0339
 5195SOL    HW115711   4.672   2.736   0.770 -0.1740  0.0349  0.8903
 5195SOL    HW215712   4.801   2.739   0.690 -1.1388 -0.7408 -0.7830
 5196SOL     OW15713   4.653   0.227   1.227  0.0758  0.2967 -0.1169
 5196SOL    HW115714   4.563   0.239   1.259  0.4088  0.6297  0.7591
 5196SOL    HW215715   4.646   0.156   1.162 -0.3404 -2.5803  2.5761
 5197SOL     OW15716   0.385   0.057   2.053 -0.3737 -0.3508  0.6279
 5197SOL    HW115717   0.327   0.007   2.111  0.0435 -0.4573  0.9655
 5197SOL    HW215718   0.462   0.076   2.107  0.2096 -0.8016 -0.0005
 5198SOL     OW15719   3.844   6.216   2.010 -0.1222  0.0369  0.0965
 5198SOL    HW115720   3.827   6.122   2.019 -1.2418  0.0238 -1.3959
 5198SOL    HW215721   3.889   6.240   2.092  0.7483 -1.8732  0.3038
 5199SOL     OW15722   3.646   1.433   1.385  0.2463  0.2108 -0.5539
 5199SOL    HW115723   3.600   1.470   1.309  0.0168  1.0377 -0.0408
 5199SOL    HW215724   3.595   1.463   1.461  1.1038  0.3733 -0.0156
 5200SOL     OW15725   2.860   0.620   3.256 -0.5449  0.2973 -0.1028
 5200SOL    HW115726   2.840   0.694   3.199 -0.2584 -0.0071 -0.6165
 5200SOL    HW215727   2.777   0.573   3.265 -0.1772 -1.3184 -2.7292
 5201SOL     OW15728   3.336   5.060   3.295  0.0970 -0.6852  0.3522
 5201SOL    HW115729   3.314   5.120   3.366  0.6953 -1.2760  1.0721
 5201SOL    HW215730   3.353   5.117   3.220  0.6589  0.0589  1.0097
 5202SOL     OW15731   0.463   0.842   0.772  0.1088 -0.2033  0.2625
 5202SOL    HW115732   0.434   0.924   0.813 -1.8633 -0.8496  0.4001
 5202SOL    HW215733   0.425   0.773   0.827  1.2316 -1.2249 -0.1575
 5203SOL     OW15734   4.310   0.726   1.444  0.1274 -0.1079 -0.2178
 5203SOL    HW115735   4.395   0.701   1.409  0.9920 -0.4685  1.8686
 5203SOL    HW215736   4.306   0.821   1.433  1.3250  0.0766  0.5515
 5204SOL     OW15737   1.304   0.791   0.130 -0.1214 -0.3024  0.0828
 5204SOL    HW115738   1.322   0.733   0.204  0.7503 -0.0148  0.1227
 5204SOL    HW215739   1.267   0.870   0.170  0.0758 -0.2610  0.1860
 5205SOL     OW15740   4.909   1.462   2.938  0.4064 -0.3829 -0.5363
 5205SOL    HW115741   4.915   1.551   2.902 -2.3619  1.9293  3.2033
 5205SOL    HW215742   4.976   1.459   3.006 -0.4140 -0.4115  0.3222
 5206SOL     OW15743   2.400   4.388   0.991  0.1646  0.0130  0.6709
 5206SOL    HW115744   2.384   4.422   0.903  2.5052  2.1046  0.8307
 5206SOL    HW215745   2.322   4.337   1.012 -0.6425 -0.4268 -2.4629
 5207SOL     OW15746   0.542   4.473   4.425  0.6483  0.3282 -0.1845
 5207SOL    HW115747   0.449   4.472   4.448  0.4899  1.4859 -0.6376
 5207SOL    HW215748   0.588   4.484   4.508  0.4309 -0.7428  0.0974
 5208SOL     OW15749   2.013   3.755   3.586  0.2421  0.2625  0.0411
 5208SOL    HW115750   2.045   3.843   3.568  0.0758  0.6052  1.2193
 5208SOL    HW215751   2.091   3.707   3.615  0.0834  0.5524  1.0584
 5209SOL     OW15752   3.679   5.077   3.422  0.2213  0.9721  0.2529
 5209SOL    HW115753   3.605   5.019   3.404  1.2624 -0.1125 -0.9182
 5209SOL    HW215754   3.714   5.046   3.506  1.8733 -1.6078 -1.1235
 5210SOL     OW15755   3.550   2.610   3.091  0.1226  0.1481  0.7788
 5210SOL    HW115756   3.623   2.644   3.143  2.5489 -0.1793 -1.8681
 5210SOL    HW215757   3.507   2.688   3.055  1.0924  0.4591  0.2061
 5211SOL     OW15758   5.902   3.093   0.377  0.6968 -0.0176 -0.4874
 5211SOL    HW115759   5.868   3.183   0.379 -1.5600 -0.6822  1.6211
 5211SOL    HW215760   5.867   3.053   0.457  2.6587 -2.4632 -0.6157
 5212SOL     OW15761   3.321   1.806   0.143  0.1477  0.1598 -0.7239
 5212SOL    HW115762   3.311   1.790   0.049  3.1328  0.0883 -1.2358
 5212SOL    HW215763   3.340   1.899   0.149  1.7221 -0.1090 -0.5660
 5213SOL     OW15764   1.587   5.497   1.423  0.3547 -0.1342 -0.0479
 5213SOL    HW115765   1.563   5.579   1.380  2.9915  0.1891 -1.2679
 5213SOL    HW215766   1.550   5.504   1.511 -1.5302  1.2114 -0.8178
 5214SOL     OW15767   0.678   4.951   2.132 -0.4110 -0.6978 -0.1601
 5214SOL    HW115768   0.720   4.868   2.110  0.7353 -0.1131 -0.3080
 5214SOL    HW215769   0.750   5.011   2.149 -1.2027 -0.0009  1.0563
 5215SOL     OW15770   5.263   5.632   3.076  0.5881  0.4794  0.4018
 5215SOL    HW115771   5.242   5.645   2.984  1.4940  0.5640  0.1872
 5215SOL    HW215772   5.184   5.660   3.123 -0.4167 -0.8433 -0.3685
 5216SOL     OW15773   5.179   1.755   2.517 -0.1558  0.1239  0.0513
 5216SOL    HW115774   5.157   1.709   2.599 -2.0529 -1.2565 -1.0651
 5216SOL    HW215775   5.134   1.839   2.524  0.2424  0.3066  0.6410
 5217SOL     OW15776   4.076   4.009   3.472  0.3536 -0.3293 -0.3641
 5217SOL    HW115777   4.165   4.009   3.436  0.8102 -1.2066  0.6190
 5217SOL    HW215778   4.027   3.950   3.415  0.9791 -1.4582  0.1806
 5218SOL     OW15779   3.032   1.273   3.745 -0.1026 -0.5943 -0.5384
 5218SOL    HW115780   3.070   1.285   3.659  1.9508 -2.4704 -0.0710
 5218SOL    HW215781   3.031   1.178   3.758 -0.2786 -0.4076  1.5082
 5219SOL     OW15782   5.954   5.192   2.570 -0.2632  0.0855 -0.2913
 5219SOL    HW115783   6.017   5.239   2.515  0.3592  0.4556  0.6981
 5219SOL    HW215784   6.005   5.123   2.611 -0.8895 -0.6604 -0.7187
 5220SOL     OW15785   0.053   2.349   3.262  0.5938  0.2193  0.5304
 5220SOL    HW115786   0.093   2.284   3.320 -2.9780 -1.5129  1.6613
 5220SOL    HW215787   0.086   2.433   3.294  4.1324 -0.7117  0.1631
 5221SOL     OW15788   1.531   5.786   1.066  0.0095 -0.2096  0.0107
 5221SOL    HW115789   1.526   5.712   1.006 -0.5670  0.2829 -0.5910
 5221SOL    HW215790   1.499   5.752   1.149  0.3272 -0.7812 -0.0930
 5222SOL     OW15791   4.863   2.397   1.018 -0.5121  0.1525  0.5465
 5222SOL    HW115792   4.784   2.377   0.969 -0.5710  0.1899  0.6249
 5222SOL    HW215793   4.923   2.325   0.998 -1.3318 -1.1586  2.2208
 5223SOL     OW15794   2.953   3.188   1.872  0.0831 -0.1862  0.0517
 5223SOL    HW115795   2.870   3.150   1.843  0.2774  0.1974 -1.1357
 5223SOL    HW215796   2.983   3.241   1.797  0.4705  1.2468  1.1188
 5224SOL     OW15797   2.523   4.326   0.306  0.0851  0.6213  0.0719
 5224SOL    HW115798   2.534   4.265   0.379  2.3845  1.4524  0.5889
 5224SOL    HW215799   2.459   4.390   0.338  1.0896  1.0152  1.4799
 5225SOL     OW15800   4.019   2.946   1.509 -0.6270 -0.2242  0.0848
 5225SOL    HW115801   4.039   2.852   1.514 -0.1978 -0.1028  1.2665
 5225SOL    HW215802   4.030   2.977   1.599  0.2356  1.1610 -0.4490
 5226SOL     OW15803   0.615   5.431   4.324  0.2681 -0.3247  0.1322
 5226SOL    HW115804   0.577   5.383   4.250  0.3777  1.5108 -1.2642
 5226SOL    HW215805   0.553   5.502   4.340  1.5071  0.8914 -0.0758
 5227SOL     OW15806   6.051   5.611   4.305 -0.3170  0.2766  0.0731
 5227SOL    HW115807   6.125   5.632   4.248 -2.1801  3.4625 -1.7084
 5227SOL    HW215808   6.023   5.524   4.277  0.4298  0.6172 -2.0751
 5228SOL     OW15809   1.593   2.193   3.572 -0.3122  0.5646  0.1422
 5228SOL    HW115810   1.503   2.222   3.588 -0.6628 -0.1595 -0.3926
 5228SOL    HW215811   1.593   2.101   3.596  0.6446  0.8161  1.3314
 5229SOL     OW15812   3.684   3.372   2.198 -0.6418  0.3743 -0.2735
 5229SOL    HW115813   3.695   3.320   2.277  0.0726  1.1724  0.1854
 5229SOL    HW215814   3.589   3.377   2.186 -0.7411 -0.3778  0.0950
 5230SOL     OW15815   5.483   1.454   4.068  0.3092  0.0058  0.6150
 5230SOL    HW115816   5.484   1.549   4.080 -1.2252  0.3880 -1.2241
 5230SOL    HW215817   5.401   1.426   4.107  0.0782 -0.3042 -0.0718
 5231SOL     OW15818   1.803   3.901   0.117 -0.1045  0.2975  0.0054
 5231SOL    HW115819   1.716   3.891   0.156  0.2592  1.0882  1.0941
 5231SOL    HW215820   1.854   3.828   0.153  0.0604  0.6727  0.5627
 5232SOL     OW15821   2.089   3.763   2.819 -0.4970  0.1860 -0.2778
 5232SOL    HW115822   2.134   3.714   2.887  0.1832  1.2224  0.0694
 5232SOL    HW215823   2.009   3.713   2.802  0.5110 -1.4765 -0.5682
 5233SOL     OW15824   5.819   5.598   3.927 -0.0125 -0.1833 -0.0396
 5233SOL    HW115825   5.744   5.656   3.914 -1.6955 -2.0575  0.3023
 5233SOL    HW215826   5.794   5.542   4.000  2.0345 -0.5565  0.4915
 5234SOL     OW15827   5.059   0.785   4.399  0.2824  0.0765 -0.2675
 5234SOL    HW115828   5.039   0.740   4.481  0.1963 -0.6837 -0.6845
 5234SOL    HW215829   5.150   0.760   4.381  0.4505  0.6130 -0.1790
 5235SOL     OW15830   2.119   2.378   2.404 -0.0430  0.6738 -0.2195
 5235SOL    HW115831   2.123   2.285   2.427 -2.9611  0.2351 -0.7127
 5235SOL    HW215832   2.139   2.380   2.310 -0.8480  0.3301 -0.4200
 5236SOL     OW15833   0.104   4.614   2.237  0.0604 -0.1201 -0.1894
 5236SOL    HW115834   0.120   4.572   2.322 -0.4911  0.3476  0.1604
 5236SOL    HW215835   0.030   4.565   2.200 -0.0625  0.0256 -0.1411
 5237SOL     OW15836   1.348   4.941   1.436  0.2023  0.0682 -0.0724
 5237SOL    HW115837   1.387   4.912   1.354  2.3326 -0.5588  1.0285
 5237SOL    HW215838   1.366   5.035   1.440  0.2236  0.0714 -0.2357
 5238SOL     OW15839   5.384   4.483   4.131 -0.3532  0.0002 -0.5160
 5238SOL    HW115840   5.472   4.470   4.097 -0.5444 -1.8561 -0.5087
 5238SOL    HW215841   5.340   4.535   4.063  0.4362  0.0412 -1.0209
 5239SOL     OW15842   0.747   6.192   0.528  0.3161 -0.1922 -0.1288
 5239SOL    HW115843   0.805   6.170   0.601  0.0631 -1.3249 -0.2299
 5239SOL    HW215844   0.763   6.285   0.512  0.9573 -0.1023  0.8454
 5240SOL     OW15845   4.459   3.648   2.516  0.0178  0.3238  0.3462
 5240SOL    HW115846   4.470   3.743   2.527  0.7362  0.1456  1.6271
 5240SOL    HW215847   4.503   3.611   2.593  0.3540 -1.0859 -0.4734
 5241SOL     OW15848   1.399   3.588   2.885  0.4566  0.1004  0.0614
 5241SOL    HW115849   1.398   3.684   2.893  2.7890  0.1623  2.0570
 5241SOL    HW215850   1.455   3.571   2.810  0.2351  0.2968 -0.1508
 5242SOL     OW15851   3.762   6.338   3.135  0.0217  0.1434 -0.4787
 5242SOL    HW115852   3.737   6.386   3.214 -0.6240  1.8757 -1.6231
 5242SOL    HW215853   3.775   6.406   3.069  1.0052 -1.1833 -1.7678
 5243SOL     OW15854   2.057   0.243   4.414 -0.0380 -0.3882 -0.3162
 5243SOL    HW115855   2.031   0.212   4.328 -0.4907  1.1310 -0.7913
 5243SOL    HW215856   2.138   0.291   4.400  0.5507 -1.1163  0.3542
 5244SOL     OW15857   6.182   6.289   1.083 -0.1396 -0.0228 -0.3304
 5244SOL    HW115858   6.122   6.232   1.132  0.6834 -0.0474  0.7054
 5244SOL    HW215859   6.124   6.341   1.026 -0.9810 -1.2592 -0.6853
 5245SOL     OW15860   3.341   3.680   2.447 -0.3404 -0.0736 -0.0969
 5245SOL    HW115861   3.276   3.684   2.517 -1.0367  1.5663 -0.7456
 5245SOL    HW215862   3.412   3.735   2.477 -0.6177  0.5933 -0.6124
 5246SOL     OW15863   0.759   4.551   1.277  0.7060 -0.0118  0.3772
 5246SOL    HW115864   0.683   4.548   1.219  0.6094  0.7407  0.4543
 5246SOL    HW215865   0.732   4.604   1.351  1.1860 -0.0499  0.5929
 5247SOL     OW15866   0.599   1.384   0.546  0.0182 -0.0246  0.5082
 5247SOL    HW115867   0.683   1.424   0.570  0.4976 -0.7425  0.0909
 5247SOL    HW215868   0.589   1.404   0.453 -0.8125  0.9475  0.7627
 5248SOL     OW15869   5.562   3.656   4.008  0.2342  0.1338 -0.1625
 5248SOL    HW115870   5.475   3.680   3.975  0.2170 -0.1138 -0.3056
 5248SOL    HW215871   5.618   3.731   3.986 -0.4071  1.4636  2.1039
 5249SOL     OW15872   4.625   1.020   3.548  0.1147 -0.2442  0.2556
 5249SOL    HW115873   4.630   1.014   3.644 -1.3084  0.3425  0.4191
 5249SOL    HW215874   4.543   1.067   3.532 -0.0098 -0.8781 -1.2742
 5250SOL     OW15875   0.098   5.970   3.548 -0.2101 -0.8569 -0.1779
 5250SOL    HW115876   0.154   5.912   3.601  0.4095 -0.8307 -0.7696
 5250SOL    HW215877   0.109   6.057   3.588 -0.8021 -1.0502  0.4465
 5251SOL     OW15878   5.062   5.351   1.352  0.3108  0.1501  0.2766
 5251SOL    HW115879   4.986   5.407   1.370  0.0379  0.4308 -1.3958
 5251SOL    HW215880   5.093   5.381   1.267  0.8079 -1.5587 -0.2171
 5252SOL     OW15881   0.510   5.971   2.480 -0.1790  0.3716 -0.0173
 5252SOL    HW115882   0.512   5.920   2.399 -0.8840  0.7941 -0.3146
 5252SOL    HW215883   0.436   6.031   2.469  1.1092  2.0788 -0.0537
 5253SOL     OW15884   0.635   5.483   2.667  0.6071 -0.2383 -0.1983
 5253SOL    HW115885   0.578   5.437   2.729 -0.0628  0.8041  0.0157
 5253SOL    HW215886   0.592   5.473   2.583  1.3298 -1.3494 -0.4748
 5254SOL     OW15887   0.182   6.164   4.139 -0.1913  0.1084  0.7044
 5254SOL    HW115888   0.200   6.258   4.141 -0.0727  0.1148 -0.2208
 5254SOL    HW215889   0.095   6.156   4.178  0.1080  0.4971  1.5221
 5255SOL     OW15890   5.396   4.692   0.588  0.4391  0.3674  0.1823
 5255SOL    HW115891   5.412   4.784   0.608  1.1521  0.1907  0.4861
 5255SOL    HW215892   5.483   4.654   0.578  0.1578 -0.2850  0.0934
 5256SOL     OW15893   3.896   3.823   0.412 -0.2213  0.3255  0.3453
 5256SOL    HW115894   3.957   3.865   0.473  1.1495 -0.2615 -0.5322
 5256SOL    HW215895   3.810   3.853   0.441  0.4510  1.2179  1.6556
 5257SOL     OW15896   0.108   4.924   1.070  0.5822 -0.4441 -0.1742
 5257SOL    HW115897   0.174   4.856   1.061  0.6361 -0.5874  0.9793
 5257SOL    HW215898   0.038   4.884   1.122  1.1001  0.6283  1.5114
 5258SOL     OW15899   5.697   4.624   3.416 -0.2925  0.2647 -0.1285
 5258SOL    HW115900   5.633   4.590   3.353  0.6012 -0.7939 -0.5460
 5258SOL    HW215901   5.674   4.583   3.499 -0.6688  0.5905 -0.0680
 5259SOL     OW15902   1.737   3.190   1.336  0.5241 -0.2989 -0.8305
 5259SOL    HW115903   1.656   3.237   1.353 -1.3493 -2.8983 -1.3048
 5259SOL    HW215904   1.784   3.192   1.420 -1.7794 -1.4635  0.7087
 5260SOL     OW15905   3.822   6.211   0.360 -0.5120  0.4618 -0.1444
 5260SOL    HW115906   3.782   6.275   0.420  0.1630  1.5993 -0.8272
 5260SOL    HW215907   3.748   6.175   0.311 -0.8931  1.0627 -0.0390
 5261SOL     OW15908   3.353   1.579   3.612 -0.6514 -1.0330  0.9268
 5261SOL    HW115909   3.377   1.671   3.608 -0.0442 -0.9882  3.0597
 5261SOL    HW215910   3.289   1.574   3.683  0.7201 -2.3862  2.2189
 5262SOL     OW15911   2.999   4.852   4.103 -0.0214 -0.1095  0.0219
 5262SOL    HW115912   2.983   4.940   4.136 -0.3318 -0.2332  0.2089
 5262SOL    HW215913   3.084   4.858   4.059  0.2196  0.1487  0.5113
 5263SOL     OW15914   2.953   1.048   1.821  0.5010  0.3122 -0.1331
 5263SOL    HW115915   3.018   1.023   1.755  0.4578  0.5034 -0.2505
 5263SOL    HW215916   2.892   0.975   1.824  1.9160 -0.9684  1.5971
 5264SOL     OW15917   3.740   5.054   3.702  0.2120  0.4784  0.2431
 5264SOL    HW115918   3.727   4.970   3.745  0.6180  0.0828 -0.3748
 5264SOL    HW215919   3.652   5.093   3.699 -0.1237 -0.2701 -0.1412
 5265SOL     OW15920   2.720   1.244   4.076 -0.0849  0.5575  0.5287
 5265SOL    HW115921   2.804   1.269   4.036 -0.3767 -0.0732 -0.5756
 5265SOL    HW215922   2.657   1.305   4.038 -0.5139 -0.6069 -0.7911
 5266SOL     OW15923   0.656   6.174   2.865  0.1735  0.0836 -0.2186
 5266SOL    HW115924   0.671   6.109   2.796 -0.3777  0.0936 -0.3605
 5266SOL    HW215925   0.693   6.255   2.830 -1.2476  0.4197 -1.1222
 5267SOL     OW15926   5.585   4.143   2.426 -0.2425 -0.7618  0.5438
 5267SOL    HW115927   5.673   4.172   2.453  0.1014 -0.9266 -0.3289
 5267SOL    HW215928   5.549   4.101   2.504  0.3632 -0.4811  0.9924
 5268SOL     OW15929   3.189   2.439   2.038  0.5091 -0.3590  0.3387
 5268SOL    HW115930   3.174   2.435   2.132 -1.6931 -0.1124  0.1194
 5268SOL    HW215931   3.167   2.530   2.015  1.4231 -0.2968 -0.3883
 5269SOL     OW15932   4.367   1.465   2.291 -0.2096 -0.4783 -0.9548
 5269SOL    HW115933   4.449   1.513   2.303  0.3841 -1.4789 -0.7399
 5269SOL    HW215934   4.392   1.373   2.301 -1.4142 -0.7996 -0.6223
 5270SOL     OW15935   3.863   1.593   1.438  0.4135  0.4647 -0.1432
 5270SOL    HW115936   3.942   1.565   1.391  0.3067 -1.8408  0.7985
 5270SOL    HW215937   3.792   1.577   1.377  0.5508  2.5110 -0.9798
 5271SOL     OW15938   2.670   4.601   0.310 -0.5688 -0.3884  0.0155
 5271SOL    HW115939   2.584   4.577   0.275 -1.1833  1.7438 -0.1846
 5271SOL    HW215940   2.731   4.578   0.241 -0.9679 -1.6257  0.0226
 5272SOL     OW15941   6.306   1.981   1.961 -0.3227 -0.1518 -0.2107
 5272SOL    HW115942   6.357   1.929   1.898 -0.1802  0.7955 -0.9235
 5272SOL    HW215943   6.341   1.956   2.046 -0.9682 -1.9746 -0.3923
 5273SOL     OW15944   2.259   1.921   0.526 -0.1483 -0.4083 -0.1863
 5273SOL    HW115945   2.342   1.906   0.481 -0.1697 -0.2321 -0.2860
 5273SOL    HW215946   2.199   1.947   0.457 -0.9931 -2.8939 -0.5996
 5274SOL     OW15947   3.458   5.414   0.097 -0.1243 -0.6807 -0.1612
 5274SOL    HW115948   3.456   5.371   0.011 -1.4816 -0.3574 -0.3326
 5274SOL    HW215949   3.367   5.431   0.118  0.2475  0.7548  0.5985
 5275SOL     OW15950   4.729   0.250   1.782 -0.4897 -0.1056 -0.1360
 5275SOL    HW115951   4.742   0.345   1.777  1.4193 -0.3193 -0.7866
 5275SOL    HW215952   4.663   0.231   1.715 -0.1635  0.6872 -0.7141
 5276SOL     OW15953   5.487   5.119   4.180 -0.1680 -0.2812 -0.8570
 5276SOL    HW115954   5.412   5.062   4.162  0.4023 -1.0127 -1.0211
 5276SOL    HW215955   5.452   5.187   4.237 -0.4176 -2.2434  1.7494
 5277SOL     OW15956   0.721   2.228   1.780 -0.2541  0.5359 -0.0083
 5277SOL    HW115957   0.748   2.307   1.827  2.1184 -0.7514  1.1850
 5277SOL    HW215958   0.795   2.208   1.723 -0.4224 -1.1394  0.2512
 5278SOL     OW15959   0.003   4.106   0.683 -0.2021  0.4258  0.6487
 5278SOL    HW115960   0.095   4.080   0.689 -0.6613 -1.4348  1.0338
 5278SOL    HW215961  -0.045   4.031   0.719 -1.9542  0.6391 -0.9461
 5279SOL     OW15962   6.154   3.233   3.680  0.7145  0.2930  0.1518
 5279SOL    HW115963   6.188   3.322   3.682 -0.3653  0.7316  0.2917
 5279SOL    HW215964   6.116   3.220   3.767  0.6835 -0.2357  0.0676
 5280SOL     OW15965   5.730   2.671   2.763 -0.5077 -0.0282 -0.2579
 5280SOL    HW115966   5.682   2.589   2.780 -0.2681  0.0678  1.0677
 5280SOL    HW215967   5.822   2.649   2.780 -0.4182  0.4678 -0.0691
 5281SOL     OW15968   1.778   1.761   1.802  0.3244  0.6497  0.0424
 5281SOL    HW115969   1.797   1.675   1.764 -1.6168  0.5662 -1.0410
 5281SOL    HW215970   1.708   1.744   1.865 -0.5771  1.4458 -0.6815
 5282SOL     OW15971   1.702   2.232   0.923 -0.4027 -0.0252 -0.1310
 5282SOL    HW115972   1.654   2.247   0.842 -0.7741  2.1042  0.3810
 5282SOL    HW215973   1.660   2.155   0.961  0.0812 -1.4212 -2.0625
 5283SOL     OW15974   2.912   5.663   1.188 -0.3690 -0.7127  0.7494
 5283SOL    HW115975   2.849   5.718   1.236 -0.2136 -1.0647  1.3849
 5283SOL    HW215976   2.917   5.582   1.239 -0.7026 -1.3991 -0.2446
 5284SOL     OW15977   2.347   3.073   2.222 -0.1104  0.2926 -0.1527
 5284SOL    HW115978   2.301   3.100   2.142  0.7674  0.5149 -0.6076
 5284SOL    HW215979   2.393   2.993   2.197 -1.0316 -0.5075  0.5921
 5285SOL     OW15980   3.742   0.182   3.041 -0.3030 -0.0034 -0.0575
 5285SOL    HW115981   3.814   0.214   3.096 -1.5365 -0.2754  1.8972
 5285SOL    HW215982   3.759   0.222   2.956  1.6937  0.5868  0.4900
 5286SOL     OW15983   4.599   6.080   0.115  0.0776  0.1240  0.0254
 5286SOL    HW115984   4.538   6.012   0.085  0.1858 -0.0199  0.1250
 5286SOL    HW215985   4.624   6.127   0.036  0.5936 -0.4417 -0.1663
 5287SOL     OW15986   3.345   3.668   3.932 -0.1517 -0.3220 -0.5596
 5287SOL    HW115987   3.346   3.758   3.899 -0.5399  1.3639  3.0755
 5287SOL    HW215988   3.430   3.656   3.974  0.5697 -2.5007 -2.2483
 5288SOL     OW15989   2.023   5.512   2.913  0.2396  0.4895  0.1544
 5288SOL    HW115990   1.989   5.457   2.983  0.5353 -0.2097 -0.2263
 5288SOL    HW215991   2.117   5.495   2.912  0.1577 -0.1353 -0.8811
 5289SOL     OW15992   5.637   2.181   0.581  0.2548  0.0985  0.2745
 5289SOL    HW115993   5.583   2.201   0.657  0.4520 -0.4565  0.5715
 5289SOL    HW215994   5.590   2.112   0.535  0.0820  0.5058 -0.1793
 5290SOL     OW15995   2.129   0.031   2.747  0.4554 -0.3750 -0.4260
 5290SOL    HW115996   2.077  -0.048   2.735  0.9230 -0.7515 -0.0588
 5290SOL    HW215997   2.196   0.006   2.810 -0.2990  0.7611  0.9158
 5291SOL     OW15998   2.984   1.663   2.550 -0.3980 -0.3302 -0.6599
 5291SOL    HW115999   3.051   1.601   2.577 -0.5344 -0.0887  0.3189
 5291SOL    HW216000   2.976   1.651   2.455  2.8054  1.3533 -1.4256
 5292SOL     OW16001   5.384   4.369   2.894  0.2631 -0.0386 -0.8290
 5292SOL    HW116002   5.361   4.366   2.987 -0.4841 -0.5989 -1.0206
 5292SOL    HW216003   5.410   4.460   2.879 -1.2084  0.4916 -0.4266
 5293SOL     OW16004   4.335   0.241   2.619  0.5644  0.9371 -0.0431
 5293SOL    HW116005   4.394   0.302   2.574  0.4062  0.6888 -0.6146
 5293SOL    HW216006   4.270   0.297   2.662 -0.1478  1.1931 -1.3458
 5294SOL     OW16007   0.775   4.244   2.780 -0.3063 -0.3605 -0.1700
 5294SOL    HW116008   0.837   4.314   2.794 -0.7044  0.1466 -0.8228
 5294SOL    HW216009   0.821   4.182   2.724 -0.5526  0.3005 -1.1528
 5295SOL     OW16010   6.067   4.122   3.078  0.3825  0.1358  0.3537
 5295SOL    HW116011   6.075   4.211   3.112 -1.7494  1.4042 -1.8347
 5295SOL    HW216012   6.038   4.133   2.988  2.0264 -2.8384 -0.8430
 5296SOL     OW16013   3.806   6.172   0.679 -0.2437 -0.0356 -0.2938
 5296SOL    HW116014   3.856   6.108   0.730  1.1871  0.2063 -1.2681
 5296SOL    HW216015   3.836   6.159   0.589 -2.4480 -0.2654 -1.1025
 5297SOL     OW16016   6.312   4.830   1.216  0.0386 -0.6881 -0.4145
 5297SOL    HW116017   6.237   4.851   1.161  0.2502  0.7510 -0.2457
 5297SOL    HW216018   6.320   4.906   1.274  1.8531 -0.5805 -0.7003
 5298SOL     OW16019   3.127   3.549   0.117 -0.4077 -0.0283 -0.5277
 5298SOL    HW116020   3.040   3.518   0.143 -0.2442  0.4261  0.6799
 5298SOL    HW216021   3.129   3.640   0.144  0.3743  0.0374 -0.7636
 5299SOL     OW16022   6.199   0.720   3.044  0.3479 -0.5310  0.3666
 5299SOL    HW116023   6.125   0.681   2.999  0.0779 -0.1109  0.4285
 5299SOL    HW216024   6.271   0.714   2.982 -0.1340  0.4879 -0.3580
 5300SOL     OW16025   4.062   1.762   2.037 -0.2631 -0.2171  0.3376
 5300SOL    HW116026   3.973   1.753   2.005  0.0981  1.4521 -1.5984
 5300SOL    HW216027   4.062   1.721   2.123 -3.1555  0.5661  0.9122
 5301SOL     OW16028   3.801   3.383   1.538 -0.4153  0.0585 -0.0893
 5301SOL    HW116029   3.714   3.357   1.566 -0.3165  0.4872  0.6660
 5301SOL    HW216030   3.860   3.349   1.606  0.0035 -0.1556 -0.5461
 5302SOL     OW16031   4.523   4.329   1.432  0.2159 -0.9073 -0.3671
 5302SOL    HW116032   4.521   4.319   1.528 -0.6446 -0.6224 -0.3360
 5302SOL    HW216033   4.510   4.423   1.418  1.2171 -0.8078 -0.7654
 5303SOL     OW16034   4.636   5.164   0.675 -0.0553  0.4913  0.2151
 5303SOL    HW116035   4.566   5.118   0.721 -1.3062  1.2054 -0.8397
 5303SOL    HW216036   4.698   5.095   0.650 -1.1165 -0.4202 -0.0605
 5304SOL     OW16037   4.773   0.713   0.509 -0.2599 -0.4444 -0.2199
 5304SOL    HW116038   4.826   0.728   0.588 -0.8092  2.9603 -0.1527
 5304SOL    HW216039   4.685   0.743   0.534 -0.3681  1.2523 -2.0727
 5305SOL     OW16040   4.643   3.998   2.887 -0.1909  0.4417 -0.0888
 5305SOL    HW116041   4.590   4.074   2.911  0.7578  1.4649 -1.0348
 5305SOL    HW216042   4.717   4.034   2.839 -0.0218 -1.1413 -1.1660
 5306SOL     OW16043   1.066   6.230   1.136  0.6139  0.1343 -0.5363
 5306SOL    HW116044   1.033   6.178   1.210  1.5443 -1.8251 -1.3496
 5306SOL    HW216045   1.105   6.165   1.077  1.3235  1.7534 -2.0181
 5307SOL     OW16046   3.755   0.960   2.501  0.0415  0.2183 -0.1901
 5307SOL    HW116047   3.828   0.996   2.451 -0.2347  1.1443  0.0456
 5307SOL    HW216048   3.796   0.895   2.559  0.7427  0.9730  0.2027
 5308SOL     OW16049   1.060   4.413   1.119  0.4136 -0.1054  0.0922
 5308SOL    HW116050   1.086   4.474   1.051 -0.0306  0.7429  0.6481
 5308SOL    HW216051   1.049   4.467   1.198 -0.1905 -0.8560  0.5599
 5309SOL     OW16052   3.014   0.293   2.863 -0.6990 -0.1115 -0.5210
 5309SOL    HW116053   2.985   0.237   2.935 -1.3034 -0.5971 -1.1280
 5309SOL    HW216054   3.016   0.381   2.901 -1.1141 -0.3406  0.0573
 5310SOL     OW16055   3.702   3.401   1.900 -0.2589 -0.5957 -0.0543
 5310SOL    HW116056   3.726   3.353   1.979  0.0402 -1.6286 -0.7313
 5310SOL    HW216057   3.654   3.337   1.846  0.9795 -0.4913 -1.4115
 5311SOL     OW16058   5.708   3.884   3.968  0.0592 -0.6533 -0.1307
 5311SOL    HW116059   5.640   3.946   3.944 -0.8442 -1.9650 -1.3094
 5311SOL    HW216060   5.765   3.878   3.891 -0.5356 -2.0209 -0.5383
 5312SOL     OW16061   0.499   0.814   3.511 -0.1358  0.1604 -0.5673
 5312SOL    HW116062   0.407   0.817   3.482  0.4661  1.6702 -2.9384
 5312SOL    HW216063   0.507   0.889   3.570 -0.3109  0.4405 -0.8892
 5313SOL     OW16064   3.758   3.593   2.786  0.3915 -0.5310 -0.4583
 5313SOL    HW116065   3.679   3.637   2.819  0.5203 -0.9495  0.4767
 5313SOL    HW216066   3.773   3.632   2.700 -1.3477 -1.0436 -1.0954
 5314SOL     OW16067   5.757   1.260   4.535 -0.1930 -0.1330  0.2840
 5314SOL    HW116068   5.818   1.267   4.461  1.1682  0.6420  1.3849
 5314SOL    HW216069   5.767   1.170   4.566  0.0457 -0.1470  0.1697
 5315SOL     OW16070   3.713   2.342   4.000  0.1735  0.1257  0.0180
 5315SOL    HW116071   3.640   2.361   3.942 -0.0816  4.3375  1.0645
 5315SOL    HW216072   3.791   2.349   3.945 -0.0798 -0.4262 -0.4337
 5316SOL     OW16073   5.611   4.283   0.195 -0.0479  0.0823 -0.1029
 5316SOL    HW116074   5.580   4.368   0.164 -0.8554 -0.5106 -1.0501
 5316SOL    HW216075   5.639   4.238   0.115 -0.5934 -0.8967  0.2238
 5317SOL     OW16076   3.501   6.065   3.734 -0.6831 -0.4185 -0.0154
 5317SOL    HW116077   3.594   6.062   3.756 -0.2798 -0.9173 -1.5101
 5317SOL    HW216078   3.460   5.999   3.790  0.0309 -0.8378  0.0289
 5318SOL     OW16079   1.425   3.601   2.067 -0.0964  0.6435 -0.1465
 5318SOL    HW116080   1.462   3.517   2.041  0.3585  1.0181 -0.7998
 5318SOL    HW216081   1.474   3.665   2.014 -1.1448  1.2379 -0.4586
 5319SOL     OW16082   5.973   0.986   4.234 -0.3562  0.3520 -0.1365
 5319SOL    HW116083   6.044   0.933   4.198  0.5554  0.3436  1.5181
 5319SOL    HW216084   5.910   0.993   4.162 -0.2113 -2.3449 -0.7251
 5320SOL     OW16085   5.496   4.515   0.102  0.2532 -0.2684 -0.2565
 5320SOL    HW116086   5.548   4.594   0.114  0.1517 -0.2802  0.2865
 5320SOL    HW216087   5.407   4.541   0.124  0.2683 -0.6101  0.2344
 5321SOL     OW16088   0.363   5.169   3.657 -0.3601  0.1967 -0.4112
 5321SOL    HW116089   0.433   5.197   3.598  1.8671 -1.8565  0.9114
 5321SOL    HW216090   0.303   5.119   3.601 -0.7548  1.7993 -1.5456
 5322SOL     OW16091   3.995   4.415   3.737  0.1503  0.1600  0.6445
 5322SOL    HW116092   4.032   4.493   3.696  0.7790  1.0800  2.6846
 5322SOL    HW216093   4.060   4.346   3.721  0.1891  0.3708 -0.1433
 5323SOL     OW16094   5.976   0.311   3.941  0.3155  0.4524  0.1074
 5323SOL    HW116095   5.918   0.365   3.994  0.1996  0.7657 -0.3227
 5323SOL    HW216096   5.921   0.239   3.909  0.0422  0.9701 -0.6308
 5324SOL     OW16097   2.071   1.719   2.355 -0.3133  0.0748 -0.5787
 5324SOL    HW116098   2.047   1.811   2.361 -0.9806  0.0237 -1.7747
 5324SOL    HW216099   2.166   1.720   2.339 -0.3451  0.5643 -0.7722
 5325SOL     OW16100   5.383   1.107   3.969 -0.1895  0.0764 -0.5650
 5325SOL    HW116101   5.389   1.070   3.881 -1.5017 -1.2604 -0.1830
 5325SOL    HW216102   5.297   1.148   3.972 -0.5099 -0.5902  0.2905
 5326SOL     OW16103   5.268   2.010   4.142  0.1033  0.2729  0.8138
 5326SOL    HW116104   5.173   1.997   4.139  0.1318 -0.8472  2.4010
 5326SOL    HW216105   5.281   2.082   4.203  0.3073  1.1489 -0.1919
 5327SOL     OW16106   5.457   0.699   3.679 -0.0840 -0.0370  0.3170
 5327SOL    HW116107   5.385   0.732   3.732 -1.4392  0.7342 -1.7806
 5327SOL    HW216108   5.416   0.668   3.598  1.8301 -0.7580 -0.4950
 5328SOL     OW16109   1.173   3.383   2.891  0.3396  0.0143 -0.1236
 5328SOL    HW116110   1.121   3.359   2.814  2.5153 -0.8558 -1.4932
 5328SOL    HW216111   1.227   3.456   2.862 -1.2564  2.3333  1.8722
 5329SOL     OW16112   1.155   5.133   2.607  0.4127  0.5778  0.3351
 5329SOL    HW116113   1.193   5.220   2.619  1.0765  0.6609 -1.6649
 5329SOL    HW216114   1.061   5.149   2.596  0.5071  1.0350  0.1325
 5330SOL     OW16115   3.133   1.490   1.060  0.1849  0.2320 -0.2332
 5330SOL    HW116116   3.094   1.566   1.104 -0.9273 -0.2417 -0.3275
 5330SOL    HW216117   3.131   1.513   0.967  1.9858  0.9852 -0.1734
 5331SOL     OW16118   1.566   4.329   3.017 -0.0297 -0.1126 -0.4834
 5331SOL    HW116119   1.547   4.422   3.004 -0.2321 -0.2991 -1.9069
 5331SOL    HW216120   1.563   4.292   2.928  0.6259 -1.3742 -0.0253
 5332SOL     OW16121   3.620   2.313   2.629 -0.3759  0.3967  0.3920
 5332SOL    HW116122   3.649   2.340   2.542 -0.3557 -1.0351 -0.1003
 5332SOL    HW216123   3.697   2.321   2.684 -0.3034  1.0109  0.2162
 5333SOL     OW16124   3.226   0.511   2.372  0.7841  0.0205 -0.4303
 5333SOL    HW116125   3.284   0.547   2.439  1.5545  2.0505 -1.9894
 5333SOL    HW216126   3.282   0.496   2.296 -0.2519 -0.9065 -1.0775
 5334SOL     OW16127   4.343   3.129   0.324  0.3824 -0.8741  0.0662
 5334SOL    HW116128   4.265   3.076   0.337 -0.6911  0.0307 -1.8737
 5334SOL    HW216129   4.311   3.209   0.282  2.0892  0.6611  1.3788
 5335SOL     OW16130   1.806   4.568   4.265 -0.4485 -0.2777  0.0259
 5335SOL    HW116131   1.790   4.474   4.262  2.2492 -0.8896 -0.2845
 5335SOL    HW216132   1.809   4.589   4.358 -2.7422  0.0116  0.1407
 5336SOL     OW16133   2.739   4.419   1.165 -0.3946  0.0298 -0.3541
 5336SOL    HW116134   2.669   4.355   1.181 -0.9797  0.4837 -0.9540
 5336SOL    HW216135   2.693   4.502   1.154  0.2634  0.3785 -0.5858
 5337SOL     OW16136   0.155   0.531   2.036 -0.2520 -0.2140  0.1584
 5337SOL    HW116137   0.234   0.479   2.022  2.2376  2.4426  1.9595
 5337SOL    HW216138   0.166   0.606   1.976  0.8249  2.0058  2.7261
 5338SOL     OW16139   5.480   2.356   0.099 -0.4130 -0.2370  0.0929
 5338SOL    HW116140   5.460   2.411   0.023 -0.2700  1.7564  1.3539
 5338SOL    HW216141   5.569   2.324   0.084 -1.3580 -2.5992 -1.9030
 5339SOL     OW16142   1.655   3.566   1.132  0.3911  0.2608  0.5523
 5339SOL    HW116143   1.696   3.639   1.086  1.0121 -0.6604 -0.4609
 5339SOL    HW216144   1.688   3.573   1.221  0.3412  1.2720  0.5148
 5340SOL     OW16145   1.578   3.385   0.522 -0.4852 -0.4834 -0.2338
 5340SOL    HW116146   1.508   3.376   0.587 -0.9946  0.8760 -0.5293
 5340SOL    HW216147   1.605   3.476   0.528 -1.7882  0.3049 -3.0501
 5341SOL     OW16148   2.788   2.511   1.785  0.2755 -0.0722 -0.4739
 5341SOL    HW116149   2.760   2.425   1.815  0.1804  0.2543  0.4516
 5341SOL    HW216150   2.884   2.508   1.789  0.2725 -0.1403 -0.4515
 5342SOL     OW16151   1.856   1.436   1.038 -0.6449  0.4119  0.2073
 5342SOL    HW116152   1.904   1.359   1.068  1.0986  0.7581 -1.3713
 5342SOL    HW216153   1.770   1.427   1.079 -0.0924 -1.6181  1.2008
 5343SOL     OW16154   1.438   1.713   0.134 -0.1773 -0.6571  0.0241
 5343SOL    HW116155   1.389   1.795   0.131 -0.1705 -0.6623 -0.9584
 5343SOL    HW216156   1.524   1.735   0.098 -0.4239 -1.2228 -1.0006
 5344SOL     OW16157   5.516   5.396   1.469 -0.1561  0.5209  0.0213
 5344SOL    HW116158   5.446   5.331   1.471  0.7707 -0.5319  1.3393
 5344SOL    HW216159   5.491   5.455   1.398 -0.5648 -1.8234 -2.0821
 5345SOL     OW16160   1.705   3.558   0.178 -0.2342  0.6816 -0.3109
 5345SOL    HW116161   1.794   3.593   0.180 -0.2698  0.7941  1.0442
 5345SOL    HW216162   1.716   3.463   0.186 -0.2091  0.7597  1.0897
 5346SOL     OW16163   6.277   3.759   0.478  0.1159 -0.1219 -0.2160
 5346SOL    HW116164   6.230   3.842   0.486  1.2727  0.4767  1.6256
 5346SOL    HW216165   6.224   3.707   0.417 -2.4324  0.7587  0.9694
 5347SOL     OW16166   4.378   1.966   4.052  0.0694  0.2036  0.1960
 5347SOL    HW116167   4.286   1.980   4.074 -0.2985  0.1613 -1.1839
 5347SOL    HW216168   4.417   1.931   4.133 -0.9906  0.7188  0.9628
 5348SOL     OW16169   2.017   5.739   0.750  0.0831  0.5375  0.4064
 5348SOL    HW116170   2.008   5.647   0.775 -0.3230  1.0587  2.5010
 5348SOL    HW216171   1.941   5.782   0.787  0.8255  1.8994  0.4741
 5349SOL     OW16172   4.508   4.326   2.297 -0.0989 -0.1342 -0.0884
 5349SOL    HW116173   4.578   4.392   2.300 -2.2047  2.4290  0.5046
 5349SOL    HW216174   4.430   4.375   2.270 -2.3179 -1.9784  2.0010
 5350SOL     OW16175   0.749   5.006   0.784 -0.0366  0.1942 -0.4203
 5350SOL    HW116176   0.663   4.969   0.765 -0.4145  0.4052  0.7350
 5350SOL    HW216177   0.810   4.955   0.731 -0.6962 -1.0726 -0.0148
 5351SOL     OW16178   6.279   2.566   1.229  0.4714 -0.8683 -0.7294
 5351SOL    HW116179   6.226   2.509   1.285  0.4098 -0.8376 -0.7558
 5351SOL    HW216180   6.215   2.624   1.187  0.6177  0.0993  0.2791
 5352SOL     OW16181   0.981   6.222   2.700 -0.9589 -0.1186 -0.3387
 5352SOL    HW116182   0.922   6.148   2.714 -0.6830 -0.5414 -1.2288
 5352SOL    HW216183   0.942   6.294   2.750  0.3838 -1.4835  3.3973
 5353SOL     OW16184   5.229   0.403   0.267 -0.0998 -0.1032  1.0950
 5353SOL    HW116185   5.224   0.496   0.286 -0.1574 -0.1192  1.1576
 5353SOL    HW216186   5.282   0.366   0.337  0.3517 -0.0384  0.7923
 5354SOL     OW16187   3.274   4.420   2.734  0.3633 -0.1699  0.6395
 5354SOL    HW116188   3.353   4.389   2.779 -0.1798 -0.7317  1.2653
 5354SOL    HW216189   3.288   4.400   2.642  1.5025  0.9765  0.5035
 5355SOL     OW16190   1.013   4.814   2.739 -0.1487 -0.2810 -0.1051
 5355SOL    HW116191   1.014   4.814   2.643 -0.7907 -0.0772 -0.1181
 5355SOL    HW216192   0.922   4.828   2.762 -0.0134 -0.4161  0.5430
 5356SOL     OW16193   0.299   5.500   0.336  0.0584  0.0730  0.1250
 5356SOL    HW116194   0.387   5.522   0.368 -0.6452  0.5479  1.9812
 5356SOL    HW216195   0.275   5.422   0.385 -1.2057  1.0070  1.1436
 5357SOL     OW16196   4.074   4.685   4.518 -0.1212  0.1590 -0.3704
 5357SOL    HW116197   4.082   4.765   4.466  1.8290 -0.0054 -0.4739
 5357SOL    HW216198   4.116   4.617   4.465 -0.9258 -0.7635  0.1045
 5358SOL     OW16199   5.326   3.991   3.364  0.0975  0.3407  0.3649
 5358SOL    HW116200   5.283   4.039   3.293 -0.5797 -0.5049  0.1594
 5358SOL    HW216201   5.357   3.910   3.322 -1.4579 -0.8046  1.1955
 5359SOL     OW16202   2.891   4.404   4.528  0.1519 -0.0938 -0.0962
 5359SOL    HW116203   2.926   4.400   4.617 -0.7027  0.1521  0.2719
 5359SOL    HW216204   2.796   4.414   4.539 -0.0457 -0.6180 -1.0389
 5360SOL     OW16205   2.141   3.341   1.774  0.8444 -0.7376  0.1834
 5360SOL    HW116206   2.115   3.254   1.803 -0.6659  0.1390  1.8734
 5360SOL    HW216207   2.062   3.394   1.784  1.7763  0.9171 -0.4319
 5361SOL     OW16208   5.335   5.851   1.677  0.2802 -0.5248 -0.2182
 5361SOL    HW116209   5.247   5.841   1.641  0.1174 -0.9376  0.2601
 5361SOL    HW216210   5.355   5.766   1.717 -0.0338  0.1699  1.6479
 5362SOL     OW16211   0.319   4.346   3.087  0.4256  0.0579  0.5779
 5362SOL    HW116212   0.329   4.318   2.996  0.7474  0.8756  0.3441
 5362SOL    HW216213   0.363   4.278   3.138  0.5999 -0.2029  0.0896
 5363SOL     OW16214   1.611   1.817   1.225  0.0625 -0.5821  0.4633
 5363SOL    HW116215   1.584   1.759   1.153 -1.3942 -0.4186  0.8388
 5363SOL    HW216216   1.634   1.758   1.296 -0.3208 -0.7222  0.4732
 5364SOL     OW16217   2.709   3.712   2.880 -0.3227 -0.3430  0.2635
 5364SOL    HW116218   2.714   3.792   2.828 -0.8876  0.0405  0.7709
 5364SOL    HW216219   2.711   3.641   2.816 -1.1931  0.1151 -0.3081
 5365SOL     OW16220   4.611   3.675   0.021  0.4132 -0.4775  0.5820
 5365SOL    HW116221   4.662   3.646   0.097  0.2874 -0.6323  0.6104
 5365SOL    HW216222   4.676   3.710  -0.040  0.4742  0.0151  0.9229
 5366SOL     OW16223   1.319   3.166   2.986  0.2167 -0.0885  0.2466
 5366SOL    HW116224   1.277   3.244   2.950 -1.3262 -0.5605  0.8310
 5366SOL    HW216225   1.319   3.104   2.914 -1.7402 -0.6206  0.5755
 5367SOL     OW16226   0.527   3.951   2.491 -0.1075  0.2185  0.5468
 5367SOL    HW116227   0.585   4.017   2.453  1.8613 -1.3662  0.4488
 5367SOL    HW216228   0.583   3.874   2.502 -1.5690 -0.7291  2.9235
 5368SOL     OW16229   5.397   5.585   3.298  0.1471 -0.1800 -0.0681
 5368SOL    HW116230   5.342   5.511   3.323  0.8918 -0.9366 -0.5630
 5368SOL    HW216231   5.358   5.618   3.217  1.1888 -1.6719 -1.2768
 5369SOL     OW16232   5.930   2.209   0.829 -0.2838 -0.3635  0.4938
 5369SOL    HW116233   5.997   2.165   0.882  0.4352 -0.7312 -0.6589
 5369SOL    HW216234   5.937   2.169   0.743 -0.6401  0.9660 -0.2086
 5370SOL     OW16235   2.214   2.864   1.151  0.0783  0.3711  0.0836
 5370SOL    HW116236   2.164   2.937   1.190 -0.7227 -1.1739  2.3510
 5370SOL    HW216237   2.305   2.886   1.167 -0.0692  1.2983 -0.2189
 5371SOL     OW16238   0.510   4.147   4.389  0.8057 -0.0401  0.1157
 5371SOL    HW116239   0.510   4.102   4.474  1.7213  2.6377  1.7901
 5371SOL    HW216240   0.425   4.191   4.385  0.1185 -1.3041 -1.2531
 5372SOL     OW16241   4.901   4.281   2.350 -0.4764  0.0802 -0.3658
 5372SOL    HW116242   4.984   4.319   2.319 -0.5649  0.1958 -0.4609
 5372SOL    HW216243   4.853   4.258   2.271 -1.3333  1.7084 -0.4003
 5373SOL     OW16244   2.143   2.636   3.872 -0.7090 -0.3754  0.3436
 5373SOL    HW116245   2.187   2.662   3.954  1.2742 -1.9248 -0.0670
 5373SOL    HW216246   2.211   2.644   3.805 -1.5528 -1.3869 -0.7206
 5374SOL     OW16247   1.721   4.692   0.928  0.4615 -0.0871 -0.6969
 5374SOL    HW116248   1.701   4.729   1.014  0.2520 -1.7555  0.0466
 5374SOL    HW216249   1.816   4.704   0.918  0.2573  1.8560 -1.2037
 5375SOL     OW16250   4.742   4.262   3.358  0.6251  0.0991  0.1614
 5375SOL    HW116251   4.690   4.202   3.304  2.5637 -0.7548 -0.9502
 5375SOL    HW216252   4.678   4.326   3.390 -0.9585 -0.2973 -1.7916
 5376SOL     OW16253   3.974   0.428   2.911 -0.5128  0.6537 -0.0109
 5376SOL    HW116254   3.923   0.471   2.980 -1.1041 -0.5918  0.3823
 5376SOL    HW216255   4.063   0.427   2.945 -0.6063  0.9650  0.2614
 5377SOL     OW16256   4.245   4.606   2.211  0.1884  0.0111  0.1985
 5377SOL    HW116257   4.286   4.667   2.150 -0.1599  1.2028  1.0908
 5377SOL    HW216258   4.155   4.596   2.178  0.1538  0.2409  0.2220
 5378SOL     OW16259   4.375   3.140   3.811  0.3449 -0.3780 -0.3627
 5378SOL    HW116260   4.341   3.226   3.835  0.5319 -0.5725  0.6886
 5378SOL    HW216261   4.318   3.110   3.740 -0.5522  0.0514  0.1450
 5379SOL     OW16262   1.598   2.951   3.835 -0.1519  0.6650 -0.4741
 5379SOL    HW116263   1.569   2.929   3.747 -0.0625  0.0673 -0.3665
 5379SOL    HW216264   1.639   3.037   3.827 -1.4351  1.2935 -0.7340
 5380SOL     OW16265   0.107   2.778   0.447 -0.0571 -0.5646 -0.1753
 5380SOL    HW116266   0.093   2.684   0.460 -1.1071 -0.3629  0.3114
 5380SOL    HW216267   0.063   2.819   0.521  1.3303  0.2899  0.2431
 5381SOL     OW16268   4.980   1.075   1.185  0.0578 -0.3624 -0.2653
 5381SOL    HW116269   4.894   1.042   1.157  0.5173 -0.8558 -1.2327
 5381SOL    HW216270   5.031   0.996   1.202  0.9686 -0.2201 -1.9123
 5382SOL     OW16271   2.759   5.582   3.984 -0.0009  0.0236 -0.0663
 5382SOL    HW116272   2.736   5.516   4.049 -2.9111 -1.4630 -2.1393
 5382SOL    HW216273   2.686   5.644   3.985  2.0662  2.9093  0.9902
 5383SOL     OW16274   1.598   4.011   2.365 -0.5713 -0.0840  0.1224
 5383SOL    HW116275   1.605   3.987   2.272 -1.4835 -1.5090  0.3638
 5383SOL    HW216276   1.665   3.959   2.408  1.1236  1.8792  0.1844
 5384SOL     OW16277   5.705   3.071   0.017  0.2617  0.5911  0.3005
 5384SOL    HW116278   5.736   2.981   0.007  0.6499  0.7248  0.2341
 5384SOL    HW216279   5.764   3.110   0.082  0.2549  0.8627  0.1498
 5385SOL     OW16280   1.364   0.339   0.323  0.0953 -0.1081 -0.5163
 5385SOL    HW116281   1.390   0.288   0.400 -0.4464  1.1488  0.5760
 5385SOL    HW216282   1.402   0.292   0.249  0.9411 -1.1945  0.5312
 5386SOL     OW16283   4.463   5.793   3.483 -0.0234 -0.2118  0.3156
 5386SOL    HW116284   4.545   5.748   3.461  0.7119  0.6462  1.0950
 5386SOL    HW216285   4.405   5.775   3.409  1.3202  0.2076 -0.9462
 5387SOL     OW16286   4.013   5.231   3.791  0.3217  0.3308 -0.2606
 5387SOL    HW116287   3.932   5.180   3.792  0.3289  0.3065  0.6039
 5387SOL    HW216288   4.076   5.176   3.743  0.1812 -0.2313  0.1825
 5388SOL     OW16289   3.641   0.174   3.725 -0.0679  0.5015 -0.3046
 5388SOL    HW116290   3.585   0.220   3.662 -0.8549 -1.3393 -1.0997
 5388SOL    HW216291   3.580   0.138   3.790  0.2604 -0.6557 -0.5893
 5389SOL     OW16292   2.786   4.709   3.336  0.8806  0.0084 -0.2770
 5389SOL    HW116293   2.789   4.729   3.243  0.5233  2.1189  0.0662
 5389SOL    HW216294   2.701   4.669   3.350  0.4243  0.7636 -0.7385
 5390SOL     OW16295   0.943   6.389   3.187  0.3172 -0.0248  0.1079
 5390SOL    HW116296   0.881   6.333   3.141  0.2257  0.4433 -0.3527
 5390SOL    HW216297   0.894   6.424   3.261  0.0973  0.1507 -0.1159
 5391SOL     OW16298   0.687   6.174   2.429  0.9864  0.1781 -0.6772
 5391SOL    HW116299   0.722   6.172   2.340  2.4385 -0.6018 -0.1649
 5391SOL    HW216300   0.627   6.100   2.433  3.3627 -2.0114 -0.2562
 5392SOL     OW16301   1.968   4.874   0.054  0.3579  0.0572  0.1956
 5392SOL    HW116302   2.062   4.896   0.052  1.1727 -2.5425  1.0550
 5392SOL    HW216303   1.956   4.831   0.138 -1.5950  0.0665  0.0002
 5393SOL     OW16304   4.447   4.143   3.710 -0.1455 -0.2957 -0.0944
 5393SOL    HW116305   4.467   4.235   3.730 -0.8953  0.0839 -0.9407
 5393SOL    HW216306   4.510   4.093   3.762 -0.7381  0.6173  1.6760
 5394SOL     OW16307   2.329   5.417   1.168  0.2830  0.3138  0.1536
 5394SOL    HW116308   2.367   5.505   1.165  0.0511  0.7188 -4.2140
 5394SOL    HW216309   2.236   5.432   1.149  0.4505 -0.7171 -1.9409
 5395SOL     OW16310   5.560   5.298   4.504 -0.5889  0.2611 -0.2710
 5395SOL    HW116311   5.490   5.292   4.568  0.9341 -0.5407  1.5205
 5395SOL    HW216312   5.607   5.215   4.512  0.0473  0.3622 -2.0647
 5396SOL     OW16313   5.556   3.965   0.967 -0.2803  0.7643  0.3671
 5396SOL    HW116314   5.499   3.898   1.003 -0.5663  0.5670 -0.4174
 5396SOL    HW216315   5.555   4.035   1.033 -0.6420  0.3563  0.8084
 5397SOL     OW16316   3.593   0.392   1.049 -0.6247 -0.0989 -0.0201
 5397SOL    HW116317   3.518   0.430   1.095 -0.1463 -1.2722  1.9514
 5397SOL    HW216318   3.665   0.452   1.068 -0.0979 -1.2173  2.2493
 5398SOL     OW16319   0.227   2.298   4.295  0.7725  0.4381 -0.1490
 5398SOL    HW116320   0.270   2.374   4.332  0.0193  0.7837  0.0691
 5398SOL    HW216321   0.295   2.230   4.292  1.5301  1.1903 -0.6200
 5399SOL     OW16322   4.565   4.716   4.180  0.6061 -0.5196 -0.4323
 5399SOL    HW116323   4.552   4.800   4.225  0.4661 -0.4923 -0.5210
 5399SOL    HW216324   4.480   4.697   4.140  1.4701  1.4408 -4.1366
 5400SOL     OW16325   6.254   5.230   4.249  0.0058  0.3183 -0.1595
 5400SOL    HW116326   6.238   5.271   4.333 -1.2623 -0.9088  0.2695
 5400SOL    HW216327   6.286   5.301   4.193  1.4130  1.0870  1.4348
 5401SOL     OW16328   5.035   1.402   3.182 -0.1767 -0.4519 -0.0209
 5401SOL    HW116329   5.096   1.333   3.157 -0.7376 -0.3756 -1.8204
 5401SOL    HW216330   5.016   1.384   3.274  0.3016 -2.2164 -0.1992
 5402SOL     OW16331   2.116   5.237   1.887  0.4295 -0.3469  0.0651
 5402SOL    HW116332   2.176   5.308   1.863 -0.1352  0.7618  1.6488
 5402SOL    HW216333   2.032   5.264   1.850  0.3196 -0.4739  0.2256
 5403SOL     OW16334   1.068   2.318   1.967  0.4704  0.1316 -0.2783
 5403SOL    HW116335   0.996   2.334   2.027  0.5298  0.6170 -0.3290
 5403SOL    HW216336   1.140   2.371   2.002  0.1015  1.5873 -1.5433
 5404SOL     OW16337   2.922   6.340   2.703  0.0711  0.2033  0.4505
 5404SOL    HW116338   2.956   6.392   2.630 -0.4361  1.0640  0.7940
 5404SOL    HW216339   2.962   6.378   2.781  0.3105 -0.4568  0.6645
 5405SOL     OW16340   3.998   1.549   3.644  0.1440 -0.1854 -0.3453
 5405SOL    HW116341   4.066   1.558   3.711  1.0003  0.2339 -1.2301
 5405SOL    HW216342   3.972   1.639   3.625  1.2896 -0.1127 -1.8901
 5406SOL     OW16343   2.165   3.025   0.252 -0.1724  0.3081 -0.5820
 5406SOL    HW116344   2.208   2.981   0.325 -0.0296  0.8495 -0.3300
 5406SOL    HW216345   2.184   2.969   0.176 -0.1065 -0.1246 -0.2537
 5407SOL     OW16346   2.365   5.347   3.428 -0.3232 -0.0558 -0.2125
 5407SOL    HW116347   2.428   5.418   3.417 -0.5762  0.4854  1.3321
 5407SOL    HW216348   2.286   5.389   3.461 -0.8794 -0.9391 -0.3524
 5408SOL     OW16349   0.431   4.281   2.850 -0.5245  0.0759  0.4761
 5408SOL    HW116350   0.504   4.264   2.909  1.3291  1.3858 -1.1763
 5408SOL    HW216351   0.470   4.282   2.763 -2.2816  1.9104 -0.4662
 5409SOL     OW16352   5.286   0.161   1.895 -0.9926  0.6243  0.2232
 5409SOL    HW116353   5.306   0.067   1.903 -0.3803  0.7470  0.2781
 5409SOL    HW216354   5.363   0.197   1.851 -0.7675  1.2582  1.0908
 5410SOL     OW16355   4.985   1.687   4.126  0.0860 -0.2515  0.2345
 5410SOL    HW116356   4.938   1.622   4.178 -0.1945  0.4251  0.8575
 5410SOL    HW216357   5.007   1.641   4.045 -0.5773 -0.9560  0.4298
 5411SOL     OW16358   4.816   4.972   0.606  0.6356  0.5866  0.0026
 5411SOL    HW116359   4.892   5.013   0.566  1.2389 -0.2540  0.2240
 5411SOL    HW216360   4.801   4.893   0.554  1.9049 -0.9553  1.7186
 5412SOL     OW16361   5.124   0.528   2.368 -0.4720 -0.1741  0.5640
 5412SOL    HW116362   5.049   0.470   2.383 -0.5482 -0.4827 -0.7903
 5412SOL    HW216363   5.194   0.469   2.341 -1.0138  0.2768 -2.6416
 5413SOL     OW16364   5.807   1.594   1.788 -0.0178  0.1283 -0.4718
 5413SOL    HW116365   5.751   1.646   1.845  0.6743  0.7429 -0.3080
 5413SOL    HW216366   5.765   1.508   1.783  0.0159 -0.0326  1.1707
 5414SOL     OW16367   5.215   4.984   0.862 -0.4906 -0.1319 -0.8569
 5414SOL    HW116368   5.268   4.917   0.907 -0.3788  1.6037  2.1533
 5414SOL    HW216369   5.127   4.972   0.899 -0.7173  0.6884 -1.1028
 5415SOL     OW16370   0.000   4.677   3.557 -0.6426 -0.1094 -0.0476
 5415SOL    HW116371  -0.056   4.608   3.592 -0.1746 -0.0878  0.8278
 5415SOL    HW216372   0.009   4.656   3.464 -2.6501  0.3046 -0.4228
 5416SOL     OW16373   3.175   4.015   1.631  0.0123  0.3281 -0.1617
 5416SOL    HW116374   3.172   4.108   1.654 -0.0877  0.0047  1.2867
 5416SOL    HW216375   3.085   3.993   1.608 -0.5214  0.1263  1.7806
 5417SOL     OW16376   4.238   5.726   4.125 -0.3020  0.5113  0.1556
 5417SOL    HW116377   4.179   5.743   4.052 -0.5458  1.7953  0.6031
 5417SOL    HW216378   4.196   5.655   4.174 -0.6871  0.3845 -0.3397
 5418SOL     OW16379   1.072   1.947   2.119 -0.2335 -0.3277  0.3240
 5418SOL    HW116380   1.054   1.853   2.122  0.9295 -0.5747  0.6640
 5418SOL    HW216381   0.993   1.988   2.156 -1.3751 -1.0237 -1.1411
 5419SOL     OW16382   3.758   3.948   4.436  0.0298 -0.2729  0.2556
 5419SOL    HW116383   3.705   4.027   4.447 -0.9799 -0.8357 -0.2980
 5419SOL    HW216384   3.701   3.886   4.391  1.2686 -0.8242 -0.7002
 5420SOL     OW16385   3.419   1.127   1.222  0.3181 -0.1336 -0.4866
 5420SOL    HW116386   3.439   1.106   1.313  0.1318 -0.2347 -0.4674
 5420SOL    HW216387   3.461   1.057   1.172  0.1671 -0.2454 -0.4583
 5421SOL     OW16388   4.466   0.101   2.188 -0.0298 -0.3764  0.1017
 5421SOL    HW116389   4.527   0.129   2.256  0.2757  0.0465 -0.3379
 5421SOL    HW216390   4.383   0.087   2.235  0.8231 -3.1577  1.1793
 5422SOL     OW16391   1.728   1.408   1.333  0.0495 -0.0721  0.2858
 5422SOL    HW116392   1.666   1.364   1.275  0.5898  0.9769 -1.1785
 5422SOL    HW216393   1.813   1.373   1.309  0.2119 -0.3789  1.2212
 5423SOL     OW16394   1.552   1.466   2.841 -0.2035 -0.9697 -0.0125
 5423SOL    HW116395   1.568   1.540   2.900  1.1853 -3.2469  3.0108
 5423SOL    HW216396   1.469   1.429   2.872 -0.3132 -1.3288 -0.7012
 5424SOL     OW16397   2.195   2.046   3.506 -0.4037 -0.6051  0.4228
 5424SOL    HW116398   2.156   2.118   3.457 -0.4741 -1.1100 -0.2867
 5424SOL    HW216399   2.137   2.033   3.581 -1.2076 -0.8462 -0.2070
 5425SOL     OW16400   5.359   5.969   4.400 -0.4934  0.0434 -0.4210
 5425SOL    HW116401   5.289   5.932   4.346 -0.3163 -0.6329 -0.2087
 5425SOL    HW216402   5.438   5.925   4.370 -0.1993  0.5833 -0.4564
 5426SOL     OW16403   1.675   2.186   3.274  0.5842  0.4881 -0.3094
 5426SOL    HW116404   1.632   2.221   3.352 -1.1853  1.4081 -1.5531
 5426SOL    HW216405   1.656   2.092   3.276  0.9754  0.4042  0.5467
 5427SOL     OW16406   4.211   5.795   1.038  0.1452  0.6316  0.6585
 5427SOL    HW116407   4.305   5.784   1.026 -0.0157 -0.6735  0.3156
 5427SOL    HW216408   4.173   5.771   0.954 -0.5480  0.1835  1.0803
 5428SOL     OW16409   0.117   0.366   2.782  0.2478 -0.2012 -0.2454
 5428SOL    HW116410   0.155   0.422   2.851 -0.7394 -1.0709  1.1092
 5428SOL    HW216411   0.191   0.320   2.745  0.7399 -0.9504  1.4625
 5429SOL     OW16412   1.020   5.540   0.882 -0.3188 -0.2654  0.4116
 5429SOL    HW116413   1.078   5.580   0.818  1.7816 -1.5982  1.2770
 5429SOL    HW216414   0.960   5.486   0.830 -0.3046  0.5502 -0.5018
 5430SOL     OW16415   0.955   4.103   2.605 -0.0529 -0.4102 -0.2133
 5430SOL    HW116416   0.994   4.157   2.537 -0.7118 -0.0341 -0.3101
 5430SOL    HW216417   0.972   4.013   2.577  1.8540 -0.3296  0.3967
 5431SOL     OW16418   0.212   3.204   4.155  0.5873 -0.1711  0.0613
 5431SOL    HW116419   0.190   3.274   4.216 -1.2336 -0.8359  0.2843
 5431SOL    HW216420   0.257   3.139   4.208 -0.0958 -0.3041  0.5043
 5432SOL     OW16421   5.319   4.016   1.815 -0.0618 -0.3743 -0.0403
 5432SOL    HW116422   5.347   4.026   1.724 -0.4701 -0.8970 -0.2325
 5432SOL    HW216423   5.385   3.959   1.855 -0.0099 -0.3348 -0.0690
 5433SOL     OW16424   5.578   0.390   3.498 -0.5551 -0.4843 -0.1839
 5433SOL    HW116425   5.633   0.378   3.574 -1.3370  0.9460  0.6907
 5433SOL    HW216426   5.504   0.331   3.512 -0.1225 -1.1111 -0.4748
 5434SOL     OW16427   0.689   1.628   1.873  0.2354  0.2309 -0.2568
 5434SOL    HW116428   0.783   1.612   1.884  0.2590  0.6419  0.2421
 5434SOL    HW216429   0.668   1.592   1.787  0.7041 -0.4915 -0.0864
 5435SOL     OW16430   2.000   0.218   0.768  0.1188 -0.1443 -0.2791
 5435SOL    HW116431   1.922   0.249   0.814  0.9113 -2.7625  3.9077
 5435SOL    HW216432   1.981   0.127   0.745  1.4849 -0.4563 -0.3703
 5436SOL     OW16433   5.697   3.249   0.695 -0.1309  0.5345  0.2205
 5436SOL    HW116434   5.635   3.219   0.762  0.0092 -2.1604 -0.6194
 5436SOL    HW216435   5.649   3.240   0.612  0.5053  1.2636 -0.2622
 5437SOL     OW16436   6.238   1.450   1.703 -0.2710 -0.2033  0.0013
 5437SOL    HW116437   6.296   1.393   1.753  1.1010  0.9570 -0.1268
 5437SOL    HW216438   6.203   1.394   1.634  2.2880 -0.6603 -1.1589
 5438SOL     OW16439   6.217   6.380   0.600  0.6521  0.1096 -0.0851
 5438SOL    HW116440   6.144   6.394   0.539  0.8737  0.0941 -0.3596
 5438SOL    HW216441   6.223   6.461   0.650  0.2183 -0.0214  0.1874
 5439SOL     OW16442   3.072   6.233   1.638 -0.5176  0.2844 -0.0379
 5439SOL    HW116443   3.069   6.154   1.585  1.6777  0.4632 -0.6491
 5439SOL    HW216444   3.114   6.298   1.581 -1.1523  1.5300  0.8371
 5440SOL     OW16445   0.441   1.760   1.933 -0.6922 -0.1132  0.0202
 5440SOL    HW116446   0.352   1.793   1.942 -1.2428 -0.0671 -3.1103
 5440SOL    HW216447   0.471   1.796   1.849  1.6465 -1.4975  0.0765
 5441SOL     OW16448   3.247   2.551   0.517  0.4805 -0.2713  0.6354
 5441SOL    HW116449   3.213   2.625   0.466 -0.6954 -0.6651  0.7821
 5441SOL    HW216450   3.184   2.540   0.588  1.6244 -0.2764  1.7069
 5442SOL     OW16451   0.643   4.444   3.968  0.0848 -0.1151  0.6178
 5442SOL    HW116452   0.587   4.443   3.890  1.3036 -0.0099 -0.3059
 5442SOL    HW216453   0.582   4.425   4.040 -1.6723  2.4458  0.0886
 5443SOL     OW16454   4.815   1.617   2.684  0.1390  0.1373  0.4202
 5443SOL    HW116455   4.878   1.685   2.709  0.5890 -0.2351  0.3271
 5443SOL    HW216456   4.730   1.654   2.707  0.3351  0.9217 -0.0498
 5444SOL     OW16457   5.759   2.595   3.468  0.1920  0.0796 -0.0445
 5444SOL    HW116458   5.732   2.504   3.478  0.1474 -0.1918 -2.0285
 5444SOL    HW216459   5.686   2.645   3.504 -1.3488 -0.6875 -1.8032
 5445SOL     OW16460   1.514   5.857   2.580 -0.3012 -0.4216  0.3044
 5445SOL    HW116461   1.515   5.807   2.661  0.5934  0.7602  1.0864
 5445SOL    HW216462   1.567   5.806   2.519  0.5409 -0.4887  1.0583
 5446SOL     OW16463   1.023   2.847   0.001 -0.9107  0.3547 -1.0282
 5446SOL    HW116464   1.049   2.803  -0.081  0.6980  1.2037 -1.0472
 5446SOL    HW216465   1.064   2.795   0.070  0.3066  1.2577 -1.0027
 5447SOL     OW16466   4.808   3.010   2.305 -0.1368 -0.0378 -0.2650
 5447SOL    HW116467   4.832   3.094   2.266  2.0029  0.0122  0.8747
 5447SOL    HW216468   4.755   3.033   2.381 -1.5908  0.0313 -1.2014
 5448SOL     OW16469   1.841   5.338   0.527 -0.0046 -0.0339 -0.1178
 5448SOL    HW116470   1.797   5.359   0.445 -0.5291 -0.5581  0.0200
 5448SOL    HW216471   1.798   5.258   0.558 -0.6469  0.7603  1.2446
 5449SOL     OW16472   0.103   3.119   2.821  0.1932 -0.4855  0.5029
 5449SOL    HW116473   0.149   3.086   2.898  2.7749 -2.1033 -1.3979
 5449SOL    HW216474   0.124   3.056   2.751  0.6489  2.2014 -2.2340
 5450SOL     OW16475   3.622   5.344   2.860 -0.2864  0.0515  0.1306
 5450SOL    HW116476   3.708   5.378   2.833 -1.4228  1.1787 -2.7743
 5450SOL    HW216477   3.643   5.278   2.927  2.5359  2.4349  2.1548
 5451SOL     OW16478   1.663   5.137   0.615 -0.6581  0.2537  0.0102
 5451SOL    HW116479   1.677   5.051   0.654  1.2096  0.0715 -0.8158
 5451SOL    HW216480   1.644   5.194   0.689  3.8254  0.1983  1.8198
 5452SOL     OW16481   3.809   4.210   4.162 -0.3259 -0.4452 -0.5882
 5452SOL    HW116482   3.873   4.145   4.191  0.0767  0.4941  0.8749
 5452SOL    HW216483   3.725   4.164   4.165 -0.0646 -0.9195  0.4564
 5453SOL     OW16484   1.514   4.296   0.872 -0.3974 -0.6052  0.1293
 5453SOL    HW116485   1.432   4.340   0.848  0.5009  1.1203 -0.0821
 5453SOL    HW216486   1.537   4.334   0.957  0.5853 -0.3806 -0.2112
 5454SOL     OW16487   0.388   2.437   0.526 -0.3159  1.1452 -0.6147
 5454SOL    HW116488   0.356   2.418   0.438  0.7357  0.6174 -0.9229
 5454SOL    HW216489   0.380   2.531   0.535 -1.5423  1.0865 -0.7985
 5455SOL     OW16490   0.470   0.581   2.128 -0.2074  0.2991  0.3340
 5455SOL    HW116491   0.417   0.659   2.111  1.2111  1.0486 -1.1358
 5455SOL    HW216492   0.557   0.614   2.149  0.2569 -0.8949  0.4894
 5456SOL     OW16493   4.182   5.417   4.436 -0.8167  0.0974 -0.3758
 5456SOL    HW116494   4.131   5.468   4.374 -0.9303 -0.0886 -0.4374
 5456SOL    HW216495   4.256   5.473   4.459  0.2376 -0.4572 -2.0272
 5457SOL     OW16496   0.566   3.646   0.597  0.6322  0.2536 -0.5108
 5457SOL    HW116497   0.581   3.635   0.691 -2.2120  1.2052  0.2651
 5457SOL    HW216498   0.505   3.576   0.574  1.6587 -0.2765 -1.8780
 5458SOL     OW16499   0.784   1.947   4.062 -0.0458  0.2863 -0.8188
 5458SOL    HW116500   0.832   1.867   4.085 -0.8111 -0.1556 -0.6711
 5458SOL    HW216501   0.829   1.981   3.985  0.6985  0.0795 -0.4850
 5459SOL     OW16502   3.569   4.351   3.960  0.1775  0.2123 -0.0922
 5459SOL    HW116503   3.531   4.265   3.979 -1.8980  1.0698  0.2574
 5459SOL    HW216504   3.535   4.373   3.873 -0.1387  1.0214  0.2161
 5460SOL     OW16505   0.252   4.027   0.690 -0.0741  0.4918  0.0077
 5460SOL    HW116506   0.257   3.985   0.776  0.5188 -0.9364 -0.6496
 5460SOL    HW216507   0.316   4.098   0.695  1.5543 -0.8399  0.1801
 5461SOL     OW16508   6.147   3.495   4.295 -0.6546 -0.4542  0.1418
 5461SOL    HW116509   6.088   3.442   4.349  0.6141 -0.1370  2.0599
 5461SOL    HW216510   6.199   3.431   4.247 -0.6187 -0.8767  0.7199
 5462SOL     OW16511   0.674   0.312   0.769  0.1215 -0.4061 -0.1371
 5462SOL    HW116512   0.605   0.246   0.768  0.0542 -0.3464 -1.0915
 5462SOL    HW216513   0.710   0.308   0.858 -0.5987 -0.9635  0.1473
 5463SOL     OW16514   2.971   1.497   2.950  0.0867 -0.0116 -0.1675
 5463SOL    HW116515   3.054   1.541   2.967  0.1072  0.1943 -0.7469
 5463SOL    HW216516   2.906   1.546   3.000  0.2503  0.1022 -0.0695
 5464SOL     OW16517   3.050   2.285   3.990  0.7943  0.3275 -0.9239
 5464SOL    HW116518   3.009   2.203   3.960  1.5569 -0.4794  0.0911
 5464SOL    HW216519   3.005   2.305   4.072  1.0818  0.5532 -0.8196
 5465SOL     OW16520   2.378   5.494   0.824  0.1095  0.1291  0.2938
 5465SOL    HW116521   2.401   5.417   0.876 -0.7930  1.1676  2.5027
 5465SOL    HW216522   2.444   5.560   0.849 -0.6441  0.8097  0.5703
 5466SOL     OW16523   3.120   1.788   3.771 -0.1503  0.1812 -0.0238
 5466SOL    HW116524   3.112   1.694   3.784 -0.2293  0.2677  0.6577
 5466SOL    HW216525   3.096   1.802   3.679 -1.6270 -0.2992  0.2295
 5467SOL     OW16526   1.730   3.089   3.481  0.1246  0.5974 -0.0488
 5467SOL    HW116527   1.736   3.166   3.425 -0.2560 -0.4949 -1.7181
 5467SOL    HW216528   1.810   3.091   3.533  0.9903  1.2148 -1.3072
 5468SOL     OW16529   2.956   2.769   1.504  0.3763 -0.0937 -0.7957
 5468SOL    HW116530   2.869   2.767   1.545  0.4285 -1.7358 -0.6071
 5468SOL    HW216531   2.985   2.859   1.515 -1.0505  0.3804 -0.3320
 5469SOL     OW16532   1.054   4.096   3.489 -0.3457 -0.0339 -0.2171
 5469SOL    HW116533   1.060   4.001   3.480 -0.9744 -0.0726 -0.3671
 5469SOL    HW216534   1.025   4.126   3.402  2.3475  0.6126 -1.0859
 5470SOL     OW16535   6.251   3.583   3.454  0.2166 -0.5664 -0.4480
 5470SOL    HW116536   6.280   3.663   3.412 -1.6931 -0.2329 -1.3371
 5470SOL    HW216537   6.172   3.558   3.407  0.0652 -2.3396  0.5602
 5471SOL     OW16538   3.116   6.379   0.880  0.7555  0.1080  0.2229
 5471SOL    HW116539   3.091   6.379   0.972 -0.7271 -1.4425 -0.0738
 5471SOL    HW216540   3.045   6.424   0.835  1.0423  0.1186 -0.2387
 5472SOL     OW16541   0.021   4.671   0.871 -0.5158  0.4297 -0.2297
 5472SOL    HW116542   0.089   4.684   0.805 -0.3165  0.4820 -0.0118
 5472SOL    HW216543  -0.015   4.758   0.886 -2.3854  0.1688 -2.1914
 5473SOL     OW16544   4.083   2.967   1.765  0.3004  0.2913  0.1642
 5473SOL    HW116545   4.175   2.992   1.763  0.1842  0.7228 -0.1694
 5473SOL    HW216546   4.079   2.894   1.827  0.8104  0.4811  0.4315
 5474SOL     OW16547   5.323   5.341   2.579 -0.1539  0.5469  0.1650
 5474SOL    HW116548   5.290   5.309   2.495  2.3399 -0.5853 -0.5643
 5474SOL    HW216549   5.385   5.275   2.607 -1.0906  0.6682  3.2177
 5475SOL     OW16550   5.281   2.114   1.453  0.1544 -0.1917 -0.1972
 5475SOL    HW116551   5.276   2.209   1.461  1.7453 -0.1257  1.1246
 5475SOL    HW216552   5.361   2.090   1.500 -0.4227 -2.2394 -0.0587
 5476SOL     OW16553   4.953   5.695   3.629  0.1627  0.6381  0.1695
 5476SOL    HW116554   5.004   5.617   3.605  0.2155  0.8191 -0.3314
 5476SOL    HW216555   4.986   5.764   3.571 -1.8276  0.3770 -1.5333
 5477SOL     OW16556   0.824   2.521   1.570 -0.1246 -0.6727  0.3016
 5477SOL    HW116557   0.865   2.457   1.628 -0.8021 -1.1011  0.3356
 5477SOL    HW216558   0.894   2.551   1.513 -0.0472 -2.6202 -0.7855
 5478SOL     OW16559   5.953   0.339   1.710  0.0392  0.0371 -0.3275
 5478SOL    HW116560   5.988   0.373   1.792  0.0801 -0.3514 -0.1773
 5478SOL    HW216561   5.997   0.254   1.699  1.3393  0.7933 -1.6286
 5479SOL     OW16562   5.104   5.709   1.929  0.0419 -0.5615  0.3611
 5479SOL    HW116563   5.078   5.698   1.838  0.3685 -0.7558  0.2892
 5479SOL    HW216564   5.031   5.757   1.969  1.5792  3.8093 -0.9746
 5480SOL     OW16565   2.706   5.226   0.741 -0.4891  0.5449 -0.5618
 5480SOL    HW116566   2.713   5.295   0.675 -1.2165  0.3202 -0.8904
 5480SOL    HW216567   2.792   5.185   0.740 -0.0269  1.4477 -0.3373
 5481SOL     OW16568   1.888   4.184   3.001  0.5143  0.6734  0.0825
 5481SOL    HW116569   1.955   4.119   3.024  0.7726  1.4205  1.7590
 5481SOL    HW216570   1.852   4.154   2.918 -0.6730 -2.6605  1.4674
 5482SOL     OW16571   3.874   1.066   4.436 -0.1381 -0.7270 -0.0484
 5482SOL    HW116572   3.925   1.146   4.445  2.1740 -1.8663 -1.2504
 5482SOL    HW216573   3.847   1.065   4.345 -1.4910 -0.6746  0.3163
 5483SOL     OW16574   2.776   1.768   2.853 -0.4920  0.7163 -0.0999
 5483SOL    HW116575   2.775   1.706   2.925  2.2102  0.5309 -0.0150
 5483SOL    HW216576   2.722   1.727   2.785 -0.5830 -0.6357  0.7220
 5484SOL     OW16577   1.496   0.741   0.951  0.4233  0.1643  0.3722
 5484SOL    HW116578   1.559   0.797   0.906 -1.6839  0.3740 -2.9539
 5484SOL    HW216579   1.519   0.652   0.924 -1.0633  0.3150 -1.9038
 5485SOL     OW16580   2.152   5.441   0.676  0.2482  0.0303 -0.2088
 5485SOL    HW116581   2.222   5.424   0.739 -0.1617 -0.7604  0.0655
 5485SOL    HW216582   2.073   5.406   0.718  0.1862 -2.0613 -1.7291
 5486SOL     OW16583   3.164   1.801   1.431  0.3850 -0.7044 -0.2932
 5486SOL    HW116584   3.119   1.879   1.460  1.4092 -0.1223 -0.1539
 5486SOL    HW216585   3.184   1.817   1.339  1.6578 -0.2094  0.0238
 5487SOL     OW16586   3.980   1.842   2.986 -0.0031 -0.1382 -0.0113
 5487SOL    HW116587   4.068   1.826   2.952  0.0830 -1.3572  0.6637
 5487SOL    HW216588   3.924   1.785   2.934 -0.5651  1.1961 -0.9621
 5488SOL     OW16589   0.870   4.953   1.534 -0.0378 -0.0754  0.1196
 5488SOL    HW116590   0.887   4.966   1.440 -0.3810 -3.5611 -0.7105
 5488SOL    HW216591   0.956   4.939   1.572  0.0648  0.9071  0.3103
 5489SOL     OW16592   5.506   2.223   4.517 -0.1030 -0.9040 -0.1082
 5489SOL    HW116593   5.457   2.146   4.547 -1.4750 -0.6286 -1.4511
 5489SOL    HW216594   5.448   2.266   4.455  0.8041  0.9867  0.2214
 5490SOL     OW16595   1.186   3.448   1.611  0.2563  0.0482  0.0013
 5490SOL    HW116596   1.271   3.490   1.615 -0.1251  1.2564 -2.0171
 5490SOL    HW216597   1.197   3.376   1.549 -0.3225  0.7677 -0.9904
 5491SOL     OW16598   1.665   1.585   0.780  0.2526  0.1196 -0.2202
 5491SOL    HW116599   1.643   1.501   0.740  0.3675  0.0862 -0.2135
 5491SOL    HW216600   1.658   1.648   0.708 -1.2012  0.3431  0.0397
 5492SOL     OW16601   1.102   3.363   0.878  0.4181  0.4592  0.3019
 5492SOL    HW116602   1.188   3.406   0.880  0.4608  0.5017 -0.9583
 5492SOL    HW216603   1.048   3.418   0.822 -0.2916  0.1574  0.6566
 5493SOL     OW16604   1.622   4.667   2.526  0.0554  0.3015 -0.1650
 5493SOL    HW116605   1.698   4.676   2.584 -0.1947 -0.3290  0.2753
 5493SOL    HW216606   1.642   4.591   2.471 -1.0151 -1.1286  1.2366
 5494SOL     OW16607   2.180   2.703   0.251  0.4572  0.3144 -0.7746
 5494SOL    HW116608   2.163   2.669   0.339  1.1442  2.5762  0.3775
 5494SOL    HW216609   2.268   2.670   0.229  0.1394 -0.5526 -0.8277
 5495SOL     OW16610   5.048   6.258   3.731 -0.2197  0.0315 -0.3267
 5495SOL    HW116611   5.086   6.339   3.697  0.7015 -0.2084  0.0663
 5495SOL    HW216612   4.992   6.286   3.803  1.2437  0.2877  0.8172
 5496SOL     OW16613   0.497   2.760   0.565  0.1361 -0.6640 -0.1806
 5496SOL    HW116614   0.500   2.737   0.472 -0.4429 -0.4359 -0.2688
 5496SOL    HW216615   0.483   2.855   0.565 -1.4901 -0.8460  0.0810
 5497SOL     OW16616   4.667   4.715   1.706 -0.6865  0.2985 -0.0641
 5497SOL    HW116617   4.592   4.711   1.764  0.0956  1.3033  1.1335
 5497SOL    HW216618   4.731   4.770   1.752  1.3102 -1.4642 -0.3800
 5498SOL     OW16619   0.176   4.438   1.648 -0.0088  0.1390  0.3274
 5498SOL    HW116620   0.243   4.504   1.667  0.3533  0.1652 -0.8762
 5498SOL    HW216621   0.106   4.487   1.603 -1.0619  0.1783  1.8475
 5499SOL     OW16622   2.988   5.101   4.200 -0.3190 -0.2840 -0.5002
 5499SOL    HW116623   3.035   5.185   4.201 -1.9647  0.7158 -0.4497
 5499SOL    HW216624   2.924   5.109   4.270  1.7749 -3.1700  2.3435
 5500SOL     OW16625   1.790   2.912   0.282 -0.2386 -0.0746 -0.4651
 5500SOL    HW116626   1.841   2.879   0.207  2.1133  1.1598  0.3615
 5500SOL    HW216627   1.856   2.953   0.339 -1.9424 -0.3344  1.9959
 5501SOL     OW16628   2.342   4.656   1.587  0.2640  0.1119 -0.8580
 5501SOL    HW116629   2.336   4.691   1.498 -0.9947  1.0014 -0.4913
 5501SOL    HW216630   2.435   4.661   1.609  0.4392  1.1067 -1.6713
 5502SOL     OW16631   5.527   4.257   3.981 -0.4511 -0.1902 -0.2252
 5502SOL    HW116632   5.592   4.231   4.047 -1.0805 -2.9609 -0.4191
 5502SOL    HW216633   5.567   4.232   3.897 -1.4197 -1.3623 -0.3937
 5503SOL     OW16634   4.532   1.568   1.739 -0.5295 -0.1328 -0.2514
 5503SOL    HW116635   4.555   1.620   1.661 -1.6188  1.8914  0.6184
 5503SOL    HW216636   4.479   1.496   1.705 -0.9287  0.6509 -1.4337
 5504SOL     OW16637   2.472   0.295   2.297 -0.3424  0.3502  0.3255
 5504SOL    HW116638   2.458   0.385   2.269 -0.0879  0.9036  1.8083
 5504SOL    HW216639   2.532   0.302   2.371  2.2074 -1.2845 -1.2841
 5505SOL     OW16640   3.158   6.083   0.907  0.3395 -0.0941  0.2144
 5505SOL    HW116641   3.136   6.168   0.871  1.3313  0.4697  0.8467
 5505SOL    HW216642   3.185   6.101   0.997  1.5781 -0.9026  0.0572
 5506SOL     OW16643   0.117   3.485   0.450  1.1882 -0.0946 -0.4586
 5506SOL    HW116644   0.041   3.513   0.501  0.6955  0.4465 -1.4312
 5506SOL    HW216645   0.192   3.509   0.504  0.8025  2.6702 -0.8970
 5507SOL     OW16646   3.175   5.083   1.869 -0.6255  0.1376  0.4360
 5507SOL    HW116647   3.130   5.026   1.808 -0.5986  1.0262 -0.4572
 5507SOL    HW216648   3.106   5.118   1.925 -0.5924 -1.0681  1.3149
 5508SOL     OW16649   1.391   4.779   4.112  0.4365  0.0384  0.5574
 5508SOL    HW116650   1.348   4.855   4.150 -2.1679 -0.7379 -0.4157
 5508SOL    HW216651   1.328   4.708   4.123  1.9349 -1.5693 -0.2139
 5509SOL     OW16652   4.840   5.972   0.802 -0.3226 -0.0785 -0.0204
 5509SOL    HW116653   4.887   5.917   0.864  1.4744  0.3838 -0.8103
 5509SOL    HW216654   4.763   5.922   0.777 -0.3125 -0.9071  1.4115
 5510SOL     OW16655   2.405   3.634   0.699 -0.0582  0.2094  0.2019
 5510SOL    HW116656   2.339   3.692   0.660  0.3636  0.9490  0.5380
 5510SOL    HW216657   2.461   3.608   0.626  0.8777  1.7850  0.2659
 5511SOL     OW16658   5.355   1.003   3.684 -0.1285 -0.5826 -0.4302
 5511SOL    HW116659   5.326   1.075   3.629 -2.0236 -0.0474  1.0415
 5511SOL    HW216660   5.286   0.937   3.676  0.5602 -1.3731 -0.2150
 5512SOL     OW16661   4.857   0.662   1.038  0.8173  0.0890 -0.1978
 5512SOL    HW116662   4.872   0.598   0.968  0.2198 -0.2633 -0.0187
 5512SOL    HW216663   4.827   0.610   1.112  2.3179  0.3297  0.6634
 5513SOL     OW16664   1.346   1.841   1.906 -0.3400 -0.0707  0.3209
 5513SOL    HW116665   1.378   1.778   1.841 -1.4439  1.9251 -2.6097
 5513SOL    HW216666   1.395   1.922   1.887  1.1180  0.2911  3.9281
 5514SOL     OW16667   0.488   3.317   3.372 -0.0534  0.5994  0.5406
 5514SOL    HW116668   0.431   3.296   3.298  0.2863  0.4094  0.3227
 5514SOL    HW216669   0.564   3.360   3.332 -0.3698  1.5437  0.8997
 5515SOL     OW16670   0.250   4.276   0.225  0.7265 -0.0130 -0.2837
 5515SOL    HW116671   0.213   4.188   0.220  1.2560 -0.2100 -1.1942
 5515SOL    HW216672   0.329   4.272   0.171  0.0426  1.3678 -1.5307
 5516SOL     OW16673   5.955   3.561   4.078 -0.3037  0.8560 -0.1096
 5516SOL    HW116674   6.023   3.535   4.141  2.9587  3.2724 -1.9928
 5516SOL    HW216675   5.900   3.623   4.127 -0.6882 -0.4385  1.2602
 5517SOL     OW16676   5.267   3.371   4.490  0.1573  0.3842  0.3000
 5517SOL    HW116677   5.325   3.310   4.445  1.2204  1.9833 -0.6474
 5517SOL    HW216678   5.262   3.447   4.433 -2.3638  0.6656  0.6676
 5518SOL     OW16679   6.408   5.898   0.366  0.3937  0.1586 -0.2208
 5518SOL    HW116680   6.464   5.855   0.431  1.7031  2.3956  0.3592
 5518SOL    HW216681   6.361   5.965   0.417 -0.7605  0.1282 -1.1739
 5519SOL     OW16682   1.163   2.722   0.188  0.0332  0.1312 -0.0664
 5519SOL    HW116683   1.254   2.696   0.171  0.1286  0.9463 -0.9272
 5519SOL    HW216684   1.161   2.737   0.283  0.9403  0.5857 -0.0987
 5520SOL     OW16685   4.848   0.526   0.001  0.2591 -0.3067  0.5802
 5520SOL    HW116686   4.925   0.478  -0.030  0.3615  0.5936 -0.7317
 5520SOL    HW216687   4.865   0.542   0.093  2.7254  1.5971  0.0164
 5521SOL     OW16688   1.253   0.818   1.608 -1.1140 -0.3302 -0.7072
 5521SOL    HW116689   1.336   0.776   1.630 -1.1333 -0.4047 -0.7769
 5521SOL    HW216690   1.258   0.904   1.650 -2.1068 -1.2624  1.7464
 5522SOL     OW16691   4.903   3.617   1.296 -0.1338  0.4839  0.3354
 5522SOL    HW116692   4.976   3.587   1.243  0.8223  0.3684  1.6337
 5522SOL    HW216693   4.866   3.691   1.248  1.7296  1.4678  0.2559
 5523SOL     OW16694   3.951   0.909   3.558 -0.0717  0.2928 -0.0333
 5523SOL    HW116695   4.022   0.968   3.534 -0.3458  0.5158 -0.3078
 5523SOL    HW216696   3.876   0.966   3.574 -0.4931  0.0007 -0.8464
 5524SOL     OW16697   1.909   2.669   2.548  0.3524 -0.3764  0.2920
 5524SOL    HW116698   1.989   2.652   2.499  0.5956  0.9599  0.1784
 5524SOL    HW216699   1.935   2.727   2.618 -0.4994  0.0271  0.2954
 5525SOL     OW16700   2.824   1.872   3.895 -0.6294  0.7691 -0.5192
 5525SOL    HW116701   2.893   1.807   3.880  0.4227  1.4451  0.9391
 5525SOL    HW216702   2.793   1.895   3.807 -0.2676 -0.8470 -1.1324
 5526SOL     OW16703   0.328   2.797   4.056  0.2866  0.5374 -0.8816
 5526SOL    HW116704   0.259   2.812   3.991 -0.7605  0.0390  0.0561
 5526SOL    HW216705   0.282   2.767   4.134  1.5490  0.5302 -0.0801
 5527SOL     OW16706   1.664   5.198   2.285 -0.2644  0.3154  0.2131
 5527SOL    HW116707   1.604   5.197   2.360 -2.5508  1.0127 -1.3854
 5527SOL    HW216708   1.631   5.129   2.227  0.9371  0.2997 -0.5318
 5528SOL     OW16709   1.614   2.791   4.066  0.4966  0.6368  0.2670
 5528SOL    HW116710   1.557   2.721   4.032  1.0776  0.5983 -0.6694
 5528SOL    HW216711   1.627   2.850   3.993  0.2517  1.6085  0.9646
 5529SOL     OW16712   5.900   0.312   2.522 -0.1965  0.1314 -0.7226
 5529SOL    HW116713   5.861   0.245   2.578 -1.6441  1.5280  0.1131
 5529SOL    HW216714   5.933   0.264   2.447 -1.7197 -1.4638 -0.5086
 5530SOL     OW16715   4.293   4.645   2.772  0.4397  0.3702 -0.4204
 5530SOL    HW116716   4.341   4.620   2.693  1.1046 -0.2676  0.1605
 5530SOL    HW216717   4.345   4.610   2.844 -0.2016  0.8490  0.3050
 5531SOL     OW16718   5.191   4.535   3.650 -0.1643 -0.4548  0.0464
 5531SOL    HW116719   5.226   4.493   3.729 -0.8250 -0.5838  0.2854
 5531SOL    HW216720   5.110   4.487   3.631 -0.3708  0.0153 -0.3115
 5532SOL     OW16721   0.947   4.829   2.468  0.2901 -0.4122 -0.2924
 5532SOL    HW116722   0.852   4.832   2.482  0.4423 -0.7847  1.2693
 5532SOL    HW216723   0.958   4.789   2.383 -0.9625  3.8109 -3.1016
 5533SOL     OW16724   2.123   4.923   3.334  0.3399 -0.8112 -0.4851
 5533SOL    HW116725   2.044   4.873   3.354  0.5194 -0.7003  0.5819
 5533SOL    HW216726   2.096   4.983   3.264  0.2033 -2.5458 -2.0868
 5534SOL     OW16727   6.284   5.747   2.734 -0.3254 -0.2802 -0.3061
 5534SOL    HW116728   6.357   5.726   2.676 -0.3032  1.1261 -0.8799
 5534SOL    HW216729   6.228   5.804   2.681 -0.7555  0.3720  0.7875
 5535SOL     OW16730   0.560   2.311   4.367 -0.1388 -0.4924 -0.1945
 5535SOL    HW116731   0.624   2.283   4.302 -0.3004  0.1117 -0.6373
 5535SOL    HW216732   0.500   2.237   4.376  0.8955 -1.2828  0.6337
 5536SOL     OW16733   0.471   1.271   0.786  0.0925 -0.2076 -0.2818
 5536SOL    HW116734   0.420   1.207   0.835  1.0011 -1.0478 -0.3812
 5536SOL    HW216735   0.447   1.256   0.694  1.5382 -1.6747 -0.5066
 5537SOL     OW16736   2.472   4.136   4.030 -0.2824  0.0485 -0.6519
 5537SOL    HW116737   2.484   4.050   4.068 -0.6827 -0.5070 -1.7057
 5537SOL    HW216738   2.425   4.186   4.098  1.2643 -0.0197  0.5839
 5538SOL     OW16739   2.760   3.045   2.361 -0.1895 -0.4678  0.4065
 5538SOL    HW116740   2.774   3.117   2.423  0.9960 -0.0372 -0.2779
 5538SOL    HW216741   2.770   2.966   2.414 -0.4726 -0.1336  0.9847
 5539SOL     OW16742   2.483   2.813   3.360 -0.2042  0.2772 -0.1274
 5539SOL    HW116743   2.439   2.807   3.275 -0.0749 -1.6123 -0.1423
 5539SOL    HW216744   2.561   2.866   3.344 -0.5445  0.5348 -1.0030
 5540SOL     OW16745   1.471   2.935   1.773  0.1388  0.3766 -0.1185
 5540SOL    HW116746   1.469   3.011   1.716  1.3059  1.7060  1.4176
 5540SOL    HW216747   1.560   2.900   1.763  1.0610  1.7535  2.0162
 5541SOL     OW16748   5.079   3.607   2.540 -0.2425 -0.1531 -0.4640
 5541SOL    HW116749   5.121   3.534   2.586 -2.2870 -1.0121  0.2764
 5541SOL    HW216750   5.138   3.681   2.552  0.2586 -0.7887  2.0161
 5542SOL     OW16751   4.152   5.213   4.164  0.0734 -0.0936 -0.0825
 5542SOL    HW116752   4.225   5.259   4.205  0.1410 -1.2225  1.2312
 5542SOL    HW216753   4.115   5.276   4.103  2.6595  0.2489 -1.5881
 5543SOL     OW16754   6.249   4.411   2.728 -0.0862  0.5135  0.5605
 5543SOL    HW116755   6.313   4.482   2.721  0.5821 -0.1085  0.2403
 5543SOL    HW216756   6.180   4.436   2.666 -0.4057  1.4132  1.2336
 5544SOL     OW16757   5.581   0.058   4.496 -0.0967 -0.2319  0.4105
 5544SOL    HW116758   5.528   0.092   4.424  0.2990  1.5239  0.8581
 5544SOL    HW216759   5.558  -0.035   4.501 -1.5313 -0.0071 -0.7414
 5545SOL     OW16760   2.652   4.146   0.156  0.4224 -0.1198 -0.0515
 5545SOL    HW116761   2.618   4.225   0.196 -0.9220  1.2170 -3.1461
 5545SOL    HW216762   2.585   4.080   0.171  1.3461 -0.7195  2.1630
 5546SOL     OW16763   5.963   1.617   0.482 -0.2043  0.1066 -0.2533
 5546SOL    HW116764   6.046   1.573   0.502 -0.3403  0.2434  0.7327
 5546SOL    HW216765   5.946   1.595   0.391 -0.5854 -2.4356  0.2818
 5547SOL     OW16766   3.103   5.485   2.450 -0.3023  0.2750  0.0901
 5547SOL    HW116767   3.082   5.401   2.410 -0.6648  1.3843 -2.4968
 5547SOL    HW216768   3.150   5.463   2.530 -0.3857 -2.3469 -0.4067
 5548SOL     OW16769   1.262   1.355   0.188 -0.7185 -0.2265  0.2145
 5548SOL    HW116770   1.175   1.394   0.198  0.1603  1.8445  0.7737
 5548SOL    HW216771   1.308   1.413   0.127  0.3428 -1.1890  0.0259
 5549SOL     OW16772   1.802   4.914   3.601 -0.3324  0.5169  0.0534
 5549SOL    HW116773   1.820   4.944   3.512  0.5686  1.0117  0.3825
 5549SOL    HW216774   1.732   4.849   3.590  1.7695 -1.8849 -1.4418
 5550SOL     OW16775   2.772   0.872   3.166  0.1923  0.0234 -0.0976
 5550SOL    HW116776   2.779   0.856   3.072 -1.6034 -2.2333 -0.0174
 5550SOL    HW216777   2.721   0.953   3.172  0.6921  0.4458 -0.9938
 5551SOL     OW16778   2.599   4.560   0.898 -0.2881  0.3186 -0.0264
 5551SOL    HW116779   2.547   4.524   0.970 -0.3214  0.4015 -0.0080
 5551SOL    HW216780   2.642   4.637   0.936  0.5049 -0.2073  0.1970
 5552SOL     OW16781   4.068   0.686   3.212  0.3821  0.8599 -0.1845
 5552SOL    HW116782   4.126   0.672   3.137 -0.4371  0.4079 -0.7613
 5552SOL    HW216783   4.070   0.781   3.226  1.7659  0.8109  0.2645
 5553SOL     OW16784   4.809   6.389   1.167  0.2073  0.0139 -0.0612
 5553SOL    HW116785   4.845   6.373   1.080  1.1381  0.1813  0.2682
 5553SOL    HW216786   4.824   6.483   1.182  2.4830 -0.4125  1.2407
 5554SOL     OW16787   5.552   3.527   0.485  0.5195 -0.5910 -0.3688
 5554SOL    HW116788   5.598   3.444   0.496 -0.3001 -1.0792 -0.4480
 5554SOL    HW216789   5.563   3.571   0.570  0.6658 -0.9344 -0.2021
 5555SOL     OW16790   4.774   5.631   1.186  0.1213 -0.1574  0.4581
 5555SOL    HW116791   4.800   5.582   1.265  0.1690 -0.8044  0.0533
 5555SOL    HW216792   4.687   5.666   1.207 -0.4450 -1.4005  0.3606
 5556SOL     OW16793   5.114   1.070   0.940  1.1651 -0.0125 -0.1469
 5556SOL    HW116794   5.163   0.988   0.931  0.2732 -0.7215  1.0335
 5556SOL    HW216795   5.081   1.069   1.029 -2.2172 -0.3488 -1.1413
 5557SOL     OW16796   1.669   2.596   1.119  0.1405  0.2552  0.2410
 5557SOL    HW116797   1.734   2.609   1.188  1.4465 -3.8003  0.3214
 5557SOL    HW216798   1.631   2.510   1.139 -1.9799  0.3326 -2.3551
 5558SOL     OW16799   2.749   0.768   2.224 -0.2319  0.1597  0.3903
 5558SOL    HW116800   2.785   0.688   2.186  0.2540  0.9310 -0.9164
 5558SOL    HW216801   2.793   0.777   2.308  0.7872 -0.2195 -0.0726
 5559SOL     OW16802   5.200   1.218   1.578  0.4262 -0.3849  0.1419
 5559SOL    HW116803   5.169   1.283   1.641 -1.2562 -1.2482  0.3059
 5559SOL    HW216804   5.292   1.241   1.563 -0.0521  2.0202  0.1552
 5560SOL     OW16805   3.771   2.612   2.282  0.0057 -0.1534 -0.1393
 5560SOL    HW116806   3.858   2.651   2.287  0.3099 -0.8017 -0.1680
 5560SOL    HW216807   3.717   2.665   2.341  0.5651 -0.1173  0.3580
 5561SOL     OW16808   4.896   3.758   0.058 -0.2629  0.3715 -0.8625
 5561SOL    HW116809   4.861   3.775   0.145  0.2460  1.6778 -0.8752
 5561SOL    HW216810   4.922   3.666   0.061  0.3167  0.5255  0.5890
 5562SOL     OW16811   5.742   5.364   2.572  0.1792 -0.0149 -0.0675
 5562SOL    HW116812   5.723   5.349   2.664 -1.2101 -1.0725 -0.4594
 5562SOL    HW216813   5.801   5.292   2.548  1.8971  1.1488  0.2744
 5563SOL     OW16814   3.654   6.414   1.925 -0.1049  0.4407  0.0993
 5563SOL    HW116815   3.582   6.375   1.975 -0.8175  0.8230 -0.5837
 5563SOL    HW216816   3.732   6.365   1.953  0.1004  2.0951  3.3895
 5564SOL     OW16817   4.217   0.337   2.991 -0.4865 -0.2281  0.0878
 5564SOL    HW116818   4.301   0.379   2.975 -0.8799  1.1436  1.2567
 5564SOL    HW216819   4.234   0.273   3.061 -0.5192  0.6229  0.9070
 5565SOL     OW16820   4.982   1.617   0.364 -0.5713  0.6944  0.2370
 5565SOL    HW116821   4.934   1.537   0.340  0.4064 -0.7458  2.4279
 5565SOL    HW216822   4.943   1.685   0.310 -1.1950 -1.2782 -2.1663
 5566SOL     OW16823   3.929   3.868   1.316  0.7492  0.2166 -0.7081
 5566SOL    HW116824   3.875   3.948   1.314 -0.3190 -0.4660 -1.0791
 5566SOL    HW216825   3.866   3.797   1.307  1.5816 -0.7368  0.4146
 5567SOL     OW16826   4.657   2.605   4.420  0.4630 -0.4486  0.7754
 5567SOL    HW116827   4.692   2.590   4.332  0.0063  0.0092  0.5055
 5567SOL    HW216828   4.722   2.661   4.463 -0.1464  0.9107  0.0731
 5568SOL     OW16829   2.281   0.794   4.157 -0.0619  0.6527  0.4094
 5568SOL    HW116830   2.262   0.855   4.227 -0.0613  1.3163 -0.1493
 5568SOL    HW216831   2.358   0.830   4.113  1.3119 -0.8586  1.3301
 5569SOL     OW16832   0.585   4.716   3.236  0.1987 -0.6031  0.6074
 5569SOL    HW116833   0.613   4.781   3.300 -1.5423  0.1685  0.6906
 5569SOL    HW216834   0.646   4.643   3.248  0.6805 -0.0163  2.2995
 5570SOL     OW16835   3.168   0.461   0.855  0.1756 -0.1178 -0.3768
 5570SOL    HW116836   3.186   0.449   0.948  1.0405 -0.4488 -0.5710
 5570SOL    HW216837   3.213   0.388   0.812  0.7264  0.6314 -1.1426
 5571SOL     OW16838   5.276   5.327   3.044  0.2785 -0.0716  0.0456
 5571SOL    HW116839   5.328   5.349   3.120 -1.1171 -0.3209  1.1630
 5571SOL    HW216840   5.235   5.410   3.018  0.7802  0.0202 -0.4793
 5572SOL     OW16841   2.797   5.355   3.843 -0.1785 -0.4083 -0.1397
 5572SOL    HW116842   2.702   5.351   3.831 -0.2217  0.9351 -0.5535
 5572SOL    HW216843   2.808   5.402   3.925  0.0254  1.8664 -1.2957
 5573SOL     OW16844   6.287   3.385   1.812 -0.4331 -0.2842  0.4928
 5573SOL    HW116845   6.372   3.426   1.795 -0.6241 -0.4171 -1.0508
 5573SOL    HW216846   6.271   3.401   1.905  1.3909 -0.4997  0.9152
 5574SOL     OW16847   5.039   3.632   0.453  0.8280 -0.3227 -0.4048
 5574SOL    HW116848   5.112   3.571   0.442 -0.2581 -2.1076  1.1586
 5574SOL    HW216849   4.990   3.599   0.528 -0.7950  1.6263 -0.4139
 5575SOL     OW16850   2.507   2.910   4.082  0.4174 -0.6097 -0.0359
 5575SOL    HW116851   2.576   2.848   4.059  0.1854 -0.6804 -0.5525
 5575SOL    HW216852   2.438   2.894   4.019  0.0701 -0.2906  0.2544
 5576SOL     OW16853   5.778   5.767   4.200  0.1851 -0.8938  0.0592
 5576SOL    HW116854   5.746   5.851   4.234  0.0488  0.2700 -2.4753
 5576SOL    HW216855   5.721   5.702   4.241 -1.3056  0.4979  0.4197
 5577SOL     OW16856   1.593   5.740   3.129  0.2149 -0.0019 -0.2977
 5577SOL    HW116857   1.573   5.654   3.091 -2.6998  0.2013  0.2921
 5577SOL    HW216858   1.591   5.800   3.055  0.8330 -0.2489 -0.5285
 5578SOL     OW16859   2.045   3.699   1.867  0.1398 -0.1466  0.7190
 5578SOL    HW116860   1.997   3.720   1.947  0.3687  2.6614  0.3305
 5578SOL    HW216861   1.977   3.687   1.801 -0.0745  0.4154  0.8233
 5579SOL     OW16862   5.502   2.844   3.879  0.8453  0.1730 -0.0834
 5579SOL    HW116863   5.524   2.936   3.890 -0.4282  0.5853 -0.5302
 5579SOL    HW216864   5.521   2.803   3.963  0.7092  1.0254  0.3777
 5580SOL     OW16865   2.112   4.472   1.337  0.9929 -0.0103  0.0671
 5580SOL    HW116866   2.084   4.552   1.294  1.3828 -0.0678 -0.3124
 5580SOL    HW216867   2.088   4.484   1.429  2.1902  1.1118  0.2985
 5581SOL     OW16868   0.312   0.561   0.250  0.1371 -0.9482  0.3065
 5581SOL    HW116869   0.402   0.591   0.261 -0.6048  2.7799 -0.9711
 5581SOL    HW216870   0.316   0.496   0.180  1.8068  0.3913 -1.0201
 5582SOL     OW16871   3.394   2.288   1.934  0.1349 -0.0045  0.4849
 5582SOL    HW116872   3.388   2.272   1.840 -4.3258 -0.0862  0.3860
 5582SOL    HW216873   3.349   2.372   1.948 -0.5596 -0.5876  2.5601
 5583SOL     OW16874   1.833   5.042   2.762 -0.1934 -0.4840 -0.1514
 5583SOL    HW116875   1.798   5.068   2.847 -0.5903 -1.1420 -0.0994
 5583SOL    HW216876   1.928   5.053   2.770 -0.2975  0.4275  0.0256
 5584SOL     OW16877   6.307   2.432   3.719 -0.1301 -0.3733 -0.4774
 5584SOL    HW116878   6.244   2.407   3.652 -0.5222 -1.6719  0.3077
 5584SOL    HW216879   6.276   2.389   3.798  0.8275  0.3442  0.3395
 5585SOL     OW16880   4.875   4.170   3.789 -0.3784 -0.4718  0.0108
 5585SOL    HW116881   4.840   4.097   3.737 -1.6003  0.0284  0.0651
 5585SOL    HW216882   4.960   4.139   3.819 -0.1707 -1.2730 -1.2333
 5586SOL     OW16883   0.116   2.432   2.136  0.3382  0.8023 -0.1160
 5586SOL    HW116884   0.065   2.455   2.058 -1.0500  0.3851  0.6087
 5586SOL    HW216885   0.114   2.511   2.190 -1.0239  0.3150  0.6290
 5587SOL     OW16886   2.540   2.852   4.392 -0.1392  0.0331  0.2006
 5587SOL    HW116887   2.521   2.763   4.420  3.6032 -1.2564 -0.1158
 5587SOL    HW216888   2.503   2.859   4.304  0.3478 -1.7189 -0.2034
 5588SOL     OW16889   3.789   4.505   4.134  0.0382 -0.2874  0.4290
 5588SOL    HW116890   3.872   4.492   4.178  0.7610 -0.1648 -0.8063
 5588SOL    HW216891   3.744   4.420   4.141  0.2725 -0.3712  1.0439
 5589SOL     OW16892   2.044   5.627   0.092  0.1753 -0.2709 -0.1846
 5589SOL    HW116893   2.127   5.649   0.136  0.0917 -0.2427 -0.0394
 5589SOL    HW216894   1.984   5.697   0.119 -0.5549 -1.4127  1.5417
 5590SOL     OW16895   6.167   1.096   0.678 -0.0590 -0.4522 -0.4415
 5590SOL    HW116896   6.158   1.162   0.609 -1.4331  1.6649  1.4480
 5590SOL    HW216897   6.077   1.067   0.694 -0.1078  0.4260  1.4063
 5591SOL     OW16898   6.363   4.142   4.326 -0.7814  0.3911 -0.4608
 5591SOL    HW116899   6.368   4.202   4.400 -0.0888 -1.6347  1.3752
 5591SOL    HW216900   6.279   4.098   4.336 -1.0829  0.6889 -1.4842
 5592SOL     OW16901   2.897   0.255   0.106  0.2600  0.1830 -0.6525
 5592SOL    HW116902   2.848   0.219   0.032  0.4935 -0.6925 -0.4081
 5592SOL    HW216903   2.913   0.346   0.082 -0.9553  0.3421 -1.0015
 5593SOL     OW16904   5.302   0.670   0.789  0.3902  0.0654 -0.0820
 5593SOL    HW116905   5.250   0.593   0.768  0.3762  0.3322 -1.0917
 5593SOL    HW216906   5.390   0.650   0.755  0.5005  0.3187  0.0466
 5594SOL     OW16907   2.846   2.833   0.324 -0.3022 -0.0131  0.0183
 5594SOL    HW116908   2.766   2.799   0.283 -0.7153  1.6738 -0.7580
 5594SOL    HW216909   2.865   2.913   0.276  2.4430 -0.7546 -0.4749
 5595SOL     OW16910   2.095   6.231   4.097 -0.5067  0.1192 -0.4832
 5595SOL    HW116911   2.036   6.298   4.062 -0.4466 -0.0748 -0.9825
 5595SOL    HW216912   2.139   6.196   4.019 -0.8535 -0.8011 -0.2856
 5596SOL     OW16913   5.208   5.626   0.485  0.2714  0.2552 -0.2320
 5596SOL    HW116914   5.273   5.651   0.419  1.9618  3.0285  2.0065
 5596SOL    HW216915   5.125   5.660   0.452  1.3508  3.2587 -0.4351
 5597SOL     OW16916   2.552   0.179   3.750 -0.0581 -0.0654 -0.0650
 5597SOL    HW116917   2.528   0.166   3.842 -1.4749 -0.8975 -0.4909
 5597SOL    HW216918   2.577   0.271   3.745 -0.6117  0.1801  1.0363
 5598SOL     OW16919   3.207   0.048   4.259  0.3085  0.5622  0.0337
 5598SOL    HW116920   3.138  -0.003   4.217  1.9188  0.5808 -3.2193
 5598SOL    HW216921   3.288   0.015   4.222  1.9316  2.2085  1.6389
 5599SOL     OW16922   4.145   2.305   0.723 -0.2109 -0.1152  0.0267
 5599SOL    HW116923   4.131   2.265   0.637  0.9035 -3.5502  1.1118
 5599SOL    HW216924   4.057   2.312   0.761 -0.5521 -0.6534 -0.6224
 5600SOL     OW16925   3.857   6.127   1.463 -0.2024  0.1984 -0.1458
 5600SOL    HW116926   3.952   6.122   1.470 -0.2720 -0.1721  0.8522
 5600SOL    HW216927   3.829   6.036   1.449 -0.3898  0.3846 -1.1383
 5601SOL     OW16928   4.423   0.843   3.039 -0.8641  0.1846  0.4070
 5601SOL    HW116929   4.467   0.868   3.120 -1.8068  0.4407  0.8637
 5601SOL    HW216930   4.492   0.801   2.987  0.1419  1.3486  0.7004
 5602SOL     OW16931   5.455   0.932   2.558 -0.4049  0.3085 -0.0902
 5602SOL    HW116932   5.510   0.990   2.506 -0.8443  1.1937  0.3826
 5602SOL    HW216933   5.373   0.925   2.509 -0.1389 -0.4781 -0.4674
 5603SOL     OW16934   1.880   0.966   2.122 -0.2486 -0.0923  0.2706
 5603SOL    HW116935   1.957   0.910   2.125  0.2811  0.6111  0.5108
 5603SOL    HW216936   1.814   0.914   2.076  0.8855 -0.1058 -1.5723
 5604SOL     OW16937   5.353   2.305   2.066 -0.0862  0.2098  0.0099
 5604SOL    HW116938   5.355   2.392   2.104  0.9235 -0.2419  1.1117
 5604SOL    HW216939   5.389   2.317   1.978 -1.5852  1.1262 -0.5560
 5605SOL     OW16940   1.307   1.446   2.065 -0.1180  0.2781 -0.0644
 5605SOL    HW116941   1.283   1.370   2.119  0.7137 -0.8370 -1.1601
 5605SOL    HW216942   1.380   1.486   2.112 -0.0162 -0.1063  0.1191
 5606SOL     OW16943   3.951   4.238   2.846 -0.6870  0.1596  0.0800
 5606SOL    HW116944   4.028   4.194   2.882 -0.4636  1.8289  2.0484
 5606SOL    HW216945   3.987   4.307   2.790 -0.7972  0.2784  0.1542
 5607SOL     OW16946   1.530   0.863   4.202  0.0796 -0.2716  0.3969
 5607SOL    HW116947   1.581   0.944   4.191  0.2247 -0.1634  1.5934
 5607SOL    HW216948   1.451   0.878   4.149  0.3519  0.4170  0.1506
 5608SOL     OW16949   5.828   3.813   0.348  0.2477 -0.1289 -0.7738
 5608SOL    HW116950   5.817   3.762   0.268 -1.0916 -0.4028 -0.4783
 5608SOL    HW216951   5.809   3.903   0.322 -0.5454 -0.2667 -0.7303
 5609SOL     OW16952   5.679   4.767   3.167 -0.6849 -0.1137  0.3188
 5609SOL    HW116953   5.714   4.840   3.116  2.8859 -0.8957  1.0919
 5609SOL    HW216954   5.667   4.803   3.255 -0.5731 -0.0984  0.3281
 5610SOL     OW16955   6.395   6.120   2.204  0.2958  0.1702  0.1628
 5610SOL    HW116956   6.398   6.155   2.115 -0.0648  0.6371  0.3257
 5610SOL    HW216957   6.303   6.128   2.230  0.0740 -1.4071  0.0253
 5611SOL     OW16958   3.718   0.642   2.871  0.3652  0.3129 -0.1802
 5611SOL    HW116959   3.697   0.718   2.924 -2.5795 -1.8007  2.4349
 5611SOL    HW216960   3.717   0.568   2.932  1.2718 -2.0845 -2.6203
 5612SOL     OW16961   6.112   1.737   0.213 -0.2150  0.1381  0.1602
 5612SOL    HW116962   6.061   1.681   0.155  1.5215  0.2170 -1.6745
 5612SOL    HW216963   6.182   1.681   0.246  0.5005  0.7481 -0.2444
 5613SOL     OW16964   1.496   5.340   3.124  0.0751  0.4058  0.5351
 5613SOL    HW116965   1.454   5.254   3.131  0.2142  0.3400  3.8458
 5613SOL    HW216966   1.425   5.399   3.099 -0.8531 -0.3206  1.2905
 5614SOL     OW16967   4.274   6.043   1.748  0.0188 -0.6182  0.5396
 5614SOL    HW116968   4.217   6.093   1.691  1.9007  0.2497 -0.7979
 5614SOL    HW216969   4.316   5.979   1.690  0.6539 -0.9883  1.3625
 5615SOL     OW16970   4.615   1.954   1.053 -0.1177  0.2616  0.1639
 5615SOL    HW116971   4.572   1.980   1.135 -1.1527  0.6119 -0.4509
 5615SOL    HW216972   4.550   1.972   0.985  0.1993 -1.2161 -0.6223
 5616SOL     OW16973   2.844   4.465   0.529 -0.1576  0.6196  0.5119
 5616SOL    HW116974   2.869   4.513   0.450 -0.0117 -0.3366 -0.0515
 5616SOL    HW216975   2.757   4.498   0.550 -0.1556  0.9639  0.0220
 5617SOL     OW16976   5.987   3.223   3.240 -0.0179 -0.1829  0.5658
 5617SOL    HW116977   5.989   3.185   3.328  2.1679  3.0163  2.2989
 5617SOL    HW216978   5.894   3.236   3.222 -0.6735 -2.5926  1.3937
 5618SOL     OW16979   1.956   1.660   0.878 -0.1294  0.1763 -0.2707
 5618SOL    HW116980   1.985   1.634   0.790  1.1735 -0.0926  0.1859
 5618SOL    HW216981   1.898   1.590   0.906 -0.0686 -0.0503 -0.6939
 5619SOL     OW16982   2.221   5.551   1.613  0.1853  0.1158  0.6029
 5619SOL    HW116983   2.222   5.462   1.579  0.3719  1.2240 -3.2124
 5619SOL    HW216984   2.313   5.574   1.626  0.6739  0.6631 -2.4091
 5620SOL     OW16985   5.356   5.798   1.988 -0.0672 -0.0734 -0.0262
 5620SOL    HW116986   5.401   5.716   2.006 -0.1389 -0.3222 -0.8982
 5620SOL    HW216987   5.268   5.772   1.963  0.3998  0.0571 -2.1598
 5621SOL     OW16988   0.093   4.045   3.352  0.3366 -0.1190 -0.8951
 5621SOL    HW116989   0.048   3.974   3.399 -3.0041  0.4889 -2.5564
 5621SOL    HW216990   0.094   4.117   3.414 -1.4026 -0.1256 -0.7723
 5622SOL     OW16991   5.680   1.359   3.050  0.5607 -0.4182 -0.4590
 5622SOL    HW116992   5.642   1.337   2.965  0.2499  0.8759 -0.7006
 5622SOL    HW216993   5.759   1.304   3.056 -0.5527 -2.1754 -0.5459
 5623SOL     OW16994   3.027   1.865   0.884 -0.4541  0.8832  0.3695
 5623SOL    HW116995   3.091   1.795   0.871 -1.0550 -0.5147  3.1380
 5623SOL    HW216996   2.952   1.839   0.831 -0.8658 -1.1155  1.6907
 5624SOL     OW16997   0.594   0.057   1.509 -0.1912  0.4184 -0.0765
 5624SOL    HW116998   0.569   0.102   1.590  0.2408  1.3381 -0.4329
 5624SOL    HW216999   0.685   0.032   1.522  0.0638  1.0956 -0.4892
 5625SOL     OW17000   3.960   5.250   3.387  0.1988  0.0933 -0.5843
 5625SOL    HW117001   3.914   5.171   3.357  0.8867 -0.4919 -0.1629
 5625SOL    HW217002   3.891   5.305   3.423 -0.2045 -0.7735  0.0654
 5626SOL     OW17003   1.907   6.055   0.511  0.3846  0.1371  0.3606
 5626SOL    HW117004   1.826   6.058   0.561  0.5171  1.2929  0.5751
 5626SOL    HW217005   1.886   6.095   0.427  0.2597 -1.4462 -0.4263
 5627SOL     OW17006   2.186   4.067   0.916  0.3188 -0.2945 -0.1686
 5627SOL    HW117007   2.128   4.129   0.872  0.6898 -0.3134 -0.7034
 5627SOL    HW217008   2.207   4.109   0.999  0.4909  0.2664 -0.4808
 5628SOL     OW17009   1.797   0.103   1.073  0.5291  0.4943  0.3249
 5628SOL    HW117010   1.726   0.041   1.056  1.7193 -0.7034 -0.7101
 5628SOL    HW217011   1.780   0.176   1.014  0.4523 -0.0631 -0.3695
 5629SOL     OW17012   0.278   0.720   0.560  0.1383 -0.2406  0.1527
 5629SOL    HW117013   0.296   0.810   0.530  0.1358  0.6592  2.4510
 5629SOL    HW217014   0.347   0.702   0.624  0.7848 -2.4098 -0.9841
 5630SOL     OW17015   3.763   2.381   2.401 -0.0189  0.4008 -0.2049
 5630SOL    HW117016   3.771   2.471   2.372  0.8045  0.6839  0.7948
 5630SOL    HW217017   3.848   2.341   2.381 -0.1702  0.0215 -0.1093
 5631SOL     OW17018   0.230   1.208   0.149  0.0740  0.4146 -0.5438
 5631SOL    HW117019   0.169   1.244   0.084 -2.3335  0.1106  1.2589
 5631SOL    HW217020   0.317   1.228   0.114 -0.8324  4.6275 -1.5844
 5632SOL     OW17021   5.796   2.758   4.238  0.3893  0.3040 -0.1202
 5632SOL    HW117022   5.830   2.669   4.242  0.6126  0.4133  1.3760
 5632SOL    HW217023   5.824   2.790   4.152 -1.6743 -1.7458 -1.8007
 5633SOL     OW17024   2.905   1.919   0.255 -0.1517  0.2425  0.0725
 5633SOL    HW117025   2.863   1.833   0.256 -1.9784  1.0424  0.5367
 5633SOL    HW217026   2.980   1.909   0.196 -0.7238 -1.4546 -0.4754
 5634SOL     OW17027   5.981   4.566   1.721  0.7900  0.3021  0.3638
 5634SOL    HW117028   5.929   4.510   1.779 -0.0382  0.9838  0.3180
 5634SOL    HW217029   6.070   4.559   1.754  0.4528  0.1276  1.2962
 5635SOL     OW17030   2.306   3.023   1.550 -0.1531  0.1772 -0.1432
 5635SOL    HW117031   2.386   2.990   1.509  0.1604  0.3769  0.3023
 5635SOL    HW217032   2.271   3.086   1.487  0.6239  0.9051  0.1102
 5636SOL     OW17033   2.028   4.468   1.624  0.8947  0.3761 -0.7783
 5636SOL    HW117034   2.095   4.408   1.657  0.9238  0.3246 -0.9313
 5636SOL    HW217035   2.051   4.552   1.664  0.5786  0.1951 -0.1873
 5637SOL     OW17036   1.751   2.555   0.255  0.0604  0.9687 -0.3691
 5637SOL    HW117037   1.679   2.492   0.253  0.4658  0.3410  1.3567
 5637SOL    HW217038   1.718   2.628   0.308  0.9310  0.2328  1.2945
 5638SOL     OW17039   0.501   6.056   0.554 -0.2974 -0.4567 -0.1395
 5638SOL    HW117040   0.480   6.027   0.642 -0.5047 -1.8600 -0.5948
 5638SOL    HW217041   0.583   6.104   0.564 -0.5235 -0.2375  0.8598
 5639SOL     OW17042   1.755   3.853   2.930 -0.5011 -0.3698 -0.4997
 5639SOL    HW117043   1.839   3.818   2.900  1.1504  2.5423 -0.0602
 5639SOL    HW217044   1.743   3.933   2.878 -2.4768 -0.0759  0.2403
 5640SOL     OW17045   3.877   1.458   4.022 -0.3138 -0.0537 -0.3195
 5640SOL    HW117046   3.822   1.380   4.024 -0.0133 -0.2689 -0.2579
 5640SOL    HW217047   3.916   1.458   3.935 -2.5217  1.6205 -1.5395
 5641SOL     OW17048   4.830   3.324   0.153 -0.4781 -0.3138  0.1103
 5641SOL    HW117049   4.864   3.401   0.198 -0.5181 -0.6893  0.8033
 5641SOL    HW217050   4.779   3.277   0.220 -2.5442  0.2825 -0.8611
 5642SOL     OW17051   4.598   1.150   0.821 -0.4382 -0.1101 -0.0936
 5642SOL    HW117052   4.612   1.211   0.894 -1.2287 -2.3442  2.2305
 5642SOL    HW217053   4.687   1.121   0.798  0.1972  2.8324 -2.5418
 5643SOL     OW17054   0.563   0.771   2.907 -0.4007  0.4663 -0.6108
 5643SOL    HW117055   0.476   0.748   2.873 -0.2299 -1.3983 -0.0126
 5643SOL    HW217056   0.564   0.867   2.905 -2.9187  0.6811  0.3779
 5644SOL     OW17057   3.344   6.409   2.088 -0.4202  0.1713 -0.3248
 5644SOL    HW117058   3.419   6.411   2.147 -0.2532  1.9641 -0.4845
 5644SOL    HW217059   3.314   6.500   2.084 -1.4366 -0.1537 -1.7480
 5645SOL     OW17060   5.238   5.606   2.254  0.1161  0.2798  0.4027
 5645SOL    HW117061   5.208   5.523   2.291 -0.7047  1.5530  3.1803
 5645SOL    HW217062   5.330   5.592   2.234  0.2865 -1.0656  1.7932
 5646SOL     OW17063   1.569   6.182   0.163 -0.2327 -0.2483 -0.0141
 5646SOL    HW117064   1.544   6.261   0.212  0.0534 -1.0759  1.6077
 5646SOL    HW217065   1.495   6.123   0.172  0.0842 -0.6555 -0.0111
 5647SOL     OW17066   1.813   4.071   3.964  0.8941  1.1700  0.0849
 5647SOL    HW117067   1.875   4.044   3.897 -1.0672 -2.5007 -0.7959
 5647SOL    HW217068   1.735   4.098   3.915 -0.2790 -0.7519  0.6517
 5648SOL     OW17069   1.109   4.568   0.893  0.2745  1.4207  0.0553
 5648SOL    HW117070   1.029   4.600   0.934  0.0747  1.7937 -0.6062
 5648SOL    HW217071   1.105   4.600   0.803  0.6639  0.5624 -0.2921
 5649SOL     OW17072   4.269   0.067   2.388  0.6911  0.0487 -0.1204
 5649SOL    HW117073   4.295   0.128   2.457 -0.8057 -0.4076  0.9644
 5649SOL    HW217074   4.270  -0.019   2.430  0.4574 -0.3545 -0.8883
 5650SOL     OW17075   2.544   3.836   1.363 -0.0477  0.1454 -0.1312
 5650SOL    HW117076   2.481   3.769   1.387  1.1830 -1.0634 -0.0650
 5650SOL    HW217077   2.495   3.918   1.371 -1.2138 -0.5901  1.2495
 5651SOL     OW17078   4.584   2.122   3.976 -0.2386  0.4084  0.5542
 5651SOL    HW117079   4.535   2.160   3.903 -0.5311 -0.8316  0.0514
 5651SOL    HW217080   4.528   2.052   4.009  1.0256 -0.9065  0.1254
 5652SOL     OW17081   2.504   1.179   0.384 -0.0281 -0.0005  0.7363
 5652SOL    HW117082   2.500   1.089   0.350 -1.3563  0.2022  0.2508
 5652SOL    HW217083   2.538   1.168   0.473  2.3645 -0.6725 -0.1075
 5653SOL     OW17084   5.830   1.481   1.164 -0.3410 -0.3742  0.0096
 5653SOL    HW117085   5.894   1.430   1.114  0.2487  0.8426 -0.5712
 5653SOL    HW217086   5.851   1.572   1.144 -1.1593  0.1336  1.1951
 5654SOL     OW17087   0.907   3.389   1.606 -0.3764  0.0346 -0.0795
 5654SOL    HW117088   0.913   3.360   1.515 -0.2205 -1.9673  0.4771
 5654SOL    HW217089   0.984   3.444   1.619  2.0666 -2.8124 -0.2757
 5655SOL     OW17090   6.072   6.152   0.694 -0.0906 -0.4583 -0.2342
 5655SOL    HW117091   6.115   6.238   0.690 -0.9494  0.0158  0.0985
 5655SOL    HW217092   5.995   6.167   0.749 -1.6558 -0.7920 -2.1245
 5656SOL     OW17093   1.349   4.025   0.834 -0.1994  0.1138  0.6113
 5656SOL    HW117094   1.258   4.024   0.802  0.2777 -0.4432 -0.9069
 5656SOL    HW217095   1.375   4.117   0.829 -0.3638  0.1400 -0.0321
 5657SOL     OW17096   3.356   1.716   0.548  0.2988  0.1758 -0.3420
 5657SOL    HW117097   3.288   1.783   0.539  1.0612  1.4852  1.9598
 5657SOL    HW217098   3.421   1.738   0.482 -0.0984  0.8815 -0.5087
 5658SOL     OW17099   2.905   2.831   2.198  0.5596  0.2158  0.1760
 5658SOL    HW117100   2.873   2.788   2.118  0.9084  1.3206 -0.6011
 5658SOL    HW217101   2.847   2.906   2.209 -0.0286 -0.3686  1.4957
 5659SOL     OW17102   0.070   4.485   3.971 -0.4099  0.1774  0.2849
 5659SOL    HW117103  -0.016   4.496   4.011 -0.6440  0.1104 -0.1936
 5659SOL    HW217104   0.124   4.447   4.041 -0.9032 -0.2635  0.4400
 5660SOL     OW17105   1.527   0.146   1.661  0.7168 -0.3720 -0.5453
 5660SOL    HW117106   1.615   0.111   1.670  0.9513  0.4661  1.3199
 5660SOL    HW217107   1.490   0.145   1.749 -0.1832  1.5636 -0.7733
 5661SOL     OW17108   4.855   4.542   2.108 -0.0413  0.7557  0.4354
 5661SOL    HW117109   4.855   4.637   2.119 -2.0008  0.7563  1.3543
 5661SOL    HW217110   4.945   4.515   2.127  0.3381  2.3368  1.2189
 5662SOL     OW17111   5.255   1.619   1.741 -0.1145  0.1141  0.0441
 5662SOL    HW117112   5.258   1.531   1.780  0.3088  0.6968  1.4563
 5662SOL    HW217113   5.172   1.620   1.693  0.6465 -1.5990 -1.5482
 5663SOL     OW17114   1.107   4.700   0.643 -0.8231 -0.1991  0.9587
 5663SOL    HW117115   1.019   4.662   0.642 -0.4751 -1.4503 -1.9409
 5663SOL    HW217116   1.092   4.794   0.632 -1.8212 -0.4054  0.3259
 5664SOL     OW17117   1.366   5.983   1.357  0.1066  0.4655 -0.3675
 5664SOL    HW117118   1.297   6.010   1.417 -0.7260 -0.0928 -1.0196
 5664SOL    HW217119   1.375   6.056   1.296 -0.9316  0.0222 -1.1082
 5665SOL     OW17120   6.340   5.056   1.394  0.2410 -0.2875  0.0032
 5665SOL    HW117121   6.281   5.131   1.394 -0.0386 -0.4815 -0.9112
 5665SOL    HW217122   6.428   5.094   1.388  0.0585  0.0451 -2.6115
 5666SOL     OW17123   2.510   4.972   3.081  0.1411 -0.6132  0.4532
 5666SOL    HW117124   2.490   5.054   3.127 -0.7403  0.0973 -1.0344
 5666SOL    HW217125   2.577   4.930   3.135  1.1918  1.4265  0.9568
 5667SOL     OW17126   3.209   6.214   1.189  0.1634  0.5271  0.1459
 5667SOL    HW117127   3.254   6.165   1.258 -0.0415  0.3646  0.1675
 5667SOL    HW217128   3.277   6.270   1.151  1.3714 -1.9495 -2.0440
 5668SOL     OW17129   0.304   0.654   3.765 -0.0933  0.1940 -0.8630
 5668SOL    HW117130   0.317   0.573   3.716 -0.7731  1.1737 -2.9197
 5668SOL    HW217131   0.209   0.663   3.773 -0.0675  1.0094 -1.1951
 5669SOL     OW17132   1.240   4.406   1.583  0.0779  0.0640  0.4222
 5669SOL    HW117133   1.225   4.389   1.490  0.1586  2.4014 -0.1491
 5669SOL    HW217134   1.325   4.365   1.602 -0.6225 -1.7868 -0.0049
 5670SOL     OW17135   5.237   2.661   3.967 -0.1951 -0.3153 -0.1635
 5670SOL    HW117136   5.148   2.675   3.935  0.5373 -0.9226 -3.1081
 5670SOL    HW217137   5.288   2.732   3.928  0.6823  0.1602  1.6388
 5671SOL     OW17138   3.499   2.649   4.288 -0.2390 -0.1986  0.4185
 5671SOL    HW117139   3.420   2.698   4.312  0.4225  0.3389  1.7514
 5671SOL    HW217140   3.509   2.662   4.194 -1.2455  0.4616  0.3805
 5672SOL     OW17141   1.121   1.493   1.657  0.2382 -0.0724  0.2269
 5672SOL    HW117142   1.201   1.442   1.645  0.6338  0.2048  1.3721
 5672SOL    HW217143   1.103   1.488   1.751 -1.0757 -0.0718  0.0212
 5673SOL     OW17144   5.890   2.260   3.730  0.2913 -0.2559  0.4157
 5673SOL    HW117145   5.805   2.265   3.773  0.5527 -2.7243  1.5823
 5673SOL    HW217146   5.942   2.329   3.769 -0.6404  0.0992  1.0914
 5674SOL     OW17147   2.137   3.903   0.024  0.1242 -0.1545  0.1211
 5674SOL    HW117148   2.177   3.853  -0.047  2.4667 -1.0945  1.8356
 5674SOL    HW217149   2.113   3.838   0.090 -0.0320  0.7440  1.0214
 5675SOL     OW17150   4.075   1.753   0.765  0.2562  0.1415 -0.5720
 5675SOL    HW117151   4.085   1.723   0.856  3.1875  3.2923  0.5887
 5675SOL    HW217152   4.153   1.722   0.721  0.3371  0.9970 -1.0739
 5676SOL     OW17153   0.314   5.923   1.555  0.5582 -0.2332  0.1369
 5676SOL    HW117154   0.249   5.993   1.550  1.4725  0.6164 -0.5169
 5676SOL    HW217155   0.262   5.843   1.556 -0.5703  0.2228 -2.7370
 5677SOL     OW17156   3.810   1.757   3.322  0.3444  0.0312  0.2100
 5677SOL    HW117157   3.787   1.746   3.415 -0.6410 -0.0056 -0.0233
 5677SOL    HW217158   3.782   1.846   3.301 -0.6542 -0.3939 -0.3701
 5678SOL     OW17159   0.378   2.147   1.172 -0.2470 -0.0251  0.0953
 5678SOL    HW117160   0.396   2.075   1.232  1.1477 -0.3979 -0.6680
 5678SOL    HW217161   0.365   2.105   1.087 -1.1616  0.5478 -0.0711
 5679SOL     OW17162   2.370   5.621   2.405 -0.5275 -0.2010  0.2413
 5679SOL    HW117163   2.361   5.527   2.421  2.4024 -0.4217  2.0565
 5679SOL    HW217164   2.439   5.627   2.339 -0.2169  0.6683  0.6232
 5680SOL     OW17165   2.078   0.451   1.876 -0.1956 -0.4605 -0.4399
 5680SOL    HW117166   2.171   0.470   1.868 -0.2275  1.1550  1.3540
 5680SOL    HW217167   2.035   0.536   1.866 -1.4817 -1.1074 -0.9064
 5681SOL     OW17168   0.488   2.280   2.251 -0.1378  0.3346 -0.6574
 5681SOL    HW117169   0.459   2.368   2.227  0.3864  0.9982  0.8988
 5681SOL    HW217170   0.408   2.235   2.278 -0.2232  0.8952  0.0722
 5682SOL     OW17171   2.478   5.625   1.646  0.0623 -0.0874 -0.5468
 5682SOL    HW117172   2.497   5.719   1.655 -0.2016  0.0554 -1.3033
 5682SOL    HW217173   2.527   5.584   1.717 -1.8632  0.8350  1.6045
 5683SOL     OW17174   2.982   1.341   3.347 -0.5645 -0.0740  0.2465
 5683SOL    HW117175   2.965   1.247   3.355 -1.8675  0.1396  0.4311
 5683SOL    HW217176   2.895   1.380   3.341 -0.0385  1.0439 -0.8773
 5684SOL     OW17177   4.065   2.668   1.577  0.2068  0.0351 -0.0021
 5684SOL    HW117178   4.141   2.726   1.575 -0.2835  0.7026  0.0808
 5684SOL    HW217179   4.063   2.634   1.666  1.5369 -1.5997 -0.4839
 5685SOL     OW17180   0.681   1.779   2.101  0.3606 -0.5449 -0.0549
 5685SOL    HW117181   0.745   1.820   2.042  0.5769 -0.3094  0.3335
 5685SOL    HW217182   0.616   1.742   2.043  0.6530 -0.4560 -0.4508
 5686SOL     OW17183   0.092   0.028   0.746 -0.4420 -0.4746  0.1331
 5686SOL    HW117184   0.138   0.110   0.724 -0.1751 -1.2648 -3.4510
 5686SOL    HW217185   0.077   0.034   0.841  4.1080  1.3515  1.2973
 5687SOL     OW17186   0.737   4.891   2.764 -0.0794  0.0666  0.0118
 5687SOL    HW117187   0.737   4.982   2.793  1.2761  0.1741 -0.2026
 5687SOL    HW217188   0.672   4.888   2.694  0.8199  1.2282 -0.9484
 5688SOL     OW17189   5.258   0.747   2.313  0.1404  0.9349 -0.1502
 5688SOL    HW117190   5.326   0.710   2.256  0.6612 -0.5379  1.2650
 5688SOL    HW217191   5.215   0.670   2.351 -2.7085  1.7220 -1.2331
 5689SOL     OW17192   6.283   5.353   0.029 -0.1533  0.0127 -0.0442
 5689SOL    HW117193   6.242   5.305  -0.042  0.5447 -1.4529  0.4741
 5689SOL    HW217194   6.300   5.440  -0.008 -2.4228  0.3240 -0.6886
 5690SOL     OW17195   1.993   1.690   2.909  0.3144  0.1311  0.3178
 5690SOL    HW117196   1.990   1.777   2.949  2.5975  1.6216 -2.0508
 5690SOL    HW217197   1.918   1.688   2.849  0.8162  1.0525 -0.3951
 5691SOL     OW17198   4.754   1.605   0.905  0.0989  0.1688 -0.2242
 5691SOL    HW117199   4.796   1.590   0.820  0.0426 -2.2148  0.0290
 5691SOL    HW217200   4.661   1.591   0.889  0.1685 -1.1494  0.3086
 5692SOL     OW17201   3.078   2.375   0.096  0.2432 -0.2161  0.1304
 5692SOL    HW117202   3.035   2.441   0.041 -0.6237 -1.3114 -0.5773
 5692SOL    HW217203   3.035   2.384   0.181 -1.0145 -0.8709 -0.3939
 5693SOL     OW17204   5.548   2.440   2.903  0.1329  0.1561  0.7612
 5693SOL    HW117205   5.489   2.512   2.924  0.1666  0.4615 -0.0903
 5693SOL    HW217206   5.490   2.371   2.869  0.2428  0.4707 -0.1122
 5694SOL     OW17207   3.871   2.322   2.049  0.0444 -0.3561 -0.4285
 5694SOL    HW117208   3.791   2.297   2.003 -0.3961  0.5096 -0.1659
 5694SOL    HW217209   3.851   2.310   2.142 -0.9441  2.6325 -0.0683
 5695SOL     OW17210   3.737   0.321   2.797 -0.5292 -0.1980  0.8652
 5695SOL    HW117211   3.822   0.360   2.819 -0.4357 -0.2379  0.5774
 5695SOL    HW217212   3.679   0.396   2.785 -0.7300 -0.1788  1.7973
 5696SOL     OW17213   2.993   1.323   4.013  0.1612  0.2602  0.1560
 5696SOL    HW117214   3.021   1.294   3.926 -1.3816 -1.6349  0.1292
 5696SOL    HW217215   3.074   1.336   4.062  1.0731  0.8834 -1.3772
 5697SOL     OW17216   5.415   1.627   2.398 -0.2510 -0.0619  0.8322
 5697SOL    HW117217   5.471   1.679   2.456  0.7204  0.1404 -0.2237
 5697SOL    HW217218   5.336   1.681   2.387  1.1341  1.9470 -1.1288
 5698SOL     OW17219   5.439   6.313   1.425  0.1839  1.0469  0.0828
 5698SOL    HW117220   5.417   6.224   1.397  1.5556  0.1041  1.6396
 5698SOL    HW217221   5.360   6.344   1.470 -1.5607  2.0764 -3.0246
 5699SOL     OW17222   3.952   2.542   3.621  0.5616 -0.3919  0.5421
 5699SOL    HW117223   3.868   2.575   3.653  0.6237 -0.2274  0.5379
 5699SOL    HW217224   4.012   2.616   3.630  1.1930 -1.0097  2.3479
 5700SOL     OW17225   0.321   2.236   2.488  0.0205 -0.1850 -0.3865
 5700SOL    HW117226   0.409   2.272   2.502  1.1673 -2.7795  0.3470
 5700SOL    HW217227   0.270   2.267   2.562  0.5918  0.6315 -0.3125
 5701SOL     OW17228   1.278   4.658   0.085 -0.1112  0.2050 -0.1381
 5701SOL    HW117229   1.353   4.619   0.132 -0.3196  0.2270  0.2170
 5701SOL    HW217230   1.266   4.744   0.126 -0.9895 -0.2112  0.5415
 5702SOL     OW17231   0.927   5.614   3.012 -0.2352  0.0049 -0.6064
 5702SOL    HW117232   1.016   5.646   3.028  0.0230 -0.1524 -1.6029
 5702SOL    HW217233   0.871   5.686   3.037 -0.0287 -0.5062  1.9098
 5703SOL     OW17234   5.850   6.400   4.380 -0.3351 -0.3408  0.0419
 5703SOL    HW117235   5.816   6.457   4.312 -0.2269  0.1787  0.4117
 5703SOL    HW217236   5.781   6.396   4.446 -1.3597 -2.5191 -0.9611
 5704SOL     OW17237   1.850   5.517   4.480 -0.1409 -0.4926 -0.3079
 5704SOL    HW117238   1.931   5.568   4.477 -0.9227  0.9538  0.7645
 5704SOL    HW217239   1.782   5.581   4.498 -1.7381 -1.4961 -2.0534
 5705SOL     OW17240   1.707   0.048   0.181  0.1031 -0.0356 -0.1651
 5705SOL    HW117241   1.745   0.057   0.268 -0.3023  1.9511 -0.0884
 5705SOL    HW217242   1.720   0.134   0.141 -0.9892 -0.4418 -1.5281
 5706SOL     OW17243   3.995   6.391   0.666  0.1340 -0.0885 -0.0029
 5706SOL    HW117244   3.915   6.339   0.673  0.4029 -0.8612 -1.7053
 5706SOL    HW217245   4.056   6.336   0.617  1.7144  0.5309  1.0664
 5707SOL     OW17246   0.889   3.079   1.262  0.2173 -0.2016  0.0531
 5707SOL    HW117247   0.851   3.013   1.320  1.7148 -0.1543  1.2207
 5707SOL    HW217248   0.931   3.029   1.192  0.0445 -0.3840  0.0785
 5708SOL     OW17249   4.905   0.957   0.276  0.0939  0.1397 -0.1650
 5708SOL    HW117250   4.987   0.963   0.227 -0.7646  1.0428 -1.6562
 5708SOL    HW217251   4.925   0.900   0.350  2.0020  0.1996 -0.5403
 5709SOL     OW17252   6.151   5.287   1.385 -0.2238 -0.0454  0.0243
 5709SOL    HW117253   6.178   5.266   1.295 -0.0531  0.4245 -0.0450
 5709SOL    HW217254   6.062   5.319   1.376  0.2108  1.2534 -0.1929
 5710SOL     OW17255   2.262   5.840   2.826  0.0198  0.4557  0.1266
 5710SOL    HW117256   2.288   5.749   2.842 -0.6706  0.1585 -0.3576
 5710SOL    HW217257   2.248   5.844   2.732  1.1207  1.3789 -0.0460
 5711SOL     OW17258   3.433   5.763   0.589 -0.7563  0.4311  0.0996
 5711SOL    HW117259   3.524   5.792   0.586 -0.5454  0.4198  2.4015
 5711SOL    HW217260   3.386   5.835   0.632 -1.2224 -0.5483  1.3854
 5712SOL     OW17261   4.981   5.880   3.357 -0.1168  0.1873  0.4631
 5712SOL    HW117262   5.069   5.889   3.320 -0.1589  2.4607  0.6558
 5712SOL    HW217263   4.981   5.935   3.435 -1.9245  1.0010  0.0012
 5713SOL     OW17264   2.951   5.245   2.403 -0.5113 -0.6420  0.5249
 5713SOL    HW117265   2.877   5.195   2.369 -0.2394 -0.8729  0.2633
 5713SOL    HW217266   2.933   5.255   2.496  0.7180 -3.6956  1.3313
 5714SOL     OW17267   0.562   6.222   3.328 -0.3096 -0.4409  0.9499
 5714SOL    HW117268   0.478   6.267   3.321 -0.0454  0.0600  0.8747
 5714SOL    HW217269   0.539   6.131   3.344 -0.8669 -0.3394  0.7868
 5715SOL     OW17270   2.552   4.786   1.748  0.2630  0.6026 -0.2675
 5715SOL    HW117271   2.640   4.818   1.766 -0.2692  1.4785  0.9803
 5715SOL    HW217272   2.494   4.861   1.762 -0.7750 -0.1691 -0.0993
 5716SOL     OW17273   4.106   1.601   4.376 -0.0292 -0.4448  0.5361
 5716SOL    HW117274   4.068   1.652   4.447 -0.9061 -1.1403  0.6053
 5716SOL    HW217275   4.180   1.556   4.416  2.0083  2.0359  0.0688
 5717SOL     OW17276   0.086   1.377   2.225  0.0034 -0.1806  0.3761
 5717SOL    HW117277   0.156   1.360   2.162 -0.3758 -0.9881  0.1561
 5717SOL    HW217278   0.111   1.460   2.266 -0.0465  0.7074 -1.2346
 5718SOL     OW17279   6.307   5.075   0.476 -0.3485  0.3210  0.1626
 5718SOL    HW117280   6.313   5.127   0.556  0.3948  1.3217 -0.4818
 5718SOL    HW217281   6.310   5.140   0.406  0.5348 -0.5930 -0.7036
 5719SOL     OW17282   4.070   1.246   3.712 -0.3134  0.3863 -0.4815
 5719SOL    HW117283   4.059   1.220   3.803  2.2101  0.3676 -0.0223
 5719SOL    HW217284   4.040   1.337   3.709 -2.4464 -0.2099 -0.2834
 5720SOL     OW17285   4.501   3.403   4.011  0.3917 -0.3504 -0.0830
 5720SOL    HW117286   4.520   3.459   3.936 -0.0738 -1.7201 -1.3311
 5720SOL    HW217287   4.436   3.451   4.062  0.6243  0.5750 -0.6178
 5721SOL     OW17288   3.031   6.129   2.915 -0.7168 -0.2014  0.1922
 5721SOL    HW117289   2.999   6.107   2.828 -0.1525  0.7505 -0.2931
 5721SOL    HW217290   2.956   6.167   2.961 -0.9537 -0.4859  0.0423
 5722SOL     OW17291   6.377   3.148   1.141  0.3114 -0.1180 -0.0435
 5722SOL    HW117292   6.348   3.071   1.189  0.7447  1.3565  3.0720
 5722SOL    HW217293   6.457   3.176   1.186 -0.5020  2.8006  0.0073
 5723SOL     OW17294   1.448   0.561   0.036  0.3853 -0.5330 -0.2181
 5723SOL    HW117295   1.403   0.521   0.111  1.5801 -0.9071  0.3572
 5723SOL    HW217296   1.439   0.655   0.049 -1.8304 -0.4967 -1.1852
 5724SOL     OW17297   2.350   2.440   1.298  0.1878 -0.4453 -0.2021
 5724SOL    HW117298   2.338   2.479   1.212 -3.4707  0.2761  0.2809
 5724SOL    HW217299   2.342   2.514   1.359 -1.8002 -1.2308  0.6629
 5725SOL     OW17300   3.744   5.187   1.684 -0.3144  0.2810 -0.7527
 5725SOL    HW117301   3.709   5.099   1.666 -2.8067  0.8825  0.3275
 5725SOL    HW217302   3.725   5.202   1.776 -1.0719  2.3534 -1.1524
 5726SOL     OW17303   4.866   3.858   0.668  0.0884  0.5039 -0.2371
 5726SOL    HW117304   4.961   3.845   0.663  0.0798  0.3080  0.0491
 5726SOL    HW217305   4.832   3.773   0.695 -0.2198  0.4298 -0.8313
 5727SOL     OW17306   4.316   1.926   1.317  0.3796 -0.1946 -0.7366
 5727SOL    HW117307   4.226   1.896   1.319  0.6029 -1.4321  2.5608
 5727SOL    HW217308   4.367   1.849   1.290  0.5614 -1.5025  2.4716
 5728SOL     OW17309   5.016   0.944   2.006 -0.3926 -0.0236  0.3642
 5728SOL    HW117310   4.989   1.027   1.968  0.2088 -0.7767 -2.0975
 5728SOL    HW217311   5.087   0.967   2.066 -2.3645  1.3953  2.5025
 5729SOL     OW17312   6.229   0.250   1.488 -0.0349  0.0895  0.4510
 5729SOL    HW117313   6.135   0.232   1.477  0.2308 -0.6639 -1.4988
 5729SOL    HW217314   6.269   0.163   1.491  0.6124  0.3777  2.0881
 5730SOL     OW17315   2.104   5.478   2.646 -0.4258  0.0212 -0.5359
 5730SOL    HW117316   2.188   5.477   2.693  0.4131 -1.4011 -1.8644
 5730SOL    HW217317   2.038   5.467   2.714  0.3604  1.6140  0.6167
 5731SOL     OW17318   3.055   0.894   0.283  0.1243 -0.2765 -0.9578
 5731SOL    HW117319   3.064   0.927   0.372  1.5915  1.8364 -1.7437
 5731SOL    HW217320   2.987   0.949   0.244  0.9413  0.2854 -1.6592
 5732SOL     OW17321   1.188   3.157   4.026 -0.4669 -0.1730 -0.3840
 5732SOL    HW117322   1.197   3.251   4.037 -0.4820 -0.2840  0.8724
 5732SOL    HW217323   1.097   3.143   4.002 -0.7594  0.0849  0.5015
 5733SOL     OW17324   2.158   0.176   0.451  0.2350  0.2694 -0.6583
 5733SOL    HW117325   2.187   0.257   0.494  2.0625 -0.3149 -0.6323
 5733SOL    HW217326   2.198   0.181   0.364  0.5601 -0.6990 -0.5770
 5734SOL     OW17327   5.962   3.853   3.064 -0.4198  0.4957 -0.1712
 5734SOL    HW117328   5.941   3.889   3.150  1.1191 -0.0752  0.5254
 5734SOL    HW217329   6.020   3.918   3.024 -0.9525  0.6582 -0.7163
 5735SOL     OW17330   0.494   3.784   1.101  0.3949 -0.1914  0.1080
 5735SOL    HW117331   0.543   3.866   1.106 -0.2683  0.3278 -1.0819
 5735SOL    HW217332   0.562   3.716   1.101  0.9377  0.2911  1.4670
 5736SOL     OW17333   3.156   0.759   4.378 -0.6770 -0.8183 -0.0737
 5736SOL    HW117334   3.170   0.684   4.436  1.2776  0.6626  1.6698
 5736SOL    HW217335   3.217   0.826   4.410 -3.6327  2.3972 -0.0325
 5737SOL     OW17336   4.783   2.212   2.729 -0.0222 -0.0659  0.1190
 5737SOL    HW117337   4.746   2.143   2.673  1.2952 -1.8559  1.2595
 5737SOL    HW217338   4.837   2.264   2.670  0.4358 -1.1987 -0.5292
 5738SOL     OW17339   5.673   5.806   2.434 -0.3779 -0.0011  0.1990
 5738SOL    HW117340   5.750   5.842   2.390  0.0493 -0.4292  0.5834
 5738SOL    HW217341   5.599   5.839   2.382 -0.0227  1.3373  0.4664
 5739SOL     OW17342   2.903   3.302   0.104 -0.1852 -0.0739  0.6150
 5739SOL    HW117343   2.833   3.359   0.138 -0.4374  0.5017 -0.7574
 5739SOL    HW217344   2.901   3.315   0.009  0.6034 -1.4305  0.3585
 5740SOL     OW17345   1.976   2.408   0.130 -0.5896  0.5552  0.0491
 5740SOL    HW117346   1.934   2.425   0.046 -0.8224  0.1633  0.0822
 5740SOL    HW217347   1.924   2.457   0.194 -0.2474  1.0811 -0.0616
 5741SOL     OW17348   1.043   0.089   1.127 -0.1629 -0.7071 -0.4066
 5741SOL    HW117349   0.967   0.102   1.184 -0.3475 -0.6765 -0.6556
 5741SOL    HW217350   1.055  -0.006   1.124 -1.5204 -0.9254 -2.0428
 5742SOL     OW17351   0.077   5.308   3.990  0.0384 -0.4588  1.1186
 5742SOL    HW117352   0.120   5.331   3.908 -1.4051 -1.1439  0.0766
 5742SOL    HW217353   0.075   5.390   4.040 -1.8528  1.0017 -0.9378
 5743SOL     OW17354   5.657   5.168   1.198  0.8991  0.2120 -0.0606
 5743SOL    HW117355   5.613   5.089   1.230 -0.2683  0.5022 -0.8179
 5743SOL    HW217356   5.596   5.204   1.133  1.6987  1.3814 -0.2126
 5744SOL     OW17357   3.915   1.048   2.075 -0.0032  0.0346 -0.3607
 5744SOL    HW117358   3.916   1.040   1.980  0.3116  1.3013 -0.4986
 5744SOL    HW217359   3.828   1.016   2.101 -0.1236 -0.2495 -1.0640
 5745SOL     OW17360   4.587   1.736   1.516 -0.3620 -0.0322  0.4515
 5745SOL    HW117361   4.597   1.831   1.508  0.7442 -0.2131 -1.2724
 5745SOL    HW217362   4.655   1.699   1.459 -1.8236 -1.8268 -0.3603
 5746SOL     OW17363   4.780   6.262   3.870 -0.4122  0.3050  0.4123
 5746SOL    HW117364   4.750   6.240   3.782 -0.9048 -2.0900  1.0243
 5746SOL    HW217365   4.831   6.185   3.897 -0.7135  0.6908  2.3838
 5747SOL     OW17366   4.612   3.877   0.966  0.4926  0.2137 -0.2287
 5747SOL    HW117367   4.535   3.843   1.013 -0.2690 -0.1710 -1.6378
 5747SOL    HW217368   4.605   3.972   0.975 -1.6090  0.4273 -2.1918
 5748SOL     OW17369   5.014   5.135   2.179  0.3920  0.0666 -0.3364
 5748SOL    HW117370   5.025   5.057   2.234 -0.0059  0.2294 -0.0124
 5748SOL    HW217371   5.038   5.106   2.091  0.8330 -0.2556 -0.1170
 5749SOL     OW17372   0.527   4.354   4.192 -0.3566 -0.1491 -0.0034
 5749SOL    HW117373   0.508   4.404   4.272 -0.1871  1.2160 -0.7442
 5749SOL    HW217374   0.565   4.272   4.223 -0.2010  0.3683  1.3111
 5750SOL     OW17375   1.194   4.597   4.466 -0.1254  0.1524  0.1551
 5750SOL    HW117376   1.101   4.575   4.466  0.0169 -1.1767 -2.3454
 5750SOL    HW217377   1.234   4.532   4.525 -0.5811 -1.2892 -1.0118
 5751SOL     OW17378   4.756   4.034   0.040  0.2995 -0.1458 -0.2635
 5751SOL    HW117379   4.747   4.110  -0.017 -1.8764  0.6227  0.8873
 5751SOL    HW217380   4.757   3.959  -0.020  0.6317  0.6933 -1.3592
 5752SOL     OW17381   4.116   1.671   3.358  0.0152  0.4020  0.1377
 5752SOL    HW117382   4.057   1.735   3.397  0.8649  1.3877 -0.1296
 5752SOL    HW217383   4.141   1.614   3.431 -1.2884 -0.1067  0.2419
 5753SOL     OW17384   1.870   2.982   0.878  0.1882  0.3761  0.0021
 5753SOL    HW117385   1.812   2.906   0.880  3.0473 -2.2014 -0.2479
 5753SOL    HW217386   1.865   3.014   0.788 -1.0811  0.6020  0.1122
 5754SOL     OW17387   3.505   3.847   2.604 -0.5576  0.2234 -0.3643
 5754SOL    HW117388   3.561   3.919   2.575  0.4799 -0.5498 -0.3858
 5754SOL    HW217389   3.513   3.847   2.699 -1.6072  0.9155 -0.2440
 5755SOL     OW17390   1.195   3.356   1.916  0.2169  0.2897 -0.3166
 5755SOL    HW117391   1.209   3.393   1.828  1.0143  2.4642  0.5787
 5755SOL    HW217392   1.283   3.342   1.950  0.0894  1.8531  0.9053
 5756SOL     OW17393   2.594   3.239   0.268  0.2146  0.5710 -0.9725
 5756SOL    HW117394   2.578   3.148   0.244  0.2684  0.2955 -0.0301
 5756SOL    HW217395   2.610   3.283   0.185  0.2521 -0.2886 -1.4410
 5757SOL     OW17396   2.777   4.564   2.365 -0.2414 -0.3768  0.1672
 5757SOL    HW117397   2.825   4.574   2.448 -1.7313 -1.6278  1.3109
 5757SOL    HW217398   2.689   4.598   2.384 -0.4805 -0.2072 -1.0948
 5758SOL     OW17399   5.288   0.854   4.109  0.6336  0.0329 -0.6520
 5758SOL    HW117400   5.311   0.947   4.109  4.7464 -0.5282  1.8387
 5758SOL    HW217401   5.371   0.808   4.104 -0.3370 -3.2955  3.2740
 5759SOL     OW17402   0.884   4.667   1.034 -0.1499  0.5836 -0.1668
 5759SOL    HW117403   0.845   4.673   1.121 -0.7396 -2.7865  0.0793
 5759SOL    HW217404   0.823   4.714   0.977 -0.4475  1.7493  1.0116
 5760SOL     OW17405   2.550   5.801   3.063 -0.0269 -0.3868  0.3568
 5760SOL    HW117406   2.627   5.817   3.008  0.2592 -2.1634  0.1211
 5760SOL    HW217407   2.476   5.823   3.006  0.2865 -0.7121 -0.1976
 5761SOL     OW17408   2.152   5.064   4.162 -0.0618  0.3549  0.0773
 5761SOL    HW117409   2.237   5.099   4.187 -0.0278  0.2294  0.1405
 5761SOL    HW217410   2.172   4.991   4.104 -0.1542  1.5910 -1.6459
 5762SOL     OW17411   4.180   5.469   0.981 -0.0195  0.1104  0.2381
 5762SOL    HW117412   4.259   5.427   1.014 -1.0833 -1.4253  1.0837
 5762SOL    HW217413   4.110   5.406   0.998 -1.1825  0.4073 -2.3567
 5763SOL     OW17414   6.183   0.631   3.552  0.6341  0.2941 -0.2867
 5763SOL    HW117415   6.151   0.566   3.615  1.4670  0.6988  0.5969
 5763SOL    HW217416   6.164   0.715   3.593  0.2640  0.6157 -1.0700
 5764SOL     OW17417   5.609   3.089   4.053 -0.3894 -0.2374 -0.2459
 5764SOL    HW117418   5.608   3.148   3.977 -0.9166  0.0402 -0.0340
 5764SOL    HW217419   5.517   3.083   4.080 -0.1161  0.6709  1.1190
 5765SOL     OW17420   2.062   0.602   3.395 -0.2904  1.0977 -0.2848
 5765SOL    HW117421   2.085   0.521   3.349 -0.1011  1.7254 -1.3492
 5765SOL    HW217422   1.982   0.580   3.444  0.7080 -0.2211  0.9359
 5766SOL     OW17423   2.056   5.500   2.270  0.3863 -0.4912  0.2149
 5766SOL    HW117424   2.006   5.433   2.222  1.9383 -0.1663 -2.1402
 5766SOL    HW217425   2.137   5.455   2.295  2.0596  0.4970 -2.5361
 5767SOL     OW17426   5.314   0.807   2.766  0.3538 -0.6233  0.7989
 5767SOL    HW117427   5.369   0.813   2.688 -0.3152  1.4195  0.3675
 5767SOL    HW217428   5.367   0.845   2.836  0.2269 -0.5606  0.8617
 5768SOL     OW17429   2.654   1.789   1.201 -0.0465  0.1651  0.1240
 5768SOL    HW117430   2.634   1.741   1.121  0.0685 -0.8732  0.6766
 5768SOL    HW217431   2.732   1.839   1.180 -0.4150  0.4578 -0.6091
 5769SOL     OW17432   0.359   4.169   3.931  0.1656 -0.0832 -0.6121
 5769SOL    HW117433   0.309   4.157   3.850 -0.6059  0.7774 -0.2927
 5769SOL    HW217434   0.294   4.158   4.001  0.7784 -0.6042 -0.0937
 5770SOL     OW17435   0.996   6.072   4.167  0.0522 -0.8262 -0.1143
 5770SOL    HW117436   0.998   6.164   4.194 -0.1921 -0.5827 -0.8586
 5770SOL    HW217437   0.939   6.029   4.230  2.6255 -1.2455  2.3068
 5771SOL     OW17438   1.400   4.522   3.390  0.2366  0.2328  0.6502
 5771SOL    HW117439   1.325   4.516   3.330  1.1444  2.3443 -0.9822
 5771SOL    HW217440   1.361   4.529   3.477 -1.2901 -0.8087  0.1439
 5772SOL     OW17441   2.755   0.976   1.136  0.2683  0.2529 -0.4353
 5772SOL    HW117442   2.707   0.926   1.070 -1.2568  1.0695 -0.0466
 5772SOL    HW217443   2.774   0.913   1.204 -2.0330  0.1201  0.2687
 5773SOL     OW17444   4.723   0.747   4.197 -0.3811  0.5308 -0.6874
 5773SOL    HW117445   4.801   0.710   4.156  1.2487  0.4761  1.9667
 5773SOL    HW217446   4.751   0.833   4.228 -0.6618 -0.0895  1.6930
 5774SOL     OW17447   3.472   1.634   3.163 -0.0270  0.1219 -0.2552
 5774SOL    HW117448   3.387   1.651   3.203 -0.1082  0.4554 -0.5607
 5774SOL    HW217449   3.535   1.674   3.222  0.3235 -2.8455  1.8430
 5775SOL     OW17450   4.879   5.026   4.133 -0.6229 -0.2820 -0.2610
 5775SOL    HW117451   4.969   5.027   4.099 -0.6402  1.4362 -0.4284
 5775SOL    HW217452   4.846   4.939   4.109  0.8606 -0.8422 -0.5080
 5776SOL     OW17453   3.998   0.070   2.329 -0.8501  0.4594  0.0986
 5776SOL    HW117454   4.088   0.058   2.359 -1.0277  0.7041  0.7625
 5776SOL    HW217455   3.951   0.102   2.406 -1.4349  0.6529 -0.3241
 5777SOL     OW17456   1.124   0.503   0.493 -0.2550 -0.5473 -0.2495
 5777SOL    HW117457   1.170   0.421   0.479 -1.5594 -1.1727 -1.3552
 5777SOL    HW217458   1.064   0.485   0.565  0.0998 -0.2408  0.1334
 5778SOL     OW17459   1.826   2.533   0.889  0.1063  0.4768 -0.0137
 5778SOL    HW117460   1.856   2.452   0.932  4.2844  0.5639 -1.8121
 5778SOL    HW217461   1.795   2.588   0.961  0.6544 -1.3912  1.8675
 5779SOL     OW17462   2.387   0.240   2.761  0.3389  0.0574 -1.0083
 5779SOL    HW117463   2.438   0.292   2.822  0.1793 -0.2392 -0.6163
 5779SOL    HW217464   2.381   0.295   2.682 -1.3526  1.4845 -0.0438
 5780SOL     OW17465   3.537   4.584   1.967 -0.2979  0.4720  0.4472
 5780SOL    HW117466   3.598   4.615   2.034  0.3740  2.2775 -0.8429
 5780SOL    HW217467   3.572   4.499   1.940  0.0122  0.1934  1.5963
 5781SOL     OW17468   4.832   1.961   1.977  0.3547  0.2691  0.0184
 5781SOL    HW117469   4.857   1.890   2.036  1.7671  0.8651  0.2063
 5781SOL    HW217470   4.749   1.931   1.939 -0.0593 -0.6287  1.4494
 5782SOL     OW17471   0.836   1.658   3.284 -0.2412 -0.3819  0.8180
 5782SOL    HW117472   0.812   1.719   3.354 -1.3851  0.6700 -0.3671
 5782SOL    HW217473   0.782   1.580   3.300  0.1454 -0.5165  1.5450
 5783SOL     OW17474   0.016   2.685   1.896 -0.0924 -0.0099  0.9553
 5783SOL    HW117475  -0.001   2.615   1.833 -0.3147  0.0521  0.9436
 5783SOL    HW217476   0.093   2.730   1.862 -1.1902  1.1294 -0.2557
 5784SOL     OW17477   2.805   2.806   2.532  0.5550 -0.3677  0.6341
 5784SOL    HW117478   2.884   2.798   2.478 -0.2217 -1.5426 -0.4594
 5784SOL    HW217479   2.821   2.747   2.605  0.9775 -0.0164  0.8343
 5785SOL     OW17480   3.555   3.802   0.577 -0.3455  0.7455  0.2833
 5785SOL    HW117481   3.532   3.838   0.662  1.7265 -0.6175  1.6009
 5785SOL    HW217482   3.578   3.878   0.524  1.2326  1.6272  2.0215
 5786SOL     OW17483   4.847   6.072   0.222 -0.0561 -0.1911 -0.4242
 5786SOL    HW117484   4.914   6.044   0.160  0.1339  2.6447 -1.7783
 5786SOL    HW217485   4.764   6.048   0.180  0.0669 -0.7990 -0.3382
 5787SOL     OW17486   0.214   4.827   2.943  0.0871  1.1335 -0.0291
 5787SOL    HW117487   0.254   4.850   2.859 -0.3117  1.4263 -0.1463
 5787SOL    HW217488   0.264   4.752   2.974 -0.9179 -0.2835 -1.4748
 5788SOL     OW17489   0.773   1.958   1.641  0.3259  0.4004 -0.3837
 5788SOL    HW117490   0.799   2.028   1.581 -0.6482  1.1617  0.0326
 5788SOL    HW217491   0.746   1.886   1.584  2.5858 -0.2388 -0.8470
 5789SOL     OW17492   5.910   6.056   4.132 -0.3373 -0.4233 -0.5715
 5789SOL    HW117493   5.979   6.088   4.074 -1.8170 -1.1203 -3.0609
 5789SOL    HW217494   5.937   5.967   4.155 -0.0527 -0.4344 -0.9196
 5790SOL     OW17495   5.501   0.290   2.702  0.0837 -0.8511  0.1832
 5790SOL    HW117496   5.443   0.266   2.631 -0.7653 -2.8528  1.3957
 5790SOL    HW217497   5.559   0.356   2.664 -2.0789  0.3483 -1.4981
 5791SOL     OW17498   5.266   5.934   0.887  0.7079 -0.3037 -0.3240
 5791SOL    HW117499   5.281   5.900   0.976 -0.2572  1.2548  0.5174
 5791SOL    HW217500   5.200   5.875   0.850 -0.9219  0.4619  1.0816
 5792SOL     OW17501   2.793   2.996   3.580 -0.1539  0.2493  0.1675
 5792SOL    HW117502   2.716   2.944   3.604  0.4574 -0.2377  1.2321
 5792SOL    HW217503   2.867   2.938   3.598  0.5310  1.2691  0.8632
 5793SOL     OW17504   5.139   1.270   0.664  0.7844 -0.3886  0.3213
 5793SOL    HW117505   5.220   1.315   0.689  0.6579  0.3811 -0.5446
 5793SOL    HW217506   5.163   1.219   0.587  0.9039 -1.8291  1.2340
 5794SOL     OW17507   4.694   3.481   2.361  0.3108  0.0777 -0.3215
 5794SOL    HW117508   4.705   3.545   2.290 -0.7881  0.4595 -0.1995
 5794SOL    HW217509   4.682   3.535   2.439 -2.9248 -0.0029 -0.5062
 5795SOL     OW17510   1.928   1.030   1.021  0.2745  0.2293 -0.1458
 5795SOL    HW117511   1.922   1.007   1.114 -1.4042 -0.0580 -0.2560
 5795SOL    HW217512   2.022   1.036   1.003  0.6684 -0.4992  1.3683
 5796SOL     OW17513   4.850   3.079   2.729  0.7967 -0.0919 -0.1975
 5796SOL    HW117514   4.898   3.074   2.812 -0.0829 -0.8274  0.3007
 5796SOL    HW217515   4.875   3.164   2.692 -1.0551  1.8529  2.2810
 5797SOL     OW17516   0.757   0.297   1.566 -0.1809  0.3250  0.3166
 5797SOL    HW117517   0.673   0.314   1.608 -0.8446 -1.2228 -0.2665
 5797SOL    HW217518   0.778   0.207   1.589  0.2412 -0.0468 -1.2861
 5798SOL     OW17519   4.923   3.910   3.129  0.3734  0.5057  0.2818
 5798SOL    HW117520   4.943   3.927   3.037  1.3877  2.3147  0.7451
 5798SOL    HW217521   5.006   3.883   3.167  0.7481  2.5113  1.1339
 5799SOL     OW17522   1.458   3.107   0.914 -0.7208 -0.4327  0.0281
 5799SOL    HW117523   1.521   3.135   0.980 -0.3061 -0.3533 -0.3872
 5799SOL    HW217524   1.512   3.080   0.839 -1.1625 -0.9130 -0.1304
 5800SOL     OW17525   6.368   6.289   1.980 -0.2747  0.1112  0.3843
 5800SOL    HW117526   6.350   6.373   2.022  0.6255 -0.2846  1.6825
 5800SOL    HW217527   6.324   6.295   1.896  1.4374  2.7442 -0.6010
 5801SOL     OW17528   0.080   2.910   3.643  0.4486 -0.0444 -0.1897
 5801SOL    HW117529   0.033   2.839   3.599 -0.3603  0.9808 -1.0622
 5801SOL    HW217530   0.056   2.901   3.735 -1.7963  0.5828 -0.6101
 5802SOL     OW17531   5.771   4.094   1.927 -0.6698 -0.2692 -0.2043
 5802SOL    HW117532   5.823   4.173   1.912 -0.9426 -0.2635 -1.3046
 5802SOL    HW217533   5.713   4.116   2.000 -0.6154  0.4852 -0.3771
 5803SOL     OW17534   0.417   1.871   3.202 -0.5293  0.7692 -0.3503
 5803SOL    HW117535   0.409   1.966   3.212 -2.3601  0.9099 -1.8898
 5803SOL    HW217536   0.342   1.836   3.250 -1.5542  0.4392 -2.0175
 5804SOL     OW17537   4.077   5.075   0.527  0.4189  0.3645 -0.4589
 5804SOL    HW117538   4.084   5.031   0.442  1.7704  0.8483 -0.6689
 5804SOL    HW217539   4.136   5.150   0.518  0.2163  0.7046  0.7601
 5805SOL     OW17540   6.350   0.801   1.847  0.7088 -0.0768 -0.2786
 5805SOL    HW117541   6.351   0.849   1.930 -0.5876  1.1067 -0.8699
 5805SOL    HW217542   6.429   0.829   1.802 -0.1960  2.0511 -0.7904
 5806SOL     OW17543   4.200   1.025   2.715 -0.0604  0.4581  0.8975
 5806SOL    HW117544   4.163   1.093   2.659  0.3100  1.0725  1.3711
 5806SOL    HW217545   4.125   0.969   2.736 -0.3986  0.7726  0.5683
 5807SOL     OW17546   3.368   6.284   0.002  0.2249 -0.9824 -0.2789
 5807SOL    HW117547   3.429   6.339   0.051 -1.2405  1.3413 -0.6966
 5807SOL    HW217548   3.413   6.264  -0.080  0.8154 -0.2544 -0.1541
 5808SOL     OW17549   2.305   4.908   2.423 -0.1692 -0.1150  0.5670
 5808SOL    HW117550   2.217   4.942   2.409 -0.8532 -1.8735  0.0249
 5808SOL    HW217551   2.318   4.845   2.352  2.6844  1.9079 -1.1369
 5809SOL     OW17552   2.677   2.330   1.094  0.2387 -0.3485  0.7611
 5809SOL    HW117553   2.603   2.274   1.116  0.8111 -0.9144  1.2940
 5809SOL    HW217554   2.726   2.340   1.176  0.4464  0.5047  0.5609
 5810SOL     OW17555   1.902   5.379   3.110 -0.5274  0.2472  0.5633
 5810SOL    HW117556   1.850   5.308   3.072 -1.1195  0.7260  0.4315
 5810SOL    HW217557   1.838   5.436   3.152  0.0230  0.2533  1.4405
 5811SOL     OW17558   2.951   5.384   1.333  0.2342 -0.5648  0.2280
 5811SOL    HW117559   2.964   5.294   1.303  1.9377 -0.4814  0.4808
 5811SOL    HW217560   2.972   5.382   1.426 -0.6257 -0.0533  0.4474
 5812SOL     OW17561   5.940   5.655   2.582  0.3430 -0.3448 -0.9227
 5812SOL    HW117562   5.978   5.741   2.567 -1.1767  0.6481  0.2496
 5812SOL    HW217563   5.990   5.596   2.527  3.4266  0.7180  0.3178
 5813SOL     OW17564   5.356   5.403   0.116  0.3361 -0.2648 -0.5183
 5813SOL    HW117565   5.368   5.370   0.205 -0.8675  3.3734  1.4295
 5813SOL    HW217566   5.262   5.401   0.101  0.5366 -1.7524 -2.3949
 5814SOL     OW17567   1.224   3.145   1.655 -0.6151  0.2356 -0.1547
 5814SOL    HW117568   1.277   3.116   1.582  1.6803 -0.5652  1.5830
 5814SOL    HW217569   1.283   3.200   1.707 -1.9137  0.3447  1.3632
 5815SOL     OW17570   5.514   0.370   3.102 -0.1976  0.1914  0.7668
 5815SOL    HW117571   5.459   0.443   3.130 -0.5170 -0.2821  1.4190
 5815SOL    HW217572   5.453   0.305   3.069  0.1248  0.4682 -0.5233
 5816SOL     OW17573   0.053   1.436   1.425 -0.0397 -0.0994 -0.3084
 5816SOL    HW117574  -0.038   1.445   1.397 -0.3204 -0.1966  0.5082
 5816SOL    HW217575   0.074   1.520   1.466  0.7260  0.4593 -1.6987
 5817SOL     OW17576   3.850   5.099   1.245 -0.1103  0.1937  0.5568
 5817SOL    HW117577   3.789   5.027   1.263 -0.4978  0.4374  0.2480
 5817SOL    HW217578   3.936   5.059   1.250 -0.2281  0.0201  1.8955
 5818SOL     OW17579   1.152   4.596   1.734  0.4010  0.4990 -0.0182
 5818SOL    HW117580   1.197   4.527   1.685  1.1502  0.0769  1.1771
 5818SOL    HW217581   1.222   4.638   1.785 -0.4560  0.1016  1.6066
 5819SOL     OW17582   0.637   1.087   3.053 -0.0447 -0.3662 -0.2402
 5819SOL    HW117583   0.697   1.160   3.064 -2.2575  1.8969 -1.1870
 5819SOL    HW217584   0.599   1.072   3.140 -0.3940  0.4902 -0.2325
 5820SOL     OW17585   3.148   1.120   1.165 -0.0961  0.0370 -0.3854
 5820SOL    HW117586   3.243   1.115   1.158 -0.0934  0.4041 -0.6735
 5820SOL    HW217587   3.120   1.159   1.083 -0.4875  0.0302 -0.2588
 5821SOL     OW17588   2.465   4.696   4.473 -0.1460  0.5988  0.3792
 5821SOL    HW117589   2.462   4.786   4.506 -2.1712  0.5546  0.5550
 5821SOL    HW217590   2.403   4.648   4.528  1.9660 -1.3908  1.3494
 5822SOL     OW17591   1.807   5.600   2.232  0.1356  0.2930 -0.1762
 5822SOL    HW117592   1.868   5.577   2.302 -0.6316  1.2363  0.8730
 5822SOL    HW217593   1.839   5.684   2.198 -1.3391  1.7593  1.5763
 5823SOL     OW17594   4.165   1.665   1.016  0.5915 -0.0590  0.1571
 5823SOL    HW117595   4.172   1.758   1.035  0.5146 -0.4362  2.6206
 5823SOL    HW217596   4.252   1.640   0.984  0.4307  0.8830 -1.2163
 5824SOL     OW17597   4.069   5.564   4.231  0.0380  0.6912 -0.2821
 5824SOL    HW117598   3.991   5.616   4.217 -0.3078  0.1280 -0.5154
 5824SOL    HW217599   4.082   5.516   4.149 -0.2972 -0.4065  0.2703
 5825SOL     OW17600   4.400   4.019   0.449 -0.1376  0.2092 -0.6344
 5825SOL    HW117601   4.418   4.072   0.527  2.5183 -1.7976  0.4320
 5825SOL    HW217602   4.430   4.074   0.376  0.4724  0.9883  0.1460
 5826SOL     OW17603   0.242   0.648   4.076 -0.4517 -0.1667  0.0662
 5826SOL    HW117604   0.170   0.586   4.090 -0.5887 -0.1226 -0.4136
 5826SOL    HW217605   0.274   0.628   3.989 -0.4935  0.4335 -0.0963
 5827SOL     OW17606   3.733   2.152   2.928  0.0160  0.6301 -0.3518
 5827SOL    HW117607   3.819   2.183   2.901  1.1221 -1.4791  0.3715
 5827SOL    HW217608   3.685   2.141   2.845  1.4462 -0.7007 -1.1042
 5828SOL     OW17609   5.419   0.253   0.710  0.1649 -0.3321  0.3643
 5828SOL    HW117610   5.388   0.233   0.622  1.3562  1.1042 -0.4807
 5828SOL    HW217611   5.353   0.313   0.745  0.5150  0.5037 -0.3119
 5829SOL     OW17612   0.107   3.214   0.322  0.1702  0.0009  0.5203
 5829SOL    HW117613   0.011   3.214   0.324  0.1412  0.6276 -0.2051
 5829SOL    HW217614   0.132   3.304   0.343  0.4741  0.5546 -1.7054
 5830SOL     OW17615   3.018   5.252   2.044 -0.4534 -0.1164 -0.7496
 5830SOL    HW117616   2.965   5.173   2.052 -1.0952  0.1741 -1.8234
 5830SOL    HW217617   2.994   5.305   2.121  1.0045 -1.4478  0.8033
 5831SOL     OW17618   0.538   0.928   4.037  0.5069 -0.1110  0.0114
 5831SOL    HW117619   0.622   0.906   3.997  0.2448 -1.3909  0.0882
 5831SOL    HW217620   0.513   0.850   4.086  0.2506  0.9448  1.7659
 5832SOL     OW17621   6.161   0.719   2.486  0.4718 -0.3967 -0.0547
 5832SOL    HW117622   6.082   0.773   2.481  0.7904  0.0329 -0.9346
 5832SOL    HW217623   6.130   0.634   2.516 -0.2192 -0.0461  0.2726
 5833SOL     OW17624   0.221   4.860   3.564  0.7633  0.7822 -0.0408
 5833SOL    HW117625   0.242   4.878   3.656  1.5150 -0.2483  0.0244
 5833SOL    HW217626   0.133   4.821   3.568  0.2903  1.7878  0.0829
 5834SOL     OW17627   5.882   1.918   0.133  0.3022  0.5960  0.6344
 5834SOL    HW117628   5.842   1.961   0.208  0.5730  1.1359  0.4808
 5834SOL    HW217629   5.964   1.882   0.166  0.3606  0.7224  0.6277
 5835SOL     OW17630   5.098   2.878   2.021  0.0396 -0.4042 -0.2148
 5835SOL    HW117631   5.127   2.955   2.069  0.3823 -1.3231  1.1748
 5835SOL    HW217632   5.159   2.870   1.948 -0.1157  0.7013 -0.5031
 5836SOL     OW17633   1.432   4.328   0.221 -0.6148  0.2461 -0.4991
 5836SOL    HW117634   1.462   4.308   0.310 -0.3314  1.3253 -0.3140
 5836SOL    HW217635   1.446   4.423   0.213 -0.1043  0.0886 -1.9002
 5837SOL     OW17636   4.781   1.418   1.753 -0.1624 -0.0524 -0.3190
 5837SOL    HW117637   4.700   1.470   1.742 -0.0735 -0.0222 -0.9080
 5837SOL    HW217638   4.757   1.349   1.814 -0.4238  0.3902  0.0989
 5838SOL     OW17639   1.429   0.227   2.522  0.0216  0.1690  0.0478
 5838SOL    HW117640   1.492   0.268   2.582 -1.5589  0.4482  1.6840
 5838SOL    HW217641   1.399   0.299   2.466 -0.1301  0.4357  0.4666
 5839SOL     OW17642   0.998   0.645   2.052 -0.0924  0.0191  0.4909
 5839SOL    HW117643   1.000   0.741   2.046  1.5940  0.1188  1.3193
 5839SOL    HW217644   1.017   0.616   1.963 -2.7227  0.2600 -0.3234
 5840SOL     OW17645   2.630   0.805   3.398 -0.3480 -0.0231 -0.0929
 5840SOL    HW117646   2.688   0.836   3.328  0.2736 -0.7752  0.0612
 5840SOL    HW217647   2.543   0.835   3.371 -0.0558  0.1574 -0.9185
 5841SOL     OW17648   2.914   4.546   0.159  0.4117  0.6500 -0.3730
 5841SOL    HW117649   2.896   4.626   0.109  0.6981  1.2324  0.4143
 5841SOL    HW217650   2.970   4.494   0.101  0.7051  1.2869 -0.6853
 5842SOL     OW17651   2.591   1.072   3.220  0.8260  0.7770  0.2873
 5842SOL    HW117652   2.617   1.164   3.221 -0.2900  1.1579  1.8349
 5842SOL    HW217653   2.514   1.068   3.277  1.2009 -1.2108  0.8179
 5843SOL     OW17654   0.917   4.494   1.554 -0.3531 -0.0608 -0.0603
 5843SOL    HW117655   0.954   4.494   1.465 -0.3876  1.2014 -0.1112
 5843SOL    HW217656   0.991   4.516   1.611 -0.8014  1.9286 -0.1074
 5844SOL     OW17657   0.109   6.213   3.630  0.5288  0.0413 -0.1741
 5844SOL    HW117658   0.173   6.229   3.699  1.0419 -0.0452 -0.6190
 5844SOL    HW217659   0.083   6.301   3.602  2.6702  0.2791 -1.9882
 5845SOL     OW17660   5.853   5.302   1.357  0.2383  0.4364 -0.5806
 5845SOL    HW117661   5.825   5.358   1.429  0.2997 -2.4296  2.1082
 5845SOL    HW217662   5.772   5.268   1.319 -0.1864 -1.6597  1.6920
 5846SOL     OW17663   0.020   3.246   2.359  0.1437 -0.5750  0.4666
 5846SOL    HW117664   0.055   3.177   2.302 -0.7696  0.9043 -2.2588
 5846SOL    HW217665   0.097   3.294   2.388  0.6531 -1.1973  0.2030
 5847SOL     OW17666   4.424   3.666   3.799 -0.5408 -0.4665  0.3935
 5847SOL    HW117667   4.369   3.740   3.772  0.4116  0.1184 -0.0522
 5847SOL    HW217668   4.495   3.706   3.849  0.7372 -0.8604 -0.9596
 5848SOL     OW17669   4.390   1.786   3.311 -0.1609  0.2352 -0.9051
 5848SOL    HW117670   4.297   1.773   3.328 -0.0452  1.1735  0.9396
 5848SOL    HW217671   4.433   1.715   3.360  0.1309  0.2329 -1.1565
 5849SOL     OW17672   0.044   3.689   2.466 -0.5275 -0.2677  0.0891
 5849SOL    HW117673  -0.030   3.728   2.512 -1.2750  0.5720 -1.6142
 5849SOL    HW217674   0.116   3.751   2.479  0.6531 -1.8730  3.1777
 5850SOL     OW17675   3.586   2.207   0.251  0.1343  0.5256  0.6095
 5850SOL    HW117676   3.633   2.174   0.175  0.7935 -0.5091  1.4107
 5850SOL    HW217677   3.494   2.206   0.225  0.3721  0.5452 -0.2791
 5851SOL     OW17678   0.112   0.613   2.329 -0.1461 -0.5806 -0.4192
 5851SOL    HW117679   0.058   0.690   2.349 -1.2373 -1.6985  1.5556
 5851SOL    HW217680   0.123   0.616   2.234 -2.6873  0.4273 -0.8465
 5852SOL     OW17681   5.510   2.374   3.852 -0.3426 -0.5357  0.1983
 5852SOL    HW117682   5.496   2.283   3.879 -0.6853 -0.7004 -0.4917
 5852SOL    HW217683   5.505   2.372   3.756  2.2131 -0.2239 -0.0776
 5853SOL     OW17684   0.713   0.905   1.055 -0.0298 -0.6296 -0.1103
 5853SOL    HW117685   0.712   0.924   1.149  0.6705  0.0908 -0.2322
 5853SOL    HW217686   0.633   0.854   1.040 -0.5388 -0.1261  0.7495
 5854SOL     OW17687   3.452   3.849   0.004  0.3306  0.1845  0.0367
 5854SOL    HW117688   3.445   3.782   0.072 -1.4116 -0.7835 -0.9274
 5854SOL    HW217689   3.530   3.899   0.027  1.7978 -2.1413  0.8652
 5855SOL     OW17690   0.924   5.524   3.785  0.3256 -0.2835  0.4571
 5855SOL    HW117691   0.954   5.531   3.695 -1.9851  0.4528 -0.4252
 5855SOL    HW217692   0.910   5.615   3.813  0.8695 -0.4981  1.5537
 5856SOL     OW17693   0.592   5.930   3.260 -0.3593  0.1903 -0.0962
 5856SOL    HW117694   0.678   5.905   3.226  0.0911  1.5760 -0.1053
 5856SOL    HW217695   0.573   5.864   3.327  1.8839  1.0709  1.6650
 5857SOL     OW17696   4.016   1.147   0.377 -0.2116  0.4177 -0.8606
 5857SOL    HW117697   4.053   1.173   0.462  1.3868 -0.9579 -1.0294
 5857SOL    HW217698   3.921   1.149   0.391 -0.0762 -1.0911  1.4927
 5858SOL     OW17699   3.734   1.339   3.355  0.4477 -0.1371  0.6324
 5858SOL    HW117700   3.725   1.367   3.446  0.6107  0.4239  0.4833
 5858SOL    HW217701   3.646   1.345   3.319  0.6500  1.3667  0.2862
 5859SOL     OW17702   2.016   2.722   3.481 -0.3468  0.2056  0.7261
 5859SOL    HW117703   2.083   2.790   3.488 -0.5004  0.4178  0.2171
 5859SOL    HW217704   2.057   2.644   3.516  0.5251  0.0922 -0.4209
 5860SOL     OW17705   4.750   6.174   4.143  0.0196  0.0134 -0.3784
 5860SOL    HW117706   4.837   6.157   4.178 -0.9643 -2.4617  1.4865
 5860SOL    HW217707   4.727   6.094   4.096 -1.3626  0.4263 -0.5005
 5861SOL     OW17708   3.536   6.328   1.096 -0.0422  0.0479  0.3777
 5861SOL    HW117709   3.499   6.361   1.013 -1.3833 -0.7809  0.5906
 5861SOL    HW217710   3.608   6.272   1.069 -0.9994 -0.9161 -0.3453
 5862SOL     OW17711   3.367   2.172   2.581  0.3901 -0.7670 -0.3150
 5862SOL    HW117712   3.441   2.231   2.596  0.2060 -0.4902 -0.4920
 5862SOL    HW217713   3.392   2.092   2.627  1.7562 -1.4570 -2.0286
 5863SOL     OW17714   2.958   5.880   2.205 -0.2287 -0.2808  0.3256
 5863SOL    HW117715   2.923   5.817   2.269 -1.0235 -0.0383  0.1406
 5863SOL    HW217716   3.032   5.921   2.251  0.7808 -1.8057  0.2180
 5864SOL     OW17717   0.962   2.661   3.437  0.6607 -0.0845  0.3831
 5864SOL    HW117718   0.944   2.727   3.370 -0.6658  0.3870  1.1320
 5864SOL    HW217719   1.051   2.681   3.466  0.8830  0.3419 -0.5056
 5865SOL     OW17720   5.544   2.699   1.814  0.2859 -0.8406 -0.2965
 5865SOL    HW117721   5.538   2.630   1.748  0.9536  0.4877 -1.8622
 5865SOL    HW217722   5.637   2.720   1.818 -0.0281  1.6783 -1.9289
 5866SOL     OW17723   3.463   0.918   3.650 -0.4360  0.4226 -0.4542
 5866SOL    HW117724   3.488   0.931   3.741  1.2227 -1.3955 -0.5025
 5866SOL    HW217725   3.385   0.863   3.654  0.1207 -0.3765 -0.0617
 5867SOL     OW17726   1.771   0.720   3.712  0.1405  0.4788 -0.0176
 5867SOL    HW117727   1.723   0.724   3.629  0.4101  0.7400 -0.1637
 5867SOL    HW217728   1.710   0.677   3.773  0.4172 -0.9759 -0.6700
 5868SOL     OW17729   5.834   6.272   1.822 -0.2253  0.1873 -0.3497
 5868SOL    HW117730   5.745   6.274   1.788 -0.7545 -0.1560  0.9059
 5868SOL    HW217731   5.864   6.183   1.806 -0.8278 -0.2734  0.7946
 5869SOL     OW17732   6.034   2.356   3.024  0.0827  0.4990  0.0679
 5869SOL    HW117733   6.075   2.437   3.054 -0.1834  0.4618  0.5465
 5869SOL    HW217734   5.940   2.376   3.023 -0.0496  0.0012  0.8526
 5870SOL     OW17735   1.543   0.847   3.251 -0.0367 -0.2743 -0.3341
 5870SOL    HW117736   1.518   0.930   3.211 -0.6128 -0.5347 -0.5381
 5870SOL    HW217737   1.463   0.795   3.249  0.2499 -0.7392  0.0322
 5871SOL     OW17738   3.294   1.734   4.177  0.0223 -0.5383 -0.1674
 5871SOL    HW117739   3.202   1.732   4.203  0.0999 -0.7044  0.0983
 5871SOL    HW217740   3.312   1.646   4.145 -0.0394 -0.3731 -0.6910
 5872SOL     OW17741   4.448   2.457   2.790  0.0143  0.0953 -0.2332
 5872SOL    HW117742   4.449   2.413   2.875  0.5970 -2.0261 -1.2103
 5872SOL    HW217743   4.517   2.523   2.796 -1.0836  1.2637  1.4066
 5873SOL     OW17744   4.238   5.314   3.369  0.4630 -0.2965 -0.1685
 5873SOL    HW117745   4.160   5.302   3.424  1.8469  1.1524  2.4929
 5873SOL    HW217746   4.284   5.230   3.375  0.4818 -0.2381  0.8098
 5874SOL     OW17747   0.530   4.674   2.695  0.6043  0.1386  0.1878
 5874SOL    HW117748   0.550   4.591   2.651 -0.2937 -0.3560  0.6572
 5874SOL    HW217749   0.536   4.654   2.788  1.7716  0.9903  0.3385
 5875SOL     OW17750   0.088   4.336   1.203 -0.7841  0.3868 -0.0458
 5875SOL    HW117751   0.015   4.368   1.149 -1.8612  1.2797  1.7219
 5875SOL    HW217752   0.051   4.262   1.252 -0.0741  0.0280 -0.0342
 5876SOL     OW17753   4.545   4.398   3.775  0.3815  0.5221  0.8481
 5876SOL    HW117754   4.616   4.412   3.712  1.2151 -0.5519  1.4853
 5876SOL    HW217755   4.541   4.479   3.825  1.8469  0.2928  1.4201
 5877SOL     OW17756   1.890   2.794   1.924 -0.2015 -0.1441 -0.0613
 5877SOL    HW117757   1.956   2.847   1.968  0.2926 -0.8169  0.0340
 5877SOL    HW217758   1.821   2.783   1.990  0.3252 -0.7595  0.4184
 5878SOL     OW17759   6.050   2.917   1.902  0.3386 -0.0972  0.1271
 5878SOL    HW117760   6.055   2.999   1.952  0.0875 -0.0961  0.1547
 5878SOL    HW217761   6.076   2.849   1.964  1.5089  0.0512 -0.1638
 5879SOL     OW17762   1.557   0.667   1.395  0.0256 -0.4624 -0.0228
 5879SOL    HW117763   1.536   0.573   1.389 -0.4076 -0.3983  0.3176
 5879SOL    HW217764   1.509   0.696   1.473  1.1012 -0.1985  0.5717
 5880SOL     OW17765   3.307   0.660   1.893 -0.3813 -0.1255  0.0843
 5880SOL    HW117766   3.233   0.716   1.915 -0.1643 -0.3901  1.8128
 5880SOL    HW217767   3.297   0.641   1.800 -1.9374  0.5991  0.0483
 5881SOL     OW17768   6.401   5.040   4.013  0.2825 -0.2526  0.5507
 5881SOL    HW117769   6.399   5.061   3.919  2.7128 -0.9725  0.1962
 5881SOL    HW217770   6.392   5.124   4.057  3.4432  0.9659 -0.5952
 5882SOL     OW17771   1.817   2.036   4.428 -0.3707 -0.0318  0.1426
 5882SOL    HW117772   1.733   2.053   4.384 -0.0782 -1.5569 -1.1749
 5882SOL    HW217773   1.797   1.970   4.494 -0.1003 -1.3483 -1.0038
 5883SOL     OW17774   6.066   0.819   0.874 -0.6746  0.1249 -0.5159
 5883SOL    HW117775   6.159   0.798   0.868 -0.2887  1.1885  0.7011
 5883SOL    HW217776   6.025   0.737   0.904 -0.1607 -0.3580 -1.0736
 5884SOL     OW17777   2.569   3.972   3.552  0.0266  0.6200 -0.0920
 5884SOL    HW117778   2.664   3.965   3.544  0.0192 -0.7956  0.4573
 5884SOL    HW217779   2.542   4.024   3.476  1.1233 -0.1080 -1.0478
 5885SOL     OW17780   6.248   4.330   4.113  0.7517 -0.0429 -0.0892
 5885SOL    HW117781   6.294   4.278   4.179  1.8922 -1.2053 -1.6372
 5885SOL    HW217782   6.218   4.266   4.049  0.3869  1.0646 -1.0978
 5886SOL     OW17783   0.645   1.066   0.690 -0.0546 -0.1196 -0.7074
 5886SOL    HW117784   0.593   0.985   0.689  1.0458 -0.9294  0.6721
 5886SOL    HW217785   0.581   1.135   0.708 -0.9479 -0.7287 -1.3544
 5887SOL     OW17786   5.468   2.990   2.861  0.2649  0.0477 -0.0076
 5887SOL    HW117787   5.402   3.051   2.828  1.4205  1.5419  0.2520
 5887SOL    HW217788   5.490   2.935   2.786 -1.0507 -0.3494 -0.1582
 5888SOL     OW17789   2.691   3.767   0.731  0.1259  0.1045 -0.0040
 5888SOL    HW117790   2.738   3.850   0.744 -0.3107  0.2832  0.4573
 5888SOL    HW217791   2.656   3.774   0.642  0.1935  0.3578 -0.0130
 5889SOL     OW17792   4.344   6.385   2.687  0.2155  0.2158  0.0861
 5889SOL    HW117793   4.337   6.393   2.782 -1.2587 -1.6860  0.2441
 5889SOL    HW217794   4.342   6.475   2.655 -1.9790  0.9423  1.7780
 5890SOL     OW17795   4.931   4.590   4.476 -0.0085  0.3377 -0.0384
 5890SOL    HW117796   4.941   4.502   4.441  0.8429 -0.2789  1.5336
 5890SOL    HW217797   5.011   4.635   4.452  0.3111  0.1046  0.5397
 5891SOL     OW17798   6.225   6.339   3.331  1.0782  0.1190 -1.0131
 5891SOL    HW117799   6.174   6.384   3.263 -1.4867  0.6650  0.9768
 5891SOL    HW217800   6.217   6.247   3.309  0.9075  0.2991 -1.7840
 5892SOL     OW17801   4.150   2.437   0.279  0.3145  0.2860  0.2866
 5892SOL    HW117802   4.221   2.410   0.221  0.6304  0.6518  0.4947
 5892SOL    HW217803   4.152   2.372   0.350  1.6635  1.2931  1.2613
 5893SOL     OW17804   4.116   3.500   2.752  0.3442  0.2945 -0.1337
 5893SOL    HW117805   4.069   3.458   2.679 -0.1584  0.4192  0.1067
 5893SOL    HW217806   4.124   3.592   2.725 -2.0258  0.9772  0.9139
 5894SOL     OW17807   3.680   3.680   3.632  0.0131 -0.0852 -0.1823
 5894SOL    HW117808   3.773   3.697   3.617  0.0104 -0.0234 -0.1298
 5894SOL    HW217809   3.667   3.698   3.725  0.2021 -1.2522  0.0940
 5895SOL     OW17810   4.089   0.290   1.733 -0.8207  0.4353 -0.9786
 5895SOL    HW117811   4.086   0.354   1.803  0.7283  0.1254 -0.5391
 5895SOL    HW217812   4.091   0.205   1.777 -2.3310  0.0405 -1.5322
 5896SOL     OW17813   6.344   5.511   0.454  0.5657 -0.7054 -0.1689
 5896SOL    HW117814   6.283   5.533   0.524  0.2521 -1.6366 -0.1256
 5896SOL    HW217815   6.429   5.541   0.486  0.4194 -1.0417  0.5788
 5897SOL     OW17816   3.402   1.309   3.784  0.1446 -0.1622 -0.7692
 5897SOL    HW117817   3.406   1.254   3.862 -1.0632  0.0936 -0.4884
 5897SOL    HW217818   3.374   1.250   3.714 -2.5631  0.1834 -0.2007
 5898SOL     OW17819   5.929   6.075   3.250 -0.1940  0.7681  0.0877
 5898SOL    HW117820   5.865   6.140   3.220  0.0933  0.3615 -1.6121
 5898SOL    HW217821   5.913   6.068   3.344 -2.8113  0.5319 -0.2312
 5899SOL     OW17822   1.649   3.158   1.098 -0.3613  0.7780 -0.2828
 5899SOL    HW117823   1.700   3.214   1.040 -0.1428  0.3044 -0.5599
 5899SOL    HW217824   1.674   3.185   1.186  0.1855  0.7179 -0.4138
 5900SOL     OW17825   1.802   5.483   1.092  0.1116 -0.1747 -0.1218
 5900SOL    HW117826   1.796   5.548   1.162 -0.2985 -1.4697  1.1419
 5900SOL    HW217827   1.725   5.500   1.037 -1.0883 -0.6735  1.2576
 5901SOL     OW17828   0.639   5.288   1.796  0.0928  0.3711 -0.2528
 5901SOL    HW117829   0.691   5.209   1.787  0.5300  0.3976  1.4364
 5901SOL    HW217830   0.698   5.359   1.768 -0.0375  0.2030 -1.0118
 5902SOL     OW17831   5.854   1.238   3.509 -0.0417 -0.3353  0.2000
 5902SOL    HW117832   5.863   1.265   3.601  0.4807  0.9406 -0.1806
 5902SOL    HW217833   5.944   1.231   3.477 -0.1528  1.4998 -0.7591
 5903SOL     OW17834   5.140   0.213   3.285 -0.2734  0.3305 -0.3434
 5903SOL    HW117835   5.134   0.250   3.197  0.1601  0.3744 -0.3611
 5903SOL    HW217836   5.234   0.213   3.304 -0.1175 -1.6393 -0.7127
 5904SOL     OW17837   1.189   3.077   3.206 -0.2003  0.3096  0.3687
 5904SOL    HW117838   1.231   3.122   3.133 -0.5428  0.0725  0.0211
 5904SOL    HW217839   1.247   3.094   3.281  0.6260 -0.1776 -0.1333
 5905SOL     OW17840   0.842   4.292   1.272  0.2040 -0.6414 -0.3707
 5905SOL    HW117841   0.807   4.380   1.278  1.1451 -0.2959  1.0837
 5905SOL    HW217842   0.922   4.301   1.220  1.8961  0.0939  1.9716
 5906SOL     OW17843   0.275   3.067   0.763  0.4753  0.0584  0.1008
 5906SOL    HW117844   0.282   3.038   0.672 -1.6721 -0.1845 -0.0992
 5906SOL    HW217845   0.231   3.152   0.757 -2.6701 -1.2282  0.7671
 5907SOL     OW17846   2.031   4.693   1.216 -0.3668 -0.0664 -0.5220
 5907SOL    HW117847   2.032   4.723   1.125 -2.2935  1.2098 -0.2343
 5907SOL    HW217848   1.939   4.677   1.234 -0.1122  0.2248  1.3670
 5908SOL     OW17849   3.698   4.395   3.152 -0.1147 -0.1769  0.0960
 5908SOL    HW117850   3.607   4.388   3.125  0.0209  0.0026 -0.4412
 5908SOL    HW217851   3.742   4.439   3.079  0.1076  1.2090  0.9757
 5909SOL     OW17852   1.663   2.616   3.312  0.2783  0.1555  0.0520
 5909SOL    HW117853   1.710   2.564   3.377 -0.7851  0.4827  1.1651
 5909SOL    HW217854   1.703   2.703   3.317 -1.1617  0.8550  2.0381
 5910SOL     OW17855   5.233   2.135   3.676 -0.3368 -0.3019 -0.0794
 5910SOL    HW117856   5.228   2.230   3.679 -0.7090 -0.2896 -0.8010
 5910SOL    HW217857   5.236   2.108   3.768  0.9552  0.4483  0.1540
 5911SOL     OW17858   2.749   1.992   1.426 -0.4825  0.1918  0.2981
 5911SOL    HW117859   2.711   1.924   1.370 -0.8445 -1.2062  2.0111
 5911SOL    HW217860   2.843   1.991   1.406 -0.8267  2.2153 -2.5252
 5912SOL     OW17861   2.512   0.168   3.448  0.2343 -0.4498  0.3867
 5912SOL    HW117862   2.451   0.228   3.405 -0.4957 -1.6707 -0.4208
 5912SOL    HW217863   2.504   0.188   3.541 -0.3820  0.3304  0.1882
 5913SOL     OW17864   6.401   1.681   0.303 -0.1275 -0.9851  0.1166
 5913SOL    HW117865   6.424   1.694   0.211  2.9330  1.1520  0.8800
 5913SOL    HW217866   6.457   1.609   0.332  0.4762 -0.3152  0.6647
 5914SOL     OW17867   4.426   4.462   0.173 -0.1162  0.0260 -0.0175
 5914SOL    HW117868   4.429   4.539   0.231 -1.5792  0.5770 -0.5687
 5914SOL    HW217869   4.506   4.468   0.120  1.3867 -0.6055  1.9466
 5915SOL     OW17870   3.300   6.012   4.148  0.4621 -0.5340 -0.1951
 5915SOL    HW117871   3.238   6.030   4.078 -0.3502  0.6953  0.7572
 5915SOL    HW217872   3.386   6.012   4.105 -0.0632 -0.7279 -1.3045
 5916SOL     OW17873   3.275   0.901   4.138 -0.1661 -0.3805 -0.3784
 5916SOL    HW117874   3.247   0.866   4.222  0.1659 -1.5120 -0.7053
 5916SOL    HW217875   3.328   0.831   4.100  0.5014  0.4841 -1.1092
 5917SOL     OW17876   2.887   2.343   3.038  0.3816  0.2675  0.1460
 5917SOL    HW117877   2.937   2.385   2.968 -2.5098 -0.8445 -3.1240
 5917SOL    HW217878   2.841   2.415   3.081  1.8995  0.9424  0.8052
 5918SOL     OW17879   6.098   0.043   2.654  0.7072  0.1019  0.1281
 5918SOL    HW117880   6.129  -0.043   2.623  1.3322  0.5855 -0.6844
 5918SOL    HW217881   6.153   0.062   2.729  0.4574 -0.2717  0.4122
 5919SOL     OW17882   1.220   5.960   2.609 -0.2208 -0.1465 -0.0478
 5919SOL    HW117883   1.315   5.945   2.609 -0.2016 -0.0274 -0.2347
 5919SOL    HW217884   1.183   5.872   2.621 -0.0813 -0.1156  0.7407
 5920SOL     OW17885   4.802   4.787   4.035  0.8025 -0.0252 -0.0542
 5920SOL    HW117886   4.732   4.747   4.086  0.7243  2.3805  2.1197
 5920SOL    HW217887   4.875   4.726   4.044 -0.6249 -2.3959 -2.0324
 5921SOL     OW17888   5.996   2.694   2.824 -0.3699  0.1359  0.0546
 5921SOL    HW117889   6.067   2.755   2.842 -0.5755  0.5336 -0.4212
 5921SOL    HW217890   6.025   2.646   2.747  0.7603 -1.9521  1.5768
 5922SOL     OW17891   1.891   6.400   0.650  0.7573 -0.1513 -0.0909
 5922SOL    HW117892   1.838   6.374   0.726  1.2014  1.4680  0.8719
 5922SOL    HW217893   1.969   6.346   0.655  0.4027 -0.6623  0.0797
 5923SOL     OW17894   1.916   0.883   4.229  0.0389  0.5198 -0.2399
 5923SOL    HW117895   2.006   0.882   4.262 -0.2030  1.0290  0.4865
 5923SOL    HW217896   1.876   0.804   4.266  0.0129  0.6320 -0.0248
 5924SOL     OW17897   3.982   6.213   0.138 -0.3389  0.2238  0.1278
 5924SOL    HW117898   3.944   6.209   0.225  0.2697 -0.3116  0.3873
 5924SOL    HW217899   4.040   6.289   0.140  0.8927 -0.6609  0.7474
 5925SOL     OW17900   2.819   0.224   2.697  0.4938  0.6479 -0.5577
 5925SOL    HW117901   2.860   0.183   2.620  1.8453 -0.8576  0.7999
 5925SOL    HW217902   2.891   0.269   2.741  0.0161  0.5401  0.3758
 5926SOL     OW17903   2.324   6.388   2.511  0.0370 -0.1509  0.3221
 5926SOL    HW117904   2.275   6.375   2.430 -0.3213 -2.9049  0.7891
 5926SOL    HW217905   2.259   6.420   2.574 -0.0260  0.5634 -0.0892
 5927SOL     OW17906   5.526   5.909   2.203 -0.1500  0.1290  0.4568
 5927SOL    HW117907   5.586   5.933   2.133 -0.9039  0.3106 -0.1496
 5927SOL    HW217908   5.451   5.870   2.159 -0.9493  0.8652  1.0895
 5928SOL     OW17909   4.038   5.743   3.940 -0.3215 -0.0508  0.0350
 5928SOL    HW117910   3.948   5.774   3.952  0.3247  1.6985  1.3161
 5928SOL    HW217911   4.070   5.789   3.863  0.1949  1.5886  1.1178
 5929SOL     OW17912   3.179   0.326   4.313 -0.0577  0.0625 -0.0547
 5929SOL    HW117913   3.165   0.241   4.271  0.5339 -0.1398  0.1391
 5929SOL    HW217914   3.270   0.348   4.293 -0.3986  0.9967 -0.7002
 5930SOL     OW17915   4.115   6.111   1.481  0.0051 -0.1194  0.4477
 5930SOL    HW117916   4.142   6.020   1.469 -0.8823 -0.2893 -0.5302
 5930SOL    HW217917   4.158   6.159   1.410  2.9713  0.9442  2.5597
 5931SOL     OW17918   5.898   4.915   3.306  0.0675  0.1471 -0.3329
 5931SOL    HW117919   5.987   4.949   3.314  0.3553  0.3274 -2.7773
 5931SOL    HW217920   5.908   4.820   3.316  0.3973  0.2168  0.0693
 5932SOL     OW17921   2.659   5.448   0.563  0.6186  0.2034 -0.1542
 5932SOL    HW117922   2.573   5.434   0.523 -0.3370  0.5033  1.6215
 5932SOL    HW217923   2.686   5.534   0.529  1.7006 -1.0201 -2.9724
 5933SOL     OW17924   1.932   0.085   0.328  0.4926  0.1719 -0.2284
 5933SOL    HW117925   1.958   0.005   0.283 -1.8945  0.2643 -2.2483
 5933SOL    HW217926   2.010   0.113   0.375  1.6834 -2.9187  0.1018
 5934SOL     OW17927   5.683   5.474   1.208  0.2337  0.3307 -0.4033
 5934SOL    HW117928   5.751   5.498   1.271  1.1115 -1.2975 -0.6237
 5934SOL    HW217929   5.605   5.521   1.238  0.1937 -1.2005  2.7579
 5935SOL     OW17930   0.244   3.011   0.084  0.1864 -0.5178  0.0103
 5935SOL    HW117931   0.173   2.954   0.053  0.8281 -1.0436 -0.5396
 5935SOL    HW217932   0.199   3.091   0.111 -0.6065 -0.7602 -0.5008
 5936SOL     OW17933   4.068   6.258   2.202  0.3023  0.2161 -0.0057
 5936SOL    HW117934   4.031   6.318   2.266 -0.7082 -0.0787 -0.2746
 5936SOL    HW217935   4.128   6.311   2.150 -1.2260  1.2855 -0.8283
 5937SOL     OW17936   4.417   4.693   1.846 -0.0547  0.0360 -0.1720
 5937SOL    HW117937   4.407   4.760   1.914  0.4961 -0.9209  0.9200
 5937SOL    HW217938   4.328   4.677   1.816 -0.3802  0.1972  0.6388
 5938SOL     OW17939   1.086   3.772   3.019 -0.1535  0.4213  0.0567
 5938SOL    HW117940   1.052   3.737   3.101 -0.3932  0.8198  0.1379
 5938SOL    HW217941   1.163   3.823   3.045  1.3814 -1.5096 -0.2608
 5939SOL     OW17942   3.764   1.375   3.674 -0.4461 -0.3213 -0.2268
 5939SOL    HW117943   3.703   1.430   3.724 -0.2131 -3.3394  4.7950
 5939SOL    HW217944   3.851   1.402   3.705 -0.3395 -3.2855  3.5509
 5940SOL     OW17945   5.418   1.759   0.744 -0.0992  0.3419 -0.1674
 5940SOL    HW117946   5.435   1.676   0.789 -0.5701  0.1936 -0.2522
 5940SOL    HW217947   5.499   1.809   0.754  0.2022 -0.1396 -0.1432
 5941SOL     OW17948   4.747   5.114   2.514  0.5952  0.3791 -0.1352
 5941SOL    HW117949   4.780   5.121   2.603  1.0790 -1.5434 -0.0698
 5941SOL    HW217950   4.656   5.143   2.519 -0.2417 -1.9160  1.6685
 5942SOL     OW17951   2.631   6.408   1.740  0.2818  0.2959 -0.3154
 5942SOL    HW117952   2.542   6.386   1.771  0.9220 -1.2389  0.7114
 5942SOL    HW217953   2.674   6.323   1.731  2.1081  1.0026  0.7620
 5943SOL     OW17954   1.887   3.335   3.722  0.1323  0.4292  0.0735
 5943SOL    HW117955   1.862   3.243   3.707  2.0964 -0.1531 -0.2058
 5943SOL    HW217956   1.879   3.347   3.816  0.5429 -0.3002  0.2166
 5944SOL     OW17957   3.973   1.406   0.870 -0.1858  0.1794 -0.2660
 5944SOL    HW117958   4.067   1.394   0.885 -0.2963 -1.2510 -0.4227
 5944SOL    HW217959   3.935   1.400   0.958 -0.3591 -2.9411 -0.3138
 5945SOL     OW17960   2.642   5.862   3.368 -0.1381  0.1603 -0.1868
 5945SOL    HW117961   2.731   5.892   3.384  0.0300 -1.0065  1.5473
 5945SOL    HW217962   2.644   5.829   3.278  1.3539 -0.3238 -0.0346
 5946SOL     OW17963   5.547   1.974   1.161  0.2404  0.4750 -0.2951
 5946SOL    HW117964   5.533   1.899   1.218 -0.4436  0.7761 -0.0470
 5946SOL    HW217965   5.636   1.962   1.128  0.4108 -0.0553  0.3064
 5947SOL     OW17966   0.134   2.313   3.706 -0.7774  0.7571 -0.1904
 5947SOL    HW117967   0.140   2.245   3.773 -1.0591  2.0189  1.2333
 5947SOL    HW217968   0.044   2.346   3.714 -0.4459  1.7742 -0.2717
 5948SOL     OW17969   6.401   2.501   1.669 -0.6407  0.2305 -0.7891
 5948SOL    HW117970   6.468   2.511   1.602  1.0174  1.4193  0.8366
 5948SOL    HW217971   6.402   2.408   1.691 -1.3876 -0.2370 -2.4348
 5949SOL     OW17972   0.208   1.031   3.331  0.3423 -0.1131  0.1524
 5949SOL    HW117973   0.157   1.067   3.403  1.1773  0.2066  0.6127
 5949SOL    HW217974   0.195   0.936   3.336 -0.2956 -0.0333  0.1665
 5950SOL     OW17975   3.998   5.186   3.009 -0.2534  0.5528  0.2148
 5950SOL    HW117976   4.080   5.167   2.965  0.0447 -2.5286  1.6134
 5950SOL    HW217977   4.023   5.239   3.085  0.3267  0.2192  0.2633
 5951SOL     OW17978   1.440   5.765   1.940  0.2876 -0.6505 -1.3071
 5951SOL    HW117979   1.398   5.707   1.877 -2.3904  0.1537 -0.5230
 5951SOL    HW217980   1.461   5.707   2.014 -2.4999 -0.8782 -0.4546
 5952SOL     OW17981   3.456   0.576   0.005  0.6456  0.0405 -0.3638
 5952SOL    HW117982   3.377   0.588  -0.049  2.1100  0.8105 -2.6151
 5952SOL    HW217983   3.457   0.483   0.026 -1.6263  0.2195  1.2953
 5953SOL     OW17984   2.490   6.064   3.778  0.0058  0.1947 -0.4255
 5953SOL    HW117985   2.516   5.972   3.775 -1.7021 -0.3573 -0.4851
 5953SOL    HW217986   2.488   6.092   3.686 -0.2253  0.0375 -0.4702
 5954SOL     OW17987   1.374   3.484   1.184  0.4954  0.0906  0.0477
 5954SOL    HW117988   1.457   3.455   1.221 -0.0952 -1.3024  0.4152
 5954SOL    HW217989   1.343   3.552   1.244  1.5993  1.0783 -0.4309
 5955SOL     OW17990   2.027   1.764   2.068 -0.2445  0.1504  0.8706
 5955SOL    HW117991   1.972   1.774   2.146  0.4459 -0.2037  1.4273
 5955SOL    HW217992   2.060   1.852   2.050 -2.8855  1.0113 -1.0305
 5956SOL     OW17993   0.574   2.301   2.606 -1.2245  0.0290  0.8152
 5956SOL    HW117994   0.603   2.245   2.678 -1.0642  1.0693  1.6151
 5956SOL    HW217995   0.641   2.290   2.539  0.1697  0.9993  1.9111
 5957SOL     OW17996   1.020   0.416   1.050 -0.3368 -0.3567  0.1372
 5957SOL    HW117997   0.942   0.362   1.067 -0.8375  0.8248  2.3828
 5957SOL    HW217998   0.985   0.504   1.040  0.6655  0.0936  0.4343
 5958SOL     OW17999   2.853   3.907   3.578  0.5936  0.1578  0.1076
 5958SOL    HW118000   2.882   3.820   3.607  0.1764 -0.1315 -0.3207
 5958SOL    HW218001   2.875   3.965   3.651  1.3821 -0.2055  0.1822
 5959SOL     OW18002   4.789   5.735   2.104  0.2805  0.0565 -0.1066
 5959SOL    HW118003   4.861   5.689   2.148 -0.1650 -0.5626 -0.0044
 5959SOL    HW218004   4.831   5.811   2.064  1.4416 -1.3607 -1.9307
 5960SOL     OW18005   5.209   5.277   2.316 -0.1766 -0.0217 -0.3565
 5960SOL    HW118006   5.241   5.187   2.319  1.3049  0.3475 -1.8480
 5960SOL    HW218007   5.127   5.271   2.266  0.5614 -0.4943 -1.6333
 5961SOL     OW18008   1.570   2.581   0.730  0.7386  0.4743 -0.8134
 5961SOL    HW118009   1.555   2.523   0.805 -1.5865  0.6070 -1.0376
 5961SOL    HW218010   1.605   2.661   0.769 -1.7997  1.1488  0.5537
 5962SOL     OW18011   1.618   2.962   0.038 -0.0614  0.0651  0.2460
 5962SOL    HW118012   1.645   3.048   0.072 -2.2007  0.7713  0.4690
 5962SOL    HW218013   1.638   2.901   0.109  0.6827  0.5061  0.4405
 5963SOL     OW18014   5.165   4.791   0.324  0.2489 -0.2037  0.0071
 5963SOL    HW118015   5.194   4.755   0.408 -0.7940 -1.2203 -0.0076
 5963SOL    HW218016   5.222   4.866   0.308  0.1329  0.3770  1.8792
 5964SOL     OW18017   3.398   4.638   1.538  0.1250 -0.1012 -0.2674
 5964SOL    HW118018   3.326   4.684   1.495 -2.3147 -1.9617  1.2636
 5964SOL    HW218019   3.389   4.547   1.511 -0.3763 -1.0278  2.4096
 5965SOL     OW18020   2.377   4.554   4.215 -0.4548  0.1971  0.2576
 5965SOL    HW118021   2.410   4.625   4.271 -0.2671  0.6560 -0.4158
 5965SOL    HW218022   2.384   4.588   4.126 -0.9863 -0.4227 -0.0370
 5966SOL     OW18023   4.702   4.837   3.117  0.0634  0.3672 -0.0941
 5966SOL    HW118024   4.702   4.868   3.207  0.0432  0.6393 -0.1837
 5966SOL    HW218025   4.795   4.828   3.095  0.0655 -0.3305  0.1577
 5967SOL     OW18026   2.107   0.115   1.904 -0.4810 -0.0771  0.0505
 5967SOL    HW118027   2.072   0.179   1.965  0.6342 -0.6419  1.4003
 5967SOL    HW218028   2.088   0.030   1.945  0.7509 -0.4617 -0.0747
 5968SOL     OW18029   2.629   0.352   2.851 -0.1334 -0.2546  0.3778
 5968SOL    HW118030   2.608   0.342   2.944 -0.2401 -2.6578  0.2235
 5968SOL    HW218031   2.632   0.262   2.817  0.1526  0.4852 -1.9135
 5969SOL     OW18032   4.887   3.797   1.061 -1.0343  0.3846  0.1258
 5969SOL    HW118033   4.942   3.862   1.018 -0.4734 -1.5542 -2.6536
 5969SOL    HW218034   4.798   3.817   1.033 -0.8107 -0.1741 -1.1148
 5970SOL     OW18035   1.476   5.195   2.838  0.5790  0.2290 -0.1611
 5970SOL    HW118036   1.407   5.182   2.903  0.2167 -0.9885 -0.7297
 5970SOL    HW218037   1.468   5.121   2.778  0.7146  1.4055 -1.7907
 5971SOL     OW18038   0.373   2.089   4.380 -0.0668 -0.4224 -0.3692
 5971SOL    HW118039   0.298   2.032   4.367  0.2952 -1.4080  1.2313
 5971SOL    HW218040   0.443   2.030   4.410  0.3549  0.7805  1.3457
 5972SOL     OW18041   3.672   4.915   1.365 -0.4851  0.7740 -0.0364
 5972SOL    HW118042   3.684   4.899   1.458 -0.8845 -0.5587 -0.1663
 5972SOL    HW218043   3.646   4.830   1.329 -0.9072  1.3702 -1.2729
 5973SOL     OW18044   4.289   0.672   0.990 -0.4630  0.0068  0.0123
 5973SOL    HW118045   4.301   0.728   1.067  0.6885 -1.5510  1.0832
 5973SOL    HW218046   4.247   0.593   1.024 -0.5236 -0.4706 -1.1015
 5974SOL     OW18047   3.095   5.662   3.401 -0.2697  0.2035 -0.0130
 5974SOL    HW118048   3.143   5.733   3.359  0.5322 -0.5718 -0.4919
 5974SOL    HW218049   3.151   5.635   3.474 -0.1575 -0.4498 -0.3275
 5975SOL     OW18050   5.642   4.735   0.246 -0.3316  0.0109 -0.8216
 5975SOL    HW118051   5.625   4.829   0.255 -1.2570 -0.1953 -0.1379
 5975SOL    HW218052   5.738   4.729   0.242 -0.2566  1.0575 -2.2271
 5976SOL     OW18053   5.954   1.514   4.307  0.5398  0.7101  0.8929
 5976SOL    HW118054   5.970   1.420   4.315  0.2752  0.6940  1.2696
 5976SOL    HW218055   5.859   1.522   4.310  0.5569  0.9798  0.7186
 5977SOL     OW18056   6.403   0.661   2.854 -0.0752  0.1587  0.1113
 5977SOL    HW118057   6.437   0.734   2.802 -1.8363  0.3474 -0.9432
 5977SOL    HW218058   6.476   0.637   2.912  1.7740  0.5148 -1.8112
 5978SOL     OW18059   0.147   5.839   0.044  0.3933  0.5430 -0.1243
 5978SOL    HW118060   0.241   5.851   0.039  0.2924  1.5988 -0.0944
 5978SOL    HW218061   0.135   5.757   0.090  1.2818 -0.9084 -2.1758
 5979SOL     OW18062   6.045   6.002   0.460  0.7046  0.0318  0.0904
 5979SOL    HW118063   6.050   6.055   0.539  0.3171 -0.3535  0.3929
 5979SOL    HW218064   6.095   6.050   0.395 -0.1432  1.0917  0.1604
 5980SOL     OW18065   5.702   5.074   1.968 -0.1465  0.1178  0.0296
 5980SOL    HW118066   5.722   5.156   1.924 -0.1640  0.3428  0.4272
 5980SOL    HW218067   5.788   5.036   1.988  0.1196 -1.8712 -3.4102
 5981SOL     OW18068   1.397   3.660   3.723 -0.2054  0.4570 -0.1086
 5981SOL    HW118069   1.395   3.623   3.635  2.3605  1.5003 -0.7813
 5981SOL    HW218070   1.477   3.626   3.762  0.4099  2.4245  0.5570
 5982SOL     OW18071   3.355   6.310   3.666 -0.0082  0.6354 -0.4744
 5982SOL    HW118072   3.405   6.230   3.683  1.1809  1.2820 -0.7316
 5982SOL    HW218073   3.366   6.362   3.745 -0.2032  0.8376 -0.5787
 5983SOL     OW18074   0.995   2.903   2.300 -0.5541  0.0281  0.0063
 5983SOL    HW118075   0.993   2.871   2.210  1.7705 -0.8234  0.1324
 5983SOL    HW218076   1.057   2.976   2.299 -0.2416 -0.1911  0.9365
 5984SOL     OW18077   1.488   1.128   1.119 -0.3431  0.8738  0.1900
 5984SOL    HW118078   1.397   1.104   1.103 -0.3203  0.5440  0.5319
 5984SOL    HW218079   1.502   1.111   1.212  0.3517 -0.0636 -0.0543
 5985SOL     OW18080   3.512   0.859   0.021  0.6370  0.2148  0.0608
 5985SOL    HW118081   3.492   0.878   0.113 -1.9173  1.4685 -0.5529
 5985SOL    HW218082   3.493   0.766   0.011  1.1999 -0.0012  0.8251
 5986SOL     OW18083   3.380   0.701   2.528  0.1737  0.5945  0.2820
 5986SOL    HW118084   3.397   0.693   2.622  0.8355  0.4360  0.1554
 5986SOL    HW218085   3.378   0.796   2.512  0.8572  0.6237  0.3257
 5987SOL     OW18086   0.847   4.537   4.122 -0.4127 -0.1273 -0.1134
 5987SOL    HW118087   0.920   4.510   4.066 -0.3698 -0.6313  0.1749
 5987SOL    HW218088   0.769   4.511   4.073 -0.3715 -1.3405  0.3962
 5988SOL     OW18089   5.967   0.701   3.335 -0.1794 -0.2912  0.1338
 5988SOL    HW118090   5.883   0.660   3.354 -0.0807 -0.4213  0.2966
 5988SOL    HW218091   6.032   0.640   3.369 -0.0342  0.2055  0.7857
 5989SOL     OW18092   3.827   2.003   0.542 -0.4664  0.2793 -0.3049
 5989SOL    HW118093   3.835   1.960   0.456 -2.2960  0.3118 -0.5742
 5989SOL    HW218094   3.819   1.931   0.604  0.8640  0.2558 -0.0955
 5990SOL     OW18095   3.067   6.031   4.302  0.0347 -0.6324  0.2985
 5990SOL    HW118096   3.140   6.031   4.240 -0.7325  2.2714 -0.9348
 5990SOL    HW218097   2.991   6.003   4.249 -0.5108  1.2626 -0.0750
 5991SOL     OW18098   5.238   5.090   3.602  0.3577 -0.2205 -0.0380
 5991SOL    HW118099   5.322   5.092   3.649  0.0164  0.6876  0.5915
 5991SOL    HW218100   5.185   5.027   3.650  0.4007 -0.1748  0.0702
 5992SOL     OW18101   3.601   2.053   4.138  0.5851  0.0292 -0.3310
 5992SOL    HW118102   3.522   2.070   4.088 -0.1431 -0.2270  0.6606
 5992SOL    HW218103   3.605   1.957   4.146  2.0441 -0.1429 -1.8871
 5993SOL     OW18104   3.472   1.577   4.429  0.1233 -0.3135 -0.0260
 5993SOL    HW118105   3.402   1.609   4.485  1.8045  1.8913  1.1349
 5993SOL    HW218106   3.492   1.649   4.370  1.4053 -0.8240 -0.2988
 5994SOL     OW18107   2.096   3.820   3.896  0.2356 -0.0976 -0.2018
 5994SOL    HW118108   2.164   3.776   3.844  2.0263  0.8520  1.0813
 5994SOL    HW218109   2.104   3.780   3.983 -1.1318 -0.1510 -0.0656
 5995SOL     OW18110   2.493   5.274   1.350 -0.3539  0.0188  1.0039
 5995SOL    HW118111   2.507   5.351   1.405 -2.0733 -0.5655  2.4906
 5995SOL    HW218112   2.441   5.305   1.276  0.1604  0.4779  0.8257
 5996SOL     OW18113   0.986   5.358   2.365 -0.1853  0.1163  0.5214
 5996SOL    HW118114   1.004   5.298   2.293  0.2966  1.2270 -0.3413
 5996SOL    HW218115   0.932   5.307   2.426 -0.2959 -0.9855 -0.4346
 5997SOL     OW18116   5.332   5.194   1.952  0.1683 -0.0858 -0.4823
 5997SOL    HW118117   5.249   5.149   1.965 -0.0542  0.6210  0.8584
 5997SOL    HW218118   5.309   5.287   1.954  1.1087  0.1868  1.4959
 5998SOL     OW18119   1.910   2.143   1.584 -0.6899 -0.0357  0.1577
 5998SOL    HW118120   1.948   2.204   1.647  0.8787 -0.1797 -0.5529
 5998SOL    HW218121   1.983   2.086   1.559 -0.6675  1.0360 -3.0019
 5999SOL     OW18122   0.741   4.029   3.544  0.0768 -0.0024  0.1900
 5999SOL    HW118123   0.675   4.053   3.608  1.4348  0.6868  1.4688
 5999SOL    HW218124   0.824   4.054   3.585  1.1059 -0.1953 -1.5601
 6000SOL     OW18125   2.374   3.227   2.440  0.1075  0.0159 -0.5647
 6000SOL    HW118126   2.429   3.205   2.366  4.7436  0.9488  1.8782
 6000SOL    HW218127   2.380   3.152   2.499 -2.6475 -0.3320 -0.4279
 6001SOL     OW18128   5.517   4.342   1.390  0.0263 -0.6822 -0.2221
 6001SOL    HW118129   5.575   4.279   1.432  0.2073  0.3759  1.2776
 6001SOL    HW218130   5.451   4.361   1.456 -1.2306 -0.7748 -1.3708
 6002SOL     OW18131   4.626   2.649   1.455 -0.3509  0.1008  0.0558
 6002SOL    HW118132   4.617   2.687   1.543 -1.0872 -0.2452  0.1440
 6002SOL    HW218133   4.568   2.702   1.401  1.3473  1.4520 -0.6609
 6003SOL     OW18134   3.308   1.743   0.816 -0.4036  0.2754 -0.6765
 6003SOL    HW118135   3.340   1.833   0.818 -0.8568  0.5413 -2.2245
 6003SOL    HW218136   3.328   1.713   0.727  1.7285 -1.9827  0.3308
 6004SOL     OW18137   5.682   5.129   3.817  0.4397  0.2613 -0.3354
 6004SOL    HW118138   5.716   5.087   3.896 -0.7988  1.1891  0.8055
 6004SOL    HW218139   5.749   5.193   3.793  0.2527  1.0333  0.9572
 6005SOL     OW18140   5.910   0.885   2.481  0.4004 -0.1641 -0.2453
 6005SOL    HW118141   5.852   0.818   2.516 -1.2980 -1.1369 -3.9061
 6005SOL    HW218142   5.872   0.967   2.511 -1.9125 -0.8292 -0.9025
 6006SOL     OW18143   4.067   1.860   1.328  0.2341  0.1866  0.3895
 6006SOL    HW118144   4.007   1.933   1.310 -1.2012 -1.2539 -1.4048
 6006SOL    HW218145   4.026   1.813   1.401 -2.4721 -2.0066 -2.0708
 6007SOL     OW18146   6.037   4.855   3.874  0.2621  0.1583  0.2171
 6007SOL    HW118147   5.993   4.779   3.836 -2.2415 -0.3201  3.2011
 6007SOL    HW218148   6.117   4.866   3.822 -1.5374 -1.2903 -3.5972
 6008SOL     OW18149   4.973   3.695   3.414  0.0238  0.7833  0.0309
 6008SOL    HW118150   5.032   3.724   3.345  1.7457  0.2684  1.1785
 6008SOL    HW218151   5.026   3.693   3.493 -0.6810 -2.3209  0.7115
 6009SOL     OW18152   3.485   2.053   0.539 -0.9757 -0.3790 -0.5433
 6009SOL    HW118153   3.560   2.050   0.480  3.1888  1.1519  3.5230
 6009SOL    HW218154   3.448   2.141   0.528 -0.5307 -0.2520 -1.0719
 6010SOL     OW18155   2.672   1.149   1.542 -0.8604 -0.2154 -0.3028
 6010SOL    HW118156   2.614   1.193   1.481 -0.4938 -1.3518 -1.5837
 6010SOL    HW218157   2.745   1.210   1.554 -0.4089 -0.3495 -1.9332
 6011SOL     OW18158   0.747   1.658   0.569  0.2375 -0.2592  0.0552
 6011SOL    HW118159   0.784   1.734   0.615 -0.8348  1.4012 -1.5567
 6011SOL    HW218160   0.743   1.590   0.636  1.3149  1.0561  1.6244
 6012SOL     OW18161   0.022   1.010   3.554  0.1103  0.0138 -0.2949
 6012SOL    HW118162   0.061   1.039   3.636  0.9243  1.5839 -1.1350
 6012SOL    HW218163   0.011   0.915   3.564  1.6658 -0.1061  1.0390
 6013SOL     OW18164   3.972   3.863   0.990 -0.8382  0.3078 -0.2956
 6013SOL    HW118165   4.027   3.918   0.934 -0.6044  0.2727 -0.1064
 6013SOL    HW218166   3.941   3.793   0.933 -1.5424  0.8953 -0.6668
 6014SOL     OW18167   6.389   3.849   1.130  0.2108 -1.0462 -0.0826
 6014SOL    HW118168   6.392   3.788   1.204  0.0441 -1.0273 -0.0607
 6014SOL    HW218169   6.468   3.903   1.141  0.9995 -2.0027 -0.7463
 6015SOL     OW18170   3.828   0.337   4.125 -0.2774  0.3835  0.2903
 6015SOL    HW118171   3.753   0.376   4.172  0.1322  1.4178  0.1306
 6015SOL    HW218172   3.873   0.411   4.086  1.7748  0.0426  1.6902
 6016SOL     OW18173   4.243   0.850   1.192  0.2103 -0.5015  0.2252
 6016SOL    HW118174   4.150   0.857   1.212 -0.1991 -0.0075 -1.5212
 6016SOL    HW218175   4.285   0.915   1.248 -0.9941  1.8759 -1.3473
 6017SOL     OW18176   4.906   6.281   2.316 -0.2461  0.3482 -0.7192
 6017SOL    HW118177   4.945   6.202   2.277  0.3698  0.8775 -1.2148
 6017SOL    HW218178   4.953   6.353   2.275 -0.6669  0.9750 -0.1254
 6018SOL     OW18179   4.045   2.530   2.096 -0.0076 -0.4373 -0.3598
 6018SOL    HW118180   3.996   2.450   2.080  0.4181 -1.1314  1.3518
 6018SOL    HW218181   4.053   2.534   2.192  0.4636  1.3719 -0.4080
 6019SOL     OW18182   2.004   4.737   0.940  0.0772  0.1516  0.2734
 6019SOL    HW118183   1.998   4.715   0.847 -2.4813 -1.3271  0.6094
 6019SOL    HW218184   2.035   4.828   0.941  1.2558 -0.1011 -1.8951
 6020SOL     OW18185   5.914   4.746   1.288  0.0506  0.3440 -0.1505
 6020SOL    HW118186   5.912   4.839   1.265  2.4245  0.2400 -1.4440
 6020SOL    HW218187   5.957   4.743   1.373 -1.7040  0.3859  0.8391
 6021SOL     OW18188   4.391   3.274   1.611  0.0043 -0.1922  0.8028
 6021SOL    HW118189   4.317   3.244   1.558 -0.0984  0.2402  0.6960
 6021SOL    HW218190   4.400   3.366   1.589 -0.5077  0.1977  2.0591
 6022SOL     OW18191   2.221   1.397   4.018  0.1058  0.3797  0.2493
 6022SOL    HW118192   2.264   1.472   3.977  0.8021  1.4984  2.6755
 6022SOL    HW218193   2.285   1.326   4.012 -0.4550 -0.0993 -1.8244
 6023SOL     OW18194   3.725   3.800   1.559 -0.3486 -0.1004  0.3138
 6023SOL    HW118195   3.770   3.738   1.502 -1.3522 -0.8996  0.3221
 6023SOL    HW218196   3.647   3.752   1.589 -0.2725  0.5624  1.7246
 6024SOL     OW18197   1.154   0.791   0.446  0.1846  0.5712 -0.2299
 6024SOL    HW118198   1.241   0.791   0.486 -0.0297  1.2571  0.2745
 6024SOL    HW218199   1.117   0.706   0.468  0.4587  0.5532  0.1771
 6025SOL     OW18200   3.682   2.799   1.632 -0.1253 -0.3154  0.2290
 6025SOL    HW118201   3.599   2.752   1.636 -0.0357 -0.6833 -1.2087
 6025SOL    HW218202   3.723   2.783   1.718 -1.7136  0.3109  1.1896
 6026SOL     OW18203   0.203   1.849   0.600 -0.1672  0.1534 -0.5436
 6026SOL    HW118204   0.281   1.843   0.656 -0.7174 -0.9213  0.1828
 6026SOL    HW218205   0.238   1.860   0.511  0.7568  0.9806 -0.1179
 6027SOL     OW18206   0.715   2.886   3.969 -0.4696  0.0897  0.1445
 6027SOL    HW118207   0.708   2.900   3.875  2.4495 -1.5627 -0.5522
 6027SOL    HW218208   0.742   2.795   3.978  1.7532  0.7517  2.3057
 6028SOL     OW18209   4.337   5.824   2.604  0.0969  0.1675 -0.3765
 6028SOL    HW118210   4.353   5.916   2.583  1.5186  0.0087 -0.1978
 6028SOL    HW218211   4.257   5.802   2.557 -0.3311  1.5093 -0.3414
 6029SOL     OW18212   4.971   0.095   3.448  0.3920  0.2849  0.0130
 6029SOL    HW118213   5.031   0.147   3.394 -1.3078  1.1780 -1.2035
 6029SOL    HW218214   4.884   0.127   3.425 -0.6538 -1.4687  1.0545
 6030SOL     OW18215   1.766   3.728   3.427 -0.5899  0.5573 -0.3597
 6030SOL    HW118216   1.799   3.780   3.354  1.6313 -0.0862  0.0248
 6030SOL    HW218217   1.801   3.772   3.505  1.5696 -1.3941 -0.0228
 6031SOL     OW18218   5.493   3.427   3.694 -0.0138 -0.1995 -0.1797
 6031SOL    HW118219   5.542   3.508   3.679 -1.2326  1.0564  1.6659
 6031SOL    HW218220   5.503   3.377   3.613  2.1877  0.9916 -0.8232
 6032SOL     OW18221   6.227   2.215   1.099 -0.0633 -0.3443 -0.4371
 6032SOL    HW118222   6.247   2.302   1.133 -0.5658 -0.2662 -0.3235
 6032SOL    HW218223   6.259   2.155   1.165  1.0141 -0.2973 -0.8718
 6033SOL     OW18224   2.404   4.148   2.433 -0.0978  0.3989  0.1472
 6033SOL    HW118225   2.461   4.217   2.399  3.3830 -2.6680 -1.6525
 6033SOL    HW218226   2.386   4.092   2.357 -0.5423 -1.8843  1.7305
 6034SOL     OW18227   5.376   2.526   2.206 -0.1576 -0.1314 -0.0200
 6034SOL    HW118228   5.423   2.608   2.188 -0.5008 -0.2356 -1.6816
 6034SOL    HW218229   5.351   2.533   2.299  0.3247  1.3726  0.0566
 6035SOL     OW18230   2.414   3.113   3.465  0.0253 -0.5377  0.7156
 6035SOL    HW118231   2.387   3.180   3.401  0.0041  0.4839  1.7309
 6035SOL    HW218232   2.493   3.149   3.505 -0.0471 -1.0673  1.3693
 6036SOL     OW18233   5.838   6.163   0.875  0.7549 -0.1422  0.7566
 6036SOL    HW118234   5.765   6.189   0.931  0.8988 -0.0417  0.8976
 6036SOL    HW218235   5.916   6.179   0.928  0.9281  0.4401  0.3482
 6037SOL     OW18236   4.745   0.682   3.163 -0.1642  0.0513 -0.1599
 6037SOL    HW118237   4.733   0.734   3.242  1.0764 -1.0377  0.8489
 6037SOL    HW218238   4.820   0.721   3.119  0.7679 -0.7738  0.5979
 6038SOL     OW18239   2.621   2.588   1.406  0.0325  0.2568  0.2953
 6038SOL    HW118240   2.596   2.611   1.317 -0.6286  1.6461  0.7782
 6038SOL    HW218241   2.581   2.502   1.421 -0.4698  0.3312 -0.4992
 6039SOL     OW18242   2.359   5.522   0.486 -0.4583 -0.2900  0.6520
 6039SOL    HW118243   2.313   5.532   0.569 -1.2584 -0.4407  0.2525
 6039SOL    HW218244   2.359   5.428   0.469 -1.0147 -0.2043  0.1142
 6040SOL     OW18245   4.938   4.461   4.062  0.3421 -0.4317 -0.0219
 6040SOL    HW118246   4.966   4.374   4.088  2.3807  0.7612  2.9215
 6040SOL    HW218247   4.875   4.487   4.129  0.5997  0.6674 -0.1633
 6041SOL     OW18248   4.616   6.276   2.243 -0.3051 -0.8355 -0.5146
 6041SOL    HW118249   4.710   6.285   2.262 -0.6993  0.9917  1.3604
 6041SOL    HW218250   4.590   6.362   2.210 -1.6032 -0.5816  0.9533
 6042SOL     OW18251   4.441   2.369   0.270 -0.2902  0.0058  0.7701
 6042SOL    HW118252   4.457   2.369   0.175  1.6218  1.2477  0.9828
 6042SOL    HW218253   4.444   2.276   0.294 -0.2851 -0.3035 -0.3137
 6043SOL     OW18254   3.658   6.204   2.667  0.3340  0.0830 -0.1972
 6043SOL    HW118255   3.589   6.190   2.732  0.4685 -0.3633 -0.1462
 6043SOL    HW218256   3.668   6.299   2.664  2.8687  0.3190  3.2406
 6044SOL     OW18257   3.662   1.816   0.883 -0.9805  0.6289 -0.3929
 6044SOL    HW118258   3.705   1.773   0.809  1.3739 -0.6443  1.4156
 6044SOL    HW218259   3.643   1.744   0.944 -1.9103  1.6828  0.6469
 6045SOL     OW18260   3.140   5.830   3.907 -0.2984  0.0055  0.0840
 6045SOL    HW118261   3.083   5.820   3.831 -0.1283 -2.7497  0.1250
 6045SOL    HW218262   3.108   5.765   3.970 -0.6201  2.2789  2.6670
 6046SOL     OW18263   1.276   6.222   4.140 -0.5391  0.6512 -0.1187
 6046SOL    HW118264   1.323   6.295   4.179  1.0902 -0.2440 -0.2051
 6046SOL    HW218265   1.238   6.258   4.060 -0.8432  1.6562  0.4448
 6047SOL     OW18266   2.655   3.793   3.183  0.2188 -0.2786  0.5929
 6047SOL    HW118267   2.708   3.734   3.130  0.5141  0.9687 -0.6385
 6047SOL    HW218268   2.630   3.864   3.122 -2.0867 -0.2850  1.3109
 6048SOL     OW18269   5.975   1.929   0.740 -0.4540  0.2054  0.2418
 6048SOL    HW118270   6.010   1.848   0.702 -1.5735  0.0208 -0.4831
 6048SOL    HW218271   6.013   1.933   0.828  2.2876  0.6305 -0.7459
 6049SOL     OW18272   0.147   2.771   4.310 -0.3138 -0.0164 -0.3036
 6049SOL    HW118273   0.063   2.799   4.274 -1.1482 -0.5804  1.0498
 6049SOL    HW218274   0.188   2.851   4.341 -0.8506  0.1568 -0.0185
 6050SOL     OW18275   0.097   2.206   2.311 -0.4541  0.4881 -0.4018
 6050SOL    HW118276   0.172   2.206   2.371  0.1668 -0.9606 -1.0833
 6050SOL    HW218277   0.105   2.288   2.262  0.7516  0.3353 -0.5081
 6051SOL     OW18278   5.108   2.416   3.704  0.0591  0.3704  0.3452
 6051SOL    HW118279   5.050   2.491   3.716  1.4772  1.4661  0.8612
 6051SOL    HW218280   5.165   2.441   3.632  1.0131  0.1285  0.9782
 6052SOL     OW18281   3.824   0.901   4.037  0.1105  0.5323 -0.3494
 6052SOL    HW118282   3.913   0.936   4.023 -0.1252  1.0699 -0.5782
 6052SOL    HW218283   3.812   0.903   4.131  0.1774  0.9070 -0.3438
 6053SOL     OW18284   0.727   0.778   1.657  0.2248  0.2717 -0.1371
 6053SOL    HW118285   0.734   0.713   1.727  0.9262  0.7658  0.2781
 6053SOL    HW218286   0.812   0.775   1.613  0.1086  0.6029 -0.3949
 6054SOL     OW18287   3.872   0.773   2.658 -0.0755  0.1532 -0.0648
 6054SOL    HW118288   3.920   0.812   2.731  0.6651  1.7339 -1.2630
 6054SOL    HW218289   3.818   0.705   2.697  1.2964 -0.0211  1.7265
 6055SOL     OW18290   3.299   2.424   2.299 -0.1486 -0.1607  0.1376
 6055SOL    HW118291   3.375   2.445   2.246 -0.4289 -0.9261 -0.6082
 6055SOL    HW218292   3.296   2.493   2.366  1.9853 -0.8341  1.0966
 6056SOL     OW18293   0.201   5.916   1.039  0.6307  0.0219  0.0875
 6056SOL    HW118294   0.162   5.976   1.103 -0.2452 -0.0843 -0.3161
 6056SOL    HW218295   0.178   5.953   0.954 -0.5363 -1.1886 -0.1910
 6057SOL     OW18296   1.977   3.082   3.598  0.0976 -0.4129  1.1084
 6057SOL    HW118297   1.995   3.026   3.673  1.1034 -1.7517 -0.0139
 6057SOL    HW218298   2.058   3.081   3.547 -1.0599 -1.2265 -0.9654
 6058SOL     OW18299   6.358   3.098   4.014 -0.0774  0.5638 -0.1089
 6058SOL    HW118300   6.435   3.153   4.032 -0.9586  3.3437 -2.9956
 6058SOL    HW218301   6.395   3.011   3.999  1.4938 -0.1750  4.5098
 6059SOL     OW18302   2.111   1.560   0.015  0.3830  0.3329 -0.3682
 6059SOL    HW118303   2.166   1.559  -0.063 -1.5798 -3.8024 -2.3074
 6059SOL    HW218304   2.038   1.617  -0.009  0.8709  0.9943 -0.3800
 6060SOL     OW18305   6.156   1.745   0.746 -0.5604 -0.2817 -0.0652
 6060SOL    HW118306   6.239   1.735   0.699 -0.5044 -3.7077  0.2757
 6060SOL    HW218307   6.156   1.674   0.810 -3.4158  0.0449  0.5599
 6061SOL     OW18308   4.148   2.965   3.227  0.6060 -0.4564 -0.1563
 6061SOL    HW118309   4.202   2.918   3.162  0.0595 -0.1455 -0.8606
 6061SOL    HW218310   4.150   3.056   3.198  1.4449 -0.0445  1.0546
 6062SOL     OW18311   2.324   5.561   3.164 -0.5134 -0.3388 -0.3663
 6062SOL    HW118312   2.245   5.549   3.216  0.7432  0.0753  1.8701
 6062SOL    HW218313   2.329   5.656   3.149  0.4519 -0.0343  1.3261
 6063SOL     OW18314   4.855   3.801   3.884 -0.5125 -0.3244 -0.0611
 6063SOL    HW118315   4.914   3.853   3.829 -2.6531  1.0671 -1.3837
 6063SOL    HW218316   4.908   3.729   3.916  1.6416  0.2983 -1.7471
 6064SOL     OW18317   1.004   0.675   1.577  0.7434  0.2200  0.8716
 6064SOL    HW118318   1.098   0.693   1.569  0.4183  1.9671 -0.0267
 6064SOL    HW218319   0.985   0.613   1.508  0.7184  2.9110 -1.9731
 6065SOL     OW18320   3.203   0.812   1.677 -0.1108  0.6071  1.0742
 6065SOL    HW118321   3.165   0.848   1.757 -0.4573  2.1070  0.3084
 6065SOL    HW218322   3.159   0.859   1.606  0.8189 -0.0056  0.0239
 6066SOL     OW18323   4.786   3.738   2.884  0.7613 -0.1454  0.7917
 6066SOL    HW118324   4.875   3.772   2.880  0.0864  2.2093  2.2071
 6066SOL    HW218325   4.730   3.814   2.868 -1.0555 -1.4074  0.4848
 6067SOL     OW18326   0.974   3.029   1.640  0.4469  0.3748 -0.1106
 6067SOL    HW118327   1.058   3.073   1.652 -0.6519  2.5974  0.5494
 6067SOL    HW218328   0.926   3.086   1.579 -1.0664  0.0662  0.6879
 6068SOL     OW18329   1.168   1.192   3.937  0.1880 -0.5759  0.1341
 6068SOL    HW118330   1.149   1.103   3.910 -0.6802 -0.6662  0.9424
 6068SOL    HW218331   1.200   1.184   4.027  1.8575 -0.1970 -0.3528
 6069SOL     OW18332   2.541   4.199   4.353 -0.2107  0.3572 -0.5945
 6069SOL    HW118333   2.604   4.167   4.418  0.2113  2.4788  0.1832
 6069SOL    HW218334   2.466   4.140   4.362  1.2524 -1.7992 -1.0037
 6070SOL     OW18335   4.062   0.667   2.446  0.2049 -0.4289  0.2160
 6070SOL    HW118336   4.090   0.743   2.395 -2.3316  0.0397 -0.7688
 6070SOL    HW218337   4.020   0.705   2.524  0.3350 -0.9468  0.5506
 6071SOL     OW18338   3.885   5.310   2.148  0.4245 -0.3538  0.1748
 6071SOL    HW118339   3.956   5.333   2.089  0.0023  0.5218 -0.0258
 6071SOL    HW218340   3.892   5.372   2.221 -1.5730  1.5779 -1.0491
 6072SOL     OW18341   2.456   4.736   0.570 -0.5902 -0.0570  0.0372
 6072SOL    HW118342   2.529   4.769   0.623 -0.2818 -1.2177  0.3969
 6072SOL    HW218343   2.487   4.651   0.538  0.2622  1.2936 -3.9820
 6073SOL     OW18344   1.449   3.529   1.645 -0.2664  0.0893  0.1332
 6073SOL    HW118345   1.511   3.510   1.575 -2.0592 -0.7293 -1.4139
 6073SOL    HW218346   1.454   3.624   1.656  0.0175  0.2774 -1.2302
 6074SOL     OW18347   0.155   3.334   1.844 -0.3225  0.3671 -0.0045
 6074SOL    HW118348   0.144   3.240   1.835 -1.1702  0.2887  1.3786
 6074SOL    HW218349   0.227   3.355   1.785 -0.1314 -1.1287 -0.3817
 6075SOL     OW18350   0.492   5.213   0.834 -0.4873  0.6537 -0.3031
 6075SOL    HW118351   0.563   5.150   0.838 -0.7045  0.3811 -0.6321
 6075SOL    HW218352   0.417   5.162   0.803 -0.6196  1.1145 -0.7597
 6076SOL     OW18353   4.412   5.303   4.166 -0.6875  0.2195 -0.0325
 6076SOL    HW118354   4.390   5.332   4.077 -0.8216  0.4508  0.0757
 6076SOL    HW218355   4.438   5.211   4.155  0.2146  0.5109 -0.4475
 6077SOL     OW18356   1.455   5.732   1.342 -0.3492 -0.3600 -0.4149
 6077SOL    HW118357   1.436   5.825   1.354 -1.7410 -0.6929  0.4668
 6077SOL    HW218358   1.369   5.692   1.326 -0.1765 -1.7540  1.4683
 6078SOL     OW18359   3.600   3.796   3.910 -0.3622 -0.3492  0.5399
 6078SOL    HW118360   3.654   3.860   3.955 -0.5776  0.0416  0.2571
 6078SOL    HW218361   3.627   3.712   3.946  0.1598 -0.1295  0.6781
 6079SOL     OW18362   4.420   0.544   3.226  0.0183 -0.0504  0.6226
 6079SOL    HW118363   4.433   0.525   3.133 -1.7450 -0.5713  0.3937
 6079SOL    HW218364   4.460   0.469   3.272 -0.7092 -0.7903  0.1202
 6080SOL     OW18365   2.855   2.753   3.768  0.0319 -0.0232 -0.5298
 6080SOL    HW118366   2.869   2.659   3.781  0.0747  0.2077  2.6434
 6080SOL    HW218367   2.763   2.761   3.745 -0.5056 -0.8861  1.0327
 6081SOL     OW18368   4.519   0.700   0.599  0.3066  0.0504 -0.0414
 6081SOL    HW118369   4.435   0.686   0.556  0.0897  0.7114  0.1435
 6081SOL    HW218370   4.526   0.628   0.662 -0.1825  0.0574  0.0275
 6082SOL     OW18371   3.907   2.516   0.182  0.0399 -0.6658 -0.2969
 6082SOL    HW118372   3.952   2.435   0.207 -1.0849 -0.7431  2.1297
 6082SOL    HW218373   3.887   2.558   0.266 -2.8143  0.1819 -1.1858
 6083SOL     OW18374   1.360   0.332   2.841  0.5310 -0.2656  0.2710
 6083SOL    HW118375   1.449   0.352   2.811  0.0015  1.3046 -0.4858
 6083SOL    HW218376   1.303   0.380   2.781 -0.7614  0.4119  1.8740
 6084SOL     OW18377   5.947   3.877   1.576 -0.2719 -0.8523  0.1309
 6084SOL    HW118378   5.873   3.820   1.556 -1.8680  1.6300 -2.6589
 6084SOL    HW218379   6.012   3.858   1.508  0.0669 -0.6743  0.3961
 6085SOL     OW18380   0.055   3.196   3.737  0.2766  0.3905 -0.1944
 6085SOL    HW118381  -0.012   3.150   3.687  0.5010 -0.4209  0.2157
 6085SOL    HW218382   0.138   3.159   3.707  0.7181  2.2388 -1.5988
 6086SOL     OW18383   3.403   5.046   4.025  0.2922 -0.2707 -0.2456
 6086SOL    HW118384   3.411   5.089   3.940 -0.5537 -1.5813 -1.0547
 6086SOL    HW218385   3.494   5.032   4.053  0.6016 -0.0717 -1.0720
 6087SOL     OW18386   6.082   5.018   1.770 -0.3582  0.3615  0.9815
 6087SOL    HW118387   6.069   5.103   1.728  0.3486 -0.0471 -0.1906
 6087SOL    HW218388   6.010   4.964   1.736  0.0647  0.1022  0.4556
 6088SOL     OW18389   3.319   2.168   1.495  0.5564  0.2509  0.2022
 6088SOL    HW118390   3.339   2.078   1.469  1.2808  0.0682  1.2314
 6088SOL    HW218391   3.292   2.212   1.415  0.2383 -0.8678 -0.3354
 6089SOL     OW18392   4.653   4.854   0.845 -0.2184 -0.1256  0.4511
 6089SOL    HW118393   4.730   4.902   0.817 -0.1178 -1.3018 -1.6819
 6089SOL    HW218394   4.687   4.789   0.907  0.1098  0.5997  1.0690
 6090SOL     OW18395   1.481   0.677   1.654  0.3060 -0.1573 -0.8227
 6090SOL    HW118396   1.428   0.612   1.701  0.2821  1.0431  1.0545
 6090SOL    HW218397   1.571   0.658   1.680  0.4327 -0.1633 -1.2539
 6091SOL     OW18398   3.599   0.464   3.543  0.7610 -0.1045  0.2035
 6091SOL    HW118399   3.681   0.445   3.497  0.9096  0.2236  0.3231
 6091SOL    HW218400   3.600   0.559   3.555 -0.9312  0.4331 -2.2585
 6092SOL     OW18401   5.176   0.571   1.708 -0.0267 -0.1618  0.6852
 6092SOL    HW118402   5.157   0.662   1.729 -0.3783  0.4540 -1.7405
 6092SOL    HW218403   5.272   0.565   1.714  0.2985  1.1730 -1.3972
 6093SOL     OW18404   2.253   5.857   3.094  0.4996 -0.1790  0.5663
 6093SOL    HW118405   2.169   5.888   3.127  1.5763  1.6530  1.9341
 6093SOL    HW218406   2.242   5.855   2.999 -1.1549 -0.3747  0.7040
 6094SOL     OW18407   0.906   1.774   0.770 -0.4768  0.0553  0.1598
 6094SOL    HW118408   0.841   1.750   0.836 -0.8182  0.8648  0.1468
 6094SOL    HW218409   0.971   1.826   0.818 -1.1284  1.3191 -0.2237
 6095SOL     OW18410   0.555   4.068   2.152  0.2482 -0.0961  0.5756
 6095SOL    HW118411   0.554   3.978   2.119  1.3331 -0.0790  0.4494
 6095SOL    HW218412   0.469   4.079   2.193 -1.0355 -0.2893 -1.7279
 6096SOL     OW18413   4.763   5.230   1.342  0.3240  0.5298 -0.6553
 6096SOL    HW118414   4.803   5.168   1.404  0.0722  0.1363 -0.8822
 6096SOL    HW218415   4.768   5.186   1.257 -1.1800  0.1585 -0.6071
 6097SOL     OW18416   3.014   4.852   4.414 -0.3807  0.2929 -0.5643
 6097SOL    HW118417   3.041   4.942   4.435 -2.3023  0.8693 -0.1381
 6097SOL    HW218418   2.969   4.860   4.329 -0.3200 -0.3412 -0.6672
 6098SOL     OW18419   1.528   5.236   0.066  0.3468 -0.2382  0.1714
 6098SOL    HW118420   1.594   5.253  -0.001  0.2893  0.6635  0.3288
 6098SOL    HW218421   1.447   5.223   0.017  0.2713  0.5805  0.0636
 6099SOL     OW18422   1.152   2.695   3.793  0.1749  0.3393  0.2596
 6099SOL    HW118423   1.204   2.759   3.842  3.4413 -0.8907 -1.0249
 6099SOL    HW218424   1.183   2.703   3.702 -2.0234 -0.6564 -0.7383
 6100SOL     OW18425   5.263   3.462   0.393  0.4464  0.1801  0.1443
 6100SOL    HW118426   5.343   3.461   0.445 -0.7737  1.4847  2.3434
 6100SOL    HW218427   5.291   3.491   0.306  2.5481 -1.4813  0.1061
 6101SOL     OW18428   5.804   1.583   0.204 -0.1687  0.2701 -0.6221
 6101SOL    HW118429   5.793   1.489   0.211  1.2629  0.0258 -1.0435
 6101SOL    HW218430   5.847   1.597   0.119 -1.0739  1.3993 -0.9573
 6102SOL     OW18431   5.295   6.090   1.843  0.3740 -0.0339  0.7024
 6102SOL    HW118432   5.341   6.016   1.802 -1.1661 -1.4279  1.2933
 6102SOL    HW218433   5.221   6.107   1.785  0.7577  1.1983  0.5147
 6103SOL     OW18434   5.655   3.982   1.709 -0.1661  0.2720 -0.6561
 6103SOL    HW118435   5.683   4.023   1.790  2.9907  1.9665 -2.2447
 6103SOL    HW218436   5.683   3.891   1.716 -0.8705  0.1008  0.4010
 6104SOL     OW18437   1.668   4.882   2.971  0.0958 -0.7393  0.6879
 6104SOL    HW118438   1.611   4.902   2.897 -0.1597  0.2501  1.1148
 6104SOL    HW218439   1.744   4.840   2.932  0.6127  0.9562 -0.3568
 6105SOL     OW18440   3.489   0.411   2.920  0.2990 -0.1987 -0.1671
 6105SOL    HW118441   3.465   0.342   2.858 -2.3237  0.3110  0.0543
 6105SOL    HW218442   3.442   0.489   2.888  2.6760  1.4687 -0.1268
 6106SOL     OW18443   3.770   2.615   2.743 -0.0067  0.1502  0.5733
 6106SOL    HW118444   3.676   2.629   2.740 -0.0977 -0.3163 -1.5573
 6106SOL    HW218445   3.804   2.692   2.790 -1.2055  2.7021 -2.1118
 6107SOL     OW18446   5.209   0.994   2.209 -0.3395 -0.1249 -0.4549
 6107SOL    HW118447   5.217   1.034   2.295 -0.7135 -1.0578  0.0365
 6107SOL    HW218448   5.226   0.901   2.224 -2.6331 -0.7374 -0.9247
 6108SOL     OW18449   5.403   4.076   0.297 -0.2748  0.0140 -0.1324
 6108SOL    HW118450   5.457   4.145   0.258 -0.5304 -0.8803 -2.3584
 6108SOL    HW218451   5.372   4.025   0.223  0.6655 -3.1479  1.2911
 6109SOL     OW18452   1.179   5.128   1.704 -0.3016 -0.3099 -0.2614
 6109SOL    HW118453   1.142   5.040   1.697 -0.0796 -0.4516  0.2696
 6109SOL    HW218454   1.176   5.163   1.615 -0.1295 -0.9596 -0.5266
 6110SOL     OW18455   4.117   5.577   2.757  0.1608  0.0806  0.4185
 6110SOL    HW118456   4.044   5.518   2.738 -1.1236  1.4106  0.8365
 6110SOL    HW218457   4.167   5.532   2.825 -0.3406 -0.8174  0.2271
 6111SOL     OW18458   0.277   5.649   2.282 -0.2737  0.1203  0.1558
 6111SOL    HW118459   0.185   5.660   2.258 -0.8103  1.1466  2.1686
 6111SOL    HW218460   0.274   5.613   2.371  1.2434  0.4236  0.3896
 6112SOL     OW18461   2.442   0.245   2.020  0.0742  0.1314  0.4982
 6112SOL    HW118462   2.419   0.249   2.113 -0.5529 -2.4050  0.5916
 6112SOL    HW218463   2.538   0.246   2.019  0.1160  1.6829  0.9600
 6113SOL     OW18464   5.904   1.830   4.261 -0.2930  0.0333 -0.1188
 6113SOL    HW118465   5.946   1.744   4.254  0.7856  0.5844 -2.1491
 6113SOL    HW218466   5.810   1.811   4.255 -0.0671 -1.0224 -1.3515
 6114SOL     OW18467   0.189   3.341   0.738  0.4725  0.5804  0.0785
 6114SOL    HW118468   0.195   3.373   0.828  2.2386  1.6369 -0.3053
 6114SOL    HW218469   0.096   3.331   0.722  0.0481 -1.1431  2.4382
 6115SOL     OW18470   6.118   2.753   0.096  0.3913  0.1223  0.6010
 6115SOL    HW118471   6.047   2.707   0.141  1.2271  0.5431  2.5695
 6115SOL    HW218472   6.100   2.845   0.111 -0.7176  0.6304 -2.4283
 6116SOL     OW18473   0.066   3.841   4.002 -0.1006 -0.0327  0.1567
 6116SOL    HW118474   0.147   3.839   3.951  0.3572  0.3767  0.8459
 6116SOL    HW218475   0.055   3.750   4.032  0.3774 -0.0017  0.4563
 6117SOL     OW18476   3.331   5.610   2.896 -0.0623  0.0669 -0.3733
 6117SOL    HW118477   3.336   5.685   2.955  0.7281  0.7058 -1.1949
 6117SOL    HW218478   3.354   5.535   2.951  1.8132  0.7681 -0.0387
 6118SOL     OW18479   5.006   0.412   1.834 -0.2519 -0.0433  0.2739
 6118SOL    HW118480   4.916   0.437   1.855 -0.2496 -0.6321  1.0870
 6118SOL    HW218481   5.045   0.491   1.796 -0.4982  0.9198  1.8450
 6119SOL     OW18482   2.164   6.366   2.280 -0.4529 -0.1223  0.1975
 6119SOL    HW118483   2.227   6.338   2.213 -0.1093  0.2364  0.3624
 6119SOL    HW218484   2.126   6.447   2.245 -1.0803 -0.5153 -0.0553
 6120SOL     OW18485   1.215   1.147   1.406 -0.1364 -0.2579 -0.1257
 6120SOL    HW118486   1.155   1.080   1.373 -0.8854 -0.4258  1.3744
 6120SOL    HW218487   1.208   1.218   1.343 -0.0752 -1.1769 -1.2429
 6121SOL     OW18488   1.513   0.597   4.057 -0.3153  0.4442  0.2277
 6121SOL    HW118489   1.510   0.604   3.962  0.3180 -0.0506  0.1562
 6121SOL    HW218490   1.503   0.687   4.089 -1.4334  0.5199 -0.2593
 6122SOL     OW18491   0.078   0.453   4.204  0.0601 -0.2099  0.5482
 6122SOL    HW118492   0.069   0.397   4.281  1.3357 -0.3601  0.6393
 6122SOL    HW218493   0.093   0.392   4.132 -1.6144 -0.1000  0.0320
 6123SOL     OW18494   0.653   3.648   0.242 -0.1860 -0.0771  0.0928
 6123SOL    HW118495   0.748   3.649   0.256  0.0547  1.7108 -1.0634
 6123SOL    HW218496   0.640   3.579   0.176  0.5907  0.6600 -0.8960
 6124SOL     OW18497   5.843   6.416   3.001  0.1592  0.5550  0.1391
 6124SOL    HW118498   5.877   6.494   2.958 -1.9658  0.9459 -1.1385
 6124SOL    HW218499   5.751   6.436   3.018 -0.6023 -1.7096 -0.5318
 6125SOL     OW18500   0.307   4.940   1.319 -0.0612  0.1467  0.0560
 6125SOL    HW118501   0.346   5.001   1.382 -1.5491  1.9281 -0.5955
 6125SOL    HW218502   0.306   4.987   1.236 -1.1601 -0.8187 -0.5384
 6126SOL     OW18503   5.441   3.659   2.604 -0.2676  1.0696  0.0130
 6126SOL    HW118504   5.354   3.700   2.596 -1.5720 -0.9364  1.6296
 6126SOL    HW218505   5.424   3.566   2.592  1.7149  0.5660  0.4176
 6127SOL     OW18506   4.481   0.560   0.822 -0.0388 -0.0696 -0.0580
 6127SOL    HW118507   4.460   0.468   0.807 -0.2567 -0.0802  0.3018
 6127SOL    HW218508   4.418   0.590   0.887 -0.1120  0.3977 -0.3318
 6128SOL     OW18509   4.865   3.537   0.662  0.3339 -0.2025  0.1933
 6128SOL    HW118510   4.892   3.491   0.741 -1.8013 -2.0781  0.0247
 6128SOL    HW218511   4.772   3.517   0.653  0.4486 -0.2583 -2.8741
 6129SOL     OW18512   6.357   3.816   3.069  0.2120  0.2316  0.0563
 6129SOL    HW118513   6.440   3.796   3.027  0.0207  1.0593 -0.7835
 6129SOL    HW218514   6.291   3.780   3.010 -0.0512  0.6522  0.0898
 6130SOL     OW18515   3.054   2.644   0.297  0.6298  0.4502 -0.0053
 6130SOL    HW118516   2.980   2.696   0.327  0.1895  0.5313 -1.1610
 6130SOL    HW218517   3.026   2.553   0.309  0.7646  0.4704  0.5112
 6131SOL     OW18518   4.157   4.699   1.764  0.1247 -0.3884  0.3980
 6131SOL    HW118519   4.102   4.756   1.710  1.7749  1.7674  0.7074
 6131SOL    HW218520   4.107   4.687   1.844 -0.0523  1.4756  0.6755
 6132SOL     OW18521   5.823   1.640   4.015  0.4896 -0.0934 -0.0788
 6132SOL    HW118522   5.845   1.726   3.979  1.8851 -0.3448  0.0651
 6132SOL    HW218523   5.825   1.582   3.939 -0.0582 -0.0800 -0.1121
 6133SOL     OW18524   1.919   2.487   3.330 -0.0515  0.1774  0.0280
 6133SOL    HW118525   1.952   2.576   3.342 -1.1464  0.8936 -1.5575
 6133SOL    HW218526   1.981   2.447   3.269 -0.3748  0.4053 -0.4570
 6134SOL     OW18527   2.430   4.129   2.722 -0.3751  0.1120  0.4117
 6134SOL    HW118528   2.436   4.040   2.757  1.8084  0.1350  0.3698
 6134SOL    HW218529   2.429   4.118   2.627 -0.1288  0.1018  0.4071
 6135SOL     OW18530   0.697   3.563   0.841 -0.1804 -0.0940 -0.4517
 6135SOL    HW118531   0.697   3.573   0.936 -1.2262  0.1198 -0.4558
 6135SOL    HW218532   0.651   3.480   0.826  1.6263 -1.1710 -0.7406
 6136SOL     OW18533   5.522   2.244   2.286 -0.2534  0.0911  0.1897
 6136SOL    HW118534   5.605   2.261   2.241  0.1774 -0.6732  0.6575
 6136SOL    HW218535   5.459   2.228   2.216  0.0573  0.3891 -0.1661
 6137SOL     OW18536   1.867   2.344   4.325 -0.3015 -0.5877 -0.2244
 6137SOL    HW118537   1.878   2.438   4.337 -2.1355 -0.3080 -0.1840
 6137SOL    HW218538   1.777   2.326   4.350 -0.3923 -2.1632 -1.3213
 6138SOL     OW18539   4.460   0.641   3.906  0.1072  0.0196  0.0664
 6138SOL    HW118540   4.417   0.573   3.957 -0.2704  1.0583  1.2156
 6138SOL    HW218541   4.397   0.665   3.838 -0.6943  0.7007  1.0046
 6139SOL     OW18542   5.588   1.689   1.955 -0.1803  0.0067  0.0302
 6139SOL    HW118543   5.530   1.622   1.990 -1.7743  1.2446 -0.0287
 6139SOL    HW218544   5.604   1.748   2.029  1.0579 -0.2742  0.0399
 6140SOL     OW18545   2.091   4.320   0.362 -0.5104  0.3733 -0.1713
 6140SOL    HW118546   2.155   4.320   0.291  1.4622 -1.9772  1.2661
 6140SOL    HW218547   2.026   4.254   0.335 -0.9846  0.9886 -0.5924
 6141SOL     OW18548   3.961   1.861   0.314  0.4219  0.4260  0.0518
 6141SOL    HW118549   3.971   1.845   0.220 -0.9953  1.5809 -0.3817
 6141SOL    HW218550   4.050   1.867   0.347  0.9815 -1.0469 -0.9881
 6142SOL     OW18551   1.049   0.300   4.362  0.0558 -0.3072 -0.0405
 6142SOL    HW118552   1.005   0.300   4.447  1.5426 -1.1643  0.8135
 6142SOL    HW218553   1.066   0.207   4.344  3.6428 -0.2131  1.0805
 6143SOL     OW18554   1.528   3.347   1.407 -0.6310 -0.0372  0.1650
 6143SOL    HW118555   1.569   3.433   1.403 -0.8350  0.0376 -0.7470
 6143SOL    HW218556   1.435   3.364   1.392 -0.5622 -0.4779 -0.9242
 6144SOL     OW18557   5.700   1.758   3.760 -0.1163 -0.3394  0.0065
 6144SOL    HW118558   5.734   1.673   3.733  0.8393 -0.0257  0.1215
 6144SOL    HW218559   5.678   1.802   3.678 -0.7716 -0.7457 -0.0445
 6145SOL     OW18560   3.395   5.308   1.473  0.1122 -0.2379  0.2377
 6145SOL    HW118561   3.438   5.359   1.542 -0.1323 -1.0687  1.0390
 6145SOL    HW218562   3.413   5.217   1.496  1.8486 -0.6042 -1.9755
 6146SOL     OW18563   3.330   3.954   3.202 -0.0194 -0.4349  0.3847
 6146SOL    HW118564   3.328   3.988   3.291 -0.9980  1.6071 -0.3133
 6146SOL    HW218565   3.261   3.887   3.201 -1.0862  0.5898  0.8386
 6147SOL     OW18566   1.952   6.374   2.441  0.6291  0.6513 -0.4642
 6147SOL    HW118567   1.978   6.466   2.447  3.8830 -0.0573  0.1974
 6147SOL    HW218568   2.022   6.333   2.391  0.7880 -1.7886  1.3817
 6148SOL     OW18569   5.733   1.033   3.287  0.3564 -0.7969  0.2188
 6148SOL    HW118570   5.770   1.072   3.207 -0.4357 -0.0542  0.1831
 6148SOL    HW218571   5.751   1.097   3.355 -1.6437  0.1352  0.0166
 6149SOL     OW18572   4.124   0.462   0.218  0.1394 -0.1883 -0.5267
 6149SOL    HW118573   4.215   0.438   0.199  0.8114  0.8439  1.0484
 6149SOL    HW218574   4.130   0.528   0.287 -1.7695  0.8796 -1.2342
 6150SOL     OW18575   0.682   6.313   3.751  0.0618 -0.3198 -0.3230
 6150SOL    HW118576   0.713   6.285   3.837 -0.8880 -0.1542  0.0908
 6150SOL    HW218577   0.653   6.403   3.764  0.3040 -0.1471 -0.9276
 6151SOL     OW18578   6.268   5.615   1.108 -0.5803 -0.0719  0.1907
 6151SOL    HW118579   6.325   5.594   1.182  0.3960  1.2723 -0.1091
 6151SOL    HW218580   6.250   5.708   1.118 -2.2345 -0.2987 -0.1086
 6152SOL     OW18581   1.757   3.604   2.507 -0.2621  0.1310 -0.3218
 6152SOL    HW118582   1.684   3.601   2.445 -0.3693  0.7107 -0.2401
 6152SOL    HW218583   1.831   3.567   2.459 -0.1602  1.2020 -1.0656
 6153SOL     OW18584   4.643   3.046   2.523 -0.3426 -0.0021  0.1532
 6153SOL    HW118585   4.707   3.038   2.594 -0.6479 -0.6158  0.3710
 6153SOL    HW218586   4.609   2.957   2.512 -0.1754  0.0471 -0.8844
 6154SOL     OW18587   3.880   0.814   0.570 -0.3346  0.1302  0.1675
 6154SOL    HW118588   3.888   0.719   0.569 -0.9745  0.0354 -1.2515
 6154SOL    HW218589   3.842   0.834   0.655  1.1697 -0.6928  1.1114
 6155SOL     OW18590   6.084   2.997   4.476  0.2030 -0.0689  0.4879
 6155SOL    HW118591   6.062   2.925   4.534 -0.4899 -0.2506  0.0208
 6155SOL    HW218592   6.000   3.038   4.454  0.5879  1.0537  0.9390
 6156SOL     OW18593   3.787   2.699   1.868  0.2106  0.5296  0.1813
 6156SOL    HW118594   3.743   2.614   1.856  1.6581 -0.7512  2.4375
 6156SOL    HW218595   3.880   2.677   1.867  0.6290  1.9030  1.6557
 6157SOL     OW18596   5.028   1.136   4.188 -0.0694 -0.1692  0.1788
 6157SOL    HW118597   4.999   1.163   4.101  0.4312  3.9537  0.8728
 6157SOL    HW218598   4.950   1.099   4.229 -2.1083  2.5559 -0.6207
 6158SOL     OW18599   4.192   0.184   2.094  0.4627 -0.6003  0.1297
 6158SOL    HW118600   4.254   0.114   2.077  0.2783 -0.7072 -0.1132
 6158SOL    HW218601   4.117   0.142   2.136  0.6774 -0.4236  0.7046
 6159SOL     OW18602   3.218   5.057   3.737  0.2819 -0.3073  0.1505
 6159SOL    HW118603   3.173   4.974   3.751  0.6445 -0.8758 -1.6062
 6159SOL    HW218604   3.149   5.123   3.738 -0.3677 -0.9362 -0.6404
 6160SOL     OW18605   0.025   0.659   4.380 -0.8331 -0.0493 -0.3369
 6160SOL    HW118606   0.071   0.632   4.459 -2.4507  0.1648  0.7728
 6160SOL    HW218607   0.025   0.581   4.324  0.1628 -0.2636 -0.0840
 6161SOL     OW18608   3.923   5.693   3.056  0.4076  0.5670  0.3685
 6161SOL    HW118609   3.957   5.623   3.112  0.6052  1.3253  1.2517
 6161SOL    HW218610   3.856   5.650   3.002  1.0787 -0.4534  0.2935
 6162SOL     OW18611   0.733   6.404   0.004 -0.1787 -0.9253  0.3773
 6162SOL    HW118612   0.648   6.385  -0.035 -0.9305  0.7237  1.0256
 6162SOL    HW218613   0.729   6.496   0.027  1.7905 -0.7851  0.5094
 6163SOL     OW18614   2.627   4.227   2.104  0.1695 -0.1220 -0.0727
 6163SOL    HW118615   2.617   4.306   2.050  0.7792 -0.1732 -0.2695
 6163SOL    HW218616   2.669   4.164   2.046  0.3362 -0.3575  0.2997
 6164SOL     OW18617   2.534   3.710   3.600  0.5961 -0.2257 -0.0618
 6164SOL    HW118618   2.553   3.803   3.587 -1.7936  0.4501  0.2996
 6164SOL    HW218619   2.530   3.674   3.511 -0.4550  0.5788 -0.3827
 6165SOL     OW18620   3.178   0.894   0.528  0.3210 -0.0904  1.0396
 6165SOL    HW118621   3.169   0.806   0.563 -0.5054 -0.4881 -0.0494
 6165SOL    HW218622   3.129   0.950   0.588  0.8825 -0.3306  1.7581
 6166SOL     OW18623   3.764   4.815   2.253  0.2451 -0.0588 -0.2167
 6166SOL    HW118624   3.706   4.875   2.300 -0.8960  0.7983 -2.4260
 6166SOL    HW218625   3.720   4.730   2.260  2.0848 -1.1355  3.3027
 6167SOL     OW18626   4.078   2.610   3.998  0.0870  0.0388  0.4113
 6167SOL    HW118627   4.170   2.608   4.025  0.0372  1.7450  0.9616
 6167SOL    HW218628   4.033   2.655   4.069 -1.0344  0.0003 -0.2271
 6168SOL     OW18629   5.232   6.318   3.199 -0.6662  0.2647  0.2793
 6168SOL    HW118630   5.290   6.269   3.140  0.1834  2.4801 -0.9685
 6168SOL    HW218631   5.261   6.293   3.287  3.4672  2.0830 -0.0971
 6169SOL     OW18632   0.989   6.328   4.316  0.1589 -0.0508 -0.0980
 6169SOL    HW118633   1.075   6.369   4.327 -0.1369  0.5896 -0.0688
 6169SOL    HW218634   0.975   6.282   4.399  0.4494 -0.1149 -0.0804
 6170SOL     OW18635   1.930   3.365   0.307 -0.0578  0.1286  0.1696
 6170SOL    HW118636   1.950   3.456   0.285 -0.1255  0.1984  0.3866
 6170SOL    HW218637   2.014   3.327   0.331 -0.2288  0.6235  1.8098
 6171SOL     OW18638   0.527   0.918   4.390  0.3094  0.3669 -0.4646
 6171SOL    HW118639   0.518   0.850   4.323  0.0320  1.5861 -1.7680
 6171SOL    HW218640   0.493   0.878   4.470  0.2130 -1.0228 -1.1353
 6172SOL     OW18641   3.190   0.365   0.427 -0.3278  0.5156 -0.1240
 6172SOL    HW118642   3.185   0.378   0.332  1.2937 -0.6955 -0.4575
 6172SOL    HW218643   3.284   0.367   0.447 -0.1310 -3.0782  0.6941
 6173SOL     OW18644   4.293   2.775   2.693  0.0453 -0.2647 -0.0335
 6173SOL    HW118645   4.302   2.853   2.638 -3.1275 -0.1515 -0.7631
 6173SOL    HW218646   4.281   2.703   2.630  1.2276 -1.1196  0.6362
 6174SOL     OW18647   2.217   1.440   2.170  0.1404 -0.2217 -0.0125
 6174SOL    HW118648   2.209   1.481   2.256  0.6349  0.6531 -0.3577
 6174SOL    HW218649   2.308   1.410   2.165  0.2743  0.2306 -0.4293
 6175SOL     OW18650   3.582   4.733   4.110 -0.1735 -0.6453 -1.0465
 6175SOL    HW118651   3.608   4.749   4.019  1.5586  0.3651 -0.4527
 6175SOL    HW218652   3.614   4.645   4.129 -1.2653 -1.1987 -1.5950
 6176SOL     OW18653   2.902   6.024   0.988  0.0645  0.2155 -0.2361
 6176SOL    HW118654   2.907   5.933   0.960  0.7739  0.4258 -0.8608
 6176SOL    HW218655   2.974   6.068   0.942  0.7854  0.7795  1.2872
 6177SOL     OW18656   2.023   1.991   0.712 -0.0267 -0.1380 -0.2131
 6177SOL    HW118657   2.079   2.000   0.635  0.2091  0.0707 -0.0196
 6177SOL    HW218658   2.014   2.080   0.746 -0.5472 -0.1566 -0.2889
 6178SOL     OW18659   5.377   1.930   2.271  0.0062  0.3673 -0.1584
 6178SOL    HW118660   5.281   1.934   2.277 -0.1049 -1.5590  1.6630
 6178SOL    HW218661   5.407   1.933   2.361  1.2326 -2.8005 -0.1961
 6179SOL     OW18662   1.440   2.618   0.182 -0.1058 -0.1152  0.4852
 6179SOL    HW118663   1.445   2.658   0.094 -0.6136 -0.4552  0.2949
 6179SOL    HW218664   1.481   2.683   0.239  2.1104 -0.6994 -0.2369
 6180SOL     OW18665   5.448   0.331   0.084  0.0878 -0.2236 -0.4510
 6180SOL    HW118666   5.361   0.293   0.087 -0.5260  1.0804  1.2227
 6180SOL    HW218667   5.467   0.357   0.174  1.3967  1.2453 -1.0463
 6181SOL     OW18668   1.518   1.106   1.400  0.2524 -0.0282 -0.2344
 6181SOL    HW118669   1.430   1.123   1.435  0.3165 -0.3913  0.1168
 6181SOL    HW218670   1.577   1.147   1.463  0.3378  0.4801 -0.6281
 6182SOL     OW18671   2.227   4.908   0.649 -0.5925  0.5568 -0.0357
 6182SOL    HW118672   2.147   4.857   0.635 -0.1964  0.3309 -2.1550
 6182SOL    HW218673   2.292   4.865   0.595  0.2797  2.2041 -0.4054
 6183SOL     OW18674   3.322   2.826   3.194 -0.2726 -0.2027  0.8595
 6183SOL    HW118675   3.409   2.823   3.154  0.3051 -2.7310  1.9328
 6183SOL    HW218676   3.311   2.918   3.220  1.4071  0.5178 -0.5629
 6184SOL     OW18677   6.411   5.228   3.191 -0.4350  0.1740 -0.3076
 6184SOL    HW118678   6.493   5.269   3.163 -0.7029  0.8217 -0.1844
 6184SOL    HW218679   6.343   5.274   3.142 -0.8984  1.1718  1.1349
 6185SOL     OW18680   2.014   4.739   0.656  0.1947 -0.8755  0.6497
 6185SOL    HW118681   2.039   4.647   0.662 -0.0504 -1.0370 -0.3899
 6185SOL    HW218682   1.968   4.746   0.572  1.8917  0.5560 -0.3273
 6186SOL     OW18683   4.906   1.487   1.102  0.3688 -0.1498  0.4518
 6186SOL    HW118684   4.853   1.503   1.024  0.4689 -0.0009  0.4144
 6186SOL    HW218685   4.964   1.563   1.108  1.9754 -1.1496 -0.6171
 6187SOL     OW18686   5.339   0.189   2.514 -0.0332 -0.1489 -0.2859
 6187SOL    HW118687   5.397   0.132   2.464 -1.4916 -0.6249 -1.6130
 6187SOL    HW218688   5.318   0.261   2.454  0.2134  0.7556  0.6488
 6188SOL     OW18689   1.148   1.494   3.575  0.2044  0.0208 -0.0158
 6188SOL    HW118690   1.104   1.502   3.490 -0.1783  1.5449  0.2676
 6188SOL    HW218691   1.087   1.531   3.638  0.6083 -0.7930  0.9079
 6189SOL     OW18692   4.485   2.117   4.485 -0.2890 -0.3419 -0.6209
 6189SOL    HW118693   4.492   2.212   4.485  0.1130 -0.3550  0.2405
 6189SOL    HW218694   4.394   2.099   4.458 -1.4232  0.4378  1.9954
 6190SOL     OW18695   1.220   4.459   2.316  0.4583  0.1044  0.2868
 6190SOL    HW118696   1.222   4.554   2.305 -1.2428  0.1362 -0.2496
 6190SOL    HW218697   1.220   4.445   2.411 -0.8065  0.7699  0.4278
 6191SOL     OW18698   0.634   5.646   0.579 -0.1431  0.2827 -0.3982
 6191SOL    HW118699   0.604   5.566   0.535  1.0718 -1.1198  1.0596
 6191SOL    HW218700   0.557   5.680   0.624 -0.7041 -0.0114 -1.1060
 6192SOL     OW18701   1.214   5.087   3.677 -0.1070  0.3046  0.2578
 6192SOL    HW118702   1.302   5.113   3.706 -0.0610 -0.2148  0.6188
 6192SOL    HW218703   1.171   5.056   3.757 -0.7384  0.8623  0.1458
 6193SOL     OW18704   1.527   4.757   1.104  0.8629  0.0570  0.2121
 6193SOL    HW118705   1.503   4.850   1.108  2.5897  0.7234 -1.6168
 6193SOL    HW218706   1.463   4.719   1.044  1.0404  0.4407 -0.2281
 6194SOL     OW18707   6.113   3.435   2.770 -0.6672 -0.3072 -0.0488
 6194SOL    HW118708   6.141   3.452   2.680 -2.3437 -2.5715 -1.1962
 6194SOL    HW218709   6.178   3.374   2.805  0.2894  0.9841  0.6075
 6195SOL     OW18710   4.615   2.408   1.739 -0.2210 -0.1166 -0.3924
 6195SOL    HW118711   4.597   2.368   1.824  1.3296 -1.5632 -0.6338
 6195SOL    HW218712   4.535   2.395   1.688 -0.4044 -1.3084  0.1492
 6196SOL     OW18713   0.540   2.234   1.583 -0.0899  0.2395  0.3942
 6196SOL    HW118714   0.488   2.154   1.592 -0.8220  0.7659  1.2372
 6196SOL    HW218715   0.602   2.230   1.657  0.4332  0.0830 -0.0383
 6197SOL     OW18716   2.311   1.104   1.338 -0.3105 -0.4004  0.4140
 6197SOL    HW118717   2.288   1.123   1.429  0.5061 -2.9158  1.2962
 6197SOL    HW218718   2.389   1.156   1.321 -0.3708 -0.0275  1.1987
 6198SOL     OW18719   2.989   3.651   3.153  0.2183 -0.3647  0.1272
 6198SOL    HW118720   2.925   3.668   3.222 -0.2874 -0.4668 -0.2998
 6198SOL    HW218721   2.946   3.586   3.096  1.3423 -1.6900  0.6892
 6199SOL     OW18722   2.204   0.968   2.860 -0.0085  0.0107  0.3991
 6199SOL    HW118723   2.294   0.995   2.842  0.4627 -1.2129  0.7464
 6199SOL    HW218724   2.151   1.022   2.801  1.0328  0.0114 -0.6214
 6200SOL     OW18725   3.317   3.678   0.499  0.1033  0.7154  0.3410
 6200SOL    HW118726   3.390   3.740   0.511 -0.3812  1.2710  0.5371
 6200SOL    HW218727   3.307   3.637   0.584  1.1244 -0.4760 -0.0563
 6201SOL     OW18728   4.590   2.978   0.897 -0.4316  0.0047 -0.2971
 6201SOL    HW118729   4.643   2.911   0.853 -0.2812 -0.4756  0.5637
 6201SOL    HW218730   4.634   2.992   0.981 -1.2540  0.1316  0.1342
 6202SOL     OW18731   2.999   0.902   4.023  0.4896  0.1291 -0.0461
 6202SOL    HW118732   2.996   0.831   3.959  0.0769  0.5879 -0.5578
 6202SOL    HW218733   3.088   0.935   4.018  0.2072  0.8493 -1.2010
 6203SOL     OW18734   2.679   0.664   4.200  0.6215 -0.2322 -0.6764
 6203SOL    HW118735   2.769   0.636   4.182  0.8137  0.1597 -0.3651
 6203SOL    HW218736   2.688   0.752   4.235 -0.0019  0.4841 -2.1565
 6204SOL     OW18737   3.925   5.755   0.529 -0.1058  0.2551 -0.6010
 6204SOL    HW118738   3.895   5.755   0.620 -1.2064 -0.1144 -0.9266
 6204SOL    HW218739   3.845   5.767   0.478  0.2215 -1.1756 -1.5722
 6205SOL     OW18740   3.349   2.314   0.400  0.0098  0.0392  0.3542
 6205SOL    HW118741   3.304   2.397   0.418  0.1394 -0.0284  1.0447
 6205SOL    HW218742   3.438   2.341   0.376  0.8185  0.1077  2.8634
 6206SOL     OW18743   4.755   5.971   3.931 -0.1600 -0.1587  0.5155
 6206SOL    HW118744   4.682   5.920   3.966 -1.0710 -0.5863 -1.6600
 6206SOL    HW218745   4.752   5.955   3.837  0.9779  2.0940 -0.0447
 6207SOL     OW18746   3.692   3.082   1.580 -0.0432  0.1583 -0.2653
 6207SOL    HW118747   3.643   3.129   1.647 -1.4712 -1.8525  0.3095
 6207SOL    HW218748   3.674   2.990   1.598  1.1817 -0.5883 -2.2198
 6208SOL     OW18749   0.744   3.244   2.696 -0.1123 -0.6101  0.8306
 6208SOL    HW118750   0.788   3.316   2.741 -0.3772 -0.2969  0.5897
 6208SOL    HW218751   0.707   3.191   2.767  1.1820 -1.2557  1.0990
 6209SOL     OW18752   5.610   0.083   3.111 -0.2432  0.6435  0.8043
 6209SOL    HW118753   5.642   0.096   3.200  0.8565  0.9620  0.3868
 6209SOL    HW218754   5.522   0.123   3.111 -0.5921 -0.0486  1.9240
 6210SOL     OW18755   3.631   2.120   2.276  0.0135  0.0506 -0.1370
 6210SOL    HW118756   3.620   2.025   2.275 -0.8852  0.1449 -0.8111
 6210SOL    HW218757   3.684   2.136   2.355  0.0142 -0.9782  0.1064
 6211SOL     OW18758   2.332   4.525   0.309 -0.0800  0.1032 -0.1733
 6211SOL    HW118759   2.329   4.585   0.235 -0.9617  0.4936  0.1562
 6211SOL    HW218760   2.243   4.525   0.345 -0.6854 -2.7245 -1.1520
 6212SOL     OW18761   2.518   0.967   2.428  0.1194 -0.4735 -0.2409
 6212SOL    HW118762   2.538   0.875   2.447  1.9980 -0.0634  0.1897
 6212SOL    HW218763   2.501   0.970   2.334 -2.6738 -1.5636  0.0462
 6213SOL     OW18764   5.564   5.304   3.260 -0.3366 -0.7283 -0.1390
 6213SOL    HW118765   5.544   5.287   3.352 -0.2313 -0.7280 -0.1151
 6213SOL    HW218766   5.582   5.218   3.222  0.5176 -0.6521  0.0597
 6214SOL     OW18767   5.127   4.355   0.502  0.1890  0.0617 -0.0278
 6214SOL    HW118768   5.142   4.262   0.491 -1.1959 -0.4631  1.6317
 6214SOL    HW218769   5.208   4.396   0.473  1.5819 -1.7890  0.8477
 6215SOL     OW18770   3.027   4.221   2.548  0.6655  0.1082  0.0914
 6215SOL    HW118771   3.066   4.259   2.626  2.3455  0.9232 -1.0348
 6215SOL    HW218772   3.095   4.165   2.511  0.4563  0.7634 -1.4418
 6216SOL     OW18773   3.774   4.724   3.566 -0.4004 -0.1521  0.2589
 6216SOL    HW118774   3.750   4.667   3.639  0.6004  0.9324  1.5173
 6216SOL    HW218775   3.735   4.681   3.489 -2.2113 -0.9404  1.4788
 6217SOL     OW18776   3.928   3.396   2.921  0.2260 -0.1849 -0.1737
 6217SOL    HW118777   3.854   3.426   2.869  0.5153  2.1246  0.5317
 6217SOL    HW218778   4.003   3.402   2.861  0.1597 -0.5366 -0.3020
 6218SOL     OW18779   1.378   5.684   4.155 -0.0653 -0.7154 -0.3822
 6218SOL    HW118780   1.321   5.760   4.162 -0.2333 -0.8086 -0.7245
 6218SOL    HW218781   1.343   5.621   4.218  0.5386 -0.2309  0.4883
 6219SOL     OW18782   1.468   3.230   0.219  0.0642 -0.0488  0.3255
 6219SOL    HW118783   1.484   3.266   0.307  0.3529 -1.8040  1.0825
 6219SOL    HW218784   1.555   3.219   0.182  0.2776 -2.0617  1.1342
 6220SOL     OW18785   3.221   2.218   3.117  0.3724 -0.0288 -0.4275
 6220SOL    HW118786   3.136   2.230   3.075  1.1357  0.1736 -2.0632
 6220SOL    HW218787   3.258   2.306   3.123  0.5976 -0.1480 -0.0277
 6221SOL     OW18788   4.196   5.998   2.231 -0.5381 -0.6847  0.4251
 6221SOL    HW118789   4.276   6.029   2.273 -0.6257 -0.4354  0.4098
 6221SOL    HW218790   4.132   6.068   2.246 -0.9212 -1.1267  0.9484
 6222SOL     OW18791   2.012   0.423   0.180 -0.7097 -0.4105  0.4106
 6222SOL    HW118792   1.986   0.401   0.090 -0.1841  0.1040  0.1126
 6222SOL    HW218793   2.082   0.361   0.201  1.6952  1.4471 -0.9034
 6223SOL     OW18794   4.945   3.955   1.789 -0.2174  0.4533 -0.2255
 6223SOL    HW118795   4.876   3.979   1.728 -1.3986  1.5074  1.3808
 6223SOL    HW218796   5.026   3.973   1.741 -1.0202  0.1816 -1.8163
 6224SOL     OW18797   6.046   3.262   3.939 -0.3732  0.1406 -0.1761
 6224SOL    HW118798   5.967   3.209   3.942 -1.1401  1.2276  0.8862
 6224SOL    HW218799   6.080   3.261   4.029 -0.7558  1.8183  0.0591
 6225SOL     OW18800   1.744   4.519   0.261  0.3631 -0.3551 -0.4037
 6225SOL    HW118801   1.738   4.535   0.167  2.6836 -1.6569 -0.9318
 6225SOL    HW218802   1.763   4.425   0.268 -0.5617 -0.4853  1.4669
 6226SOL     OW18803   2.899   1.088   2.440 -0.3123 -0.6547 -0.8347
 6226SOL    HW118804   2.835   1.059   2.505  1.2308 -1.7531  0.3271
 6226SOL    HW218805   2.966   1.135   2.490  0.6249 -0.9868 -1.7031
 6227SOL     OW18806   1.053   4.714   3.749 -0.6410 -0.3167  0.1786
 6227SOL    HW118807   1.080   4.652   3.817  0.1466 -0.1261  0.0601
 6227SOL    HW218808   1.083   4.799   3.780  0.6236 -0.3423 -0.8014
 6228SOL     OW18809   4.142   0.959   3.236  0.0476 -0.2660  0.0489
 6228SOL    HW118810   4.201   0.991   3.168 -0.7225 -0.5435 -0.7871
 6228SOL    HW218811   4.077   1.028   3.246  0.2160 -0.1764  0.6055
 6229SOL     OW18812   0.992   3.194   2.494  0.1589 -0.6245 -1.4345
 6229SOL    HW118813   1.023   3.152   2.575  1.3360 -0.5393 -1.7974
 6229SOL    HW218814   1.045   3.153   2.425 -1.7798 -1.7683 -2.4210
 6230SOL     OW18815   0.308   3.540   3.871 -0.6091  0.1995 -0.3710
 6230SOL    HW118816   0.216   3.519   3.859 -1.4729  1.6723  2.2285
 6230SOL    HW218817   0.310   3.634   3.886  1.0671  0.0477  1.0252
 6231SOL     OW18818   4.448   2.408   3.475 -0.2009  0.0761 -0.2117
 6231SOL    HW118819   4.401   2.454   3.405 -0.4215  0.4472  0.1661
 6231SOL    HW218820   4.419   2.452   3.555 -0.5480 -0.8312  0.1866
 6232SOL     OW18821   0.528   1.184   0.306 -0.1335  0.7778 -0.3970
 6232SOL    HW118822   0.451   1.175   0.362  0.7850  0.4209  0.9062
 6232SOL    HW218823   0.531   1.277   0.284 -1.4326  0.6488 -1.2971
 6233SOL     OW18824   5.590   5.975   3.007  0.2922 -0.1495  0.3648
 6233SOL    HW118825   5.602   5.883   3.030  0.1757  0.2681  2.4756
 6233SOL    HW218826   5.517   5.975   2.945  0.4279 -1.4686  0.1502
 6234SOL     OW18827   5.673   4.070   3.103 -0.3496 -0.3441  0.1621
 6234SOL    HW118828   5.648   4.006   3.036 -0.8751  1.0053 -1.0472
 6234SOL    HW218829   5.742   4.027   3.153 -1.1747 -2.1072 -0.0581
 6235SOL     OW18830   1.017   1.927   3.373 -0.1181 -0.1815 -0.0560
 6235SOL    HW118831   0.944   1.987   3.385  0.1264  0.0414  0.3829
 6235SOL    HW218832   1.086   1.981   3.334  0.1093 -0.1656  0.3574
 6236SOL     OW18833   1.917   2.679   1.259 -0.0233  0.0423  0.1409
 6236SOL    HW118834   1.978   2.659   1.330 -2.1514 -1.3638  1.8456
 6236SOL    HW218835   1.968   2.731   1.197  2.8114 -0.9465  1.3192
 6237SOL     OW18836   1.418   5.497   3.976  0.2577 -0.2344 -0.2572
 6237SOL    HW118837   1.333   5.473   3.937  0.0999 -1.4678  0.7186
 6237SOL    HW218838   1.400   5.579   4.023 -0.8272 -1.1385  1.0633
 6238SOL     OW18839   2.155   2.160   1.928  0.1044  0.0473 -0.2223
 6238SOL    HW118840   2.067   2.122   1.927 -0.7558  1.8138 -0.1213
 6238SOL    HW218841   2.202   2.114   1.858 -0.2971 -2.0717  0.7584
 6239SOL     OW18842   3.393   0.758   0.817 -0.0051 -0.2979  0.4535
 6239SOL    HW118843   3.410   0.713   0.735  0.6666 -0.5425  0.7112
 6239SOL    HW218844   3.304   0.732   0.840  0.6438 -2.3893  1.0905
 6240SOL     OW18845   2.554   5.721   3.823 -0.3791 -0.1825 -0.0227
 6240SOL    HW118846   2.634   5.690   3.780 -0.2468 -0.5169  0.4516
 6240SOL    HW218847   2.485   5.705   3.759 -0.4644 -2.2376  0.4276
 6241SOL     OW18848   1.948   0.682   1.830 -0.3130  0.6816  0.4139
 6241SOL    HW118849   1.888   0.752   1.854 -0.2694  0.8614  0.0123
 6241SOL    HW218850   1.893   0.616   1.789 -0.4672  0.1485  1.4057
 6242SOL     OW18851   3.178   0.535   2.774 -0.0200 -0.3772 -0.1840
 6242SOL    HW118852   3.218   0.448   2.782  1.0872  0.0933 -0.1289
 6242SOL    HW218853   3.252   0.595   2.780 -0.5483  0.5324 -1.7489
 6243SOL     OW18854   1.990   4.271   0.823 -0.3635  0.2330 -0.2724
 6243SOL    HW118855   1.988   4.305   0.733  0.9119 -2.5642 -1.6229
 6243SOL    HW218856   2.044   4.333   0.871 -0.7193  1.6181 -1.5319
 6244SOL     OW18857   3.098   5.349   0.542 -0.0251  0.5279  0.3126
 6244SOL    HW118858   3.122   5.303   0.622  0.5505  2.1307  1.1568
 6244SOL    HW218859   3.167   5.326   0.480 -0.2155 -0.3686  0.4102
 6245SOL     OW18860   2.718   0.706   4.518 -0.2211  0.5767 -0.4392
 6245SOL    HW118861   2.776   0.755   4.460  0.6804 -2.3826 -2.5172
 6245SOL    HW218862   2.775   0.641   4.559 -1.4225  0.5218  1.3663
 6246SOL     OW18863   5.461   1.380   3.237 -0.1404 -0.4192 -0.1098
 6246SOL    HW118864   5.533   1.374   3.173 -1.4105 -0.5134 -1.6750
 6246SOL    HW218865   5.503   1.368   3.322  1.9547  1.4555 -0.7002
 6247SOL     OW18866   2.522   2.959   2.004 -0.5702  0.6485 -0.4716
 6247SOL    HW118867   2.594   3.022   2.001  1.1573 -1.0368  0.7916
 6247SOL    HW218868   2.506   2.936   1.913 -0.0614  1.6245 -0.8360
 6248SOL     OW18869   1.268   4.084   0.011 -0.1328  0.2591 -0.3894
 6248SOL    HW118870   1.226   4.157  -0.035 -0.1596  1.4847  1.3861
 6248SOL    HW218871   1.361   4.107   0.015 -0.3205  1.0584  1.4019
 6249SOL     OW18872   1.657   1.584   3.937 -0.5557 -0.7258  0.6173
 6249SOL    HW118873   1.641   1.490   3.925 -0.1999 -0.7603  0.3888
 6249SOL    HW218874   1.582   1.614   3.988 -1.0022 -1.0056  0.1362
 6250SOL     OW18875   3.687   4.529   3.390 -0.2031 -0.1810 -0.0635
 6250SOL    HW118876   3.744   4.486   3.327  2.3709  0.2482  1.6593
 6250SOL    HW218877   3.622   4.463   3.412  0.7627 -1.4975 -0.8545
 6251SOL     OW18878   4.680   3.637   3.410 -0.7136 -0.3449 -0.4998
 6251SOL    HW118879   4.770   3.658   3.434 -1.4812  1.4210  1.4750
 6251SOL    HW218880   4.662   3.693   3.334 -0.2999 -0.2832 -0.5553
 6252SOL     OW18881   1.927   4.055   0.453 -0.2194  0.2073 -0.1468
 6252SOL    HW118882   1.892   4.041   0.365  1.3676  0.6930 -0.9313
 6252SOL    HW218883   1.885   4.136   0.482 -0.8549 -0.0223 -0.3826
 6253SOL     OW18884   2.913   3.190   3.128  0.0978  0.8013  0.0740
 6253SOL    HW118885   2.931   3.204   3.220 -0.7130  2.5807  0.0449
 6253SOL    HW218886   2.999   3.179   3.087  0.4778 -2.1121  1.1537
 6254SOL     OW18887   0.855   4.339   2.202  0.0397 -0.1890  0.3971
 6254SOL    HW118888   0.768   4.376   2.188  1.1010  2.8763  0.2938
 6254SOL    HW218889   0.902   4.354   2.120  1.3384  0.9253  1.2392
 6255SOL     OW18890   2.147   3.083   1.310  0.0157 -0.2963  0.2318
 6255SOL    HW118891   2.055   3.059   1.319  0.3104 -1.2697  1.0122
 6255SOL    HW218892   2.146   3.177   1.288 -1.1507 -0.3805 -0.2078
 6256SOL     OW18893   0.755   5.504   3.242  0.1527  0.2442 -0.2473
 6256SOL    HW118894   0.792   5.522   3.156  0.3840  1.3843  0.0526
 6256SOL    HW218895   0.708   5.422   3.232  0.8461 -0.0614 -1.2438
 6257SOL     OW18896   6.020   3.970   1.798  0.2286 -0.0504 -0.9981
 6257SOL    HW118897   6.023   3.927   1.713  0.5738 -0.0694 -0.9792
 6257SOL    HW218898   5.931   3.957   1.828  0.4523 -1.2425 -0.7454
 6258SOL     OW18899   4.938   2.190   1.924  0.5792 -0.0655 -0.0228
 6258SOL    HW118900   4.879   2.265   1.915  1.3269  0.6905  0.9417
 6258SOL    HW218901   4.880   2.118   1.951 -0.0444  0.3774 -0.1210
 6259SOL     OW18902   1.457   4.528   2.721  0.3830 -0.2273  0.0341
 6259SOL    HW118903   1.461   4.581   2.800  1.3285 -0.5620  0.2346
 6259SOL    HW218904   1.477   4.589   2.650 -0.8180  0.1519 -0.0193
 6260SOL     OW18905   1.862   5.305   2.448  0.0212 -0.2408  0.0894
 6260SOL    HW118906   1.827   5.232   2.397 -1.4133 -0.4867  1.2776
 6260SOL    HW218907   1.954   5.283   2.462  0.3129 -0.4909 -1.7100
 6261SOL     OW18908   4.551   2.147   1.302  0.4864 -0.0297  0.6039
 6261SOL    HW118909   4.594   2.231   1.313 -0.0110  0.2892  0.1994
 6261SOL    HW218910   4.501   2.156   1.221  3.2629 -1.9107 -1.7388
 6262NA      NA18911   3.752   2.226   4.195  0.0650  0.2470 -0.0333
 6263NA      NA18912   2.795   2.158   3.116 -0.2785 -0.2780 -0.0008
 6264NA      NA18913   6.204   1.498   1.981  0.0752  0.2014 -0.2013
 6265NA      NA18914   4.812   0.039   1.872  0.1470 -0.3386 -0.1184
 6266NA      NA18915   5.708   5.594   2.528 -0.1846  0.4522  0.2160
 6267NA      NA18916   1.219   6.204   2.676 -0.0819 -0.3964  0.2322
 6268NA      NA18917   5.223   1.845   0.624 -0.2202 -0.3884  0.0864
 6269NA      NA18918   4.695   6.381   4.044 -0.8074 -0.0579 -0.0915
 6270NA      NA18919   1.794   3.362   4.532  0.5129  0.2024  0.1181
 6271NA      NA18920   1.170   2.392   2.443 -0.3423  0.6020 -0.1495
 6272NA      NA18921   2.734   0.290   4.318  0.1251  0.3075  0.4027
 6273NA      NA18922   4.530   3.618   3.585 -0.2410 -0.0717 -0.2902
 6274NA      NA18923   0.520   6.006   1.586 -0.0890  0.1811 -0.3099
 6275NA      NA18924   1.904   5.405   4.293  0.1578  0.2178 -0.0732
 6276NA      NA18925   1.705   2.249   1.520 -0.2154  0.1121 -0.0148
 6277NA      NA18926   1.472   1.746   2.385 -0.0532 -0.0789 -0.3645
 6278NA      NA18927   2.998   4.393   0.670 -0.0713 -0.4190  0.5603
 6279NA      NA18928   1.050   1.006   0.475  0.1676  0.0989  0.2175
 6280CL      CL18929   5.045   0.980   3.306 -0.1665 -0.3366 -0.2325
 6281CL      CL18930   3.449   0.683   3.911 -0.3242  0.5942 -0.1119
 6282CL      CL18931   1.835   3.608   1.637 -0.3828  0.3796 -0.0940
 6283CL      CL18932   5.039   3.904   2.823 -0.2208 -0.4001 -0.0516
 6284CL      CL18933   5.239   5.861   1.212 -0.1073 -0.2056 -0.1768
 6285CL      CL18934   6.132   4.139   3.895  0.0033 -0.0065 -0.1323
 6286CL      CL18935   1.996   3.657   0.219  0.2445 -0.3993 -0.3149
 6287CL      CL18936   6.092   5.698   1.694  0.4054 -0.0448 -0.0639
 6288CL      CL18937   2.317   0.389   3.294 -0.5239  0.1642  0.1308
 6289CL      CL18938   1.577   5.549   0.883  0.1264  0.1577  0.2379
 6290CL      CL18939   6.081   6.159   2.397  0.2826 -0.1409 -0.2629
 6291CL      CL18940   0.468   4.896   0.707  0.0849 -0.4356 -0.1386
 6292CL      CL18941   0.078   1.833   1.779 -0.2917  0.1575  0.1697
 6293CL      CL18942   2.108   3.323   4.258  0.0315  0.0341 -0.0550
 6294CL      CL18943   2.827   0.667   2.510  0.3380  0.1315  0.2462
 6295CL      CL18944   2.362   2.861   3.817  0.1008 -0.0272  0.1868
 6296CL      CL18945   1.530   2.086   4.275 -0.0903  0.2383 -0.0631
 6297CL      CL18946   6.248   1.672   2.958  0.2869 -0.2162 -0.2927
   6.41616   6.41616   4.53691   0.00000   0.00000   0.00000   0.00000   3.20807   3.20807
