;	Created by:
;	                    :-) GROMACS - gmx pdb2gmx, 2023.2 (-:
;	Command line:
;	  gmx_mpi pdb2gmx -f nup98_12mer_chimera.pdb -o nup98_12mer.gro -p nup98_12mer.top -i nup98_12mer_posre.itp -water tip3p -ignh -ter -v -vsite hydrogens -ff charmm36-nov2018

; Include forcefield parameters
#include "charmm36-nov2018.ff/forcefield.itp"

[ moleculetype ]
; Name            nrexcl
Protein_chain_A     3

[ atoms ]
;   nr       type  resnr residue  atom   cgnr     charge       mass  typeB    chargeB      massB
; residue   1 GLY rtp GLY  q  0.0
     1        NH2      1    GLY      N      1      -0.96     16.023
     2          H      1    GLY     H1      2       0.34          0
     3          H      1    GLY     H2      3       0.34          0
     4        CT2      1    GLY     CA      4        0.1     14.027
     5        HB2      1    GLY    HA1      5       0.09          0
     6        HB2      1    GLY    HA2      6       0.09          0
     7          C      1    GLY      C      7       0.51     12.011
     8          O      1    GLY      O      8      -0.51     15.999   ; qtot 0
; residue   2 GLY rtp GLY  q  0.0
     9        NH1      2    GLY      N      9      -0.47     15.015
    10          H      2    GLY     HN     10       0.31          0
    11        CT2      2    GLY     CA     11      -0.02     14.027
    12        HB2      2    GLY    HA1     12       0.09          0
    13        HB2      2    GLY    HA2     13       0.09          0
    14          C      2    GLY      C     14       0.51     12.011
    15          O      2    GLY      O     15      -0.51     15.999   ; qtot 0
; residue   3 LEU rtp LEU  q  0.0
    16        NH1      3    LEU      N     16      -0.47     15.015
    17          H      3    LEU     HN     17       0.31          0
    18        CT1      3    LEU     CA     18       0.07     13.019
    19        HB1      3    LEU     HA     19       0.09          0
    20        CT2      3    LEU     CB     20      -0.18     14.027
    21        HA2      3    LEU    HB1     21       0.09          0
    22        HA2      3    LEU    HB2     22       0.09          0
    23        CT1      3    LEU     CG     23      -0.09     13.019
    24        HA1      3    LEU     HG     24       0.09          0
    25       MCH3      3    LEU   MCD1     25          0     7.5175
    26       MCH3      3    LEU   MCD2     25          0     7.5175
    27        CT3      3    LEU    CD1     25      -0.27          0
    28        HA3      3    LEU   HD11     26       0.09          0
    29        HA3      3    LEU   HD12     27       0.09          0
    30        HA3      3    LEU   HD13     28       0.09          0
    31       MCH3      3    LEU   MCD1     29          0     7.5175
    32       MCH3      3    LEU   MCD2     29          0     7.5175
    33        CT3      3    LEU    CD2     29      -0.27          0
    34        HA3      3    LEU   HD21     30       0.09          0
    35        HA3      3    LEU   HD22     31       0.09          0
    36        HA3      3    LEU   HD23     32       0.09          0
    37          C      3    LEU      C     33       0.51     12.011
    38          O      3    LEU      O     34      -0.51     15.999   ; qtot 0
; residue   4 PHE rtp PHE  q  0.0
    39        NH1      4    PHE      N     35      -0.47     15.015
    40          H      4    PHE     HN     36       0.31          0
    41        CT1      4    PHE     CA     37       0.07     13.019
    42        HB1      4    PHE     HA     38       0.09          0
    43        CT2      4    PHE     CB     39      -0.18     14.027
    44        HA2      4    PHE    HB1     40       0.09          0
    45        HA2      4    PHE    HB2     41       0.09          0
    46         CA      4    PHE     CG     42          0     12.011
    47         CA      4    PHE    CD1     43     -0.115     13.019
    48         HP      4    PHE    HD1     44      0.115          0
    49         CA      4    PHE    CE1     45     -0.115     13.019
    50         HP      4    PHE    HE1     46      0.115          0
    51         CA      4    PHE     CZ     47     -0.115     13.019
    52         HP      4    PHE     HZ     48      0.115          0
    53         CA      4    PHE    CD2     49     -0.115     13.019
    54         HP      4    PHE    HD2     50      0.115          0
    55         CA      4    PHE    CE2     51     -0.115     13.019
    56         HP      4    PHE    HE2     52      0.115          0
    57          C      4    PHE      C     53       0.51     12.011
    58          O      4    PHE      O     54      -0.51     15.999   ; qtot 0
; residue   5 GLY rtp GLY  q  0.0
    59        NH1      5    GLY      N     55      -0.47     15.015
    60          H      5    GLY     HN     56       0.31          0
    61        CT2      5    GLY     CA     57      -0.02     14.027
    62        HB2      5    GLY    HA1     58       0.09          0
    63        HB2      5    GLY    HA2     59       0.09          0
    64          C      5    GLY      C     60       0.51     12.011
    65          O      5    GLY      O     61      -0.51     15.999   ; qtot 0
; residue   6 GLY rtp GLY  q  0.0
    66        NH1      6    GLY      N     62      -0.47     15.015
    67          H      6    GLY     HN     63       0.31          0
    68        CT2      6    GLY     CA     64      -0.02     14.027
    69        HB2      6    GLY    HA1     65       0.09          0
    70        HB2      6    GLY    HA2     66       0.09          0
    71          C      6    GLY      C     67       0.51     12.011
    72          O      6    GLY      O     68      -0.51     15.999   ; qtot 0
; residue   7 ASN rtp ASN  q  0.0
    73        NH1      7    ASN      N     69      -0.47     15.015
    74          H      7    ASN     HN     70       0.31          0
    75        CT1      7    ASN     CA     71       0.07     13.019
    76        HB1      7    ASN     HA     72       0.09          0
    77        CT2      7    ASN     CB     73      -0.18     14.027
    78        HA2      7    ASN    HB1     74       0.09          0
    79        HA2      7    ASN    HB2     75       0.09          0
    80         CC      7    ASN     CG     76       0.55     12.011
    81          O      7    ASN    OD1     77      -0.55     15.999
    82        NH2      7    ASN    ND2     78      -0.62     16.023
    83          H      7    ASN   HD21     79       0.32          0
    84          H      7    ASN   HD22     80        0.3          0
    85          C      7    ASN      C     81       0.51     12.011
    86          O      7    ASN      O     82      -0.51     15.999   ; qtot 0
; residue   8 THR rtp THR  q  0.0
    87        NH1      8    THR      N     83      -0.47     15.015
    88          H      8    THR     HN     84       0.31          0
    89        CT1      8    THR     CA     85       0.07     13.019
    90        HB1      8    THR     HA     86       0.09          0
    91        CT1      8    THR     CB     87       0.14     13.019
    92        HA1      8    THR     HB     88       0.09          0
    93        OH1      8    THR    OG1     89      -0.66     15.999
    94          H      8    THR    HG1     90       0.43      1.008
    95       MCH3      8    THR   MCG1     91          0     7.5175
    96       MCH3      8    THR   MCG2     91          0     7.5175
    97        CT3      8    THR    CG2     91      -0.27          0
    98        HA3      8    THR   HG21     92       0.09          0
    99        HA3      8    THR   HG22     93       0.09          0
   100        HA3      8    THR   HG23     94       0.09          0
   101          C      8    THR      C     95       0.51     12.011
   102          O      8    THR      O     96      -0.51     15.999   ; qtot 0
; residue   9 GLN rtp GLN  q  0.0
   103        NH1      9    GLN      N     97      -0.47     15.015
   104          H      9    GLN     HN     98       0.31          0
   105        CT1      9    GLN     CA     99       0.07     13.019
   106        HB1      9    GLN     HA    100       0.09          0
   107        CT2      9    GLN     CB    101      -0.18     14.027
   108        HA2      9    GLN    HB1    102       0.09          0
   109        HA2      9    GLN    HB2    103       0.09          0
   110        CT2      9    GLN     CG    104      -0.18     14.027
   111        HA2      9    GLN    HG1    105       0.09          0
   112        HA2      9    GLN    HG2    106       0.09          0
   113         CC      9    GLN     CD    107       0.55     12.011
   114          O      9    GLN    OE1    108      -0.55     15.999
   115        NH2      9    GLN    NE2    109      -0.62     16.023
   116          H      9    GLN   HE21    110       0.32          0
   117          H      9    GLN   HE22    111        0.3          0
   118          C      9    GLN      C    112       0.51     12.011
   119          O      9    GLN      O    113      -0.51     15.999   ; qtot 0
; residue  10 PRO rtp PRO  q  0.0
   120          N     10    PRO      N    114      -0.29     14.007
   121        CP3     10    PRO     CD    115          0     14.027
   122        HA2     10    PRO    HD1    116       0.09          0
   123        HA2     10    PRO    HD2    117       0.09          0
   124        CP1     10    PRO     CA    118       0.02     13.019
   125        HB1     10    PRO     HA    119       0.09          0
   126        CP2     10    PRO     CB    120      -0.18     14.027
   127        HA2     10    PRO    HB1    121       0.09          0
   128        HA2     10    PRO    HB2    122       0.09          0
   129        CP2     10    PRO     CG    123      -0.18     14.027
   130        HA2     10    PRO    HG1    124       0.09          0
   131        HA2     10    PRO    HG2    125       0.09          0
   132          C     10    PRO      C    126       0.51     12.011
   133          O     10    PRO      O    127      -0.51     15.999   ; qtot 0
; residue  11 ALA rtp ALA  q  0.0
   134        NH1     11    ALA      N    128      -0.47     15.015
   135          H     11    ALA     HN    129       0.31          0
   136        CT1     11    ALA     CA    130       0.07     13.019
   137        HB1     11    ALA     HA    131       0.09          0
   138       MCH3     11    ALA   MCB1    132          0     7.5175
   139       MCH3     11    ALA   MCB2    132          0     7.5175
   140        CT3     11    ALA     CB    132      -0.27          0
   141        HA3     11    ALA    HB1    133       0.09          0
   142        HA3     11    ALA    HB2    134       0.09          0
   143        HA3     11    ALA    HB3    135       0.09          0
   144          C     11    ALA      C    136       0.51     12.011
   145          O     11    ALA      O    137      -0.51     15.999   ; qtot 0
; residue  12 THR rtp THR  q  0.0
   146        NH1     12    THR      N    138      -0.47     15.015
   147          H     12    THR     HN    139       0.31          0
   148        CT1     12    THR     CA    140       0.07     13.019
   149        HB1     12    THR     HA    141       0.09          0
   150        CT1     12    THR     CB    142       0.14     13.019
   151        HA1     12    THR     HB    143       0.09          0
   152        OH1     12    THR    OG1    144      -0.66     15.999
   153          H     12    THR    HG1    145       0.43      1.008
   154       MCH3     12    THR   MCG1    146          0     7.5175
   155       MCH3     12    THR   MCG2    146          0     7.5175
   156        CT3     12    THR    CG2    146      -0.27          0
   157        HA3     12    THR   HG21    147       0.09          0
   158        HA3     12    THR   HG22    148       0.09          0
   159        HA3     12    THR   HG23    149       0.09          0
   160         CD     12    THR      C    150       0.72     12.011
   161         OB     12    THR    OT1    151      -0.55    15.9994
   162        OH1     12    THR    OT2    152      -0.61    15.9994
   163          H     12    THR    HT2    153       0.44      1.008   ; qtot 0

[ bonds ]
;  ai    aj funct            c0            c1            c2            c3
    1     2     1 
    1     3     1 
    1     4     1 
    4     5     1 
    4     6     1 
    4     7     1 
    7     8     1 
    7     9     1 
    9    10     1 
    9    11     1 
   11    12     1 
   11    13     1 
   11    14     1 
   14    15     1 
   14    16     1 
   16    17     1 
   16    18     1 
   18    19     1 
   18    20     1 
   18    37     1 
   20    21     1 
   20    22     1 
   20    23     1 
   23    24     1 
   23    27     1 
   23    33     1 
   27    28     1 
   27    29     1 
   27    30     1 
   33    34     1 
   33    35     1 
   33    36     1 
   37    38     1 
   37    39     1 
   39    40     1 
   39    41     1 
   41    42     1 
   41    43     1 
   41    57     1 
   43    44     1 
   43    45     1 
   43    46     1 
   46    47     1 
   46    53     1 
   47    48     1 
   47    49     1 
   49    50     1 
   49    51     1 
   51    52     1 
   51    55     1 
   53    54     1 
   53    55     1 
   55    56     1 
   57    58     1 
   57    59     1 
   59    60     1 
   59    61     1 
   61    62     1 
   61    63     1 
   61    64     1 
   64    65     1 
   64    66     1 
   66    67     1 
   66    68     1 
   68    69     1 
   68    70     1 
   68    71     1 
   71    72     1 
   71    73     1 
   73    74     1 
   73    75     1 
   75    76     1 
   75    77     1 
   75    85     1 
   77    78     1 
   77    79     1 
   77    80     1 
   80    81     1 
   80    82     1 
   82    83     1 
   82    84     1 
   85    86     1 
   85    87     1 
   87    88     1 
   87    89     1 
   89    90     1 
   89    91     1 
   89   101     1 
   91    92     1 
   91    93     1 
   91    97     1 
   93    94     1 
   97    98     1 
   97    99     1 
   97   100     1 
  101   102     1 
  101   103     1 
  103   104     1 
  103   105     1 
  105   106     1 
  105   107     1 
  105   118     1 
  107   108     1 
  107   109     1 
  107   110     1 
  110   111     1 
  110   112     1 
  110   113     1 
  113   114     1 
  113   115     1 
  115   116     1 
  115   117     1 
  118   119     1 
  118   120     1 
  120   121     1 
  120   124     1 
  121   122     1 
  121   123     1 
  121   129     1 
  124   125     1 
  124   126     1 
  124   132     1 
  126   127     1 
  126   128     1 
  126   129     1 
  129   130     1 
  129   131     1 
  132   133     1 
  132   134     1 
  134   135     1 
  134   136     1 
  136   137     1 
  136   140     1 
  136   144     1 
  140   141     1 
  140   142     1 
  140   143     1 
  144   145     1 
  144   146     1 
  146   147     1 
  146   148     1 
  148   149     1 
  148   150     1 
  148   160     1 
  150   151     1 
  150   152     1 
  150   156     1 
  152   153     1 
  156   157     1 
  156   158     1 
  156   159     1 
  160   161     1 
  160   162     1 
  162   163     1 

[ constraints ]
;  ai    aj funct            c0            c1
   23    25     2 
   23    26     2 
   25    26     2 
   23    31     2 
   23    32     2 
   31    32     2 
   91    94     2 
   91    95     2 
   91    96     2 
   95    96     2 
  136   138     2 
  136   139     2 
  138   139     2 
  150   153     2 
  150   154     2 
  150   155     2 
  154   155     2 
  160   163     2 

[ pairs ]
;  ai    aj funct            c0            c1            c2            c3
    1     8     1 
    1     9     1 
    2     5     1 
    2     6     1 
    2     7     1 
    3     5     1 
    3     6     1 
    3     7     1 
    4    10     1 
    4    11     1 
    5     8     1 
    5     9     1 
    6     8     1 
    6     9     1 
    7    12     1 
    7    13     1 
    7    14     1 
    8    10     1 
    8    11     1 
    9    15     1 
    9    16     1 
   10    12     1 
   10    13     1 
   10    14     1 
   11    17     1 
   11    18     1 
   12    15     1 
   12    16     1 
   13    15     1 
   13    16     1 
   14    19     1 
   14    20     1 
   14    37     1 
   15    17     1 
   15    18     1 
   16    21     1 
   16    22     1 
   16    23     1 
   16    38     1 
   16    39     1 
   17    19     1 
   17    20     1 
   17    37     1 
   18    24     1 
   18    27     1 
   18    33     1 
   18    40     1 
   18    41     1 
   19    21     1 
   19    22     1 
   19    23     1 
   19    38     1 
   19    39     1 
   20    28     1 
   20    29     1 
   20    30     1 
   20    34     1 
   20    35     1 
   20    36     1 
   20    38     1 
   20    39     1 
   21    24     1 
   21    27     1 
   21    33     1 
   21    37     1 
   22    24     1 
   22    27     1 
   22    33     1 
   22    37     1 
   23    37     1 
   24    28     1 
   24    29     1 
   24    30     1 
   24    34     1 
   24    35     1 
   24    36     1 
   27    34     1 
   27    35     1 
   27    36     1 
   28    33     1 
   29    33     1 
   30    33     1 
   37    42     1 
   37    43     1 
   37    57     1 
   38    40     1 
   38    41     1 
   39    44     1 
   39    45     1 
   39    46     1 
   39    58     1 
   39    59     1 
   40    42     1 
   40    43     1 
   40    57     1 
   41    47     1 
   41    53     1 
   41    60     1 
   41    61     1 
   42    44     1 
   42    45     1 
   42    46     1 
   42    58     1 
   42    59     1 
   43    48     1 
   43    49     1 
   43    54     1 
   43    55     1 
   43    58     1 
   43    59     1 
   44    47     1 
   44    53     1 
   44    57     1 
   45    47     1 
   45    53     1 
   45    57     1 
   46    50     1 
   46    51     1 
   46    56     1 
   46    57     1 
   47    52     1 
   47    54     1 
   47    55     1 
   48    50     1 
   48    51     1 
   48    53     1 
   49    53     1 
   49    56     1 
   50    52     1 
   50    55     1 
   51    54     1 
   52    53     1 
   52    56     1 
   54    56     1 
   57    62     1 
   57    63     1 
   57    64     1 
   58    60     1 
   58    61     1 
   59    65     1 
   59    66     1 
   60    62     1 
   60    63     1 
   60    64     1 
   61    67     1 
   61    68     1 
   62    65     1 
   62    66     1 
   63    65     1 
   63    66     1 
   64    69     1 
   64    70     1 
   64    71     1 
   65    67     1 
   65    68     1 
   66    72     1 
   66    73     1 
   67    69     1 
   67    70     1 
   67    71     1 
   68    74     1 
   68    75     1 
   69    72     1 
   69    73     1 
   70    72     1 
   70    73     1 
   71    76     1 
   71    77     1 
   71    85     1 
   72    74     1 
   72    75     1 
   73    78     1 
   73    79     1 
   73    80     1 
   73    86     1 
   73    87     1 
   74    76     1 
   74    77     1 
   74    85     1 
   75    81     1 
   75    82     1 
   75    88     1 
   75    89     1 
   76    78     1 
   76    79     1 
   76    80     1 
   76    86     1 
   76    87     1 
   77    83     1 
   77    84     1 
   77    86     1 
   77    87     1 
   78    81     1 
   78    82     1 
   78    85     1 
   79    81     1 
   79    82     1 
   79    85     1 
   80    85     1 
   81    83     1 
   81    84     1 
   85    90     1 
   85    91     1 
   85   101     1 
   86    88     1 
   86    89     1 
   87    92     1 
   87    93     1 
   87    97     1 
   87   102     1 
   87   103     1 
   88    90     1 
   88    91     1 
   88   101     1 
   89    94     1 
   89    98     1 
   89    99     1 
   89   100     1 
   89   104     1 
   89   105     1 
   90    92     1 
   90    93     1 
   90    97     1 
   90   102     1 
   90   103     1 
   91   102     1 
   91   103     1 
   92    94     1 
   92    98     1 
   92    99     1 
   92   100     1 
   92   101     1 
   93    98     1 
   93    99     1 
   93   100     1 
   93   101     1 
   94    97     1 
   97   101     1 
  101   106     1 
  101   107     1 
  101   118     1 
  102   104     1 
  102   105     1 
  103   108     1 
  103   109     1 
  103   110     1 
  103   119     1 
  103   120     1 
  104   106     1 
  104   107     1 
  104   118     1 
  105   111     1 
  105   112     1 
  105   113     1 
  105   121     1 
  105   124     1 
  106   108     1 
  106   109     1 
  106   110     1 
  106   119     1 
  106   120     1 
  107   114     1 
  107   115     1 
  107   119     1 
  107   120     1 
  108   111     1 
  108   112     1 
  108   113     1 
  108   118     1 
  109   111     1 
  109   112     1 
  109   113     1 
  109   118     1 
  110   116     1 
  110   117     1 
  110   118     1 
  111   114     1 
  111   115     1 
  112   114     1 
  112   115     1 
  114   116     1 
  114   117     1 
  118   122     1 
  118   123     1 
  118   125     1 
  118   126     1 
  118   129     1 
  118   132     1 
  119   121     1 
  119   124     1 
  120   127     1 
  120   128     1 
  120   130     1 
  120   131     1 
  120   133     1 
  120   134     1 
  121   125     1 
  121   127     1 
  121   128     1 
  121   132     1 
  122   124     1 
  122   126     1 
  122   130     1 
  122   131     1 
  123   124     1 
  123   126     1 
  123   130     1 
  123   131     1 
  124   130     1 
  124   131     1 
  124   135     1 
  124   136     1 
  125   127     1 
  125   128     1 
  125   129     1 
  125   133     1 
  125   134     1 
  126   133     1 
  126   134     1 
  127   130     1 
  127   131     1 
  127   132     1 
  128   130     1 
  128   131     1 
  128   132     1 
  129   132     1 
  132   137     1 
  132   140     1 
  132   144     1 
  133   135     1 
  133   136     1 
  134   141     1 
  134   142     1 
  134   143     1 
  134   145     1 
  134   146     1 
  135   137     1 
  135   140     1 
  135   144     1 
  136   147     1 
  136   148     1 
  137   141     1 
  137   142     1 
  137   143     1 
  137   145     1 
  137   146     1 
  140   145     1 
  140   146     1 
  141   144     1 
  142   144     1 
  143   144     1 
  144   149     1 
  144   150     1 
  144   160     1 
  145   147     1 
  145   148     1 
  146   151     1 
  146   152     1 
  146   156     1 
  146   161     1 
  146   162     1 
  147   149     1 
  147   150     1 
  147   160     1 
  148   153     1 
  148   157     1 
  148   158     1 
  148   159     1 
  148   163     1 
  149   151     1 
  149   152     1 
  149   156     1 
  149   161     1 
  149   162     1 
  150   161     1 
  150   162     1 
  151   153     1 
  151   157     1 
  151   158     1 
  151   159     1 
  151   160     1 
  152   157     1 
  152   158     1 
  152   159     1 
  152   160     1 
  153   156     1 
  156   160     1 
  161   163     1 

[ angles ]
;  ai    aj    ak funct            c0            c1            c2            c3
    2     1     3     5 
    2     1     4     5 
    3     1     4     5 
    1     4     5     5 
    1     4     6     5 
    1     4     7     5 
    5     4     6     5 
    5     4     7     5 
    6     4     7     5 
    4     7     8     5 
    4     7     9     5 
    8     7     9     5 
    7     9    10     5 
    7     9    11     5 
   10     9    11     5 
    9    11    12     5 
    9    11    13     5 
    9    11    14     5 
   12    11    13     5 
   12    11    14     5 
   13    11    14     5 
   11    14    15     5 
   11    14    16     5 
   15    14    16     5 
   14    16    17     5 
   14    16    18     5 
   17    16    18     5 
   16    18    19     5 
   16    18    20     5 
   16    18    37     5 
   19    18    20     5 
   19    18    37     5 
   20    18    37     5 
   18    20    21     5 
   18    20    22     5 
   18    20    23     5 
   21    20    22     5 
   21    20    23     5 
   22    20    23     5 
   20    23    24     5 
   20    23    27     5 
   20    23    33     5 
   24    23    27     5 
   24    23    33     5 
   27    23    33     5 
   23    27    28     5 
   23    27    29     5 
   23    27    30     5 
   28    27    29     5 
   28    27    30     5 
   29    27    30     5 
   23    33    34     5 
   23    33    35     5 
   23    33    36     5 
   34    33    35     5 
   34    33    36     5 
   35    33    36     5 
   18    37    38     5 
   18    37    39     5 
   38    37    39     5 
   37    39    40     5 
   37    39    41     5 
   40    39    41     5 
   39    41    42     5 
   39    41    43     5 
   39    41    57     5 
   42    41    43     5 
   42    41    57     5 
   43    41    57     5 
   41    43    44     5 
   41    43    45     5 
   41    43    46     5 
   44    43    45     5 
   44    43    46     5 
   45    43    46     5 
   43    46    47     5 
   43    46    53     5 
   47    46    53     5 
   46    47    48     5 
   46    47    49     5 
   48    47    49     5 
   47    49    50     5 
   47    49    51     5 
   50    49    51     5 
   49    51    52     5 
   49    51    55     5 
   52    51    55     5 
   46    53    54     5 
   46    53    55     5 
   54    53    55     5 
   51    55    53     5 
   51    55    56     5 
   53    55    56     5 
   41    57    58     5 
   41    57    59     5 
   58    57    59     5 
   57    59    60     5 
   57    59    61     5 
   60    59    61     5 
   59    61    62     5 
   59    61    63     5 
   59    61    64     5 
   62    61    63     5 
   62    61    64     5 
   63    61    64     5 
   61    64    65     5 
   61    64    66     5 
   65    64    66     5 
   64    66    67     5 
   64    66    68     5 
   67    66    68     5 
   66    68    69     5 
   66    68    70     5 
   66    68    71     5 
   69    68    70     5 
   69    68    71     5 
   70    68    71     5 
   68    71    72     5 
   68    71    73     5 
   72    71    73     5 
   71    73    74     5 
   71    73    75     5 
   74    73    75     5 
   73    75    76     5 
   73    75    77     5 
   73    75    85     5 
   76    75    77     5 
   76    75    85     5 
   77    75    85     5 
   75    77    78     5 
   75    77    79     5 
   75    77    80     5 
   78    77    79     5 
   78    77    80     5 
   79    77    80     5 
   77    80    81     5 
   77    80    82     5 
   81    80    82     5 
   80    82    83     5 
   80    82    84     5 
   83    82    84     5 
   75    85    86     5 
   75    85    87     5 
   86    85    87     5 
   85    87    88     5 
   85    87    89     5 
   88    87    89     5 
   87    89    90     5 
   87    89    91     5 
   87    89   101     5 
   90    89    91     5 
   90    89   101     5 
   91    89   101     5 
   89    91    92     5 
   89    91    93     5 
   89    91    97     5 
   92    91    93     5 
   92    91    97     5 
   93    91    97     5 
   91    93    94     5 
   91    97    98     5 
   91    97    99     5 
   91    97   100     5 
   98    97    99     5 
   98    97   100     5 
   99    97   100     5 
   89   101   102     5 
   89   101   103     5 
  102   101   103     5 
  101   103   104     5 
  101   103   105     5 
  104   103   105     5 
  103   105   106     5 
  103   105   107     5 
  103   105   118     5 
  106   105   107     5 
  106   105   118     5 
  107   105   118     5 
  105   107   108     5 
  105   107   109     5 
  105   107   110     5 
  108   107   109     5 
  108   107   110     5 
  109   107   110     5 
  107   110   111     5 
  107   110   112     5 
  107   110   113     5 
  111   110   112     5 
  111   110   113     5 
  112   110   113     5 
  110   113   114     5 
  110   113   115     5 
  114   113   115     5 
  113   115   116     5 
  113   115   117     5 
  116   115   117     5 
  105   118   119     5 
  105   118   120     5 
  119   118   120     5 
  118   120   121     5 
  118   120   124     5 
  121   120   124     5 
  120   121   122     5 
  120   121   123     5 
  120   121   129     5 
  122   121   123     5 
  122   121   129     5 
  123   121   129     5 
  120   124   125     5 
  120   124   126     5 
  120   124   132     5 
  125   124   126     5 
  125   124   132     5 
  126   124   132     5 
  124   126   127     5 
  124   126   128     5 
  124   126   129     5 
  127   126   128     5 
  127   126   129     5 
  128   126   129     5 
  121   129   126     5 
  121   129   130     5 
  121   129   131     5 
  126   129   130     5 
  126   129   131     5 
  130   129   131     5 
  124   132   133     5 
  124   132   134     5 
  133   132   134     5 
  132   134   135     5 
  132   134   136     5 
  135   134   136     5 
  134   136   137     5 
  134   136   140     5 
  134   136   144     5 
  137   136   140     5 
  137   136   144     5 
  140   136   144     5 
  136   140   141     5 
  136   140   142     5 
  136   140   143     5 
  141   140   142     5 
  141   140   143     5 
  142   140   143     5 
  136   144   145     5 
  136   144   146     5 
  145   144   146     5 
  144   146   147     5 
  144   146   148     5 
  147   146   148     5 
  146   148   149     5 
  146   148   150     5 
  146   148   160     5 
  149   148   150     5 
  149   148   160     5 
  150   148   160     5 
  148   150   151     5 
  148   150   152     5 
  148   150   156     5 
  151   150   152     5 
  151   150   156     5 
  152   150   156     5 
  150   152   153     5 
  150   156   157     5 
  150   156   158     5 
  150   156   159     5 
  157   156   158     5 
  157   156   159     5 
  158   156   159     5 
  148   160   161     5 
  148   160   162     5 
  161   160   162     5 
  160   162   163     5 

[ dihedrals ]
;  ai    aj    ak    al funct            c0            c1            c2            c3            c4            c5
    2     1     4     5     9 
    2     1     4     6     9 
    2     1     4     7     9 
    3     1     4     5     9 
    3     1     4     6     9 
    3     1     4     7     9 
    1     4     7     8     9 
    1     4     7     9     9 
    5     4     7     8     9 
    5     4     7     9     9 
    6     4     7     8     9 
    6     4     7     9     9 
    4     7     9    10     9 
    4     7     9    11     9 
    8     7     9    10     9 
    8     7     9    11     9 
    7     9    11    12     9 
    7     9    11    13     9 
    7     9    11    14     9 
   10     9    11    12     9 
   10     9    11    13     9 
   10     9    11    14     9 
    9    11    14    15     9 
    9    11    14    16     9 
   12    11    14    15     9 
   12    11    14    16     9 
   13    11    14    15     9 
   13    11    14    16     9 
   11    14    16    17     9 
   11    14    16    18     9 
   15    14    16    17     9 
   15    14    16    18     9 
   14    16    18    19     9 
   14    16    18    20     9 
   14    16    18    37     9 
   17    16    18    19     9 
   17    16    18    20     9 
   17    16    18    37     9 
   16    18    20    21     9 
   16    18    20    22     9 
   16    18    20    23     9 
   19    18    20    21     9 
   19    18    20    22     9 
   19    18    20    23     9 
   37    18    20    21     9 
   37    18    20    22     9 
   37    18    20    23     9 
   16    18    37    38     9 
   16    18    37    39     9 
   19    18    37    38     9 
   19    18    37    39     9 
   20    18    37    38     9 
   20    18    37    39     9 
   18    20    23    24     9 
   18    20    23    27     9 
   18    20    23    33     9 
   21    20    23    24     9 
   21    20    23    27     9 
   21    20    23    33     9 
   22    20    23    24     9 
   22    20    23    27     9 
   22    20    23    33     9 
   20    23    27    28     9 
   20    23    27    29     9 
   20    23    27    30     9 
   24    23    27    28     9 
   24    23    27    29     9 
   24    23    27    30     9 
   33    23    27    28     9 
   33    23    27    29     9 
   33    23    27    30     9 
   20    23    33    34     9 
   20    23    33    35     9 
   20    23    33    36     9 
   24    23    33    34     9 
   24    23    33    35     9 
   24    23    33    36     9 
   27    23    33    34     9 
   27    23    33    35     9 
   27    23    33    36     9 
   18    37    39    40     9 
   18    37    39    41     9 
   38    37    39    40     9 
   38    37    39    41     9 
   37    39    41    42     9 
   37    39    41    43     9 
   37    39    41    57     9 
   40    39    41    42     9 
   40    39    41    43     9 
   40    39    41    57     9 
   39    41    43    44     9 
   39    41    43    45     9 
   39    41    43    46     9 
   42    41    43    44     9 
   42    41    43    45     9 
   42    41    43    46     9 
   57    41    43    44     9 
   57    41    43    45     9 
   57    41    43    46     9 
   39    41    57    58     9 
   39    41    57    59     9 
   42    41    57    58     9 
   42    41    57    59     9 
   43    41    57    58     9 
   43    41    57    59     9 
   41    43    46    47     9 
   41    43    46    53     9 
   44    43    46    47     9 
   44    43    46    53     9 
   45    43    46    47     9 
   45    43    46    53     9 
   43    46    47    48     9 
   43    46    47    49     9 
   53    46    47    48     9 
   53    46    47    49     9 
   43    46    53    54     9 
   43    46    53    55     9 
   47    46    53    54     9 
   47    46    53    55     9 
   46    47    49    50     9 
   46    47    49    51     9 
   48    47    49    50     9 
   48    47    49    51     9 
   47    49    51    52     9 
   47    49    51    55     9 
   50    49    51    52     9 
   50    49    51    55     9 
   49    51    55    53     9 
   49    51    55    56     9 
   52    51    55    53     9 
   52    51    55    56     9 
   46    53    55    51     9 
   46    53    55    56     9 
   54    53    55    51     9 
   54    53    55    56     9 
   41    57    59    60     9 
   41    57    59    61     9 
   58    57    59    60     9 
   58    57    59    61     9 
   57    59    61    62     9 
   57    59    61    63     9 
   57    59    61    64     9 
   60    59    61    62     9 
   60    59    61    63     9 
   60    59    61    64     9 
   59    61    64    65     9 
   59    61    64    66     9 
   62    61    64    65     9 
   62    61    64    66     9 
   63    61    64    65     9 
   63    61    64    66     9 
   61    64    66    67     9 
   61    64    66    68     9 
   65    64    66    67     9 
   65    64    66    68     9 
   64    66    68    69     9 
   64    66    68    70     9 
   64    66    68    71     9 
   67    66    68    69     9 
   67    66    68    70     9 
   67    66    68    71     9 
   66    68    71    72     9 
   66    68    71    73     9 
   69    68    71    72     9 
   69    68    71    73     9 
   70    68    71    72     9 
   70    68    71    73     9 
   68    71    73    74     9 
   68    71    73    75     9 
   72    71    73    74     9 
   72    71    73    75     9 
   71    73    75    76     9 
   71    73    75    77     9 
   71    73    75    85     9 
   74    73    75    76     9 
   74    73    75    77     9 
   74    73    75    85     9 
   73    75    77    78     9 
   73    75    77    79     9 
   73    75    77    80     9 
   76    75    77    78     9 
   76    75    77    79     9 
   76    75    77    80     9 
   85    75    77    78     9 
   85    75    77    79     9 
   85    75    77    80     9 
   73    75    85    86     9 
   73    75    85    87     9 
   76    75    85    86     9 
   76    75    85    87     9 
   77    75    85    86     9 
   77    75    85    87     9 
   75    77    80    81     9 
   75    77    80    82     9 
   78    77    80    81     9 
   78    77    80    82     9 
   79    77    80    81     9 
   79    77    80    82     9 
   77    80    82    83     9 
   77    80    82    84     9 
   81    80    82    83     9 
   81    80    82    84     9 
   75    85    87    88     9 
   75    85    87    89     9 
   86    85    87    88     9 
   86    85    87    89     9 
   85    87    89    90     9 
   85    87    89    91     9 
   85    87    89   101     9 
   88    87    89    90     9 
   88    87    89    91     9 
   88    87    89   101     9 
   87    89    91    92     9 
   87    89    91    93     9 
   87    89    91    97     9 
   90    89    91    92     9 
   90    89    91    93     9 
   90    89    91    97     9 
  101    89    91    92     9 
  101    89    91    93     9 
  101    89    91    97     9 
   87    89   101   102     9 
   87    89   101   103     9 
   90    89   101   102     9 
   90    89   101   103     9 
   91    89   101   102     9 
   91    89   101   103     9 
   89    91    93    94     9 
   92    91    93    94     9 
   97    91    93    94     9 
   89    91    97    98     9 
   89    91    97    99     9 
   89    91    97   100     9 
   92    91    97    98     9 
   92    91    97    99     9 
   92    91    97   100     9 
   93    91    97    98     9 
   93    91    97    99     9 
   93    91    97   100     9 
   89   101   103   104     9 
   89   101   103   105     9 
  102   101   103   104     9 
  102   101   103   105     9 
  101   103   105   106     9 
  101   103   105   107     9 
  101   103   105   118     9 
  104   103   105   106     9 
  104   103   105   107     9 
  104   103   105   118     9 
  103   105   107   108     9 
  103   105   107   109     9 
  103   105   107   110     9 
  106   105   107   108     9 
  106   105   107   109     9 
  106   105   107   110     9 
  118   105   107   108     9 
  118   105   107   109     9 
  118   105   107   110     9 
  103   105   118   119     9 
  103   105   118   120     9 
  106   105   118   119     9 
  106   105   118   120     9 
  107   105   118   119     9 
  107   105   118   120     9 
  105   107   110   111     9 
  105   107   110   112     9 
  105   107   110   113     9 
  108   107   110   111     9 
  108   107   110   112     9 
  108   107   110   113     9 
  109   107   110   111     9 
  109   107   110   112     9 
  109   107   110   113     9 
  107   110   113   114     9 
  107   110   113   115     9 
  111   110   113   114     9 
  111   110   113   115     9 
  112   110   113   114     9 
  112   110   113   115     9 
  110   113   115   116     9 
  110   113   115   117     9 
  114   113   115   116     9 
  114   113   115   117     9 
  105   118   120   121     9 
  105   118   120   124     9 
  119   118   120   121     9 
  119   118   120   124     9 
  118   120   121   122     9 
  118   120   121   123     9 
  118   120   121   129     9 
  124   120   121   122     9 
  124   120   121   123     9 
  124   120   121   129     9 
  118   120   124   125     9 
  118   120   124   126     9 
  118   120   124   132     9 
  121   120   124   125     9 
  121   120   124   126     9 
  121   120   124   132     9 
  120   121   129   126     9 
  120   121   129   130     9 
  120   121   129   131     9 
  122   121   129   126     9 
  122   121   129   130     9 
  122   121   129   131     9 
  123   121   129   126     9 
  123   121   129   130     9 
  123   121   129   131     9 
  120   124   126   127     9 
  120   124   126   128     9 
  120   124   126   129     9 
  125   124   126   127     9 
  125   124   126   128     9 
  125   124   126   129     9 
  132   124   126   127     9 
  132   124   126   128     9 
  132   124   126   129     9 
  120   124   132   133     9 
  120   124   132   134     9 
  125   124   132   133     9 
  125   124   132   134     9 
  126   124   132   133     9 
  126   124   132   134     9 
  124   126   129   121     9 
  124   126   129   130     9 
  124   126   129   131     9 
  127   126   129   121     9 
  127   126   129   130     9 
  127   126   129   131     9 
  128   126   129   121     9 
  128   126   129   130     9 
  128   126   129   131     9 
  124   132   134   135     9 
  124   132   134   136     9 
  133   132   134   135     9 
  133   132   134   136     9 
  132   134   136   137     9 
  132   134   136   140     9 
  132   134   136   144     9 
  135   134   136   137     9 
  135   134   136   140     9 
  135   134   136   144     9 
  134   136   140   141     9 
  134   136   140   142     9 
  134   136   140   143     9 
  137   136   140   141     9 
  137   136   140   142     9 
  137   136   140   143     9 
  144   136   140   141     9 
  144   136   140   142     9 
  144   136   140   143     9 
  134   136   144   145     9 
  134   136   144   146     9 
  137   136   144   145     9 
  137   136   144   146     9 
  140   136   144   145     9 
  140   136   144   146     9 
  136   144   146   147     9 
  136   144   146   148     9 
  145   144   146   147     9 
  145   144   146   148     9 
  144   146   148   149     9 
  144   146   148   150     9 
  144   146   148   160     9 
  147   146   148   149     9 
  147   146   148   150     9 
  147   146   148   160     9 
  146   148   150   151     9 
  146   148   150   152     9 
  146   148   150   156     9 
  149   148   150   151     9 
  149   148   150   152     9 
  149   148   150   156     9 
  160   148   150   151     9 
  160   148   150   152     9 
  160   148   150   156     9 
  146   148   160   161     9 
  146   148   160   162     9 
  149   148   160   161     9 
  149   148   160   162     9 
  150   148   160   161     9 
  150   148   160   162     9 
  148   150   152   153     9 
  151   150   152   153     9 
  156   150   152   153     9 
  148   150   156   157     9 
  148   150   156   158     9 
  148   150   156   159     9 
  151   150   156   157     9 
  151   150   156   158     9 
  151   150   156   159     9 
  152   150   156   157     9 
  152   150   156   158     9 
  152   150   156   159     9 
  148   160   162   163     9 
  161   160   162   163     9 

[ dihedrals ]
;  ai    aj    ak    al funct            c0            c1            c2            c3
    7     4     9     8     2 
    9     7    11    10     2 
   14    11    16    15     2 
   16    14    18    17     2 
   37    18    39    38     2 
   39    37    41    40     2 
   57    41    59    58     2 
   59    57    61    60     2 
   64    61    66    65     2 
   66    64    68    67     2 
   71    68    73    72     2 
   73    71    75    74     2 
   80    77    82    81     2 
   80    82    77    81     2 
   82    80    84    83     2 
   82    80    83    84     2 
   85    75    87    86     2 
   87    85    89    88     2 
  101    89   103   102     2 
  103   101   105   104     2 
  113   110   115   114     2 
  113   115   110   114     2 
  115   113   117   116     2 
  115   113   116   117     2 
  118   105   120   119     2 
  120   118   124   121     2 
  132   124   134   133     2 
  134   132   136   135     2 
  144   136   146   145     2 
  146   144   148   147     2 
  160   148   162   161     2 

[ cmap ]
;  ai    aj    ak    al    am funct
    7     9    11    14    16     1 
   14    16    18    37    39     1 
   37    39    41    57    59     1 
   57    59    61    64    66     1 
   64    66    68    71    73     1 
   71    73    75    85    87     1 
   85    87    89   101   103     1 
  101   103   105   118   120     1 
  118   120   124   132   134     1 
  132   134   136   144   146     1 

[ virtual_sites3 ]
;  ai    aj    ak    al funct            c0            c1
   27    23    25    26     1 
   28    23    25    26     1 
   33    23    31    32     1 
   34    23    31    32     1 
   97    91    95    96     1 
   98    91    95    96     1 
  140   136   138   139     1 
  141   136   138   139     1 
  156   150   154   155     1 
  157   150   154   155     1 

[ virtual_sites3 ]
;  ai    aj    ak    al funct            c0            c1
   10     9     7    11     2 
   17    16    14    18     2 
   40    39    37    41     2 
   48    47    46    49     2 
   50    49    47    51     2 
   52    51    49    55     2 
   54    53    46    55     2 
   56    55    51    53     2 
   60    59    57    61     2 
   67    66    64    68     2 
   74    73    71    75     2 
   88    87    85    89     2 
  104   103   101   105     2 
  135   134   132   136     2 
  147   146   144   148     2 

[ virtual_sites3 ]
;  ai    aj    ak    al funct            c0            c1
    2     1     4     5     3 
    3     1     4     5    -3 
   83    82    80    77     3 
   84    82    80    77    -3 
  116   115   113   110     3 
  117   115   113   110    -3 

[ virtual_sites3 ]
;  ai    aj    ak    al funct            c0            c1            c2
    5     4     1     7     4 
    6     4     1     7    -4 
   12    11     9    14     4 
   13    11     9    14    -4 
   21    20    18    23     4 
   22    20    18    23    -4 
   29    23    25    26    -4 
   30    23    25    26     4 
   35    23    31    32    -4 
   36    23    31    32     4 
   44    43    41    46     4 
   45    43    41    46    -4 
   62    61    59    64     4 
   63    61    59    64    -4 
   69    68    66    71     4 
   70    68    66    71    -4 
   78    77    75    80     4 
   79    77    75    80    -4 
   99    91    95    96    -4 
  100    91    95    96     4 
  108   107   105   110     4 
  109   107   105   110    -4 
  111   110   107   113     4 
  112   110   107   113    -4 
  122   121   120   129     4 
  123   121   120   129    -4 
  127   126   124   129     4 
  128   126   124   129    -4 
  130   129   121   126     4 
  131   129   121   126    -4 
  142   136   138   139    -4 
  143   136   138   139     4 
  158   150   154   155    -4 
  159   150   154   155     4 

[ virtual_sites4 ]
;  ai    aj    ak    al    am funct            c0            c1            c2
   19    18    16    20    37     2 
   24    23    20    27    33     2 
   42    41    39    43    57     2 
   76    75    73    77    85     2 
   90    89    87    91   101     2 
   92    91    93    89    97     2 
  106   105   103   107   118     2 
  125   124   120   126   132     2 
  137   136   134   140   144     2 
  149   148   146   150   160     2 
  151   150   152   148   156     2 

; Include Position restraint file
#ifdef POSRES
#include "nup98_12mer_posre.itp"
#endif

; Include water topology
#include "charmm36-nov2018.ff/tip3p.itp"

#ifdef POSRES_WATER
; Position restraint for each water oxygen
[ position_restraints ]
;  i funct       fcx        fcy        fcz
   1    1       1000       1000       1000
#endif

; Include topology for ions
#include "charmm36-nov2018.ff/ions.itp"

[ system ]
; Name
Protein in water

[ molecules ]
; Compound        #mols
Protein_chain_A     1
SOL         6249
NA               18
CL               18
