Protein in water t= 1000.00000 step= 250000
88774
    1GLY      N    1   1.528  10.482   0.002
    1GLY     H1    2   1.595  10.444   0.066
    1GLY     H2    3   6.903  15.953   7.567
    1GLY     CA    4   6.798  15.772   7.599
    1GLY    HA1    5   1.425  10.295   0.049
    1GLY    HA2    6   6.701  15.829   7.614
    1GLY      C    7   6.798  15.718   7.454
    1GLY      O    8   6.688  15.686   7.402
    2GLY      N    9   6.913  15.707   7.384
    2GLY     HN   10   6.997  15.732   7.431
    2GLY     CA   11   6.940  15.665   7.248
    2GLY    HA1   12   7.042  15.678   7.234
    2GLY    HA2   13   6.903  15.569   7.240
    2GLY      C   14   6.872  15.747   7.145
    2GLY      O   15   6.774  15.819   7.169
    3LEU      N   16   6.910  15.718   7.022
    3LEU     HN   17   6.974  15.643   7.008
    3LEU     CA   18   6.867   5.013   6.901
    3LEU     HA   19   6.837   5.115   6.922
    3LEU     CB   20   6.993   4.997   6.813
    3LEU    HB1   21   7.078   5.044   6.867
    3LEU    HB2   22   7.018   4.888   6.810
    3LEU     CG   23   6.987   5.054   6.663
    3LEU     HG   24   6.889   5.025   6.621
    3LEU   MCD1   25   7.027   5.213   6.703
    3LEU   MCD2   26   6.956   5.218   6.643
    3LEU    CD1   27   6.991   5.208   6.672
    3LEU   HD11   28   7.072   5.240   6.742
    3LEU   HD12   29   7.011   5.251   6.572
    3LEU   HD13   30   6.894   5.246   6.710
    3LEU   MCD1   31   7.093   5.021   6.537
    3LEU   MCD2   32   7.113   4.959   6.604
    3LEU    CD2   33   7.097   4.993   6.575
    3LEU   HD21   34   7.102   5.047   6.478
    3LEU   HD22   35   7.196   5.002   6.625
    3LEU   HD23   36   7.076   4.886   6.556
    3LEU      C   37   6.748   4.923   6.860
    3LEU      O   38   6.767  15.584   6.818
    4PHE      N   39   6.624   4.966   6.876
    4PHE     HN   40   6.608   5.059   6.907
    4PHE     CA   41   6.506   4.878   6.847
    4PHE     HA   42   6.541   4.800   6.781
    4PHE     CB   43   6.448  15.591   6.977
    4PHE    HB1   44   6.427  15.670   7.045
    4PHE    HB2   45   6.366  15.530   6.951
    4PHE     CG   46   6.543  15.502   7.048
    4PHE    CD1   47   6.573  15.385   6.982
    4PHE    HD1   48   6.539  15.378   6.880
    4PHE    CE1   49   6.644  15.278   7.040
    4PHE    HE1   50   6.658  15.187   6.984
    4PHE     CZ   51   6.694  15.295   7.173
    4PHE     HZ   52   6.756  15.220   7.220
    4PHE    CD2   53   6.588  15.516   7.175
    4PHE    HD2   54   6.566  15.610   7.224
    4PHE    CE2   55   6.662  15.413   7.242
    4PHE    HE2   56   6.693  15.424   7.344
    4PHE      C   57   6.386   4.947   6.778
    4PHE      O   58   6.389   5.070   6.768
    5GLY      N   59   6.283   4.878   6.735
    5GLY     HN   60   6.277   4.779   6.735
    5GLY     CA   61   6.176   4.953   6.686
    5GLY    HA1   62   6.140   4.999   6.766
    5GLY    HA2   63   6.216   5.009   6.616
    5GLY      C   64   6.062   4.875   6.624
    5GLY      O   65   6.075   4.759   6.582
    6GLY      N   66   5.951   4.947   6.608
    6GLY     HN   67   5.933   5.019   6.675
    6GLY     CA   68   5.846   4.943   6.508
    6GLY    HA1   69   5.805   4.851   6.515
    6GLY    HA2   70   5.786   5.022   6.527
    6GLY      C   71   5.894   4.958   6.369
    6GLY      O   72   6.012   4.981   6.346
    7ASN      N   73   5.801   4.948   6.272
    7ASN     HN   74   5.706   4.931   6.296
    7ASN     CA   75   5.818   4.959   6.131
    7ASN     HA   76   5.921   4.931   6.115
    7ASN     CB   77   5.734   4.851   6.055
    7ASN    HB1   78   5.762   4.852   5.949
    7ASN    HB2   79   5.753   4.753   6.100
    7ASN     CG   80   5.585   4.879   6.065
    7ASN    OD1   81   5.551   4.987   6.119
    7ASN    ND2   82   5.511   4.794   5.999
    7ASN   HD21   83   5.553   4.719   5.948
    7ASN   HD22   84   5.411   4.804   5.999
    7ASN      C   85   5.807   5.099   6.070
    7ASN      O   86   5.804   5.119   5.946
    8THR      N   87   5.795   5.209   6.156
    8THR     HN   88   5.785   5.194   6.254
    8THR     CA   89   5.794   5.356   6.115
    8THR     HA   90   5.845   5.359   6.020
    8THR     CB   91   5.658   5.415   6.097
    8THR     HB   92   5.587   5.333   6.075
    8THR    OG1   93   5.658   5.502   5.985
    8THR    HG1   94   5.654   5.445   5.907
    8THR   MCG1   95   5.563   5.508   6.201
    8THR   MCG2   96   5.641   5.488   6.248
    8THR    CG2   97   5.605   5.494   6.219
    8THR   HG21   98   5.504   5.536   6.196
    8THR   HG22   99   5.597   5.427   6.307
    8THR   HG23  100   5.674   5.577   6.243
    8THR      C  101   5.872   5.435   6.208
    8THR      O  102   5.898   5.385   6.317
    9GLN      N  103   5.911   5.557   6.170
    9GLN     HN  104   5.890   5.591   6.078
    9GLN     CA  105   5.981   5.651   6.249
    9GLN     HA  106   6.000   5.600   6.342
    9GLN     CB  107   6.119   5.704   6.198
    9GLN    HB1  108   6.103   5.765   6.102
    9GLN    HB2  109   6.159   5.781   6.273
    9GLN     CG  110   6.225   5.590   6.174
    9GLN    HG1  111   6.200   5.538   6.080
    9GLN    HG2  112   6.325   5.636   6.172
    9GLN     CD  113   6.229   5.481   6.285
    9GLN    OE1  114   6.215   5.362   6.263
    9GLN    NE2  115   6.257   5.524   6.409
    9GLN   HE21  116   6.274   5.622   6.426
    9GLN   HE22  117   6.261   5.459   6.485
    9GLN      C  118   5.883   5.772   6.288
    9GLN      O  119   5.818   5.837   6.201
   10PRO      N  120   5.863   5.808   6.419
   10PRO     CD  121   5.892   5.731   6.541
   10PRO    HD1  122   5.807   5.654   6.560
   10PRO    HD2  123   5.992   5.674   6.529
   10PRO     CA  124   5.810   5.937   6.461
   10PRO     HA  125   5.715   5.954   6.411
   10PRO     CB  126   5.802   5.941   6.614
   10PRO    HB1  127   5.830   6.044   6.657
   10PRO    HB2  128   5.696   5.921   6.653
   10PRO     CG  129   5.899   5.834   6.654
   10PRO    HG1  130   5.872   5.789   6.753
   10PRO    HG2  131   6.003   5.875   6.666
   10PRO      C  132   5.910   6.048   6.416
   10PRO      O  133   6.016   6.012   6.380
   11ALA      N  134   5.871   6.178   6.405
   11ALA     HN  135   5.774   6.200   6.411
   11ALA     CA  136   5.964   6.294   6.382
   11ALA     HA  137   6.063   6.251   6.386
   11ALA   MCB1  138   5.917   6.296   6.221
   11ALA   MCB2  139   5.954   6.380   6.239
   11ALA     CB  140   5.937   6.336   6.237
   11ALA    HB1  141   5.888   6.253   6.182
   11ALA    HB2  142   5.870   6.425   6.235
   11ALA    HB3  143   6.032   6.363   6.186
   11ALA      C  144   5.960   6.403   6.492
   11ALA      O  145   6.035   6.493   6.477
   12THR      N  146   5.880   6.393   6.598
   12THR     HN  147   5.793   6.344   6.596
   12THR     CA  148   5.904   6.448   6.722
   12THR     HA  149   6.009   6.472   6.729
   12THR     CB  150   5.819   6.574   6.768
   12THR     HB  151   5.846   6.658   6.701
   12THR    OG1  152   5.847   6.609   6.895
   12THR    HG1  153   5.804   6.691   6.919
   12THR   MCG1  154   5.666   6.527   6.714
   12THR   MCG2  155   5.654   6.569   6.797
   12THR    CG2  156   5.667   6.549   6.756
   12THR   HG21  157   5.644   6.497   6.661
   12THR   HG22  158   5.633   6.486   6.841
   12THR   HG23  159   5.613   6.646   6.758
   12THR      C  160   5.873   6.337   6.820
   12THR      O  161   5.766   6.272   6.805
   13GLY      N  162   5.962   6.302   6.913
   13GLY     HN  163   6.053   6.343   6.912
   13GLY     CA  164   5.947   6.212   7.019
   13GLY    HA1  165   6.019   6.234   7.090
   13GLY    HA2  166   5.850   6.220   7.054
   13GLY      C  167   5.969   6.075   6.971
   13GLY      O  168   6.008   6.059   6.864
   14GLY      N  169   5.945   5.967   7.052
   14GLY     HN  170   5.914   5.981   7.146
   14GLY     CA  171   5.964   5.824   7.003
   14GLY    HA1  172   5.863   5.786   6.940
   14GLY    HA2  173   6.071   5.813   6.940
   14GLY      C  174   5.974   5.752   7.141
   14GLY      O  175   5.926   5.795   7.246
   15LEU      N  176   6.026   5.635   7.119
   15LEU     HN  177   6.042   5.609   7.024
   15LEU     CA  178   6.062   5.540   7.226
   15LEU     HA  179   5.968   5.508   7.270
   15LEU     CB  180   6.132   5.419   7.162
   15LEU    HB1  181   6.198   5.459   7.091
   15LEU    HB2  182   6.191   5.377   7.237
   15LEU     CG  183   6.048   5.301   7.092
   15LEU     HG  184   6.005   5.342   6.998
   15LEU   MCD1  185   6.182   5.217   7.035
   15LEU   MCD2  186   6.125   5.153   7.072
   15LEU    CD1  187   6.149   5.191   7.055
   15LEU   HD11  188   6.238   5.234   7.005
   15LEU   HD12  189   6.182   5.137   7.147
   15LEU   HD13  190   6.101   5.117   6.986
   15LEU   MCD1  191   5.907   5.225   7.143
   15LEU   MCD2  192   5.951   5.253   7.220
   15LEU    CD2  193   5.935   5.242   7.177
   15LEU   HD21  194   5.858   5.196   7.112
   15LEU   HD22  195   5.975   5.164   7.245
   15LEU   HD23  196   5.888   5.322   7.238
   15LEU      C  197   6.140   5.612   7.332
   15LEU      O  198   6.239   5.680   7.305
   16PHE      N  199   6.107   5.588   7.463
   16PHE     HN  200   6.036   5.522   7.489
   16PHE     CA  201   6.175   5.659   7.572
   16PHE     HA  202   6.168   5.765   7.551
   16PHE     CB  203   0.721   0.240   0.090
   16PHE    HB1  204   0.739   0.133   0.115
   16PHE    HB2  205   0.756   0.312   0.166
   16PHE     CG  206   0.572   0.257   0.080
   16PHE    CD1  207   0.477   0.170   0.143
   16PHE    HD1  208   0.510  10.858   0.198
   16PHE    CE1  209   0.341   0.187   0.140
   16PHE    HE1  210   0.278  10.886   0.183
   16PHE     CZ  211   0.291   0.308   0.079
   16PHE     HZ  212   0.187   0.336   0.088
   16PHE    CD2  213   0.512   0.366   0.002
   16PHE    HD2  214   5.957   5.820   7.558
   16PHE    CE2  215   0.377   0.391   0.006
   16PHE    HE2  216   5.726   5.863   7.570
   16PHE      C  217   6.325   5.624   7.592
   16PHE      O  218   6.360   5.501   7.596
   17GLY      N  219   6.407   5.724   7.618
   17GLY     HN  220   6.376   5.818   7.602
   17GLY     CA  221   1.155   0.322   0.049
   17GLY    HA1  222   1.194   0.235   0.001
   17GLY    HA2  223   1.204   0.415   0.029
   17GLY      C  224   1.159   0.299   0.199
   17GLY      O  225   1.059   0.266   0.260
   18GLY      N  226   1.279   0.315   0.263
   18GLY     HN  227   1.362   0.345   0.216
   18GLY     CA  228   1.291   0.288   0.407
   18GLY    HA1  229   1.214   0.336   0.449
   18GLY    HA2  230   1.294  10.963   0.415
   18GLY      C  231   1.411   0.338   0.476
   18GLY      O  232   1.479   0.424   0.421
   19ASN      N  233   1.425  11.058   0.601
   19ASN     HN  234   1.366  10.986   0.636
   19ASN     CA  235   1.534  11.110   0.686
   19ASN     HA  236   1.515  11.217   0.691
   19ASN     CB  237   1.545  11.058   0.834
   19ASN    HB1  238   1.589  10.955   0.834
   19ASN    HB2  239   1.607  11.128   0.895
   19ASN     CG  240   1.405  11.051   0.895
   19ASN    OD1  241   1.292  11.050   0.850
   19ASN    ND2  242   1.400  11.062   1.028
   19ASN   HD21  243   1.484  11.074   1.081
   19ASN   HD22  244   1.312  11.058   1.075
   19ASN      C  245   1.671  11.095   0.629
   19ASN      O  246   1.700  10.993   0.566
   20THR      N  247   1.766  11.194   0.652
   20THR     HN  248   1.745  11.271   0.712
   20THR     CA  249   1.900   0.429   0.599
   20THR     HA  250   1.920  11.114   0.543
   20THR     CB  251   1.921   0.554   0.510
   20THR     HB  252   2.023   0.549   0.466
   20THR    OG1  253   1.915   0.676   0.593
   20THR    HG1  254   2.008   0.690   0.615
   20THR   MCG1  255   1.780   0.579   0.422
   20THR   MCG2  256   1.844   0.549   0.361
   20THR    CG2  257   1.817   0.563   0.397
   20THR   HG21  258   1.720   0.599   0.438
   20THR   HG22  259   1.852   0.635   0.319
   20THR   HG23  260   1.802   0.464   0.350
   20THR      C  261   1.992  11.213   0.713
   20THR      O  262   2.116  11.217   0.697
   21GLN      N  263   1.943  11.228   0.843
   21GLN     HN  264   1.845  11.221   0.864
   21GLN     CA  265   2.025  11.255   0.961
   21GLN     HA  266   2.127  11.277   0.931
   21GLN     CB  267   1.954  11.366   1.034
   21GLN    HB1  268   1.857  11.333   1.065
   21GLN    HB2  269   2.001  11.384   1.128
   21GLN     CG  270   1.942   0.719   0.956
   21GLN    HG1  271   2.036   0.762   0.948
   21GLN    HG2  272   1.904   0.699   0.863
   21GLN     CD  273   1.852   0.817   1.022
   21GLN    OE1  274   1.751   0.849   0.961
   21GLN    NE2  275   1.886   0.880   1.137
   21GLN   HE21  276   1.973   0.861   1.181
   21GLN   HE22  277   1.822   0.946   1.179
   21GLN      C  278   2.015  11.128   1.041
   21GLN      O  279   1.905  11.062   1.020
   22PRO      N  280   2.093  11.089   1.137
   22PRO     CD  281   2.229  11.141   1.152
   22PRO    HD1  282   2.272  11.162   1.052
   22PRO    HD2  283   2.227  11.235   1.210
   22PRO     CA  284   2.084  10.960   1.208
   22PRO     HA  285   2.080  10.884   1.131
   22PRO     CB  286   2.211  10.948   1.290
   22PRO    HB1  287   2.193  10.979   1.396
   22PRO    HB2  288   2.247  10.842   1.292
   22PRO     CG  289   2.313  11.040   1.223
   22PRO    HG1  290   2.380  10.984   1.151
   22PRO    HG2  291   2.382  11.088   1.296
   22PRO      C  292   1.956  10.946   1.287
   22PRO      O  293   1.884  11.041   1.311
   23ALA      N  294   1.921  10.821   1.330
   23ALA     HN  295   1.974  10.737   1.315
   23ALA     CA  296   1.797  10.815   1.404
   23ALA     HA  297   1.724  10.865   1.341
   23ALA   MCB1  298   1.769  10.651   1.379
   23ALA   MCB2  299   1.731  10.671   1.462
   23ALA     CB  300   1.752  10.668   1.419
   23ALA    HB1  301   1.784  10.609   1.331
   23ALA    HB2  302   1.798  10.624   1.511
   23ALA    HB3  303   1.641  10.663   1.428
   23ALA      C  304   1.783  10.876   1.544
   23ALA      O  305   1.676  10.899   1.591
   24THR      N  306   1.903  10.908   1.610
   24THR     HN  307   1.990  10.877   1.574
   24THR     CA  308   1.930  10.983   1.728
   24THR     HA  309   1.895  10.918   1.807
   24THR     CB  310   2.076  11.009   1.758
   24THR     HB  311   2.109  11.102   1.708
   24THR    OG1  312   2.158  10.901   1.715
   24THR    HG1  313   2.124  10.823   1.758
   24THR   MCG1  314   2.098  10.974   1.921
   24THR   MCG2  315   2.097  11.068   1.914
   24THR    CG2  316   2.096  11.020   1.910
   24THR   HG21  317   2.103  10.919   1.956
   24THR   HG22  318   2.190  11.076   1.932
   24THR   HG23  319   2.011  11.075   1.956
   24THR      C  320   1.843  11.113   1.744
   24THR    OT1  321   1.862  11.223   1.698
   24THR    OT2  322   1.748  11.089   1.846
   24THR    HT2  323   1.688  11.163   1.861
   25SOL     OW  324  10.343   9.061   1.728
   25SOL    HW1  325  10.295   9.070   1.645
   25SOL    HW2  326  10.275   9.067   1.795
   26SOL     OW  327   5.305  12.588   2.905
   26SOL    HW1  328   5.336  12.516   2.850
   26SOL    HW2  329   5.300  12.663   2.846
   27SOL     OW  330   5.744  11.642   3.014
   27SOL    HW1  331   5.803  11.573   3.044
   27SOL    HW2  332   5.674  11.643   3.079
   28SOL     OW  333   2.461   6.445   1.176
   28SOL    HW1  334   2.556   6.436   1.169
   28SOL    HW2  335   2.447   6.507   1.247
   29SOL     OW  336   2.691   7.504   0.650
   29SOL    HW1  337   2.606   7.500   0.607
   29SOL    HW2  338   2.754   7.520   0.580
   30SOL     OW  339   4.206   3.733   2.379
   30SOL    HW1  340   4.202   3.792   2.303
   30SOL    HW2  341   4.145   3.662   2.357
   31SOL     OW  342  12.603  10.029   3.767
   31SOL    HW1  343  12.684  10.065   3.730
   31SOL    HW2  344  12.612   9.934   3.757
   32SOL     OW  345   4.855   5.042   6.561
   32SOL    HW1  346   4.794   5.091   6.507
   32SOL    HW2  347   4.819   4.953   6.565
   33SOL     OW  348   5.977  10.255   5.212
   33SOL    HW1  349   5.907  10.240   5.149
   33SOL    HW2  350   5.935  10.245   5.298
   34SOL     OW  351   4.255  10.341   4.921
   34SOL    HW1  352   4.295  10.272   4.974
   34SOL    HW2  353   4.327  10.374   4.866
   35SOL     OW  354   5.094   4.690   1.956
   35SOL    HW1  355   5.117   4.721   2.044
   35SOL    HW2  356   5.007   4.725   1.940
   36SOL     OW  357  12.818   9.373   7.031
   36SOL    HW1  358  12.820   9.295   7.086
   36SOL    HW2  359  12.868   9.348   6.953
   37SOL     OW  360   8.219   4.897   0.700
   37SOL    HW1  361   8.275   4.839   0.752
   37SOL    HW2  362   8.274   4.973   0.680
   38SOL     OW  363   4.194   8.880   3.655
   38SOL    HW1  364   4.126   8.924   3.604
   38SOL    HW2  365   4.171   8.788   3.651
   39SOL     OW  366   2.201   4.016   1.113
   39SOL    HW1  367   2.189   3.921   1.120
   39SOL    HW2  368   2.210   4.046   1.203
   40SOL     OW  369  11.894  13.144   4.590
   40SOL    HW1  370  11.962  13.208   4.612
   40SOL    HW2  371  11.817  13.198   4.568
   41SOL     OW  372   7.234  12.598   3.592
   41SOL    HW1  373   7.229  12.647   3.510
   41SOL    HW2  374   7.223  12.664   3.660
   42SOL     OW  375  12.125   1.783   1.934
   42SOL    HW1  376  12.070   1.741   2.001
   42SOL    HW2  377  12.086   1.870   1.924
   43SOL     OW  378   9.814   9.991   5.810
   43SOL    HW1  379   9.735  10.034   5.842
   43SOL    HW2  380   9.782   9.909   5.771
   44SOL     OW  381   6.036  11.630   3.715
   44SOL    HW1  382   6.086  11.555   3.748
   44SOL    HW2  383   5.967  11.591   3.661
   45SOL     OW  384   7.455  12.209   5.477
   45SOL    HW1  385   7.513  12.215   5.553
   45SOL    HW2  386   7.395  12.137   5.499
   46SOL     OW  387   4.251   9.621   0.379
   46SOL    HW1  388   4.296   9.698   0.343
   46SOL    HW2  389   4.322   9.562   0.405
   47SOL     OW  390   9.622  10.673   7.438
   47SOL    HW1  391   9.620  10.751   7.383
   47SOL    HW2  392   9.603  10.705   7.526
   48SOL     OW  393   5.169   9.754   6.123
   48SOL    HW1  394   5.232   9.768   6.194
   48SOL    HW2  395   5.087   9.732   6.167
   49SOL     OW  396   5.957  14.248   5.714
   49SOL    HW1  397   6.024  14.193   5.756
   49SOL    HW2  398   6.006  14.300   5.651
   50SOL     OW  399   8.229   9.410   4.184
   50SOL    HW1  400   8.142   9.380   4.211
   50SOL    HW2  401   8.289   9.344   4.218
   51SOL     OW  402   5.776   4.077   5.613
   51SOL    HW1  403   5.792   4.037   5.527
   51SOL    HW2  404   5.848   4.139   5.624
   52SOL     OW  405   4.041   5.763   2.933
   52SOL    HW1  406   3.991   5.809   2.866
   52SOL    HW2  407   3.994   5.681   2.947
   53SOL     OW  408   1.183   2.886   0.366
   53SOL    HW1  409   1.225   2.862   0.283
   53SOL    HW2  410   1.094   2.912   0.342
   54SOL     OW  411  10.274  13.019   6.494
   54SOL    HW1  412  10.266  13.104   6.450
   54SOL    HW2  413  10.189  13.006   6.536
   55SOL     OW  414   4.602  12.261   3.462
   55SOL    HW1  415   4.592  12.289   3.371
   55SOL    HW2  416   4.542  12.317   3.510
   56SOL     OW  417  11.241   1.708   1.201
   56SOL    HW1  418  11.259   1.653   1.277
   56SOL    HW2  419  11.309   1.684   1.138
   57SOL     OW  420   1.045   5.789   1.401
   57SOL    HW1  421   0.986   5.799   1.326
   57SOL    HW2  422   1.133   5.796   1.363
   58SOL     OW  423  14.685  11.713   7.468
   58SOL    HW1  424  14.624  11.784   7.489
   58SOL    HW2  425  14.715  11.733   7.379
   59SOL     OW  426   8.439   4.711   3.950
   59SOL    HW1  427   8.382   4.638   3.972
   59SOL    HW2  428   8.464   4.748   4.035
   60SOL     OW  429   8.754   9.415   5.623
   60SOL    HW1  430   8.708   9.496   5.644
   60SOL    HW2  431   8.846   9.434   5.642
   61SOL     OW  432   9.647   8.634   6.756
   61SOL    HW1  433   9.554   8.616   6.743
   61SOL    HW2  434   9.689   8.548   6.753
   62SOL     OW  435   9.570  12.659   3.855
   62SOL    HW1  436   9.614  12.738   3.887
   62SOL    HW2  437   9.502  12.642   3.921
   63SOL     OW  438  10.754  11.369   4.275
   63SOL    HW1  439  10.795  11.304   4.333
   63SOL    HW2  440  10.806  11.365   4.195
   64SOL     OW  441   4.158  11.178   3.728
   64SOL    HW1  442   4.118  11.265   3.732
   64SOL    HW2  443   4.165  11.159   3.634
   65SOL     OW  444  10.762   8.919   1.571
   65SOL    HW1  445  10.686   8.975   1.552
   65SOL    HW2  446  10.726   8.830   1.573
   66SOL     OW  447  12.648   6.636   3.368
   66SOL    HW1  448  12.714   6.705   3.358
   66SOL    HW2  449  12.579   6.676   3.420
   67SOL     OW  450   3.463   5.094   1.616
   67SOL    HW1  451   3.519   5.075   1.541
   67SOL    HW2  452   3.490   5.032   1.683
   68SOL     OW  453   4.711  13.422   5.613
   68SOL    HW1  454   4.746  13.337   5.584
   68SOL    HW2  455   4.616  13.411   5.610
   69SOL     OW  456   2.511   6.413   0.310
   69SOL    HW1  457   2.515   6.331   0.262
   69SOL    HW2  458   2.601   6.429   0.338
   70SOL     OW  459  10.655   6.892   1.749
   70SOL    HW1  460  10.576   6.862   1.703
   70SOL    HW2  461  10.621   6.940   1.825
   71SOL     OW  462   8.628   9.603   5.295
   71SOL    HW1  463   8.658   9.658   5.367
   71SOL    HW2  464   8.707   9.583   5.245
   72SOL     OW  465   3.106  11.184   1.554
   72SOL    HW1  466   3.021  11.143   1.541
   72SOL    HW2  467   3.101  11.267   1.508
   73SOL     OW  468   8.649   6.761   5.278
   73SOL    HW1  469   8.703   6.695   5.320
   73SOL    HW2  470   8.594   6.713   5.217
   74SOL     OW  471  13.207   4.740   4.203
   74SOL    HW1  472  13.172   4.745   4.292
   74SOL    HW2  473  13.172   4.659   4.167
   75SOL     OW  474   3.596   4.802   0.988
   75SOL    HW1  475   3.545   4.856   0.927
   75SOL    HW2  476   3.545   4.802   1.068
   76SOL     OW  477  11.737   7.940   3.913
   76SOL    HW1  478  11.826   7.939   3.949
   76SOL    HW2  479  11.694   8.014   3.955
   77SOL     OW  480  11.819   5.447   3.308
   77SOL    HW1  481  11.885   5.398   3.358
   77SOL    HW2  482  11.797   5.389   3.235
   78SOL     OW  483   3.737   1.718   2.327
   78SOL    HW1  484   3.728  12.435   2.403
   78SOL    HW2  485   3.651   1.761   2.320
   79SOL     OW  486  10.700  10.515   5.200
   79SOL    HW1  487  10.754  10.451   5.154
   79SOL    HW2  488  10.702  10.487   5.291
   80SOL     OW  489   9.794   8.154   3.148
   80SOL    HW1  490   9.779   8.140   3.242
   80SOL    HW2  491   9.712   8.192   3.116
   81SOL     OW  492  14.198   9.929   6.432
   81SOL    HW1  493  14.155   9.999   6.384
   81SOL    HW2  494  14.148   9.850   6.412
   82SOL     OW  495   8.869  11.410   6.583
   82SOL    HW1  496   8.953  11.447   6.609
   82SOL    HW2  497   8.848  11.346   6.651
   83SOL     OW  498  10.099  14.490   5.459
   83SOL    HW1  499  10.122  14.580   5.484
   83SOL    HW2  500  10.082  14.445   5.541
   84SOL     OW  501  11.723   9.784   6.329
   84SOL    HW1  502  11.784   9.851   6.359
   84SOL    HW2  503  11.659   9.776   6.399
   85SOL     OW  504   4.717   7.334   4.614
   85SOL    HW1  505   4.770   7.412   4.595
   85SOL    HW2  506   4.630   7.354   4.578
   86SOL     OW  507  12.356  15.770   7.312
   86SOL    HW1  508  12.339  15.678   7.292
   86SOL    HW2  509  12.287  15.795   7.373
   87SOL     OW  510  11.342  11.758   4.844
   87SOL    HW1  511  11.364  11.746   4.751
   87SOL    HW2  512  11.401  11.699   4.890
   88SOL     OW  513   4.624  12.222   2.567
   88SOL    HW1  514   4.566  12.246   2.495
   88SOL    HW2  515   4.571  12.166   2.623
   89SOL     OW  516   5.464  11.576   6.755
   89SOL    HW1  517   5.541  11.603   6.804
   89SOL    HW2  518   5.475  11.615   6.668
   90SOL     OW  519  10.717   6.420   1.360
   90SOL    HW1  520  10.708   6.347   1.421
   90SOL    HW2  521  10.718   6.378   1.273
   91SOL     OW  522  10.024   6.805   4.529
   91SOL    HW1  523  10.073   6.732   4.568
   91SOL    HW2  524   9.958   6.827   4.595
   92SOL     OW  525  10.062   7.957   4.667
   92SOL    HW1  526  10.018   7.896   4.608
   92SOL    HW2  527  10.037   8.043   4.635
   93SOL     OW  528  11.991  13.213   6.454
   93SOL    HW1  529  11.986  13.202   6.359
   93SOL    HW2  530  11.985  13.124   6.489
   94SOL     OW  531   3.827   8.263   0.067
   94SOL    HW1  532   3.888   8.206   0.114
   94SOL    HW2  533   9.200  13.608   7.602
   95SOL     OW  534   4.130  13.014   5.395
   95SOL    HW1  535   4.182  12.970   5.327
   95SOL    HW2  536   4.043  13.023   5.357
   96SOL     OW  537  10.898   6.419   3.499
   96SOL    HW1  538  10.950   6.340   3.483
   96SOL    HW2  539  10.922   6.445   3.588
   97SOL     OW  540   3.909   3.627   3.304
   97SOL    HW1  541   3.815   3.646   3.310
   97SOL    HW2  542   3.928   3.573   3.381
   98SOL     OW  543   3.575  10.578   0.658
   98SOL    HW1  544   3.501  10.624   0.619
   98SOL    HW2  545   3.651  10.631   0.633
   99SOL     OW  546  12.429   8.900   7.308
   99SOL    HW1  547  12.460   8.959   7.239
   99SOL    HW2  548  12.407   8.957   7.381
  100SOL     OW  549   5.920  10.633   2.724
  100SOL    HW1  550   5.984  10.572   2.687
  100SOL    HW2  551   5.971  10.687   2.784
  101SOL     OW  552   5.721  13.552   5.349
  101SOL    HW1  553   5.765  13.503   5.419
  101SOL    HW2  554   5.722  13.643   5.379
  102SOL     OW  555   8.837   6.288   1.343
  102SOL    HW1  556   8.871   6.377   1.336
  102SOL    HW2  557   8.900   6.234   1.295
  103SOL     OW  558   8.560  10.766   1.035
  103SOL    HW1  559   8.654  10.782   1.043
  103SOL    HW2  560   8.541  10.777   0.942
  104SOL     OW  561   5.083  11.397   5.353
  104SOL    HW1  562   5.021  11.326   5.333
  104SOL    HW2  563   5.031  11.477   5.346
  105SOL     OW  564  12.108   8.860   6.854
  105SOL    HW1  565  12.140   8.947   6.828
  105SOL    HW2  566  12.015   8.874   6.873
  106SOL     OW  567   4.576   6.747   3.226
  106SOL    HW1  568   4.576   6.793   3.142
  106SOL    HW2  569   4.494   6.774   3.269
  107SOL     OW  570  10.349  11.259   6.272
  107SOL    HW1  571  10.412  11.258   6.344
  107SOL    HW2  572  10.275  11.207   6.303
  108SOL     OW  573   4.089  11.220   2.559
  108SOL    HW1  574   4.032  11.244   2.632
  108SOL    HW2  575   4.122  11.304   2.526
  109SOL     OW  576   1.108   7.384   0.466
  109SOL    HW1  577   1.115   7.343   0.380
  109SOL    HW2  578   1.036   7.338   0.509
  110SOL     OW  579  12.928   8.468   4.526
  110SOL    HW1  580  12.917   8.519   4.606
  110SOL    HW2  581  12.866   8.506   4.464
  111SOL     OW  582   2.104   5.131   2.915
  111SOL    HW1  583   2.054   5.060   2.874
  111SOL    HW2  584  12.883   5.106   3.008
  112SOL     OW  585   3.987   6.602   0.896
  112SOL    HW1  586   3.974   6.650   0.815
  112SOL    HW2  587   4.059   6.648   0.940
  113SOL     OW  588   4.990  11.290   5.758
  113SOL    HW1  589   4.896  11.272   5.751
  113SOL    HW2  590   5.032  11.210   5.728
  114SOL     OW  591   7.519   6.850   5.731
  114SOL    HW1  592   7.452   6.839   5.664
  114SOL    HW2  593   7.576   6.919   5.697
  115SOL     OW  594   2.153   3.579   3.027
  115SOL    HW1  595  12.838   3.553   3.004
  115SOL    HW2  596  12.918   3.635   3.104
  116SOL     OW  597   8.221   6.915   4.302
  116SOL    HW1  598   8.315   6.933   4.305
  116SOL    HW2  599   8.184   6.969   4.372
  117SOL     OW  600   6.086  11.254   7.174
  117SOL    HW1  601   6.016  11.201   7.136
  117SOL    HW2  602   6.069  11.252   7.269
  118SOL     OW  603  12.937  10.972   3.129
  118SOL    HW1  604   2.244  10.922   3.132
  118SOL    HW2  605  12.869  10.907   3.112
  119SOL     OW  606   3.559  11.341   0.905
  119SOL    HW1  607   3.554  11.375   0.995
  119SOL    HW2  608   3.644  11.369   0.873
  120SOL     OW  609   8.971  11.330   7.093
  120SOL    HW1  610   8.922  11.412   7.102
  120SOL    HW2  611   9.007  11.315   7.181
  121SOL     OW  612   7.466   2.092   1.820
  121SOL    HW1  613   7.407   2.117   1.748
  121SOL    HW2  614   7.407   2.059   1.888
  122SOL     OW  615   9.012  11.278   2.077
  122SOL    HW1  616   8.978  11.325   2.154
  122SOL    HW2  617   8.983  11.331   2.002
  123SOL     OW  618  12.048   9.944   6.980
  123SOL    HW1  619  12.068  10.037   6.987
  123SOL    HW2  620  12.002   9.934   6.897
  124SOL     OW  621   6.746   4.180   5.103
  124SOL    HW1  622   6.686   4.168   5.177
  124SOL    HW2  623   6.832   4.159   5.139
  125SOL     OW  624  11.764   9.009   2.064
  125SOL    HW1  625  11.781   9.078   2.128
  125SOL    HW2  626  11.672   9.018   2.042
  126SOL     OW  627   6.661   7.954   2.808
  126SOL    HW1  628   6.716   7.978   2.883
  126SOL    HW2  629   6.628   7.866   2.830
  127SOL     OW  630  11.081   8.247   5.877
  127SOL    HW1  631  11.005   8.277   5.827
  127SOL    HW2  632  11.156   8.263   5.819
  128SOL     OW  633   3.630   9.824   0.364
  128SOL    HW1  634   3.621   9.902   0.309
  128SOL    HW2  635   3.566   9.762   0.329
  129SOL     OW  636   8.583   9.585   7.093
  129SOL    HW1  637   8.658   9.552   7.141
  129SOL    HW2  638   8.591   9.680   7.097
  130SOL     OW  639  11.358  11.809   1.894
  130SOL    HW1  640  11.383  11.901   1.883
  130SOL    HW2  641  11.420  11.775   1.958
  131SOL     OW  642  13.711   5.197   6.028
  131SOL    HW1  643  13.715   5.144   5.948
  131SOL    HW2  644  13.802   5.222   6.044
  132SOL     OW  645   4.672   2.598   3.334
  132SOL    HW1  646   4.576   2.590   3.326
  132SOL    HW2  647   4.685   2.669   3.396
  133SOL     OW  648   5.971   7.241   4.899
  133SOL    HW1  649   5.905   7.302   4.866
  133SOL    HW2  650   5.944   7.222   4.988
  134SOL     OW  651   5.216   6.839   3.640
  134SOL    HW1  652   5.308   6.814   3.652
  134SOL    HW2  653   5.213   6.879   3.553
  135SOL     OW  654   1.526   4.666   1.723
  135SOL    HW1  655   1.591   4.726   1.759
  135SOL    HW2  656   1.570   4.625   1.648
  136SOL     OW  657   7.525   9.685   4.880
  136SOL    HW1  658   7.454   9.731   4.835
  136SOL    HW2  659   7.537   9.734   4.962
  137SOL     OW  660   8.020   7.286   4.062
  137SOL    HW1  661   8.115   7.285   4.056
  137SOL    HW2  662   7.998   7.214   4.121
  138SOL     OW  663  14.025   6.535   5.987
  138SOL    HW1  664  14.078   6.508   6.062
  138SOL    HW2  665  14.087   6.581   5.930
  139SOL     OW  666   3.319   2.538   0.536
  139SOL    HW1  667   3.402   2.537   0.489
  139SOL    HW2  668   3.274   2.616   0.503
  140SOL     OW  669   9.473   2.557   2.279
  140SOL    HW1  670   9.434   2.633   2.321
  140SOL    HW2  671   9.533   2.594   2.213
  141SOL     OW  672   6.205   7.374   5.138
  141SOL    HW1  673   6.134   7.328   5.185
  141SOL    HW2  674   6.272   7.388   5.205
  142SOL     OW  675   7.796   8.642   2.574
  142SOL    HW1  676   7.771   8.669   2.662
  142SOL    HW2  677   7.854   8.711   2.542
  143SOL     OW  678  11.771   4.751   2.508
  143SOL    HW1  679  11.738   4.840   2.498
  143SOL    HW2  680  11.855   4.752   2.462
  144SOL     OW  681   7.541   9.104   7.459
  144SOL    HW1  682   7.537   9.057   7.375
  144SOL    HW2  683   7.633   9.101   7.484
  145SOL     OW  684  11.994   6.432   6.327
  145SOL    HW1  685  12.087   6.447   6.315
  145SOL    HW2  686  11.954   6.518   6.312
  146SOL     OW  687   3.126   9.513   2.301
  146SOL    HW1  688   3.189   9.552   2.241
  146SOL    HW2  689   3.109   9.582   2.365
  147SOL     OW  690   8.913   3.722   2.223
  147SOL    HW1  691   8.960   3.709   2.141
  147SOL    HW2  692   8.931   3.813   2.248
  148SOL     OW  693   8.019   4.834   2.413
  148SOL    HW1  694   7.997   4.908   2.469
  148SOL    HW2  695   8.089   4.867   2.356
  149SOL     OW  696   5.622  13.146   6.307
  149SOL    HW1  697   5.714  13.173   6.314
  149SOL    HW2  698   5.582  13.178   6.387
  150SOL     OW  699   6.589  11.650   4.920
  150SOL    HW1  700   6.532  11.596   4.974
  150SOL    HW2  701   6.600  11.731   4.970
  151SOL     OW  702   9.996   2.124   2.189
  151SOL    HW1  703  10.056   2.050   2.201
  151SOL    HW2  704   9.962   2.140   2.277
  152SOL     OW  705   3.010   5.464   3.489
  152SOL    HW1  706   2.998   5.405   3.414
  152SOL    HW2  707   2.934   5.522   3.486
  153SOL     OW  708  12.014   5.307   6.095
  153SOL    HW1  709  12.034   5.222   6.056
  153SOL    HW2  710  12.091   5.327   6.148
  154SOL     OW  711   9.834   5.386   3.374
  154SOL    HW1  712   9.872   5.298   3.371
  154SOL    HW2  713   9.740   5.372   3.383
  155SOL     OW  714   8.286  15.297   6.978
  155SOL    HW1  715   8.366  15.297   7.030
  155SOL    HW2  716   8.215  15.310   7.042
  156SOL     OW  717  15.265   4.729   6.588
  156SOL    HW1  718  15.211   4.737   6.509
  156SOL    HW2  719  15.276   4.819   6.618
  157SOL     OW  720   5.112   6.852   1.882
  157SOL    HW1  721   5.061   6.815   1.954
  157SOL    HW2  722   5.110   6.785   1.813
  158SOL     OW  723   2.158   3.549   2.236
  158SOL    HW1  724   2.084   3.544   2.297
  158SOL    HW2  725   2.118   3.576   2.153
  159SOL     OW  726   4.055  13.744   4.760
  159SOL    HW1  727   4.049  13.695   4.843
  159SOL    HW2  728   4.137  13.713   4.721
  160SOL     OW  729   5.101   8.293   6.390
  160SOL    HW1  730   5.133   8.319   6.304
  160SOL    HW2  731   5.077   8.375   6.432
  161SOL     OW  732   7.636   8.340   6.171
  161SOL    HW1  733   7.561   8.281   6.158
  161SOL    HW2  734   7.630   8.366   6.263
  162SOL     OW  735   8.598  13.531   5.541
  162SOL    HW1  736   8.676  13.569   5.581
  162SOL    HW2  737   8.537  13.518   5.615
  163SOL     OW  738   6.815  11.642   3.352
  163SOL    HW1  739   6.822  11.706   3.424
  163SOL    HW2  740   6.833  11.558   3.393
  164SOL     OW  741   2.236  11.869   2.773
  164SOL    HW1  742   2.278  11.880   2.858
  164SOL    HW2  743   2.218  11.775   2.767
  165SOL     OW  744  10.721   5.173   5.766
  165SOL    HW1  745  10.730   5.237   5.695
  165SOL    HW2  746  10.693   5.225   5.841
  166SOL     OW  747  12.162   3.561   4.123
  166SOL    HW1  748  12.078   3.517   4.116
  166SOL    HW2  749  12.200   3.556   4.035
  167SOL     OW  750   8.428   5.424   3.548
  167SOL    HW1  751   8.407   5.336   3.578
  167SOL    HW2  752   8.466   5.467   3.624
  168SOL     OW  753  12.969  15.141   7.365
  168SOL    HW1  754  12.980  15.100   7.279
  168SOL    HW2  755  12.998  15.231   7.352
  169SOL     OW  756   9.536   7.191   4.945
  169SOL    HW1  757   9.536   7.239   4.862
  169SOL    HW2  758   9.564   7.103   4.921
  170SOL     OW  759  10.925  11.080   0.500
  170SOL    HW1  760  11.009  11.060   0.459
  170SOL    HW2  761  10.861  11.067   0.430
  171SOL     OW  762  11.485  11.502   5.506
  171SOL    HW1  763  11.473  11.422   5.456
  171SOL    HW2  764  11.569  11.538   5.476
  172SOL     OW  765  15.228   8.251   7.539
  172SOL    HW1  766  15.167   8.186   7.502
  172SOL    HW2  767  15.171   8.314   7.583
  173SOL     OW  768  10.666   7.497   2.455
  173SOL    HW1  769  10.714   7.499   2.372
  173SOL    HW2  770  10.725   7.452   2.516
  174SOL     OW  771  13.072  13.066   5.972
  174SOL    HW1  772  13.158  13.107   5.966
  174SOL    HW2  773  13.089  12.979   6.009
  175SOL     OW  774   9.791  13.103   7.305
  175SOL    HW1  775   9.750  13.188   7.323
  175SOL    HW2  776   9.857  13.093   7.373
  176SOL     OW  777  10.078   4.214   1.741
  176SOL    HW1  778  10.029   4.173   1.812
  176SOL    HW2  779  10.023   4.201   1.664
  177SOL     OW  780   9.169   9.763   7.074
  177SOL    HW1  781   9.075   9.760   7.093
  177SOL    HW2  782   9.211   9.749   7.159
  178SOL     OW  783  10.788   8.319   1.532
  178SOL    HW1  784  10.751   8.357   1.452
  178SOL    HW2  785  10.739   8.361   1.603
  179SOL     OW  786  12.188  11.394   3.993
  179SOL    HW1  787  12.109  11.434   4.030
  179SOL    HW2  788  12.259  11.429   4.046
  180SOL     OW  789   8.889   6.284   2.376
  180SOL    HW1  790   8.823   6.329   2.428
  180SOL    HW2  791   8.887   6.327   2.291
  181SOL     OW  792   7.110  14.338   5.697
  181SOL    HW1  793   7.144  14.385   5.773
  181SOL    HW2  794   7.060  14.265   5.734
  182SOL     OW  795  14.693  13.099   6.399
  182SOL    HW1  796  14.690  13.078   6.305
  182SOL    HW2  797  14.643  13.180   6.407
  183SOL     OW  798  11.541   5.885   2.179
  183SOL    HW1  799  11.602   5.939   2.230
  183SOL    HW2  800  11.573   5.796   2.191
  184SOL     OW  801   8.529   4.787   4.769
  184SOL    HW1  802   8.514   4.875   4.802
  184SOL    HW2  803   8.616   4.764   4.800
  185SOL     OW  804   6.506   7.105   2.913
  185SOL    HW1  805   6.451   7.147   2.979
  185SOL    HW2  806   6.505   7.012   2.937
  186SOL     OW  807   1.583   1.125   0.810
  186SOL    HW1  808   1.498   1.159   0.780
  186SOL    HW2  809   1.561   1.054   0.870
  187SOL     OW  810  10.600  12.647   5.403
  187SOL    HW1  811  10.590  12.582   5.333
  187SOL    HW2  812  10.526  12.631   5.461
  188SOL     OW  813  11.146   4.457   5.800
  188SOL    HW1  814  11.175   4.393   5.735
  188SOL    HW2  815  11.118   4.404   5.875
  189SOL     OW  816  10.139  10.164   1.149
  189SOL    HW1  817  10.215  10.202   1.106
  189SOL    HW2  818  10.114  10.229   1.215
  190SOL     OW  819   4.649  11.238   2.542
  190SOL    HW1  820   4.581  11.285   2.590
  190SOL    HW2  821   4.687  11.179   2.607
  191SOL     OW  822   8.080   4.701   0.900
  191SOL    HW1  823   8.072   4.738   0.988
  191SOL    HW2  824   7.995   4.659   0.884
  192SOL     OW  825  11.880   7.750   7.203
  192SOL    HW1  826  11.834   7.716   7.126
  192SOL    HW2  827  11.841   7.836   7.219
  193SOL     OW  828   9.809  11.974   6.502
  193SOL    HW1  829   9.764  11.939   6.425
  193SOL    HW2  830   9.792  12.068   6.497
  194SOL     OW  831   5.627   7.692   5.977
  194SOL    HW1  832   5.612   7.709   6.071
  194SOL    HW2  833   5.705   7.742   5.956
  195SOL     OW  834  14.686   5.312   6.437
  195SOL    HW1  835  14.725   5.225   6.429
  195SOL    HW2  836  14.592   5.296   6.441
  196SOL     OW  837   5.517   9.361   5.161
  196SOL    HW1  838   5.585   9.364   5.228
  196SOL    HW2  839   5.435   9.369   5.210
  197SOL     OW  840   6.423   4.166   2.877
  197SOL    HW1  841   6.362   4.118   2.933
  197SOL    HW2  842   6.503   4.113   2.877
  198SOL     OW  843   8.397   4.540   2.721
  198SOL    HW1  844   8.419   4.466   2.777
  198SOL    HW2  845   8.372   4.610   2.781
  199SOL     OW  846   3.542   6.111   2.761
  199SOL    HW1  847   3.610   6.172   2.791
  199SOL    HW2  848   3.491   6.092   2.840
  200SOL     OW  849  14.025  11.618   6.384
  200SOL    HW1  850  14.068  11.642   6.301
  200SOL    HW2  851  14.074  11.542   6.415
  201SOL     OW  852  10.337   2.957   3.169
  201SOL    HW1  853  10.387   2.990   3.094
  201SOL    HW2  854  10.246   2.964   3.142
  202SOL     OW  855   8.865   5.987   5.344
  202SOL    HW1  856   8.855   6.008   5.251
  202SOL    HW2  857   8.925   5.912   5.346
  203SOL     OW  858   8.267   5.024   0.363
  203SOL    HW1  859   8.301   5.096   0.309
  203SOL    HW2  860   8.228   5.068   0.439
  204SOL     OW  861   9.502   7.376   5.461
  204SOL    HW1  862   9.579   7.407   5.413
  204SOL    HW2  863   9.510   7.417   5.547
  205SOL     OW  864   9.214   6.748   4.196
  205SOL    HW1  865   9.195   6.778   4.285
  205SOL    HW2  866   9.160   6.670   4.184
  206SOL     OW  867   6.309   4.583   4.792
  206SOL    HW1  868   6.241   4.541   4.844
  206SOL    HW2  869   6.390   4.567   4.840
  207SOL     OW  870  14.579  10.275   7.193
  207SOL    HW1  871  14.634  10.235   7.259
  207SOL    HW2  872  14.505  10.311   7.243
  208SOL     OW  873   5.139   4.279   3.683
  208SOL    HW1  874   5.213   4.339   3.676
  208SOL    HW2  875   5.062   4.336   3.678
  209SOL     OW  876  13.955   5.266   5.955
  209SOL    HW1  877  14.011   5.189   5.952
  209SOL    HW2  878  13.976   5.314   5.875
  210SOL     OW  879   1.036   5.715   0.237
  210SOL    HW1  880   0.980   5.733   0.313
  210SOL    HW2  881   1.066   5.801   0.209
  211SOL     OW  882   1.092  10.661   0.060
  211SOL    HW1  883   6.527  16.014   7.604
  211SOL    HW2  884   1.036  10.729   0.023
  212SOL     OW  885  13.083   7.507   6.812
  212SOL    HW1  886  13.152   7.446   6.785
  212SOL    HW2  887  13.118   7.594   6.789
  213SOL     OW  888   2.828   3.000   1.707
  213SOL    HW1  889   2.816   3.030   1.616
  213SOL    HW2  890   2.767   3.053   1.758
  214SOL     OW  891  10.531   0.818   0.184
  214SOL    HW1  892  10.617   0.788   0.213
  214SOL    HW2  893  10.490   0.740   0.147
  215SOL     OW  894   9.032  13.551   4.085
  215SOL    HW1  895   9.113  13.583   4.126
  215SOL    HW2  896   9.040  13.456   4.088
  216SOL     OW  897  12.986   6.501   3.456
  216SOL    HW1  898  12.920   6.551   3.504
  216SOL    HW2  899  13.068   6.517   3.502
  217SOL     OW  900  10.527   5.403   3.511
  217SOL    HW1  901  10.610   5.413   3.558
  217SOL    HW2  902  10.482   5.487   3.525
  218SOL     OW  903  10.092  13.603   6.659
  218SOL    HW1  904  10.106  13.642   6.745
  218SOL    HW2  905  10.045  13.670   6.609
  219SOL     OW  906   6.406   9.586   2.826
  219SOL    HW1  907   6.311   9.574   2.820
  219SOL    HW2  908   6.431   9.619   2.740
  220SOL     OW  909   6.525  10.544   6.592
  220SOL    HW1  910   6.445  10.509   6.631
  220SOL    HW2  911   6.538  10.489   6.514
  221SOL     OW  912  11.990   6.201   7.140
  221SOL    HW1  913  11.982   6.119   7.092
  221SOL    HW2  914  11.923   6.258   7.102
  222SOL     OW  915   3.738   3.743   4.295
  222SOL    HW1  916   3.775   3.657   4.311
  222SOL    HW2  917   3.808   3.804   4.319
  223SOL     OW  918  14.907  11.315   6.139
  223SOL    HW1  919  14.899  11.384   6.204
  223SOL    HW2  920  14.950  11.243   6.186
  224SOL     OW  921  10.000  15.736   7.082
  224SOL    HW1  922   9.980   5.055   7.091
  224SOL    HW2  923  10.003  15.704   7.172
  225SOL     OW  924  10.082   3.325   2.349
  225SOL    HW1  925  10.050   3.414   2.363
  225SOL    HW2  926  10.152   3.314   2.414
  226SOL     OW  927   7.952   4.160   1.283
  226SOL    HW1  928   7.939   4.178   1.376
  226SOL    HW2  929   7.923   4.070   1.272
  227SOL     OW  930  10.934   8.322   5.665
  227SOL    HW1  931  10.887   8.384   5.609
  227SOL    HW2  932  10.932   8.240   5.616
  228SOL     OW  933   8.918   4.878   3.862
  228SOL    HW1  934   8.996   4.827   3.884
  228SOL    HW2  935   8.852   4.851   3.927
  229SOL     OW  936   6.053   4.410   2.217
  229SOL    HW1  937   6.125   4.358   2.181
  229SOL    HW2  938   6.017   4.355   2.287
  230SOL     OW  939   8.966   9.899   6.901
  230SOL    HW1  940   9.061   9.901   6.901
  230SOL    HW2  941   8.942   9.916   6.993
  231SOL     OW  942   2.295   8.365   2.893
  231SOL    HW1  943   2.321   8.452   2.864
  231SOL    HW2  944   2.269   8.377   2.985
  232SOL     OW  945   7.552   0.628   0.680
  232SOL    HW1  946   7.519   0.542   0.654
  232SOL    HW2  947   7.644   0.628   0.651
  233SOL     OW  948   9.641   6.028   3.619
  233SOL    HW1  949   9.556   6.013   3.579
  233SOL    HW2  950   9.664   6.118   3.596
  234SOL     OW  951   4.840   6.937   4.712
  234SOL    HW1  952   4.761   6.988   4.698
  234SOL    HW2  953   4.837   6.868   4.646
  235SOL     OW  954  15.470  10.127   7.030
  235SOL    HW1  955  15.409  10.062   6.997
  235SOL    HW2  956  15.484  10.102   7.122
  236SOL     OW  957   5.679   9.706   0.861
  236SOL    HW1  958   5.725   9.778   0.904
  236SOL    HW2  959   5.747   9.642   0.841
  237SOL     OW  960   6.520  14.016   6.182
  237SOL    HW1  961   6.592  13.993   6.241
  237SOL    HW2  962   6.563  14.034   6.098
  238SOL     OW  963   5.082   5.639   6.951
  238SOL    HW1  964   5.007   5.673   7.000
  238SOL    HW2  965   5.130   5.718   6.924
  239SOL     OW  966  11.913   4.834   5.340
  239SOL    HW1  967  11.945   4.751   5.307
  239SOL    HW2  968  11.983   4.897   5.321
  240SOL     OW  969   5.777   1.991   0.165
  240SOL    HW1  970   5.727   2.048   0.107
  240SOL    HW2  971   5.868   2.005   0.138
  241SOL     OW  972  13.633   7.861   5.181
  241SOL    HW1  973  13.710   7.916   5.167
  241SOL    HW2  974  13.574   7.915   5.234
  242SOL     OW  975   1.463   1.937   1.099
  242SOL    HW1  976   1.490   1.985   1.022
  242SOL    HW2  977   1.539   1.883   1.122
  243SOL     OW  978   2.560   6.121   2.506
  243SOL    HW1  979   2.513   6.196   2.470
  243SOL    HW2  980   2.531   6.047   2.454
  244SOL     OW  981   4.227   9.363   4.612
  244SOL    HW1  982   4.251   9.427   4.545
  244SOL    HW2  983   4.132   9.352   4.602
  245SOL     OW  984   3.971   3.876   5.137
  245SOL    HW1  985   4.018   3.913   5.212
  245SOL    HW2  986   3.880   3.904   5.149
  246SOL     OW  987   2.600  10.855   2.928
  246SOL    HW1  988   2.547  10.911   2.985
  246SOL    HW2  989   2.536  10.806   2.876
  247SOL     OW  990   5.025   4.027   4.873
  247SOL    HW1  991   4.943   3.980   4.891
  247SOL    HW2  992   5.006   4.118   4.898
  248SOL     OW  993  11.039   2.569   2.902
  248SOL    HW1  994  11.068   2.490   2.856
  248SOL    HW2  995  11.086   2.640   2.859
  249SOL     OW  996   5.163   5.948   0.482
  249SOL    HW1  997   5.226   5.882   0.512
  249SOL    HW2  998   5.209   5.998   0.415
  250SOL     OW  999  11.934   3.341   2.856
  250SOL    HW1 1000  12.016   3.332   2.808
  250SOL    HW2 1001  11.866   3.328   2.790
  251SOL     OW 1002  14.288  10.822   4.979
  251SOL    HW1 1003   3.553  10.735   4.976
  251SOL    HW2 1004  14.271  10.837   5.072
  252SOL     OW 1005   7.350  11.044   3.727
  252SOL    HW1 1006   7.267  10.997   3.721
  252SOL    HW2 1007   7.414  10.987   3.684
  253SOL     OW 1008   9.752   4.132   3.790
  253SOL    HW1 1009   9.805   4.098   3.862
  253SOL    HW2 1010   9.667   4.153   3.829
  254SOL     OW 1011   5.218  13.808   6.527
  254SOL    HW1 1012   5.202  13.899   6.504
  254SOL    HW2 1013   5.312  13.795   6.511
  255SOL     OW 1014   5.870   5.788   0.233
  255SOL    HW1 1015   5.924   5.859   0.199
  255SOL    HW2 1016   5.798   5.831   0.279
  256SOL     OW 1017   8.164   6.780   5.002
  256SOL    HW1 1018   8.240   6.750   4.952
  256SOL    HW2 1019   8.096   6.792   4.936
  257SOL     OW 1020  12.724   3.834   3.899
  257SOL    HW1 1021  12.717   3.882   3.816
  257SOL    HW2 1022  12.798   3.774   3.885
  258SOL     OW 1023  15.771   6.389   7.530
  258SOL    HW1 1024  15.690   6.384   7.582
  258SOL    HW2 1025  15.759   6.466   7.475
  259SOL     OW 1026   4.631   7.659   3.302
  259SOL    HW1 1027   4.661   7.738   3.258
  259SOL    HW2 1028   4.690   7.591   3.272
  260SOL     OW 1029   6.023   8.206   6.881
  260SOL    HW1 1030   5.938   8.245   6.898
  260SOL    HW2 1031   6.060   8.256   6.809
  261SOL     OW 1032  10.944   7.661   1.670
  261SOL    HW1 1033  11.033   7.684   1.697
  261SOL    HW2 1034  10.956   7.599   1.598
  262SOL     OW 1035   2.372   7.746   2.513
  262SOL    HW1 1036   2.409   7.674   2.564
  262SOL    HW2 1037   2.389   7.824   2.566
  263SOL     OW 1038   0.932   6.903   1.147
  263SOL    HW1 1039   0.868   6.834   1.167
  263SOL    HW2 1040   0.895   6.950   1.073
  264SOL     OW 1041  14.114   9.336   7.387
  264SOL    HW1 1042  14.039   9.337   7.327
  264SOL    HW2 1043  14.152   9.424   7.379
  265SOL     OW 1044   3.958   5.037   5.184
  265SOL    HW1 1045   4.037   5.036   5.130
  265SOL    HW2 1046   3.908   4.960   5.157
  266SOL     OW 1047   7.149  12.416   5.823
  266SOL    HW1 1048   7.180  12.333   5.786
  266SOL    HW2 1049   7.085  12.448   5.759
  267SOL     OW 1050  10.936   8.427   6.944
  267SOL    HW1 1051  10.889   8.407   6.863
  267SOL    HW2 1052  10.959   8.519   6.936
  268SOL     OW 1053  11.454   8.846   4.635
  268SOL    HW1 1054  11.513   8.784   4.677
  268SOL    HW2 1055  11.493   8.861   4.548
  269SOL     OW 1056   9.222   5.536   0.098
  269SOL    HW1 1057   9.243   5.448   0.064
  269SOL    HW2 1058   9.228   5.593   0.021
  270SOL     OW 1059  10.803   5.097   3.893
  270SOL    HW1 1060  10.881   5.046   3.916
  270SOL    HW2 1061  10.773   5.058   3.811
  271SOL     OW 1062   1.455   5.717   1.673
  271SOL    HW1 1063   1.360   5.710   1.684
  271SOL    HW2 1064   1.468   5.805   1.638
  272SOL     OW 1065  14.243   5.713   6.315
  272SOL    HW1 1066  14.204   5.800   6.307
  272SOL    HW2 1067  14.285   5.713   6.401
  273SOL     OW 1068   2.118   6.543   2.512
  273SOL    HW1 1069   2.027   6.517   2.500
  273SOL    HW2 1070   2.119   6.595   2.592
  274SOL     OW 1071  10.029   7.943   6.647
  274SOL    HW1 1072  10.060   7.867   6.599
  274SOL    HW2 1073   9.935   7.926   6.660
  275SOL     OW 1074   9.655   2.888   1.797
  275SOL    HW1 1075   9.726   2.932   1.843
  275SOL    HW2 1076   9.583   2.952   1.797
  276SOL     OW 1077   2.918   7.041   2.256
  276SOL    HW1 1078   2.973   6.978   2.209
  276SOL    HW2 1079   2.832   6.999   2.262
  277SOL     OW 1080   8.736   6.198   5.627
  277SOL    HW1 1081   8.773   6.147   5.556
  277SOL    HW2 1082   8.796   6.185   5.700
  278SOL     OW 1083   8.321  13.182   5.869
  278SOL    HW1 1084   8.259  13.131   5.815
  278SOL    HW2 1085   8.293  13.273   5.858
  279SOL     OW 1086  13.509  11.439   7.221
  279SOL    HW1 1087  13.429  11.448   7.272
  279SOL    HW2 1088  13.480  11.413   7.134
  280SOL     OW 1089   7.505  10.132   2.291
  280SOL    HW1 1090   7.467  10.111   2.376
  280SOL    HW2 1091   7.442  10.190   2.250
  281SOL     OW 1092   4.514   9.815   3.326
  281SOL    HW1 1093   4.583   9.837   3.264
  281SOL    HW2 1094   4.543   9.733   3.366
  282SOL     OW 1095   4.566  10.614   3.390
  282SOL    HW1 1096   4.608  10.700   3.400
  282SOL    HW2 1097   4.476  10.635   3.365
  283SOL     OW 1098  10.743  14.254   5.114
  283SOL    HW1 1099  10.761  14.348   5.123
  283SOL    HW2 1100  10.697  14.231   5.194
  284SOL     OW 1101   7.861   3.591   3.521
  284SOL    HW1 1102   7.775   3.631   3.527
  284SOL    HW2 1103   7.852   3.524   3.454
  285SOL     OW 1104   5.641   2.190   1.447
  285SOL    HW1 1105   5.708   2.258   1.434
  285SOL    HW2 1106   5.565   2.223   1.399
  286SOL     OW 1107  12.911  12.268   5.358
  286SOL    HW1 1108  12.876  12.219   5.284
  286SOL    HW2 1109  12.872  12.355   5.350
  287SOL     OW 1110   5.055  13.897   6.760
  287SOL    HW1 1111   5.064  13.830   6.692
  287SOL    HW2 1112   5.068  13.980   6.713
  288SOL     OW 1113   8.646   8.414   6.237
  288SOL    HW1 1114   8.611   8.426   6.149
  288SOL    HW2 1115   8.639   8.320   6.253
  289SOL     OW 1116  11.913   6.071   2.932
  289SOL    HW1 1117  11.907   6.098   2.840
  289SOL    HW2 1118  11.824   6.042   2.954
  290SOL     OW 1119  10.664   6.403   5.986
  290SOL    HW1 1120  10.744   6.450   6.009
  290SOL    HW2 1121  10.660   6.409   5.891
  291SOL     OW 1122  10.039   7.242   2.561
  291SOL    HW1 1123  10.098   7.292   2.504
  291SOL    HW2 1124  10.097   7.184   2.610
  292SOL     OW 1125   7.549   8.196   3.376
  292SOL    HW1 1126   7.502   8.246   3.310
  292SOL    HW2 1127   7.481   8.145   3.421
  293SOL     OW 1128  10.519  10.234   1.826
  293SOL    HW1 1129  10.604  10.272   1.848
  293SOL    HW2 1130  10.539  10.159   1.771
  294SOL     OW 1131   2.361   0.445   0.470
  294SOL    HW1 1132   2.451   0.458   0.499
  294SOL    HW2 1133   2.311   0.515   0.512
  295SOL     OW 1134   4.369   8.668   6.042
  295SOL    HW1 1135   4.284   8.686   6.002
  295SOL    HW2 1136   4.376   8.732   6.113
  296SOL     OW 1137  13.007   4.988   4.067
  296SOL    HW1 1138  12.917   4.987   4.099
  296SOL    HW2 1139  13.009   5.058   4.001
  297SOL     OW 1140   3.262   3.598   1.997
  297SOL    HW1 1141   3.320   3.663   2.036
  297SOL    HW2 1142   3.322   3.527   1.970
  298SOL     OW 1143   9.622   6.673   6.630
  298SOL    HW1 1144   9.645   6.621   6.553
  298SOL    HW2 1145   9.528   6.689   6.620
  299SOL     OW 1146   9.901   8.558   0.281
  299SOL    HW1 1147   9.995   8.545   0.291
  299SOL    HW2 1148   9.871   8.480   0.234
  300SOL     OW 1149   2.148   9.300   1.493
  300SOL    HW1 1150   2.081   9.243   1.455
  300SOL    HW2 1151   2.185   9.347   1.418
  301SOL     OW 1152   5.209   3.059   1.010
  301SOL    HW1 1153   5.150   2.995   0.970
  301SOL    HW2 1154   5.197   3.048   1.104
  302SOL     OW 1155   8.525   7.188   0.577
  302SOL    HW1 1156   8.552   7.157   0.664
  302SOL    HW2 1157   8.434   7.217   0.589
  303SOL     OW 1158  10.390  11.925   4.894
  303SOL    HW1 1159  10.349  12.011   4.894
  303SOL    HW2 1160  10.318  11.864   4.886
  304SOL     OW 1161  10.710   4.452   1.149
  304SOL    HW1 1162  10.781   4.446   1.085
  304SOL    HW2 1163  10.639   4.400   1.112
  305SOL     OW 1164  12.001   7.857   6.247
  305SOL    HW1 1165  12.057   7.808   6.187
  305SOL    HW2 1166  11.967   7.791   6.307
  306SOL     OW 1167   6.516   1.162   0.108
  306SOL    HW1 1168   6.587   1.103   0.086
  306SOL    HW2 1169   6.444   1.105   0.135
  307SOL     OW 1170  11.352   8.231   4.454
  307SOL    HW1 1171  11.293   8.240   4.380
  307SOL    HW2 1172  11.436   8.264   4.423
  308SOL     OW 1173  14.352  10.566   6.138
  308SOL    HW1 1174  14.271  10.581   6.186
  308SOL    HW2 1175  14.401  10.505   6.193
  309SOL     OW 1176  13.032   8.995   4.674
  309SOL    HW1 1177  13.047   9.056   4.746
  309SOL    HW2 1178  12.938   8.980   4.674
  310SOL     OW 1179  13.295   9.423   7.322
  310SOL    HW1 1180  13.243   9.398   7.398
  310SOL    HW2 1181  13.322   9.340   7.282
  311SOL     OW 1182  10.513   5.655   4.682
  311SOL    HW1 1183  10.424   5.671   4.713
  311SOL    HW2 1184  10.514   5.562   4.658
  312SOL     OW 1185  11.479  14.376   6.179
  312SOL    HW1 1186  11.459  14.330   6.098
  312SOL    HW2 1187  11.472  14.469   6.157
  313SOL     OW 1188   6.398   0.899   0.049
  313SOL    HW1 1189   6.316   0.940   0.019
  313SOL    HW2 1190  11.835   6.272   7.587
  314SOL     OW 1191   7.302   8.776   3.049
  314SOL    HW1 1192   7.382   8.824   3.070
  314SOL    HW2 1193   7.323   8.728   2.969
  315SOL     OW 1194   5.029   9.227   5.440
  315SOL    HW1 1195   5.006   9.241   5.532
  315SOL    HW2 1196   5.038   9.132   5.433
  316SOL     OW 1197  14.450  14.578   6.907
  316SOL    HW1 1198  14.457  14.634   6.984
  316SOL    HW2 1199  14.432  14.491   6.942
  317SOL     OW 1200   3.205  11.053   3.359
  317SOL    HW1 1201   3.220  11.142   3.394
  317SOL    HW2 1202   3.127  11.022   3.405
  318SOL     OW 1203  14.545   5.925   7.113
  318SOL    HW1 1204  14.621   5.981   7.093
  318SOL    HW2 1205  14.469   5.978   7.089
  319SOL     OW 1206  10.902  10.024   4.978
  319SOL    HW1 1207  10.927   9.932   4.973
  319SOL    HW2 1208  10.807  10.023   4.983
  320SOL     OW 1209   6.068  10.503   5.214
  320SOL    HW1 1210   6.044  10.411   5.213
  320SOL    HW2 1211   5.988  10.549   5.189
  321SOL     OW 1212  12.223   8.010   3.905
  321SOL    HW1 1213  12.129   7.991   3.910
  321SOL    HW2 1214  12.266   7.928   3.931
  322SOL     OW 1215   8.069   3.936   4.183
  322SOL    HW1 1216   8.041   3.905   4.097
  322SOL    HW2 1217   8.135   3.873   4.211
  323SOL     OW 1218   5.996   7.971   4.158
  323SOL    HW1 1219   5.972   7.902   4.220
  323SOL    HW2 1220   6.042   8.036   4.211
  324SOL     OW 1221   4.771   0.906   0.209
  324SOL    HW1 1222   4.798   0.850   0.281
  324SOL    HW2 1223   4.697   0.955   0.243
  325SOL     OW 1224   9.697   3.029   2.085
  325SOL    HW1 1225   9.785   3.007   2.055
  325SOL    HW2 1226   9.700   3.123   2.103
  326SOL     OW 1227   3.414   9.881   3.709
  326SOL    HW1 1228   3.343   9.879   3.645
  326SOL    HW2 1229   3.466   9.803   3.689
  327SOL     OW 1230   8.354  10.536   3.569
  327SOL    HW1 1231   8.426  10.508   3.624
  327SOL    HW2 1232   8.318  10.455   3.533
  328SOL     OW 1233   5.271   3.659   5.153
  328SOL    HW1 1234   5.250   3.734   5.098
  328SOL    HW2 1235   5.221  14.448   5.233
  329SOL     OW 1236   3.481   7.112   4.668
  329SOL    HW1 1237   3.554   7.100   4.729
  329SOL    HW2 1238   3.407   7.134   4.723
  330SOL     OW 1239   4.843  12.045   3.481
  330SOL    HW1 1240   4.880  12.095   3.553
  330SOL    HW2 1241   4.775  11.990   3.522
  331SOL     OW 1242   4.394   2.531   3.164
  331SOL    HW1 1243   4.480   2.506   3.130
  331SOL    HW2 1244   4.337   2.529   3.087
  332SOL     OW 1245   2.741   8.749   1.224
  332SOL    HW1 1246   2.785   8.666   1.204
  332SOL    HW2 1247   2.757   8.804   1.147
  333SOL     OW 1248   8.625   4.002   2.100
  333SOL    HW1 1249   8.558   4.065   2.127
  333SOL    HW2 1250   8.708   4.046   2.118
  334SOL     OW 1251   8.290   5.494   7.602
  334SOL    HW1 1252   2.939   0.087   0.070
  334SOL    HW2 1253   2.821   0.154   0.002
  335SOL     OW 1254   5.725   9.760   1.591
  335SOL    HW1 1255   5.727   9.664   1.597
  335SOL    HW2 1256   5.746   9.778   1.499
  336SOL     OW 1257  10.327  12.071   2.431
  336SOL    HW1 1258  10.371  12.043   2.351
  336SOL    HW2 1259  10.267  11.999   2.452
  337SOL     OW 1260   8.345   4.892   0.985
  337SOL    HW1 1261   8.385   4.900   1.071
  337SOL    HW2 1262   8.336   4.982   0.954
  338SOL     OW 1263   4.291   4.290   2.920
  338SOL    HW1 1264   4.369   4.337   2.892
  338SOL    HW2 1265   4.219   4.338   2.879
  339SOL     OW 1266   7.317   5.516   3.920
  339SOL    HW1 1267   7.226   5.494   3.943
  339SOL    HW2 1268   7.321   5.503   3.826
  340SOL     OW 1269  13.755   6.736   6.094
  340SOL    HW1 1270  13.802   6.662   6.056
  340SOL    HW2 1271  13.747   6.798   6.022
  341SOL     OW 1272  12.422   7.911   5.145
  341SOL    HW1 1273  12.404   7.882   5.234
  341SOL    HW2 1274  12.508   7.874   5.125
  342SOL     OW 1275  10.431   2.098   0.182
  342SOL    HW1 1276  10.435   2.182   0.136
  342SOL    HW2 1277  10.441   2.033   0.112
  343SOL     OW 1278  12.541   9.654   4.113
  343SOL    HW1 1279  12.488   9.583   4.077
  343SOL    HW2 1280  12.521   9.729   4.056
  344SOL     OW 1281   9.154   9.206   4.266
  344SOL    HW1 1282   9.231   9.157   4.295
  344SOL    HW2 1283   9.108   9.229   4.346
  345SOL     OW 1284  10.404   2.396   3.244
  345SOL    HW1 1285  10.311   2.417   3.238
  345SOL    HW2 1286  10.415   2.361   3.332
  346SOL     OW 1287   8.950   6.708   7.203
  346SOL    HW1 1288   8.910   6.715   7.117
  346SOL    HW2 1289   9.007   6.631   7.197
  347SOL     OW 1290  10.910   3.938   3.711
  347SOL    HW1 1291  10.937   3.892   3.790
  347SOL    HW2 1292  10.949   3.887   3.640
  348SOL     OW 1293   3.999   7.735   4.593
  348SOL    HW1 1294   3.915   7.688   4.593
  348SOL    HW2 1295   4.064   7.668   4.573
  349SOL     OW 1296   5.274   6.612   4.901
  349SOL    HW1 1297   5.202   6.558   4.868
  349SOL    HW2 1298   5.247   6.702   4.884
  350SOL     OW 1299   7.726  10.458   1.144
  350SOL    HW1 1300   7.709  10.404   1.221
  350SOL    HW2 1301   7.778  10.402   1.086
  351SOL     OW 1302   4.361   5.248   2.438
  351SOL    HW1 1303   4.345   5.165   2.393
  351SOL    HW2 1304   4.439   5.283   2.396
  352SOL     OW 1305  14.068  14.647   6.354
  352SOL    HW1 1306  14.050  14.553   6.347
  352SOL    HW2 1307  14.123  14.666   6.278
  353SOL     OW 1308   9.632  12.025   3.262
  353SOL    HW1 1309   9.714  12.071   3.284
  353SOL    HW2 1310   9.577  12.092   3.223
  354SOL     OW 1311  12.853   5.710   3.276
  354SOL    HW1 1312  12.881   5.786   3.224
  354SOL    HW2 1313  12.765   5.690   3.243
  355SOL     OW 1314   5.821   8.769   6.814
  355SOL    HW1 1315   5.790   8.685   6.848
  355SOL    HW2 1316   5.791   8.833   6.878
  356SOL     OW 1317   9.941  11.109   7.233
  356SOL    HW1 1318   9.949  11.204   7.229
  356SOL    HW2 1319   9.916  11.090   7.324
  357SOL     OW 1320  14.054   4.503   5.219
  357SOL    HW1 1321  14.020   4.573   5.163
  357SOL    HW2 1322  14.141   4.484   5.182
  358SOL     OW 1323   7.760  10.003   1.035
  358SOL    HW1 1324   7.801  10.088   1.019
  358SOL    HW2 1325   7.827   9.954   1.083
  359SOL     OW 1326  10.367   7.882   0.244
  359SOL    HW1 1327  10.336   7.871   0.154
  359SOL    HW2 1328  10.332   7.806   0.291
  360SOL     OW 1329   5.267   7.039   2.522
  360SOL    HW1 1330   5.225   7.008   2.442
  360SOL    HW2 1331   5.260   7.135   2.516
  361SOL     OW 1332   6.971   6.348   5.668
  361SOL    HW1 1333   6.964   6.393   5.752
  361SOL    HW2 1334   7.064   6.324   5.661
  362SOL     OW 1335   3.992   2.338   1.537
  362SOL    HW1 1336   4.005   2.288   1.618
  362SOL    HW2 1337   3.933   2.284   1.485
  363SOL     OW 1338   7.465   8.054   2.576
  363SOL    HW1 1339   7.505   7.984   2.525
  363SOL    HW2 1340   7.503   8.045   2.664
  364SOL     OW 1341   4.396  11.032   4.619
  364SOL    HW1 1342   4.302  11.039   4.604
  364SOL    HW2 1343   4.436  11.070   4.541
  365SOL     OW 1344   7.754   7.853   1.151
  365SOL    HW1 1345   7.738   7.762   1.125
  365SOL    HW2 1346   7.806   7.847   1.231
  366SOL     OW 1347   1.468   4.638   1.191
  366SOL    HW1 1348   1.374   4.653   1.200
  366SOL    HW2 1349   1.504   4.665   1.275
  367SOL     OW 1350   9.920  14.816   5.856
  367SOL    HW1 1351   9.969  14.872   5.916
  367SOL    HW2 1352   9.918  14.731   5.899
  368SOL     OW 1353   1.565   2.987   2.196
  368SOL    HW1 1354   1.624   3.052   2.233
  368SOL    HW2 1355   1.622   2.915   2.171
  369SOL     OW 1356   6.149   5.914   1.023
  369SOL    HW1 1357   6.158   5.978   1.093
  369SOL    HW2 1358   6.139   5.830   1.069
  370SOL     OW 1359   7.149   5.607   0.808
  370SOL    HW1 1360   7.244   5.601   0.823
  370SOL    HW2 1361   7.113   5.530   0.853
  371SOL     OW 1362   2.085   3.377   2.828
  371SOL    HW1 1363   2.167   3.405   2.870
  371SOL    HW2 1364   2.038   3.459   2.811
  372SOL     OW 1365   3.358  11.768   1.809
  372SOL    HW1 1366   3.364  11.711   1.732
  372SOL    HW2 1367   3.449  11.786   1.832
  373SOL     OW 1368  13.067   6.902   5.871
  373SOL    HW1 1369  13.084   6.981   5.819
  373SOL    HW2 1370  13.109   6.831   5.823
  374SOL     OW 1371   1.599   3.553   1.688
  374SOL    HW1 1372   1.538   3.499   1.637
  374SOL    HW2 1373   1.542   3.604   1.745
  375SOL     OW 1374   5.051   8.996   6.553
  375SOL    HW1 1375   4.962   9.003   6.519
  375SOL    HW2 1376   5.107   9.005   6.476
  376SOL     OW 1377  11.902  10.895   3.752
  376SOL    HW1 1378  11.880  10.872   3.662
  376SOL    HW2 1379  11.955  10.975   3.744
  377SOL     OW 1380   9.021   8.588   5.663
  377SOL    HW1 1381   9.033   8.546   5.748
  377SOL    HW2 1382   9.022   8.516   5.600
  378SOL     OW 1383  11.367   6.477   2.834
  378SOL    HW1 1384  11.413   6.393   2.823
  378SOL    HW2 1385  11.424   6.541   2.792
  379SOL     OW 1386  14.921  13.714   6.573
  379SOL    HW1 1387  14.831  13.726   6.605
  379SOL    HW2 1388  14.958  13.802   6.573
  380SOL     OW 1389   3.459   1.126   0.381
  380SOL    HW1 1390   3.544   1.097   0.348
  380SOL    HW2 1391   3.422   1.180   0.311
  381SOL     OW 1392  13.147   7.565   3.838
  381SOL    HW1 1393  13.095   7.494   3.800
  381SOL    HW2 1394  13.238   7.539   3.822
  382SOL     OW 1395   0.930   8.560   0.999
  382SOL    HW1 1396   0.907   8.558   0.906
  382SOL    HW2 1397   1.025   8.567   1.000
  383SOL     OW 1398   9.196   5.871   4.477
  383SOL    HW1 1399   9.198   5.876   4.381
  383SOL    HW2 1400   9.119   5.818   4.496
  384SOL     OW 1401   6.173  10.291   5.977
  384SOL    HW1 1402   6.205  10.369   6.022
  384SOL    HW2 1403   6.252  10.250   5.942
  385SOL     OW 1404   6.038   4.448   3.587
  385SOL    HW1 1405   5.989   4.404   3.518
  385SOL    HW2 1406   6.055   4.535   3.553
  386SOL     OW 1407   6.090   5.362   4.610
  386SOL    HW1 1408   6.040   5.336   4.532
  386SOL    HW2 1409   6.085   5.286   4.668
  387SOL     OW 1410   2.904   2.388   1.032
  387SOL    HW1 1411   2.898   2.353   0.943
  387SOL    HW2 1412   2.881   2.481   1.023
  388SOL     OW 1413   7.827   2.229   2.166
  388SOL    HW1 1414   7.810   2.151   2.113
  388SOL    HW2 1415   7.746   2.279   2.163
  389SOL     OW 1416   1.909   3.996   1.854
  389SOL    HW1 1417   1.992   3.954   1.832
  389SOL    HW2 1418   1.843   3.929   1.837
  390SOL     OW 1419  10.142   4.883   4.603
  390SOL    HW1 1420  10.191   4.933   4.537
  390SOL    HW2 1421  10.206   4.823   4.640
  391SOL     OW 1422  13.876   3.466   4.735
  391SOL    HW1 1423  13.882   3.391   4.675
  391SOL    HW2 1424  13.816   3.527   4.691
  392SOL     OW 1425   4.020   5.608   5.432
  392SOL    HW1 1426   3.940   5.633   5.385
  392SOL    HW2 1427   4.035   5.680   5.493
  393SOL     OW 1428  10.918  10.991   4.779
  393SOL    HW1 1429  10.946  11.061   4.838
  393SOL    HW2 1430  10.970  11.005   4.699
  394SOL     OW 1431  12.886   5.896   4.468
  394SOL    HW1 1432  12.888   5.970   4.407
  394SOL    HW2 1433  12.932   5.826   4.423
  395SOL     OW 1434   7.538  10.487   6.415
  395SOL    HW1 1435   7.526  10.419   6.481
  395SOL    HW2 1436   7.563  10.565   6.465
  396SOL     OW 1437  11.583   8.037   2.829
  396SOL    HW1 1438  11.541   7.963   2.874
  396SOL    HW2 1439  11.512   8.100   2.816
  397SOL     OW 1440   8.857   7.303   5.721
  397SOL    HW1 1441   8.946   7.275   5.699
  397SOL    HW2 1442   8.812   7.306   5.636
  398SOL     OW 1443  12.386   5.768   4.601
  398SOL    HW1 1444  12.415   5.690   4.647
  398SOL    HW2 1445  12.456   5.832   4.617
  399SOL     OW 1446   8.783   4.805   4.119
  399SOL    HW1 1447   8.722   4.875   4.095
  399SOL    HW2 1448   8.750   4.772   4.203
  400SOL     OW 1449   1.822   2.017   1.547
  400SOL    HW1 1450   1.760   2.066   1.493
  400SOL    HW2 1451   1.901   2.013   1.494
  401SOL     OW 1452  11.810   6.389   1.908
  401SOL    HW1 1453  11.904   6.374   1.899
  401SOL    HW2 1454  11.775   6.302   1.929
  402SOL     OW 1455   3.770   1.897   1.895
  402SOL    HW1 1456   3.707   1.840   1.850
  402SOL    HW2 1457   3.794   1.847   1.973
  403SOL     OW 1458   5.445   7.878   3.158
  403SOL    HW1 1459   5.472   7.807   3.216
  403SOL    HW2 1460   5.506   7.873   3.085
  404SOL     OW 1461   7.998  11.017   4.561
  404SOL    HW1 1462   7.992  10.996   4.468
  404SOL    HW2 1463   7.984  11.112   4.566
  405SOL     OW 1464   9.671   4.557   3.874
  405SOL    HW1 1465   9.762   4.572   3.899
  405SOL    HW2 1466   9.656   4.465   3.894
  406SOL     OW 1467   8.464   9.509   2.541
  406SOL    HW1 1468   8.447   9.450   2.615
  406SOL    HW2 1469   8.422   9.591   2.566
  407SOL     OW 1470   3.231   5.231   3.401
  407SOL    HW1 1471   3.227   5.253   3.494
  407SOL    HW2 1472   3.265   5.309   3.359
  408SOL     OW 1473  13.417   4.114   4.468
  408SOL    HW1 1474  13.484   4.182   4.457
  408SOL    HW2 1475  13.358   4.149   4.535
  409SOL     OW 1476   8.514   4.599   0.624
  409SOL    HW1 1477   8.551   4.611   0.711
  409SOL    HW2 1478   8.525   4.684   0.581
  410SOL     OW 1479   3.213   7.747   3.140
  410SOL    HW1 1480   3.226   7.839   3.163
  410SOL    HW2 1481   3.256   7.698   3.211
  411SOL     OW 1482   8.619   4.246   4.482
  411SOL    HW1 1483   8.638   4.338   4.466
  411SOL    HW2 1484   8.652   4.201   4.404
  412SOL     OW 1485   5.589   8.787   2.309
  412SOL    HW1 1486   5.578   8.876   2.276
  412SOL    HW2 1487   5.664   8.792   2.368
  413SOL     OW 1488  10.069  12.154   6.184
  413SOL    HW1 1489  10.015  12.077   6.171
  413SOL    HW2 1490  10.006  12.227   6.186
  414SOL     OW 1491   8.622   8.539   4.736
  414SOL    HW1 1492   8.538   8.493   4.740
  414SOL    HW2 1493   8.630   8.582   4.821
  415SOL     OW 1494  10.539  10.318   2.572
  415SOL    HW1 1495  10.515  10.408   2.552
  415SOL    HW2 1496  10.457  10.269   2.568
  416SOL     OW 1497   5.616  10.309   1.171
  416SOL    HW1 1498   5.682  10.240   1.162
  416SOL    HW2 1499   5.663  10.391   1.156
  417SOL     OW 1500  12.509  11.745   5.395
  417SOL    HW1 1501  12.521  11.699   5.312
  417SOL    HW2 1502  12.441  11.810   5.377
  418SOL     OW 1503  11.450  11.767   1.635
  418SOL    HW1 1504  11.400  11.827   1.580
  418SOL    HW2 1505  11.394  11.753   1.712
  419SOL     OW 1506   8.396  13.519   7.033
  419SOL    HW1 1507   8.419  13.594   6.979
  419SOL    HW2 1508   8.465  13.454   7.014
  420SOL     OW 1509   3.778   3.590   2.770
  420SOL    HW1 1510   3.771   3.628   2.857
  420SOL    HW2 1511   3.805   3.499   2.785
  421SOL     OW 1512   8.175   7.626   3.615
  421SOL    HW1 1513   8.088   7.665   3.602
  421SOL    HW2 1514   8.161   7.557   3.680
  422SOL     OW 1515  10.341   8.944   2.930
  422SOL    HW1 1516  10.264   8.998   2.912
  422SOL    HW2 1517  10.375   8.979   3.013
  423SOL     OW 1518   5.582  10.570   1.603
  423SOL    HW1 1519   5.499  10.576   1.650
  423SOL    HW2 1520   5.594  10.476   1.589
  424SOL     OW 1521   8.618  13.344   5.099
  424SOL    HW1 1522   8.671  13.424   5.096
  424SOL    HW2 1523   8.550  13.358   5.033
  425SOL     OW 1524  10.057   3.426   4.231
  425SOL    HW1 1525  10.089   3.338   4.249
  425SOL    HW2 1526   9.962   3.416   4.221
  426SOL     OW 1527   9.421   3.514   3.478
  426SOL    HW1 1528   9.510   3.519   3.442
  426SOL    HW2 1529   9.372   3.582   3.432
  427SOL     OW 1530  13.393   9.757   7.000
  427SOL    HW1 1531  13.455   9.714   7.059
  427SOL    HW2 1532  13.308   9.719   7.022
  428SOL     OW 1533   7.308   7.619   2.057
  428SOL    HW1 1534   7.375   7.572   2.006
  428SOL    HW2 1535   7.258   7.550   2.100
  429SOL     OW 1536   3.870   8.142   4.560
  429SOL    HW1 1537   3.894   8.154   4.652
  429SOL    HW2 1538   3.906   8.219   4.516
  430SOL     OW 1539   6.009   8.461   1.815
  430SOL    HW1 1540   5.922   8.489   1.842
  430SOL    HW2 1541   6.066   8.490   1.886
  431SOL     OW 1542  10.399  12.118   4.018
  431SOL    HW1 1543  10.470  12.112   4.081
  431SOL    HW2 1544  10.412  12.043   3.959
  432SOL     OW 1545   1.823   8.119   0.527
  432SOL    HW1 1546   1.908   8.112   0.568
  432SOL    HW2 1547   1.787   8.030   0.530
  433SOL     OW 1548   9.656   4.374   4.924
  433SOL    HW1 1549   9.711   4.302   4.953
  433SOL    HW2 1550   9.711   4.452   4.934
  434SOL     OW 1551   8.475   2.923   1.866
  434SOL    HW1 1552   8.463   2.982   1.792
  434SOL    HW2 1553   8.389   2.883   1.878
  435SOL     OW 1554   8.562  14.079   6.880
  435SOL    HW1 1555   8.556  14.082   6.785
  435SOL    HW2 1556   8.625  14.147   6.903
  436SOL     OW 1557   7.882   4.728   5.433
  436SOL    HW1 1558   7.909   4.716   5.342
  436SOL    HW2 1559   7.897   4.820   5.451
  437SOL     OW 1560  11.510  10.289   1.963
  437SOL    HW1 1561  11.519  10.193   1.963
  437SOL    HW2 1562  11.532  10.314   1.873
  438SOL     OW 1563   5.335   9.076   0.944
  438SOL    HW1 1564   5.246   9.066   0.912
  438SOL    HW2 1565   5.330   9.055   1.038
  439SOL     OW 1566   1.652   3.519   0.970
  439SOL    HW1 1567   1.673   3.540   0.879
  439SOL    HW2 1568   1.734   3.527   1.017
  440SOL     OW 1569  10.470  10.546   4.110
  440SOL    HW1 1570  10.450  10.510   4.024
  440SOL    HW2 1571  10.498  10.470   4.162
  441SOL     OW 1572  11.050   9.706   4.798
  441SOL    HW1 1573  11.069   9.800   4.796
  441SOL    HW2 1574  11.023   9.689   4.888
  442SOL     OW 1575   7.207  14.780   6.852
  442SOL    HW1 1576   7.238  14.795   6.942
  442SOL    HW2 1577   7.215  14.686   6.839
  443SOL     OW 1578  12.093   8.276   7.093
  443SOL    HW1 1579  12.113   8.370   7.101
  443SOL    HW2 1580  12.164   8.240   7.041
  444SOL     OW 1581  12.335  13.248   5.578
  444SOL    HW1 1582  12.370  13.202   5.501
  444SOL    HW2 1583  12.387  13.215   5.651
  445SOL     OW 1584   2.844  11.402   1.034
  445SOL    HW1 1585   2.877  11.417   0.946
  445SOL    HW2 1586   2.846  11.488   1.076
  446SOL     OW 1587   7.385   7.568   0.627
  446SOL    HW1 1588   7.446   7.603   0.692
  446SOL    HW2 1589   7.431   7.576   0.544
  447SOL     OW 1590   4.716   5.012   4.445
  447SOL    HW1 1591   4.697   5.074   4.375
  447SOL    HW2 1592   4.810   4.996   4.439
  448SOL     OW 1593   3.124   8.185   2.511
  448SOL    HW1 1594   3.156   8.249   2.447
  448SOL    HW2 1595   3.039   8.158   2.476
  449SOL     OW 1596   6.261   5.830   4.191
  449SOL    HW1 1597   6.270   5.821   4.286
  449SOL    HW2 1598   6.340   5.788   4.156
  450SOL     OW 1599   7.474   4.843   2.195
  450SOL    HW1 1600   7.547   4.801   2.150
  450SOL    HW2 1601   7.396   4.812   2.148
  451SOL     OW 1602  11.575  12.415   2.461
  451SOL    HW1 1603  11.561   1.685   2.377
  451SOL    HW2 1604  11.493  12.369   2.478
  452SOL     OW 1605   7.875   9.234   0.181
  452SOL    HW1 1606   7.915   9.209   0.097
  452SOL    HW2 1607   7.948   9.244   0.241
  453SOL     OW 1608  14.412   6.109   6.644
  453SOL    HW1 1609  14.478   6.136   6.579
  453SOL    HW2 1610  14.444   6.024   6.676
  454SOL     OW 1611   8.054  11.306   2.806
  454SOL    HW1 1612   8.070  11.221   2.766
  454SOL    HW2 1613   7.961  11.307   2.825
  455SOL     OW 1614   6.934  11.559   6.371
  455SOL    HW1 1615   6.891  11.643   6.387
  455SOL    HW2 1616   6.935  11.550   6.275
  456SOL     OW 1617  11.524  10.083   7.284
  456SOL    HW1 1618  11.486  10.052   7.202
  456SOL    HW2 1619  11.468  10.047   7.352
  457SOL     OW 1620   7.541   7.351   3.654
  457SOL    HW1 1621   7.547   7.262   3.691
  457SOL    HW2 1622   7.495   7.339   3.571
  458SOL     OW 1623   6.051   7.744   0.869
  458SOL    HW1 1624   6.082   7.814   0.927
  458SOL    HW2 1625   6.121   7.734   0.805
  459SOL     OW 1626  12.519   6.830   7.528
  459SOL    HW1 1627  12.599   6.827   7.476
  459SOL    HW2 1628  12.451   6.796   7.470
  460SOL     OW 1629   5.364  12.800   4.755
  460SOL    HW1 1630   5.349  12.711   4.722
  460SOL    HW2 1631   5.458  12.803   4.773
  461SOL     OW 1632  12.556   2.316   2.714
  461SOL    HW1 1633  12.503   2.359   2.647
  461SOL    HW2 1634  12.609   2.253   2.665
  462SOL     OW 1635   5.041  13.254   6.238
  462SOL    HW1 1636   5.088  13.310   6.176
  462SOL    HW2 1637   4.961  13.303   6.259
  463SOL     OW 1638  10.338   3.878   3.978
  463SOL    HW1 1639  10.250   3.914   3.994
  463SOL    HW2 1640  10.326   3.783   3.983
  464SOL     OW 1641   5.546   8.706   6.273
  464SOL    HW1 1642   5.611   8.675   6.336
  464SOL    HW2 1643   5.476   8.641   6.276
  465SOL     OW 1644   3.103   6.702   1.545
  465SOL    HW1 1645   3.147   6.745   1.618
  465SOL    HW2 1646   3.171   6.692   1.478
  466SOL     OW 1647   8.666   5.714   7.409
  466SOL    HW1 1648   8.600   5.645   7.402
  466SOL    HW2 1649   8.684   5.721   7.502
  467SOL     OW 1650  11.799   9.601   7.077
  467SOL    HW1 1651  11.764   9.689   7.081
  467SOL    HW2 1652  11.832   9.592   6.987
  468SOL     OW 1653   7.326  13.385   7.485
  468SOL    HW1 1654   7.413  13.407   7.518
  468SOL    HW2 1655   7.300  13.462   7.434
  469SOL     OW 1656   4.846   0.708   0.804
  469SOL    HW1 1657   4.939   0.688   0.806
  469SOL    HW2 1658   4.810   0.651   0.736
  470SOL     OW 1659   6.437   4.812   0.645
  470SOL    HW1 1660   6.414   4.797   0.554
  470SOL    HW2 1661   6.516   4.867   0.641
  471SOL     OW 1662   6.115  10.938   1.740
  471SOL    HW1 1663   6.141  11.008   1.681
  471SOL    HW2 1664   6.062  10.982   1.807
  472SOL     OW 1665   4.941  13.534   6.900
  472SOL    HW1 1666   5.016  13.594   6.899
  472SOL    HW2 1667   4.967  13.463   6.840
  473SOL     OW 1668  10.265   8.347   3.788
  473SOL    HW1 1669  10.358   8.359   3.767
  473SOL    HW2 1670  10.248   8.255   3.768
  474SOL     OW 1671   7.666   7.685   0.117
  474SOL    HW1 1672   7.717   7.739   0.057
  474SOL    HW2 1673   7.601   7.642   0.061
  475SOL     OW 1674  13.325   5.698   5.415
  475SOL    HW1 1675  13.238   5.724   5.443
  475SOL    HW2 1676  13.310   5.629   5.350
  476SOL     OW 1677  10.614  10.302   6.143
  476SOL    HW1 1678  10.532  10.351   6.133
  476SOL    HW2 1679  10.663  10.350   6.209
  477SOL     OW 1680   6.473   2.192   0.802
  477SOL    HW1 1681   6.459   2.114   0.855
  477SOL    HW2 1682   6.384   2.222   0.780
  478SOL     OW 1683   7.696  10.688   3.440
  478SOL    HW1 1684   7.616  10.645   3.470
  478SOL    HW2 1685   7.710  10.654   3.352
  479SOL     OW 1686  14.241  11.580   5.491
  479SOL    HW1 1687  14.287  11.560   5.573
  479SOL    HW2 1688  14.290  11.653   5.453
  480SOL     OW 1689  10.551  12.401   3.322
  480SOL    HW1 1690  10.520  12.401   3.232
  480SOL    HW2 1691  10.474  12.379   3.374
  481SOL     OW 1692  14.603   9.311   7.553
  481SOL    HW1 1693  14.562   9.371   7.491
  481SOL    HW2 1694  14.531   9.258   7.587
  482SOL     OW 1695  10.659   5.450   5.629
  482SOL    HW1 1696  10.595   5.517   5.607
  482SOL    HW2 1697  10.705   5.485   5.706
  483SOL     OW 1698  12.831   5.338   4.998
  483SOL    HW1 1699  12.876   5.275   4.942
  483SOL    HW2 1700  12.889   5.349   5.073
  484SOL     OW 1701  11.195  11.892   4.187
  484SOL    HW1 1702  11.213  11.871   4.278
  484SOL    HW2 1703  11.277  11.874   4.141
  485SOL     OW 1704   3.780   9.971   0.595
  485SOL    HW1 1705   3.733   9.890   0.614
  485SOL    HW2 1706   3.755  10.031   0.665
  486SOL     OW 1707  11.407  11.177   3.395
  486SOL    HW1 1708  11.442  11.198   3.308
  486SOL    HW2 1709  11.473  11.120   3.434
  487SOL     OW 1710   9.974  10.458   6.882
  487SOL    HW1 1711   9.961  10.392   6.950
  487SOL    HW2 1712  10.069  10.472   6.881
  488SOL     OW 1713   3.365  13.445   3.921
  488SOL    HW1 1714   3.450  13.458   3.877
  488SOL    HW2 1715   3.389  13.420   4.011
  489SOL     OW 1716   2.000   2.094   1.359
  489SOL    HW1 1717   2.033   2.183   1.368
  489SOL    HW2 1718   1.978   2.085   1.267
  490SOL     OW 1719  14.993   6.867   6.250
  490SOL    HW1 1720  14.906   6.901   6.271
  490SOL    HW2 1721  15.015   6.811   6.325
  491SOL     OW 1722  10.596  12.662   4.747
  491SOL    HW1 1723  10.644  12.724   4.803
  491SOL    HW2 1724  10.664  12.621   4.693
  492SOL     OW 1725   8.414   6.764   4.835
  492SOL    HW1 1726   8.377   6.681   4.803
  492SOL    HW2 1727   8.469   6.794   4.762
  493SOL     OW 1728  12.035  11.910   1.947
  493SOL    HW1 1729  12.015  11.856   1.871
  493SOL    HW2 1730  11.956  11.906   2.001
  494SOL     OW 1731   8.534   3.675   2.669
  494SOL    HW1 1732   8.584   3.739   2.618
  494SOL    HW2 1733   8.556   3.695   2.760
  495SOL     OW 1734   0.580   9.143   0.122
  495SOL    HW1 1735   0.540   9.077   0.179
  495SOL    HW2 1736   0.569   9.107   0.034
  496SOL     OW 1737   8.246  15.781   7.345
  496SOL    HW1 1738   8.194  15.852   7.307
  496SOL    HW2 1739   8.329  15.785   7.298
  497SOL     OW 1740   6.586   7.320   5.510
  497SOL    HW1 1741   6.584   7.398   5.565
  497SOL    HW2 1742   6.677   7.292   5.509
  498SOL     OW 1743   6.242  12.914   6.131
  498SOL    HW1 1744   6.243  12.976   6.058
  498SOL    HW2 1745   6.174  12.947   6.190
  499SOL     OW 1746   9.162   1.439   1.371
  499SOL    HW1 1747   9.121   1.496   1.306
  499SOL    HW2 1748   9.224   1.387   1.321
  500SOL     OW 1749  12.350   2.025   2.680
  500SOL    HW1 1750  12.392   2.085   2.620
  500SOL    HW2 1751  12.335   1.946   2.629
  501SOL     OW 1752   4.988   1.533   1.827
  501SOL    HW1 1753   5.072   1.495   1.800
  501SOL    HW2 1754   4.948   1.563   1.745
  502SOL     OW 1755  14.789  14.350   6.990
  502SOL    HW1 1756  14.838  14.305   7.060
  502SOL    HW2 1757  14.846  14.423   6.965
  503SOL     OW 1758   8.596  10.467   2.531
  503SOL    HW1 1759   8.579  10.558   2.506
  503SOL    HW2 1760   8.605  10.470   2.626
  504SOL     OW 1761  13.355  10.793   5.743
  504SOL    HW1 1762  13.363  10.750   5.829
  504SOL    HW2 1763  13.274  10.758   5.707
  505SOL     OW 1764   1.383   0.599   0.220
  505SOL    HW1 1765   1.288   0.588   0.217
  505SOL    HW2 1766   1.410   0.554   0.300
  506SOL     OW 1767   9.771  11.849   7.022
  506SOL    HW1 1768   9.858  11.879   6.996
  506SOL    HW2 1769   9.737  11.918   7.079
  507SOL     OW 1770   6.433  12.428   4.954
  507SOL    HW1 1771   6.442  12.387   4.867
  507SOL    HW2 1772   6.338  12.430   4.969
  508SOL     OW 1773  11.885   6.116   5.097
  508SOL    HW1 1774  11.875   6.194   5.043
  508SOL    HW2 1775  11.979   6.104   5.105
  509SOL     OW 1776  10.975  12.843   6.087
  509SOL    HW1 1777  10.989  12.876   5.998
  509SOL    HW2 1778  11.049  12.877   6.137
  510SOL     OW 1779   7.453   2.734   1.337
  510SOL    HW1 1780   7.520   2.685   1.385
  510SOL    HW2 1781   7.464   2.824   1.367
  511SOL     OW 1782   4.100   3.089   0.919
  511SOL    HW1 1783   4.117   3.129   0.833
  511SOL    HW2 1784   4.036   3.020   0.901
  512SOL     OW 1785   7.069   3.408   2.409
  512SOL    HW1 1786   6.999   3.346   2.391
  512SOL    HW2 1787   7.146   3.371   2.367
  513SOL     OW 1788   5.198   3.948   1.582
  513SOL    HW1 1789   5.128   3.926   1.643
  513SOL    HW2 1790   5.237   4.028   1.617
  514SOL     OW 1791   5.200   8.644   5.437
  514SOL    HW1 1792   5.249   8.574   5.394
  514SOL    HW2 1793   5.250   8.723   5.420
  515SOL     OW 1794   3.545   2.582   0.325
  515SOL    HW1 1795   3.492   2.618   0.253
  515SOL    HW2 1796   3.596   2.656   0.357
  516SOL     OW 1797   9.634   6.387   5.627
  516SOL    HW1 1798   9.717   6.434   5.620
  516SOL    HW2 1799   9.592   6.425   5.704
  517SOL     OW 1800   3.495  13.226   4.881
  517SOL    HW1 1801  14.197  13.276   4.844
  517SOL    HW2 1802   3.537  13.184   4.806
  518SOL     OW 1803   4.277  11.283   5.575
  518SOL    HW1 1804   4.351  11.257   5.519
  518SOL    HW2 1805   4.219  11.332   5.516
  519SOL     OW 1806  12.610  11.137   5.669
  519SOL    HW1 1807  12.671  11.152   5.597
  519SOL    HW2 1808  12.551  11.068   5.637
  520SOL     OW 1809  13.251  13.866   6.418
  520SOL    HW1 1810  13.233  13.828   6.333
  520SOL    HW2 1811  13.335  13.829   6.445
  521SOL     OW 1812  10.229  10.351   2.275
  521SOL    HW1 1813  10.279  10.270   2.269
  521SOL    HW2 1814  10.272  10.411   2.214
  522SOL     OW 1815   7.898   6.939   0.199
  522SOL    HW1 1816   7.822   6.905   0.153
  522SOL    HW2 1817   7.968   6.876   0.182
  523SOL     OW 1818   6.439  15.069   7.351
  523SOL    HW1 1819   6.385  15.140   7.317
  523SOL    HW2 1820   6.505  15.053   7.283
  524SOL     OW 1821   6.156   1.674   0.821
  524SOL    HW1 1822   6.218   1.641   0.886
  524SOL    HW2 1823   6.074   1.685   0.869
  525SOL     OW 1824  11.328  10.534   5.647
  525SOL    HW1 1825  11.278  10.486   5.713
  525SOL    HW2 1826  11.392  10.584   5.698
  526SOL     OW 1827   8.156  10.173   2.394
  526SOL    HW1 1828   8.143  10.166   2.489
  526SOL    HW2 1829   8.068  10.168   2.357
  527SOL     OW 1830  13.291   9.417   6.919
  527SOL    HW1 1831  13.324   9.504   6.897
  527SOL    HW2 1832  13.225   9.399   6.853
  528SOL     OW 1833   7.782   5.580   3.337
  528SOL    HW1 1834   7.791   5.674   3.353
  528SOL    HW2 1835   7.871   5.550   3.319
  529SOL     OW 1836   9.501   4.511   4.150
  529SOL    HW1 1837   9.553   4.584   4.183
  529SOL    HW2 1838   9.509   4.443   4.217
  530SOL     OW 1839  11.414   5.018   2.042
  530SOL    HW1 1840  11.469   5.048   1.970
  530SOL    HW2 1841  11.363   5.095   2.067
  531SOL     OW 1842   8.284   6.350   5.546
  531SOL    HW1 1843   8.191   6.367   5.531
  531SOL    HW2 1844   8.290   6.255   5.551
  532SOL     OW 1845   9.932   7.222   4.197
  532SOL    HW1 1846   9.900   7.243   4.284
  532SOL    HW2 1847  10.022   7.254   4.195
  533SOL     OW 1848  10.579   8.320   2.185
  533SOL    HW1 1849  10.624   8.404   2.193
  533SOL    HW2 1850  10.506   8.325   2.247
  534SOL     OW 1851   6.790  12.995   6.189
  534SOL    HW1 1852   6.878  12.957   6.178
  534SOL    HW2 1853   6.734  12.920   6.205
  535SOL     OW 1854   8.217  11.147   6.334
  535SOL    HW1 1855   8.312  11.155   6.319
  535SOL    HW2 1856   8.179  11.224   6.293
  536SOL     OW 1857   2.819   7.832   2.267
  536SOL    HW1 1858   2.750   7.845   2.333
  536SOL    HW2 1859   2.893   7.798   2.317
  537SOL     OW 1860   5.054   7.808   1.087
  537SOL    HW1 1861   5.083   7.755   1.012
  537SOL    HW2 1862   5.077   7.897   1.063
  538SOL     OW 1863   7.359   7.103   5.391
  538SOL    HW1 1864   7.279   7.059   5.361
  538SOL    HW2 1865   7.430   7.048   5.359
  539SOL     OW 1866   9.457   2.590   3.536
  539SOL    HW1 1867   9.429   2.628   3.453
  539SOL    HW2 1868   9.461   2.664   3.596
  540SOL     OW 1869  14.731   7.915   7.437
  540SOL    HW1 1870  14.794   7.884   7.503
  540SOL    HW2 1871  14.780   7.978   7.385
  541SOL     OW 1872   6.335  14.595   7.318
  541SOL    HW1 1873   6.264  14.571   7.376
  541SOL    HW2 1874   6.295  14.597   7.231
  542SOL     OW 1875   7.602   5.515   4.391
  542SOL    HW1 1876   7.600   5.469   4.307
  542SOL    HW2 1877   7.640   5.452   4.452
  543SOL     OW 1878   9.055   6.899   1.630
  543SOL    HW1 1879   9.144   6.905   1.596
  543SOL    HW2 1880   8.999   6.899   1.553
  544SOL     OW 1881  13.149   8.195   5.813
  544SOL    HW1 1882  13.132   8.251   5.889
  544SOL    HW2 1883  13.151   8.106   5.849
  545SOL     OW 1884  15.142   6.012   6.782
  545SOL    HW1 1885  15.196   6.021   6.704
  545SOL    HW2 1886  15.103   6.098   6.795
  546SOL     OW 1887  13.284  14.139   7.526
  546SOL    HW1 1888  13.200  14.105   7.555
  546SOL    HW2 1889  13.294  14.105   7.437
  547SOL     OW 1890   2.277   9.626   0.023
  547SOL    HW1 1891   7.703  14.970   7.566
  547SOL    HW2 1892   2.206   9.567   0.050
  548SOL     OW 1893   2.654   0.361   0.129
  548SOL    HW1 1894   2.687   0.302   0.196
  548SOL    HW2 1895   2.564   0.331   0.113
  549SOL     OW 1896   8.286   8.768   2.554
  549SOL    HW1 1897   8.311   8.742   2.466
  549SOL    HW2 1898   8.314   8.695   2.610
  550SOL     OW 1899   8.452  11.894   3.934
  550SOL    HW1 1900   8.473  11.967   3.992
  550SOL    HW2 1901   8.360  11.874   3.953
  551SOL     OW 1902  12.405   6.212   5.048
  551SOL    HW1 1903  12.322   6.179   5.083
  551SOL    HW2 1904  12.473   6.166   5.098
  552SOL     OW 1905   7.875  13.388   6.621
  552SOL    HW1 1906   7.924  13.422   6.696
  552SOL    HW2 1907   7.787  13.373   6.655
  553SOL     OW 1908  11.482   5.983   6.435
  553SOL    HW1 1909  11.390   6.011   6.432
  553SOL    HW2 1910  11.493   5.930   6.356
  554SOL     OW 1911  13.830   9.240   6.977
  554SOL    HW1 1912  13.853   9.280   7.061
  554SOL    HW2 1913  13.899   9.176   6.961
  555SOL     OW 1914   4.328  10.477   0.950
  555SOL    HW1 1915   4.241  10.448   0.977
  555SOL    HW2 1916   4.383  10.461   1.026
  556SOL     OW 1917   6.908   8.574   5.479
  556SOL    HW1 1918   6.921   8.669   5.472
  556SOL    HW2 1919   6.927   8.554   5.571
  557SOL     OW 1920  10.692   8.052   6.246
  557SOL    HW1 1921  10.619   7.991   6.257
  557SOL    HW2 1922  10.650   8.138   6.240
  558SOL     OW 1923   2.726  10.680   3.243
  558SOL    HW1 1924   2.637  10.689   3.276
  558SOL    HW2 1925   2.720  10.704   3.151
  559SOL     OW 1926   9.856  10.211   4.842
  559SOL    HW1 1927   9.806  10.241   4.918
  559SOL    HW2 1928   9.945  10.240   4.860
  560SOL     OW 1929   4.593   5.560   1.688
  560SOL    HW1 1930   4.507   5.571   1.648
  560SOL    HW2 1931   4.588   5.478   1.735
  561SOL     OW 1932   5.981   2.787   3.234
  561SOL    HW1 1933   5.953   2.713   3.289
  561SOL    HW2 1934   5.902   2.814   3.189
  562SOL     OW 1935   8.566   3.697   3.735
  562SOL    HW1 1936   8.624   3.720   3.808
  562SOL    HW2 1937   8.513   3.625   3.768
  563SOL     OW 1938   8.953   4.021   2.966
  563SOL    HW1 1939   9.025   3.958   2.960
  563SOL    HW2 1940   8.886   3.985   2.906
  564SOL     OW 1941   8.140  14.102   5.389
  564SOL    HW1 1942   8.156  14.167   5.457
  564SOL    HW2 1943   8.053  14.123   5.355
  565SOL     OW 1944   4.398   6.349   6.182
  565SOL    HW1 1945   4.445   6.421   6.140
  565SOL    HW2 1946   4.333   6.322   6.117
  566SOL     OW 1947   2.948  10.767   1.468
  566SOL    HW1 1948   2.892  10.831   1.512
  566SOL    HW2 1949   2.888  10.697   1.442
  567SOL     OW 1950  12.538   6.023   3.035
  567SOL    HW1 1951  12.587   6.091   2.988
  567SOL    HW2 1952  12.561   5.942   2.989
  568SOL     OW 1953  10.127   4.876   0.936
  568SOL    HW1 1954  10.081   4.858   0.855
  568SOL    HW2 1955  10.219   4.856   0.916
  569SOL     OW 1956  10.349   0.929   1.263
  569SOL    HW1 1957  10.440   0.916   1.235
  569SOL    HW2 1958  10.298   0.919   1.183
  570SOL     OW 1959  10.548   4.905   0.382
  570SOL    HW1 1960  10.632   4.899   0.338
  570SOL    HW2 1961  10.493   4.956   0.322
  571SOL     OW 1962  13.123   8.097   6.752
  571SOL    HW1 1963  13.124   8.168   6.816
  571SOL    HW2 1964  13.036   8.057   6.762
  572SOL     OW 1965   6.320  12.524   7.489
  572SOL    HW1 1966   6.403  12.482   7.512
  572SOL    HW2 1967   6.346  12.602   7.439
  573SOL     OW 1968   7.217  10.183   3.290
  573SOL    HW1 1969   7.296  10.208   3.339
  573SOL    HW2 1970   7.202  10.092   3.314
  574SOL     OW 1971  11.182  10.634   2.849
  574SOL    HW1 1972  11.215  10.564   2.905
  574SOL    HW2 1973  11.260  10.677   2.814
  575SOL     OW 1974   7.053   3.766   5.157
  575SOL    HW1 1975   7.037   3.830   5.088
  575SOL    HW2 1976   7.105   3.813   5.222
  576SOL     OW 1977  12.604  10.846   6.888
  576SOL    HW1 1978  12.590  10.885   6.974
  576SOL    HW2 1979  12.544  10.772   6.885
  577SOL     OW 1980   7.051   9.793   1.319
  577SOL    HW1 1981   7.049   9.735   1.395
  577SOL    HW2 1982   7.142   9.792   1.290
  578SOL     OW 1983   9.796   3.062   1.434
  578SOL    HW1 1984   9.840   3.012   1.503
  578SOL    HW2 1985   9.838   3.148   1.436
  579SOL     OW 1986   5.722   4.969   0.498
  579SOL    HW1 1987   5.730   4.877   0.524
  579SOL    HW2 1988   5.653   5.004   0.555
  580SOL     OW 1989   8.903  10.819   3.288
  580SOL    HW1 1990   8.989  10.848   3.259
  580SOL    HW2 1991   8.920  10.772   3.370
  581SOL     OW 1992   6.880   8.204   1.788
  581SOL    HW1 1993   6.912   8.114   1.794
  581SOL    HW2 1994   6.789   8.199   1.815
  582SOL     OW 1995   9.073   0.801   1.108
  582SOL    HW1 1996   9.060   0.895   1.098
  582SOL    HW2 1997   9.168   0.789   1.103
  583SOL     OW 1998  11.218   5.970   6.833
  583SOL    HW1 1999  11.231   5.987   6.740
  583SOL    HW2 2000  11.150   6.033   6.859
  584SOL     OW 2001   8.470   1.513   1.402
  584SOL    HW1 2002   8.505   1.532   1.315
  584SOL    HW2 2003   8.547   1.502   1.457
  585SOL     OW 2004   7.341   7.641   5.173
  585SOL    HW1 2005   7.325   7.719   5.120
  585SOL    HW2 2006   7.434   7.645   5.194
  586SOL     OW 2007  10.574  12.113   2.715
  586SOL    HW1 2008  10.660  12.098   2.753
  586SOL    HW2 2009  10.519  12.138   2.790
  587SOL     OW 2010  12.235   4.859   6.808
  587SOL    HW1 2011  12.231  15.578   6.886
  587SOL    HW2 2012  12.322   4.843   6.771
  588SOL     OW 2013  10.726  11.148   1.596
  588SOL    HW1 2014  10.782  11.161   1.672
  588SOL    HW2 2015  10.640  11.127   1.632
  589SOL     OW 2016   7.324   8.186   7.168
  589SOL    HW1 2017   7.341   8.187   7.263
  589SOL    HW2 2018   7.412   8.183   7.129
  590SOL     OW 2019   9.975  14.697   6.773
  590SOL    HW1 2020   9.964  14.792   6.772
  590SOL    HW2 2021   9.906  14.665   6.830
  591SOL     OW 2022  11.033   5.420   3.155
  591SOL    HW1 2023  11.076   5.361   3.217
  591SOL    HW2 2024  10.944   5.386   3.147
  592SOL     OW 2025   3.148   2.591   1.251
  592SOL    HW1 2026   3.095   2.514   1.270
  592SOL    HW2 2027   3.233   2.556   1.226
  593SOL     OW 2028  14.516  12.879   6.315
  593SOL    HW1 2029  14.548  12.957   6.270
  593SOL    HW2 2030  14.543  12.806   6.259
  594SOL     OW 2031   9.776  10.601   4.023
  594SOL    HW1 2032   9.869  10.592   4.044
  594SOL    HW2 2033   9.732  10.608   4.108
  595SOL     OW 2034   4.079   6.311   5.412
  595SOL    HW1 2035   4.002   6.255   5.401
  595SOL    HW2 2036   4.044   6.400   5.415
  596SOL     OW 2037   9.866   6.176   3.428
  596SOL    HW1 2038   9.940   6.184   3.368
  596SOL    HW2 2039   9.807   6.114   3.385
  597SOL     OW 2040   7.393   9.141   4.372
  597SOL    HW1 2041   7.427   9.163   4.286
  597SOL    HW2 2042   7.415   9.048   4.384
  598SOL     OW 2043   9.862   7.487   0.897
  598SOL    HW1 2044   9.908   7.515   0.976
  598SOL    HW2 2045   9.880   7.555   0.832
  599SOL     OW 2046   6.630   0.292   0.061
  599SOL    HW1 2047   6.593   0.267   0.146
  599SOL    HW2 2048   6.573   0.363   0.031
  600SOL     OW 2049   4.475   9.988   4.131
  600SOL    HW1 2050   4.546  10.042   4.096
  600SOL    HW2 2051   4.418   9.973   4.055
  601SOL     OW 2052  15.742  15.094   7.433
  601SOL    HW1 2053  15.676  15.027   7.451
  601SOL    HW2 2054  15.823  15.045   7.423
  602SOL     OW 2055   9.362   2.414   2.634
  602SOL    HW1 2056   9.326   2.437   2.548
  602SOL    HW2 2057   9.398   2.496   2.667
  603SOL     OW 2058   4.204   4.924   5.068
  603SOL    HW1 2059   4.249   4.892   5.146
  603SOL    HW2 2060   4.233   4.864   4.998
  604SOL     OW 2061   9.642   6.507   1.827
  604SOL    HW1 2062   9.669   6.501   1.735
  604SOL    HW2 2063   9.678   6.429   1.868
  605SOL     OW 2064   4.618   4.385   3.912
  605SOL    HW1 2065   4.619   4.480   3.902
  605SOL    HW2 2066   4.703   4.365   3.951
  606SOL     OW 2067   2.813  10.591   1.313
  606SOL    HW1 2068   2.741  10.538   1.347
  606SOL    HW2 2069   2.869  10.528   1.267
  607SOL     OW 2070   9.346   8.978   5.401
  607SOL    HW1 2071   9.377   8.941   5.484
  607SOL    HW2 2072   9.423   8.977   5.344
  608SOL     OW 2073   6.059   4.746   2.571
  608SOL    HW1 2074   6.086   4.819   2.628
  608SOL    HW2 2075   6.140   4.713   2.534
  609SOL     OW 2076   7.238   9.297   0.246
  609SOL    HW1 2077   7.285   9.320   0.166
  609SOL    HW2 2078   7.148   9.323   0.229
  610SOL     OW 2079   7.904  10.480   0.566
  610SOL    HW1 2080   7.908  10.391   0.531
  610SOL    HW2 2081   7.812  10.494   0.586
  611SOL     OW 2082   1.430   6.938   0.167
  611SOL    HW1 2083   1.340   6.945   0.201
  611SOL    HW2 2084   1.465   7.027   0.176
  612SOL     OW 2085   9.636   9.476   2.738
  612SOL    HW1 2086   9.628   9.423   2.658
  612SOL    HW2 2087   9.552   9.464   2.782
  613SOL     OW 2088  10.245   5.269   2.839
  613SOL    HW1 2089  10.216   5.295   2.752
  613SOL    HW2 2090  10.260   5.351   2.885
  614SOL     OW 2091  10.960  14.883   7.350
  614SOL    HW1 2092  10.865  14.889   7.358
  614SOL    HW2 2093  10.983  14.945   7.281
  615SOL     OW 2094  10.944  10.968   6.075
  615SOL    HW1 2095  10.856  10.960   6.038
  615SOL    HW2 2096  10.988  11.032   6.020
  616SOL     OW 2097  11.256  13.904   5.024
  616SOL    HW1 2098  11.184  13.873   4.968
  616SOL    HW2 2099  11.220  13.980   5.070
  617SOL     OW 2100   2.013   6.615   1.019
  617SOL    HW1 2101   1.996   6.533   0.973
  617SOL    HW2 2102   1.959   6.680   0.974
  618SOL     OW 2103   1.582   1.469   1.880
  618SOL    HW1 2104   1.489   1.493   1.885
  618SOL    HW2 2105   1.581   1.380   1.843
  619SOL     OW 2106   6.497   2.983   4.204
  619SOL    HW1 2107   6.556  13.699   4.156
  619SOL    HW2 2108   6.427  13.700   4.236
  620SOL     OW 2109   1.142   9.150   1.141
  620SOL    HW1 2110   1.050   9.175   1.147
  620SOL    HW2 2111   1.151   9.075   1.199
  621SOL     OW 2112   6.571   7.463   6.098
  621SOL    HW1 2113   6.529   7.379   6.114
  621SOL    HW2 2114   6.648   7.442   6.045
  622SOL     OW 2115   7.639  10.205   1.181
  622SOL    HW1 2116   7.563  10.188   1.236
  622SOL    HW2 2117   7.645  10.129   1.124
  623SOL     OW 2118   9.525  11.394   7.233
  623SOL    HW1 2119   9.526  11.299   7.239
  623SOL    HW2 2120   9.540  11.424   7.323
  624SOL     OW 2121   6.568   9.377   2.976
  624SOL    HW1 2122   6.505   9.440   2.939
  624SOL    HW2 2123   6.651   9.399   2.933
  625SOL     OW 2124   5.627   5.111   5.246
  625SOL    HW1 2125   5.552   5.095   5.190
  625SOL    HW2 2126   5.630   5.206   5.255
  626SOL     OW 2127   6.976   8.742   4.383
  626SOL    HW1 2128   6.952   8.650   4.396
  626SOL    HW2 2129   6.905   8.791   4.425
  627SOL     OW 2130   8.721   2.608   1.792
  627SOL    HW1 2131   8.736   2.515   1.773
  627SOL    HW2 2132   8.741   2.652   1.709
  628SOL     OW 2133   7.666   7.300   2.314
  628SOL    HW1 2134   7.643   7.237   2.383
  628SOL    HW2 2135   7.760   7.285   2.300
  629SOL     OW 2136   1.901   8.486   0.696
  629SOL    HW1 2137   1.818   8.470   0.649
  629SOL    HW2 2138   1.964   8.504   0.626
  630SOL     OW 2139   9.281  12.015   3.784
  630SOL    HW1 2140   9.209  11.964   3.746
  630SOL    HW2 2141   9.276  11.996   3.878
  631SOL     OW 2142  10.466   7.573   5.778
  631SOL    HW1 2143  10.549   7.543   5.815
  631SOL    HW2 2144  10.421   7.492   5.752
  632SOL     OW 2145  11.935  12.787   6.775
  632SOL    HW1 2146  11.982  12.863   6.739
  632SOL    HW2 2147  11.853  12.784   6.726
  633SOL     OW 2148   5.695   8.864   3.026
  633SOL    HW1 2149   5.602   8.852   3.008
  633SOL    HW2 2150   5.731   8.905   2.947
  634SOL     OW 2151   9.859   7.226   4.455
  634SOL    HW1 2152   9.902   7.305   4.488
  634SOL    HW2 2153   9.834   7.177   4.534
  635SOL     OW 2154  12.360  10.240   2.846
  635SOL    HW1 2155  12.356  10.148   2.822
  635SOL    HW2 2156  12.283  10.253   2.903
  636SOL     OW 2157  10.232  11.357   3.624
  636SOL    HW1 2158  10.250  11.339   3.532
  636SOL    HW2 2159  10.277  11.440   3.642
  637SOL     OW 2160   2.564   9.485   1.421
  637SOL    HW1 2161   2.586   9.492   1.514
  637SOL    HW2 2162   2.472   9.511   1.416
  638SOL     OW 2163  10.848   7.879   5.435
  638SOL    HW1 2164  10.769   7.864   5.486
  638SOL    HW2 2165  10.871   7.970   5.453
  639SOL     OW 2166   4.999   8.346   4.040
  639SOL    HW1 2167   4.912   8.347   4.079
  639SOL    HW2 2168   5.015   8.437   4.015
  640SOL     OW 2169   7.408  10.783   1.621
  640SOL    HW1 2170   7.415  10.715   1.688
  640SOL    HW2 2171   7.315  10.788   1.601
  641SOL     OW 2172   5.628  10.111   4.569
  641SOL    HW1 2173   5.697  10.070   4.516
  641SOL    HW2 2174   5.633  10.066   4.654
  642SOL     OW 2175   3.386   4.854   2.526
  642SOL    HW1 2176   3.386   4.806   2.443
  642SOL    HW2 2177   3.460   4.818   2.575
  643SOL     OW 2178  11.505   5.011   6.623
  643SOL    HW1 2179  11.451   5.034   6.548
  643SOL    HW2 2180  11.447   4.960   6.679
  644SOL     OW 2181   2.855   5.139   1.428
  644SOL    HW1 2182   2.945   5.125   1.399
  644SOL    HW2 2183   2.807   5.155   1.347
  645SOL     OW 2184   5.021   4.761   1.659
  645SOL    HW1 2185   5.074   4.699   1.709
  645SOL    HW2 2186   5.055   4.754   1.569
  646SOL     OW 2187   4.289  10.272   0.410
  646SOL    HW1 2188   4.195  10.258   0.424
  646SOL    HW2 2189   4.300  10.367   0.410
  647SOL     OW 2190  15.045  13.469   7.410
  647SOL    HW1 2191  15.084  13.398   7.358
  647SOL    HW2 2192  15.116  13.498   7.467
  648SOL     OW 2193   8.841  11.824   6.445
  648SOL    HW1 2194   8.839  11.749   6.386
  648SOL    HW2 2195   8.811  11.898   6.391
  649SOL     OW 2196   3.224  10.378   1.738
  649SOL    HW1 2197   3.202  10.287   1.758
  649SOL    HW2 2198   3.145  10.427   1.759
  650SOL     OW 2199  12.548  11.405   6.775
  650SOL    HW1 2200  12.455  11.428   6.782
  650SOL    HW2 2201  12.594  11.477   6.818
  651SOL     OW 2202   9.760   8.687   5.068
  651SOL    HW1 2203   9.769   8.686   4.973
  651SOL    HW2 2204   9.673   8.723   5.084
  652SOL     OW 2205   2.957   6.767   2.128
  652SOL    HW1 2206   2.936   6.700   2.064
  652SOL    HW2 2207   2.875   6.782   2.175
  653SOL     OW 2208   5.141   4.205   3.153
  653SOL    HW1 2209   5.114   4.255   3.229
  653SOL    HW2 2210   5.061   4.192   3.102
  654SOL     OW 2211  10.590   4.921   2.394
  654SOL    HW1 2212  10.652   4.857   2.358
  654SOL    HW2 2213  10.643   5.000   2.406
  655SOL     OW 2214   6.853   6.011   1.520
  655SOL    HW1 2215   6.763   6.042   1.519
  655SOL    HW2 2216   6.876   5.999   1.428
  656SOL     OW 2217   8.915   3.729   2.522
  656SOL    HW1 2218   8.888   3.684   2.442
  656SOL    HW2 2219   8.953   3.661   2.577
  657SOL     OW 2220   4.119   7.499   5.709
  657SOL    HW1 2221   4.146   7.481   5.619
  657SOL    HW2 2222   4.054   7.568   5.701
  658SOL     OW 2223   4.551   0.913   1.176
  658SOL    HW1 2224   4.614   0.922   1.104
  658SOL    HW2 2225   4.529  11.595   1.177
  659SOL     OW 2226   4.385  11.964   3.626
  659SOL    HW1 2227   4.397  11.983   3.533
  659SOL    HW2 2228   4.299  11.921   3.631
  660SOL     OW 2229   6.721  12.669   3.133
  660SOL    HW1 2230   6.811  12.647   3.114
  660SOL    HW2 2231   6.717  12.674   3.228
  661SOL     OW 2232  14.246   6.817   5.261
  661SOL    HW1 2233  14.263   6.871   5.338
  661SOL    HW2 2234  14.177   6.864   5.213
  662SOL     OW 2235   4.388   7.553   0.855
  662SOL    HW1 2236   4.310   7.557   0.799
  662SOL    HW2 2237   4.392   7.638   0.897
  663SOL     OW 2238   6.513   9.873   3.679
  663SOL    HW1 2239   6.585   9.839   3.732
  663SOL    HW2 2240   6.436   9.826   3.709
  664SOL     OW 2241  12.272   3.886   2.527
  664SOL    HW1 2242  12.289   3.912   2.618
  664SOL    HW2 2243  12.252   3.967   2.482
  665SOL     OW 2244  10.657  11.904   2.541
  665SOL    HW1 2245  10.681  11.984   2.495
  665SOL    HW2 2246  10.561  11.903   2.539
  666SOL     OW 2247   6.705  10.252   1.208
  666SOL    HW1 2248   6.754  10.307   1.147
  666SOL    HW2 2249   6.693  10.169   1.161
  667SOL     OW 2250   4.245   4.915   3.122
  667SOL    HW1 2251   4.340   4.917   3.105
  667SOL    HW2 2252   4.216   4.833   3.083
  668SOL     OW 2253  11.865  11.475   4.832
  668SOL    HW1 2254  11.805  11.416   4.786
  668SOL    HW2 2255  11.951  11.432   4.826
  669SOL     OW 2256  13.784   7.131   5.448
  669SOL    HW1 2257  13.791   7.036   5.436
  669SOL    HW2 2258  13.723   7.141   5.521
  670SOL     OW 2259   6.977   8.858   2.515
  670SOL    HW1 2260   6.975   8.920   2.442
  670SOL    HW2 2261   7.061   8.813   2.506
  671SOL     OW 2262   5.200   4.519   0.663
  671SOL    HW1 2263   5.176   4.575   0.589
  671SOL    HW2 2264   5.296   4.514   0.660
  672SOL     OW 2265  10.970  11.360   7.262
  672SOL    HW1 2266  10.974  11.300   7.187
  672SOL    HW2 2267  10.905  11.321   7.321
  673SOL     OW 2268   4.850   3.907   4.134
  673SOL    HW1 2269   4.904   3.862   4.199
  673SOL    HW2 2270   4.912   3.962   4.085
  674SOL     OW 2271  10.107   4.392   6.125
  674SOL    HW1 2272  10.175   4.459   6.137
  674SOL    HW2 2273  10.040   4.414   6.189
  675SOL     OW 2274   7.605   8.309   4.389
  675SOL    HW1 2275   7.563   8.395   4.387
  675SOL    HW2 2276   7.663   8.312   4.466
  676SOL     OW 2277   8.937   7.955   2.404
  676SOL    HW1 2278   8.940   7.883   2.467
  676SOL    HW2 2279   8.844   7.975   2.395
  677SOL     OW 2280  12.349   3.369   3.612
  677SOL    HW1 2281  12.444   3.378   3.613
  677SOL    HW2 2282  12.333   3.276   3.599
  678SOL     OW 2283   4.444  11.882   1.845
  678SOL    HW1 2284   4.391  11.848   1.773
  678SOL    HW2 2285   4.380  11.927   1.902
  679SOL     OW 2286   8.836   1.350   1.242
  679SOL    HW1 2287   8.817   1.304   1.160
  679SOL    HW2 2288   8.929   1.337   1.255
  680SOL     OW 2289  14.510  15.613   7.090
  680SOL    HW1 2290  14.439  15.564   7.132
  680SOL    HW2 2291  14.466  15.681   7.039
  681SOL     OW 2292   8.455  11.157   4.163
  681SOL    HW1 2293   8.405  11.186   4.087
  681SOL    HW2 2294   8.419  11.070   4.183
  682SOL     OW 2295   4.366   6.683   1.918
  682SOL    HW1 2296   4.415   6.741   1.860
  682SOL    HW2 2297   4.320   6.741   1.979
  683SOL     OW 2298  12.455   7.836   4.625
  683SOL    HW1 2299  12.375   7.792   4.597
  683SOL    HW2 2300  12.425   7.897   4.693
  684SOL     OW 2301   6.036   7.538   2.206
  684SOL    HW1 2302   6.118   7.582   2.227
  684SOL    HW2 2303   6.023   7.476   2.277
  685SOL     OW 2304   8.669   1.308   0.788
  685SOL    HW1 2305   8.591   1.296   0.843
  685SOL    HW2 2306   8.712   1.222   0.790
  686SOL     OW 2307  10.071   8.714   6.733
  686SOL    HW1 2308  10.024   8.783   6.780
  686SOL    HW2 2309  10.038   8.633   6.769
  687SOL     OW 2310   5.919   9.122   5.774
  687SOL    HW1 2311   5.891   9.121   5.865
  687SOL    HW2 2312   5.958   9.209   5.762
  688SOL     OW 2313   6.135   8.996   2.451
  688SOL    HW1 2314   6.143   9.066   2.516
  688SOL    HW2 2315   6.152   8.915   2.501
  689SOL     OW 2316  14.011  12.922   4.877
  689SOL    HW1 2317  14.098  12.882   4.882
  689SOL    HW2 2318  13.963  12.867   4.815
  690SOL     OW 2319   6.655  11.287   4.435
  690SOL    HW1 2320   6.597  11.233   4.381
  690SOL    HW2 2321   6.734  11.234   4.446
  691SOL     OW 2322  11.828   7.845   4.538
  691SOL    HW1 2323  11.893   7.808   4.597
  691SOL    HW2 2324  11.744   7.815   4.572
  692SOL     OW 2325  10.131   6.255   5.799
  692SOL    HW1 2326  10.150   6.349   5.794
  692SOL    HW2 2327  10.048   6.245   5.754
  693SOL     OW 2328  10.613  10.666   1.180
  693SOL    HW1 2329  10.536  10.674   1.236
  693SOL    HW2 2330  10.642  10.575   1.192
  694SOL     OW 2331  11.872   5.951   7.092
  694SOL    HW1 2332  11.885   5.869   7.139
  694SOL    HW2 2333  11.778   5.968   7.098
  695SOL     OW 2334   9.962  12.055   6.972
  695SOL    HW1 2335  10.026  12.084   6.907
  695SOL    HW2 2336  10.013  12.042   7.052
  696SOL     OW 2337   8.016   5.071   7.103
  696SOL    HW1 2338   8.047  15.782   7.167
  696SOL    HW2 2339   8.094   5.090   7.050
  697SOL     OW 2340  12.176   5.489   3.176
  697SOL    HW1 2341  12.124   5.552   3.126
  697SOL    HW2 2342  12.207   5.539   3.252
  698SOL     OW 2343   5.013  12.166   5.815
  698SOL    HW1 2344   4.936  12.164   5.758
  698SOL    HW2 2345   4.993  12.104   5.885
  699SOL     OW 2346   6.676   9.831   0.682
  699SOL    HW1 2347   6.761   9.788   0.685
  699SOL    HW2 2348   6.631   9.800   0.760
  700SOL     OW 2349   2.573   2.316   2.061
  700SOL    HW1 2350   2.590   2.287   1.972
  700SOL    HW2 2351   2.615   2.402   2.066
  701SOL     OW 2352   8.043   9.914   1.161
  701SOL    HW1 2353   8.070   9.846   1.222
  701SOL    HW2 2354   8.094   9.991   1.187
  702SOL     OW 2355  10.620   4.060   2.450
  702SOL    HW1 2356  10.530   4.033   2.439
  702SOL    HW2 2357  10.644   4.029   2.538
  703SOL     OW 2358   9.920   7.961   2.921
  703SOL    HW1 2359   9.886   8.006   2.843
  703SOL    HW2 2360   9.843   7.922   2.962
  704SOL     OW 2361   6.598  13.546   7.390
  704SOL    HW1 2362   6.675  13.569   7.337
  704SOL    HW2 2363   6.602  13.606   7.465
  705SOL     OW 2364   5.812   6.836   3.338
  705SOL    HW1 2365   5.847   6.925   3.328
  705SOL    HW2 2366   5.885   6.787   3.375
  706SOL     OW 2367   7.304   6.930   1.877
  706SOL    HW1 2368   7.257   6.913   1.959
  706SOL    HW2 2369   7.300   6.848   1.829
  707SOL     OW 2370  12.746   8.405   6.549
  707SOL    HW1 2371  12.661   8.397   6.591
  707SOL    HW2 2372  12.808   8.372   6.614
  708SOL     OW 2373   7.621   5.356   7.282
  708SOL    HW1 2374   7.542   5.402   7.253
  708SOL    HW2 2375   7.631   5.382   7.374
  709SOL     OW 2376   7.340  10.095   7.225
  709SOL    HW1 2377   7.380  10.091   7.139
  709SOL    HW2 2378   7.368  10.179   7.261
  710SOL     OW 2379   5.791  12.862   4.159
  710SOL    HW1 2380   5.832  12.878   4.244
  710SOL    HW2 2381   5.697  12.863   4.178
  711SOL     OW 2382   2.234   1.812   1.431
  711SOL    HW1 2383   2.271   1.724   1.436
  711SOL    HW2 2384   2.217   1.825   1.337
  712SOL     OW 2385  13.651  15.482   6.870
  712SOL    HW1 2386  13.608  15.522   6.795
  712SOL    HW2 2387  13.668  15.392   6.843
  713SOL     OW 2388   5.730  10.517   5.657
  713SOL    HW1 2389   5.723  10.569   5.577
  713SOL    HW2 2390   5.664  10.553   5.716
  714SOL     OW 2391  10.438   5.047   6.711
  714SOL    HW1 2392  10.472   4.991   6.781
  714SOL    HW2 2393  10.434   5.134   6.750
  715SOL     OW 2394   6.304   4.410   1.535
  715SOL    HW1 2395   6.350   4.331   1.507
  715SOL    HW2 2396   6.227   4.414   1.478
  716SOL     OW 2397  10.146  10.442   6.347
  716SOL    HW1 2398  10.183  10.357   6.371
  716SOL    HW2 2399  10.083  10.461   6.417
  717SOL     OW 2400  12.159  10.375   5.645
  717SOL    HW1 2401  12.199  10.458   5.669
  717SOL    HW2 2402  12.177  10.317   5.719
  718SOL     OW 2403   3.863   6.308   0.631
  718SOL    HW1 2404   3.862   6.383   0.572
  718SOL    HW2 2405   3.850   6.232   0.574
  719SOL     OW 2406  10.571   8.435   5.001
  719SOL    HW1 2407  10.517   8.508   4.970
  719SOL    HW2 2408  10.658   8.472   5.012
  720SOL     OW 2409   7.945   5.927   4.216
  720SOL    HW1 2410   7.953   5.999   4.278
  720SOL    HW2 2411   7.854   5.931   4.186
  721SOL     OW 2412   8.301   7.904   3.761
  721SOL    HW1 2413   8.216   7.942   3.740
  721SOL    HW2 2414   8.324   7.941   3.846
  722SOL     OW 2415   9.211   8.133   5.332
  722SOL    HW1 2416   9.272   8.110   5.262
  722SOL    HW2 2417   9.194   8.227   5.319
  723SOL     OW 2418  10.424   5.643   2.299
  723SOL    HW1 2419  10.478   5.625   2.223
  723SOL    HW2 2420  10.384   5.728   2.281
  724SOL     OW 2421   2.022   4.976   1.654
  724SOL    HW1 2422   1.971   5.052   1.631
  724SOL    HW2 2423   2.002   4.911   1.587
  725SOL     OW 2424   3.740   9.284   1.259
  725SOL    HW1 2425   3.666   9.284   1.320
  725SOL    HW2 2426   3.717   9.218   1.194
  726SOL     OW 2427   5.194  12.779   5.637
  726SOL    HW1 2428   5.218  12.734   5.718
  726SOL    HW2 2429   5.272  12.772   5.582
  727SOL     OW 2430   2.327   8.698   0.030
  727SOL    HW1 2431   2.252   8.670   0.083
  727SOL    HW2 2432   7.677  14.146   7.585
  728SOL     OW 2433   6.716   5.111   3.429
  728SOL    HW1 2434   6.649   5.177   3.407
  728SOL    HW2 2435   6.799   5.152   3.404
  729SOL     OW 2436   4.775   7.347   0.065
  729SOL    HW1 2437   4.861   7.383   0.043
  729SOL    HW2 2438   4.742   7.404   0.134
  730SOL     OW 2439   8.528   4.961   6.007
  730SOL    HW1 2440   8.556   4.870   5.994
  730SOL    HW2 2441   8.607   5.005   6.041
  731SOL     OW 2442   2.942   6.203   2.613
  731SOL    HW1 2443   2.869   6.240   2.563
  731SOL    HW2 2444   3.014   6.264   2.599
  732SOL     OW 2445  10.445   7.232   6.864
  732SOL    HW1 2446  10.484   7.295   6.804
  732SOL    HW2 2447  10.516   7.171   6.884
  733SOL     OW 2448  13.368  13.067   7.049
  733SOL    HW1 2449  13.441  13.128   7.062
  733SOL    HW2 2450  13.410  12.981   7.040
  734SOL     OW 2451   4.644   9.633   4.463
  734SOL    HW1 2452   4.719   9.691   4.453
  734SOL    HW2 2453   4.568   9.689   4.450
  735SOL     OW 2454   8.341   6.483   2.363
  735SOL    HW1 2455   8.393   6.546   2.312
  735SOL    HW2 2456   8.278   6.449   2.300
  736SOL     OW 2457  12.055   5.423   7.388
  736SOL    HW1 2458  11.965   5.398   7.365
  736SOL    HW2 2459  12.055   5.426   7.484
  737SOL     OW 2460  12.042  12.925   5.310
  737SOL    HW1 2461  12.033  13.019   5.293
  737SOL    HW2 2462  12.063  12.920   5.404
  738SOL     OW 2463   1.189  10.747   0.919
  738SOL    HW1 2464   1.252  10.686   0.879
  738SOL    HW2 2465   1.204  10.738   1.013
  739SOL     OW 2466  14.656  12.959   6.623
  739SOL    HW1 2467  14.745  12.940   6.655
  739SOL    HW2 2468  14.670  13.018   6.549
  740SOL     OW 2469   6.475   4.930   3.783
  740SOL    HW1 2470   6.439   4.890   3.862
  740SOL    HW2 2471   6.535   4.864   3.748
  741SOL     OW 2472   4.659  11.042   1.611
  741SOL    HW1 2473   4.608  11.113   1.648
  741SOL    HW2 2474   4.671  10.980   1.683
  742SOL     OW 2475   3.376   2.446   2.751
  742SOL    HW1 2476   3.311   2.395   2.799
  742SOL    HW2 2477   3.359   2.537   2.776
  743SOL     OW 2478  10.590   1.517   0.199
  743SOL    HW1 2479  10.614   1.445   0.257
  743SOL    HW2 2480  10.673   1.543   0.158
  744SOL     OW 2481   4.044   5.810   3.663
  744SOL    HW1 2482   3.997   5.820   3.579
  744SOL    HW2 2483   4.046   5.899   3.699
  745SOL     OW 2484   7.903   7.443   2.342
  745SOL    HW1 2485   7.971   7.406   2.398
  745SOL    HW2 2486   7.939   7.439   2.253
  746SOL     OW 2487  13.657   5.717   7.545
  746SOL    HW1 2488  13.702   5.639   7.512
  746SOL    HW2 2489  13.664   5.780   7.474
  747SOL     OW 2490   9.170  12.274   5.726
  747SOL    HW1 2491   9.247  12.328   5.745
  747SOL    HW2 2492   9.111  12.288   5.800
  748SOL     OW 2493   4.556   4.718   3.152
  748SOL    HW1 2494   4.523   4.764   3.229
  748SOL    HW2 2495   4.561   4.786   3.084
  749SOL     OW 2496  13.062  10.353   4.717
  749SOL    HW1 2497  13.084  10.337   4.625
  749SOL    HW2 2498  13.135  10.407   4.750
  750SOL     OW 2499   5.023  12.969   6.296
  750SOL    HW1 2500   4.952  12.975   6.361
  750SOL    HW2 2501   5.030  13.058   6.261
  751SOL     OW 2502  11.901  10.926   3.478
  751SOL    HW1 2503  11.929  10.979   3.404
  751SOL    HW2 2504  11.918  10.836   3.450
  752SOL     OW 2505   5.639  11.103   4.722
  752SOL    HW1 2506   5.710  11.163   4.699
  752SOL    HW2 2507   5.665  11.019   4.685
  753SOL     OW 2508   6.725  10.379   4.873
  753SOL    HW1 2509   6.796  10.428   4.915
  753SOL    HW2 2510   6.660  10.445   4.850
  754SOL     OW 2511   2.755  10.688   2.489
  754SOL    HW1 2512   2.825  10.753   2.496
  754SOL    HW2 2513   2.796  10.606   2.517
  755SOL     OW 2514   2.695   9.939   2.866
  755SOL    HW1 2515   2.785   9.972   2.863
  755SOL    HW2 2516   2.677   9.909   2.777
  756SOL     OW 2517  10.951   7.494   3.028
  756SOL    HW1 2518  10.969   7.430   3.096
  756SOL    HW2 2519  11.032   7.497   2.977
  757SOL     OW 2520   6.813   2.843   2.275
  757SOL    HW1 2521   6.827   2.802   2.190
  757SOL    HW2 2522   6.779   2.774   2.331
  758SOL     OW 2523   8.832   5.822   6.203
  758SOL    HW1 2524   8.767   5.755   6.180
  758SOL    HW2 2525   8.882   5.835   6.123
  759SOL     OW 2526  12.871  13.117   5.161
  759SOL    HW1 2527  12.942  13.097   5.222
  759SOL    HW2 2528  12.892  13.203   5.127
  760SOL     OW 2529   8.817  10.666   1.660
  760SOL    HW1 2530   8.863  10.714   1.591
  760SOL    HW2 2531   8.772  10.595   1.614
  761SOL     OW 2532   7.950   2.819   2.441
  761SOL    HW1 2533   8.017   2.785   2.382
  761SOL    HW2 2534   7.970   2.778   2.525
  762SOL     OW 2535   7.863  12.042   7.020
  762SOL    HW1 2536   7.955  12.015   7.014
  762SOL    HW2 2537   7.814  11.969   6.983
  763SOL     OW 2538  11.475  10.919   7.226
  763SOL    HW1 2539  11.558  10.933   7.271
  763SOL    HW2 2540  11.466  10.824   7.221
  764SOL     OW 2541   7.202   9.188   5.425
  764SOL    HW1 2542   7.132   9.151   5.478
  764SOL    HW2 2543   7.174   9.172   5.334
  765SOL     OW 2544   1.700  11.472   1.581
  765SOL    HW1 2545   1.746  11.388   1.589
  765SOL    HW2 2546   1.664  11.488   1.668
  766SOL     OW 2547   8.089   4.891   3.531
  766SOL    HW1 2548   8.030   4.862   3.461
  766SOL    HW2 2549   8.064   4.982   3.548
  767SOL     OW 2550  13.568   5.695   6.606
  767SOL    HW1 2551  13.589   5.719   6.697
  767SOL    HW2 2552  13.473   5.684   6.606
  768SOL     OW 2553   8.635   5.978   7.371
  768SOL    HW1 2554   8.665   5.888   7.387
  768SOL    HW2 2555   8.552   5.983   7.418
  769SOL     OW 2556   5.783   7.443   2.785
  769SOL    HW1 2557   5.789   7.450   2.881
  769SOL    HW2 2558   5.710   7.501   2.762
  770SOL     OW 2559   3.065  10.643   3.386
  770SOL    HW1 2560   3.125  10.710   3.417
  770SOL    HW2 2561   3.045  10.590   3.463
  771SOL     OW 2562   6.393   5.233   1.587
  771SOL    HW1 2563   6.334   5.252   1.660
  771SOL    HW2 2564   6.480   5.257   1.619
  772SOL     OW 2565   4.142  12.415   4.662
  772SOL    HW1 2566   4.232  12.428   4.633
  772SOL    HW2 2567   4.119  12.327   4.632
  773SOL     OW 2568   1.564   1.265   1.339
  773SOL    HW1 2569   1.484   1.296   1.297
  773SOL    HW2 2570   1.579   1.327   1.411
  774SOL     OW 2571   6.023   5.379   3.079
  774SOL    HW1 2572   5.950   5.402   3.021
  774SOL    HW2 2573   6.041   5.459   3.128
  775SOL     OW 2574  14.605  10.747   6.160
  775SOL    HW1 2575  14.516  10.728   6.131
  775SOL    HW2 2576  14.659  10.678   6.121
  776SOL     OW 2577  11.441   8.120   6.339
  776SOL    HW1 2578  11.465   8.167   6.419
  776SOL    HW2 2579  11.347   8.137   6.329
  777SOL     OW 2580   4.757   8.716   6.119
  777SOL    HW1 2581   4.822   8.750   6.058
  777SOL    HW2 2582   4.691   8.785   6.126
  778SOL     OW 2583   4.023   9.524   5.207
  778SOL    HW1 2584   4.060   9.566   5.129
  778SOL    HW2 2585   3.981   9.444   5.173
  779SOL     OW 2586  13.814   7.498   7.612
  779SOL    HW1 2587   8.477   2.183   0.031
  779SOL    HW2 2588  13.880   7.434   7.586
  780SOL     OW 2589   5.440  12.331   4.254
  780SOL    HW1 2590   5.355  12.351   4.215
  780SOL    HW2 2591   5.464  12.246   4.217
  781SOL     OW 2592   8.148   7.478   0.333
  781SOL    HW1 2593   8.173   7.386   0.319
  781SOL    HW2 2594   8.070   7.490   0.279
  782SOL     OW 2595   8.345   5.992   2.051
  782SOL    HW1 2596   8.373   6.073   2.093
  782SOL    HW2 2597   8.260   5.973   2.090
  783SOL     OW 2598   8.711   3.483   2.932
  783SOL    HW1 2599   8.736   3.529   2.851
  783SOL    HW2 2600   8.792   3.442   2.961
  784SOL     OW 2601   6.123   7.523   1.866
  784SOL    HW1 2602   6.120   7.464   1.941
  784SOL    HW2 2603   6.196   7.490   1.812
  785SOL     OW 2604   6.839  14.203   6.761
  785SOL    HW1 2605   6.848  14.131   6.824
  785SOL    HW2 2606   6.835  14.160   6.676
  786SOL     OW 2607   5.947   9.147   7.286
  786SOL    HW1 2608   5.857   9.181   7.287
  786SOL    HW2 2609   6.000   9.223   7.311
  787SOL     OW 2610  13.798  14.884   7.205
  787SOL    HW1 2611  13.715  14.848   7.234
  787SOL    HW2 2612  13.774  14.957   7.148
  788SOL     OW 2613  11.587  10.698   3.955
  788SOL    HW1 2614  11.661  10.677   4.012
  788SOL    HW2 2615  11.575  10.792   3.965
  789SOL     OW 2616  12.799   9.226   4.949
  789SOL    HW1 2617  12.837   9.300   4.996
  789SOL    HW2 2618  12.706   9.246   4.943
  790SOL     OW 2619  12.177   6.178   6.079
  790SOL    HW1 2620  12.135   6.223   6.006
  790SOL    HW2 2621  12.157   6.085   6.065
  791SOL     OW 2622   7.467   7.000   5.092
  791SOL    HW1 2623   7.517   7.075   5.125
  791SOL    HW2 2624   7.531   6.946   5.046
  792SOL     OW 2625  10.335   7.850   4.648
  792SOL    HW1 2626  10.365   7.837   4.558
  792SOL    HW2 2627  10.248   7.889   4.640
  793SOL     OW 2628   8.465   9.281   4.290
  793SOL    HW1 2629   8.537   9.236   4.244
  793SOL    HW2 2630   8.503   9.304   4.375
  794SOL     OW 2631  10.716   6.451   2.858
  794SOL    HW1 2632  10.624   6.476   2.864
  794SOL    HW2 2633  10.715   6.358   2.836
  795SOL     OW 2634   0.876   9.544   0.441
  795SOL    HW1 2635   0.921   9.564   0.359
  795SOL    HW2 2636   0.814   9.475   0.418
  796SOL     OW 2637   4.509   5.916   1.092
  796SOL    HW1 2638   4.523   5.972   1.016
  796SOL    HW2 2639   4.473   5.835   1.056
  797SOL     OW 2640   8.797  10.749   0.631
  797SOL    HW1 2641   8.837  10.796   0.704
  797SOL    HW2 2642   8.820  10.801   0.553
  798SOL     OW 2643   6.866   2.498   0.551
  798SOL    HW1 2644   6.829   2.509   0.639
  798SOL    HW2 2645   6.896   2.586   0.526
  799SOL     OW 2646   9.741   7.478   7.165
  799SOL    HW1 2647   9.718   7.568   7.190
  799SOL    HW2 2648   9.836   7.474   7.177
  800SOL     OW 2649  10.976   8.920   7.159
  800SOL    HW1 2650  10.901   8.941   7.104
  800SOL    HW2 2651  10.988   8.996   7.215
  801SOL     OW 2652  11.585   2.702   1.932
  801SOL    HW1 2653  11.554   2.722   2.021
  801SOL    HW2 2654  11.559   2.779   1.881
  802SOL     OW 2655   4.309   4.180   3.437
  802SOL    HW1 2656   4.263   4.126   3.500
  802SOL    HW2 2657   4.248   4.191   3.365
  803SOL     OW 2658   8.979   9.101   6.927
  803SOL    HW1 2659   9.065   9.103   6.884
  803SOL    HW2 2660   8.957   9.194   6.941
  804SOL     OW 2661   8.408   5.456   1.372
  804SOL    HW1 2662   8.415   5.508   1.292
  804SOL    HW2 2663   8.339   5.392   1.353
  805SOL     OW 2664   6.419   8.007   6.124
  805SOL    HW1 2665   6.391   8.030   6.036
  805SOL    HW2 2666   6.515   8.013   6.121
  806SOL     OW 2667   8.116  11.332   3.549
  806SOL    HW1 2668   8.139  11.240   3.561
  806SOL    HW2 2669   8.023  11.337   3.572
  807SOL     OW 2670   8.431   4.076   0.108
  807SOL    HW1 2671   8.358   4.087   0.170
  807SOL    HW2 2672   8.457   4.165   0.085
  808SOL     OW 2673   6.900   4.683   6.099
  808SOL    HW1 2674   6.992   4.660   6.108
  808SOL    HW2 2675   6.861   4.655   6.182
  809SOL     OW 2676   9.811   7.241   6.883
  809SOL    HW1 2677   9.889   7.185   6.886
  809SOL    HW2 2678   9.795   7.255   6.790
  810SOL     OW 2679   3.055  10.707   4.080
  810SOL    HW1 2680   3.110  10.654   4.023
  810SOL    HW2 2681   2.966  10.675   4.064
  811SOL     OW 2682   8.417  11.026   2.166
  811SOL    HW1 2683   8.462  11.034   2.081
  811SOL    HW2 2684   8.427  11.112   2.206
  812SOL     OW 2685   5.350   9.701   4.608
  812SOL    HW1 2686   5.350   9.678   4.515
  812SOL    HW2 2687   5.439   9.683   4.637
  813SOL     OW 2688  13.188  12.616   4.067
  813SOL    HW1 2689  13.103  12.659   4.073
  813SOL    HW2 2690  13.173  12.542   4.008
  814SOL     OW 2691   8.055   5.109   5.856
  814SOL    HW1 2692   8.105   5.075   5.782
  814SOL    HW2 2693   8.095   5.194   5.874
  815SOL     OW 2694   4.370   6.916   5.865
  815SOL    HW1 2695   4.446   6.923   5.922
  815SOL    HW2 2696   4.357   7.005   5.830
  816SOL     OW 2697   4.938  12.124   5.126
  816SOL    HW1 2698   4.917  12.218   5.131
  816SOL    HW2 2699   4.985  12.115   5.043
  817SOL     OW 2700   5.788   9.686   3.818
  817SOL    HW1 2701   5.695   9.669   3.801
  817SOL    HW2 2702   5.828   9.599   3.825
  818SOL     OW 2703   5.615   9.507   4.155
  818SOL    HW1 2704   5.701   9.525   4.193
  818SOL    HW2 2705   5.626   9.423   4.111
  819SOL     OW 2706   8.858   8.949   5.138
  819SOL    HW1 2707   8.946   8.957   5.175
  819SOL    HW2 2708   8.800   8.976   5.209
  820SOL     OW 2709   6.514  10.407   1.829
  820SOL    HW1 2710   6.476  10.320   1.818
  820SOL    HW2 2711   6.475  10.460   1.760
  821SOL     OW 2712   9.771   8.935   5.475
  821SOL    HW1 2713   9.737   8.845   5.479
  821SOL    HW2 2714   9.862   8.925   5.447
  822SOL     OW 2715   5.988   9.103   0.525
  822SOL    HW1 2716   6.069   9.153   0.517
  822SOL    HW2 2717   5.919   9.170   0.529
  823SOL     OW 2718   2.375   7.995   2.137
  823SOL    HW1 2719   2.449   7.934   2.148
  823SOL    HW2 2720   2.298   7.938   2.129
  824SOL     OW 2721   2.488  10.527   3.261
  824SOL    HW1 2722   2.561  10.470   3.237
  824SOL    HW2 2723   2.477  10.513   3.355
  825SOL     OW 2724   7.232   7.666   4.545
  825SOL    HW1 2725   7.286   7.688   4.620
  825SOL    HW2 2726   7.272   7.712   4.471
  826SOL     OW 2727   8.481   6.205   6.105
  826SOL    HW1 2728   8.535   6.142   6.154
  826SOL    HW2 2729   8.396   6.162   6.097
  827SOL     OW 2730   6.579   4.218   5.320
  827SOL    HW1 2731   6.490   4.182   5.324
  827SOL    HW2 2732   6.568   4.306   5.285
  828SOL     OW 2733  12.041   5.230   4.948
  828SOL    HW1 2734  12.095   5.182   4.886
  828SOL    HW2 2735  12.103   5.279   5.002
  829SOL     OW 2736   8.425  10.731   5.945
  829SOL    HW1 2737   8.443  10.811   5.896
  829SOL    HW2 2738   8.330  10.730   5.956
  830SOL     OW 2739   5.522   7.030   0.604
  830SOL    HW1 2740   5.502   7.115   0.643
  830SOL    HW2 2741   5.540   7.050   0.512
  831SOL     OW 2742  11.827   4.291   4.857
  831SOL    HW1 2743  11.749   4.278   4.911
  831SOL    HW2 2744  11.817   4.379   4.822
  832SOL     OW 2745   4.627   5.111   4.194
  832SOL    HW1 2746   4.696   5.048   4.174
  832SOL    HW2 2747   4.600   5.145   4.109
  833SOL     OW 2748   7.797  12.231   5.446
  833SOL    HW1 2749   7.788  12.311   5.497
  833SOL    HW2 2750   7.791  12.259   5.355
  834SOL     OW 2751   9.951   2.517   2.942
  834SOL    HW1 2752  10.036   2.536   2.982
  834SOL    HW2 2753   9.891   2.506   3.016
  835SOL     OW 2754   4.637   6.644   2.024
  835SOL    HW1 2755   4.612   6.729   1.988
  835SOL    HW2 2756   4.556   6.593   2.025
  836SOL     OW 2757  12.365   6.894   5.406
  836SOL    HW1 2758  12.343   6.984   5.428
  836SOL    HW2 2759  12.310   6.841   5.464
  837SOL     OW 2760   4.839  11.790   3.014
  837SOL    HW1 2761   4.870  11.818   3.100
  837SOL    HW2 2762   4.782  11.861   2.985
  838SOL     OW 2763   9.653  12.299   5.110
  838SOL    HW1 2764   9.707  12.368   5.072
  838SOL    HW2 2765   9.569  12.307   5.066
  839SOL     OW 2766  12.055   9.770   7.263
  839SOL    HW1 2767  12.047   9.702   7.196
  839SOL    HW2 2768  12.053   9.852   7.214
  840SOL     OW 2769   6.735   5.111   2.182
  840SOL    HW1 2770   6.734   5.166   2.260
  840SOL    HW2 2771   6.803   5.148   2.126
  841SOL     OW 2772   7.693   4.508   0.348
  841SOL    HW1 2773   7.682   4.510   0.253
  841SOL    HW2 2774   7.611   4.471   0.381
  842SOL     OW 2775  10.755   9.563   5.907
  842SOL    HW1 2776  10.668   9.528   5.888
  842SOL    HW2 2777  10.814   9.507   5.857
  843SOL     OW 2778  13.851  14.758   5.809
  843SOL    HW1 2779  13.851  14.851   5.787
  843SOL    HW2 2780  13.901  14.717   5.739
  844SOL     OW 2781   6.433   4.879   2.642
  844SOL    HW1 2782   6.449   4.823   2.718
  844SOL    HW2 2783   6.396   4.959   2.678
  845SOL     OW 2784   9.891   6.730   1.083
  845SOL    HW1 2785   9.857   6.768   1.002
  845SOL    HW2 2786   9.870   6.636   1.075
  846SOL     OW 2787   7.581  11.673   7.561
  846SOL    HW1 2788   2.162   6.248   0.025
  846SOL    HW2 2789   7.671  11.642   7.554
  847SOL     OW 2790  13.300  11.364   5.959
  847SOL    HW1 2791  13.299  11.296   6.026
  847SOL    HW2 2792  13.347  11.436   5.999
  848SOL     OW 2793   4.098   3.857   2.615
  848SOL    HW1 2794   4.033   3.840   2.546
  848SOL    HW2 2795   4.069   3.938   2.656
  849SOL     OW 2796  15.362   7.698   6.592
  849SOL    HW1 2797  15.368   7.631   6.661
  849SOL    HW2 2798  15.309   7.657   6.524
  850SOL     OW 2799   6.646   3.226   1.217
  850SOL    HW1 2800   6.694   3.187   1.290
  850SOL    HW2 2801   6.705   3.292   1.181
  851SOL     OW 2802   6.134   7.698   4.998
  851SOL    HW1 2803   6.178   7.699   4.913
  851SOL    HW2 2804   6.204   7.706   5.062
  852SOL     OW 2805   5.497   9.487   7.063
  852SOL    HW1 2806   5.564   9.458   7.002
  852SOL    HW2 2807   5.416   9.449   7.030
  853SOL     OW 2808  14.397  13.389   5.811
  853SOL    HW1 2809  14.441  13.445   5.746
  853SOL    HW2 2810  14.452  13.311   5.815
  854SOL     OW 2811   3.005   2.288   1.936
  854SOL    HW1 2812   2.965   2.286   2.023
  854SOL    HW2 2813   2.962   2.361   1.891
  855SOL     OW 2814   6.641   5.663   5.955
  855SOL    HW1 2815   6.625   5.571   5.938
  855SOL    HW2 2816   6.553   5.702   5.960
  856SOL     OW 2817  12.265  13.665   7.521
  856SOL    HW1 2818  12.322  13.633   7.451
  856SOL    HW2 2819  12.206  13.592   7.540
  857SOL     OW 2820  11.707   9.182   3.331
  857SOL    HW1 2821  11.731   9.094   3.302
  857SOL    HW2 2822  11.612   9.186   3.322
  858SOL     OW 2823   9.641   7.209   1.326
  858SOL    HW1 2824   9.649   7.168   1.239
  858SOL    HW2 2825   9.546   7.217   1.339
  859SOL     OW 2826   4.749  13.969   5.331
  859SOL    HW1 2827   4.785  13.885   5.302
  859SOL    HW2 2828   4.727  14.015   5.250
  860SOL     OW 2829   2.378   3.872   1.650
  860SOL    HW1 2830   2.422   3.954   1.629
  860SOL    HW2 2831   2.445   3.805   1.639
  861SOL     OW 2832  13.667   6.094   6.997
  861SOL    HW1 2833  13.747   6.142   6.973
  861SOL    HW2 2834  13.631   6.144   7.071
  862SOL     OW 2835  12.763  10.289   5.125
  862SOL    HW1 2836  12.819  10.355   5.084
  862SOL    HW2 2837  12.820  10.247   5.190
  863SOL     OW 2838   5.602   8.749   0.550
  863SOL    HW1 2839   5.572   8.707   0.469
  863SOL    HW2 2840   5.635   8.835   0.522
  864SOL     OW 2841  12.950  12.646   4.264
  864SOL    HW1 2842  12.870  12.672   4.218
  864SOL    HW2 2843  13.003  12.726   4.267
  865SOL     OW 2844  10.742   6.280   1.133
  865SOL    HW1 2845  10.706   6.217   1.071
  865SOL    HW2 2846  10.801   6.229   1.188
  866SOL     OW 2847   3.568   3.980   4.888
  866SOL    HW1 2848   3.570   3.893   4.927
  866SOL    HW2 2849   3.592   3.966   4.797
  867SOL     OW 2850  10.632   9.331   0.663
  867SOL    HW1 2851  10.620   9.421   0.694
  867SOL    HW2 2852  10.703   9.296   0.717
  868SOL     OW 2853   8.349  10.617   2.654
  868SOL    HW1 2854   8.300  10.578   2.582
  868SOL    HW2 2855   8.394  10.692   2.616
  869SOL     OW 2856   8.145   8.677   7.385
  869SOL    HW1 2857   8.213   8.613   7.404
  869SOL    HW2 2858   8.191   8.762   7.387
  870SOL     OW 2859   8.054  12.015   5.885
  870SOL    HW1 2860   8.069  12.013   5.980
  870SOL    HW2 2861   8.101  12.093   5.855
  871SOL     OW 2862   7.055  10.888   5.611
  871SOL    HW1 2863   7.013  10.804   5.593
  871SOL    HW2 2864   7.140  10.882   5.569
  872SOL     OW 2865   9.342  10.730   5.773
  872SOL    HW1 2866   9.260  10.683   5.784
  872SOL    HW2 2867   9.405  10.679   5.825
  873SOL     OW 2868   6.869   8.134   3.173
  873SOL    HW1 2869   6.866   8.169   3.262
  873SOL    HW2 2870   6.942   8.179   3.132
  874SOL     OW 2871   8.335   5.394   0.645
  874SOL    HW1 2872   8.280   5.374   0.569
  874SOL    HW2 2873   8.281   5.370   0.720
  875SOL     OW 2874  10.962   9.915   4.208
  875SOL    HW1 2875  11.048   9.877   4.195
  875SOL    HW2 2876  10.978   9.995   4.257
  876SOL     OW 2877   6.946   4.080   5.231
  876SOL    HW1 2878   6.961   4.021   5.305
  876SOL    HW2 2879   7.028   4.079   5.182
  877SOL     OW 2880   8.556   5.526   1.592
  877SOL    HW1 2881   8.646   5.502   1.572
  877SOL    HW2 2882   8.504   5.482   1.525
  878SOL     OW 2883   5.654   3.498   4.478
  878SOL    HW1 2884   5.602   3.577   4.486
  878SOL    HW2 2885   5.745   3.529   4.475
  879SOL     OW 2886  10.010   5.070   3.636
  879SOL    HW1 2887   9.998   5.011   3.710
  879SOL    HW2 2888   9.934   5.055   3.580
  880SOL     OW 2889   5.037   2.609   0.566
  880SOL    HW1 2890   5.096   2.668   0.613
  880SOL    HW2 2891   5.011   2.544   0.632
  881SOL     OW 2892   7.415   8.703   1.567
  881SOL    HW1 2893   7.341   8.677   1.621
  881SOL    HW2 2894   7.393   8.672   1.479
  882SOL     OW 2895  10.276   6.378   5.387
  882SOL    HW1 2896  10.282   6.316   5.460
  882SOL    HW2 2897  10.366   6.397   5.364
  883SOL     OW 2898   5.468   7.174   0.384
  883SOL    HW1 2899   5.411   7.142   0.314
  883SOL    HW2 2900   5.466   7.269   0.377
  884SOL     OW 2901   4.149   9.332   5.034
  884SOL    HW1 2902   4.083   9.275   5.074
  884SOL    HW2 2903   4.136   9.321   4.940
  885SOL     OW 2904   2.043   5.721   1.012
  885SOL    HW1 2905   2.112   5.787   1.017
  885SOL    HW2 2906   1.966   5.764   1.049
  886SOL     OW 2907   9.676   8.218   5.320
  886SOL    HW1 2908   9.600   8.202   5.376
  886SOL    HW2 2909   9.679   8.143   5.261
  887SOL     OW 2910   4.685  10.180   1.519
  887SOL    HW1 2911   4.649  10.092   1.532
  887SOL    HW2 2912   4.655  10.230   1.595
  888SOL     OW 2913   4.293   8.516   0.782
  888SOL    HW1 2914   4.223   8.493   0.843
  888SOL    HW2 2915   4.371   8.472   0.818
  889SOL     OW 2916  10.587   9.844   1.359
  889SOL    HW1 2917  10.525   9.915   1.378
  889SOL    HW2 2918  10.671   9.876   1.392
  890SOL     OW 2919  13.591   9.440   7.320
  890SOL    HW1 2920  13.621   9.415   7.408
  890SOL    HW2 2921  13.497   9.422   7.321
  891SOL     OW 2922  10.126   6.207   1.699
  891SOL    HW1 2923  10.038   6.233   1.726
  891SOL    HW2 2924  10.119   6.112   1.684
  892SOL     OW 2925   2.267   2.803   0.538
  892SOL    HW1 2926   2.312   2.787   0.455
  892SOL    HW2 2927   2.232   2.718   0.564
  893SOL     OW 2928   9.933  10.019   1.223
  893SOL    HW1 2929  10.004  10.084   1.225
  893SOL    HW2 2930   9.883  10.041   1.145
  894SOL     OW 2931   8.151  10.150   6.696
  894SOL    HW1 2932   8.228  10.184   6.650
  894SOL    HW2 2933   8.185  10.116   6.778
  895SOL     OW 2934   6.185   1.654   1.190
  895SOL    HW1 2935   6.206   1.589   1.258
  895SOL    HW2 2936   6.099   1.629   1.159
  896SOL     OW 2937  10.570   7.076   0.699
  896SOL    HW1 2938  10.599   7.004   0.644
  896SOL    HW2 2939  10.585   7.155   0.647
  897SOL     OW 2940   3.495   8.130   1.043
  897SOL    HW1 2941   3.519   8.219   1.070
  897SOL    HW2 2942   3.400   8.133   1.034
  898SOL     OW 2943   7.702   9.454   5.685
  898SOL    HW1 2944   7.655   9.449   5.602
  898SOL    HW2 2945   7.793   9.435   5.663
  899SOL     OW 2946  14.156  10.410   5.540
  899SOL    HW1 2947  14.249  10.416   5.565
  899SOL    HW2 2948  14.147  10.324   5.500
  900SOL     OW 2949  11.487  14.415   5.428
  900SOL    HW1 2950  11.581  14.412   5.444
  900SOL    HW2 2951  11.461  14.504   5.452
  901SOL     OW 2952  12.944   9.427   5.104
  901SOL    HW1 2953  12.906   9.450   5.019
  901SOL    HW2 2954  13.022   9.482   5.111
  902SOL     OW 2955   9.900  13.261   5.617
  902SOL    HW1 2956   9.977  13.317   5.606
  902SOL    HW2 2957   9.853  13.300   5.691
  903SOL     OW 2958   9.501   1.843   0.378
  903SOL    HW1 2959   9.574   1.808   0.429
  903SOL    HW2 2960   9.537   1.856   0.290
  904SOL     OW 2961   5.824   7.920   4.492
  904SOL    HW1 2962   5.809   7.964   4.575
  904SOL    HW2 2963   5.739   7.922   4.448
  905SOL     OW 2964  10.450   5.184   1.505
  905SOL    HW1 2965  10.481   5.187   1.596
  905SOL    HW2 2966  10.474   5.096   1.475
  906SOL     OW 2967   8.620  13.175   4.157
  906SOL    HW1 2968   8.661  13.090   4.138
  906SOL    HW2 2969   8.600  13.171   4.251
  907SOL     OW 2970   5.948   4.428   4.204
  907SOL    HW1 2971   6.027   4.374   4.195
  907SOL    HW2 2972   5.940   4.473   4.120
  908SOL     OW 2973   8.482  10.157   6.740
  908SOL    HW1 2974   8.456  10.221   6.674
  908SOL    HW2 2975   8.415  10.090   6.736
  909SOL     OW 2976   9.081   9.980   3.303
  909SOL    HW1 2977   9.152   9.996   3.365
  909SOL    HW2 2978   9.002   9.975   3.357
  910SOL     OW 2979   7.800  10.279   6.744
  910SOL    HW1 2980   7.859  10.268   6.670
  910SOL    HW2 2981   7.734  10.341   6.713
  911SOL     OW 2982   9.814   3.224   3.654
  911SOL    HW1 2983   9.770   3.227   3.569
  911SOL    HW2 2984   9.758   3.166   3.707
  912SOL     OW 2985  11.750  10.897   4.931
  912SOL    HW1 2986  11.711  10.811   4.945
  912SOL    HW2 2987  11.844  10.880   4.922
  913SOL     OW 2988   8.710   3.083   3.787
  913SOL    HW1 2989   8.739   3.110   3.874
  913SOL    HW2 2990   8.728   2.989   3.784
  914SOL     OW 2991   1.876   5.385   0.823
  914SOL    HW1 2992   1.877   5.302   0.775
  914SOL    HW2 2993   1.829   5.445   0.765
  915SOL     OW 2994   5.986   5.540   5.791
  915SOL    HW1 2995   5.986   5.446   5.772
  915SOL    HW2 2996   5.925   5.577   5.727
  916SOL     OW 2997  11.663  11.180   3.108
  916SOL    HW1 2998  11.721  11.104   3.102
  916SOL    HW2 2999  11.590  11.150   3.163
  917SOL     OW 3000   4.179  13.507   4.573
  917SOL    HW1 3001   4.242  13.536   4.639
  917SOL    HW2 3002   4.177  13.577   4.508
  918SOL     OW 3003  11.343   7.231   1.823
  918SOL    HW1 3004  11.291   7.278   1.888
  918SOL    HW2 3005  11.391   7.300   1.777
  919SOL     OW 3006   9.923   6.483   4.576
  919SOL    HW1 3007   9.998   6.505   4.631
  919SOL    HW2 3008   9.889   6.402   4.614
  920SOL     OW 3009  12.643  11.329   5.045
  920SOL    HW1 3010  12.628  11.235   5.038
  920SOL    HW2 3011  12.730  11.342   5.006
  921SOL     OW 3012   6.096  13.550   7.332
  921SOL    HW1 3013   6.118  13.643   7.345
  921SOL    HW2 3014   6.029  13.532   7.398
  922SOL     OW 3015   8.134  12.132   6.656
  922SOL    HW1 3016   8.056  12.178   6.686
  922SOL    HW2 3017   8.205  12.195   6.670
  923SOL     OW 3018  11.302  12.050   4.819
  923SOL    HW1 3019  11.246  12.075   4.892
  923SOL    HW2 3020  11.306  11.954   4.824
  924SOL     OW 3021  12.613   8.332   2.801
  924SOL    HW1 3022  12.691   8.339   2.746
  924SOL    HW2 3023  12.603   8.239   2.817
  925SOL     OW 3024   3.894   8.953   1.037
  925SOL    HW1 3025   3.943   8.875   1.062
  925SOL    HW2 3026   3.960   9.021   1.025
  926SOL     OW 3027   3.500   3.416   2.902
  926SOL    HW1 3028   3.419   3.405   2.851
  926SOL    HW2 3029   3.551   3.338   2.883
  927SOL     OW 3030   8.555  11.357   6.142
  927SOL    HW1 3031   8.517  11.397   6.063
  927SOL    HW2 3032   8.498  11.283   6.161
  928SOL     OW 3033  11.751   7.452   1.404
  928SOL    HW1 3034  11.655   7.451   1.397
  928SOL    HW2 3035  11.769   7.461   1.497
  929SOL     OW 3036   7.442  15.661   7.359
  929SOL    HW1 3037   7.536  15.669   7.373
  929SOL    HW2 3038   7.419  15.736   7.305
  930SOL     OW 3039  10.898  10.119   3.691
  930SOL    HW1 3040  10.834  10.133   3.761
  930SOL    HW2 3041  10.896  10.200   3.639
  931SOL     OW 3042   3.253  11.327   0.949
  931SOL    HW1 3043   3.185  11.261   0.964
  931SOL    HW2 3044   3.267  11.367   1.034
  932SOL     OW 3045  13.633  13.815   4.694
  932SOL    HW1 3046  13.645  13.867   4.773
  932SOL    HW2 3047  13.668  13.729   4.717
  933SOL     OW 3048   9.518   5.517   2.438
  933SOL    HW1 3049   9.496   5.435   2.483
  933SOL    HW2 3050   9.436   5.545   2.396
  934SOL     OW 3051  11.948   4.787   1.987
  934SOL    HW1 3052  11.984   4.699   1.977
  934SOL    HW2 3053  11.882   4.778   2.056
  935SOL     OW 3054   8.743   8.087   4.259
  935SOL    HW1 3055   8.824   8.134   4.276
  935SOL    HW2 3056   8.742   8.017   4.325
  936SOL     OW 3057   5.394   7.947   1.356
  936SOL    HW1 3058   5.419   8.010   1.422
  936SOL    HW2 3059   5.355   7.874   1.405
  937SOL     OW 3060  14.115  15.415   6.588
  937SOL    HW1 3061  14.104  15.328   6.549
  937SOL    HW2 3062  14.029   4.682   6.579
  938SOL     OW 3063  11.184   7.926   4.231
  938SOL    HW1 3064  11.267   7.948   4.274
  938SOL    HW2 3065  11.136   8.009   4.227
  939SOL     OW 3066   7.152   8.698   4.160
  939SOL    HW1 3067   7.099   8.662   4.089
  939SOL    HW2 3068   7.089   8.726   4.226
  940SOL     OW 3069   6.320  14.358   6.291
  940SOL    HW1 3070   6.395  14.396   6.246
  940SOL    HW2 3071   6.247  14.369   6.230
  941SOL     OW 3072   6.416  11.533   2.314
  941SOL    HW1 3073   6.477  11.520   2.387
  941SOL    HW2 3074   6.369  11.614   2.336
  942SOL     OW 3075   0.630   1.952   0.081
  942SOL    HW1 3076   0.589   2.032   0.050
  942SOL    HW2 3077   0.595   1.940   0.169
  943SOL     OW 3078  10.293   7.659   2.107
  943SOL    HW1 3079  10.271   7.715   2.033
  943SOL    HW2 3080  10.227   7.679   2.173
  944SOL     OW 3081   8.579   4.298   1.021
  944SOL    HW1 3082   8.566   4.392   1.029
  944SOL    HW2 3083   8.627   4.287   0.938
  945SOL     OW 3084   8.952   5.598   2.016
  945SOL    HW1 3085   8.907   5.516   1.991
  945SOL    HW2 3086   9.016   5.571   2.081
  946SOL     OW 3087  10.908  13.237   6.244
  946SOL    HW1 3088  10.822  13.194   6.235
  946SOL    HW2 3089  10.891  13.311   6.302
  947SOL     OW 3090   4.850   6.345   3.631
  947SOL    HW1 3091   4.854   6.385   3.544
  947SOL    HW2 3092   4.937   6.360   3.668
  948SOL     OW 3093  10.195   6.097   7.048
  948SOL    HW1 3094  10.231   6.115   6.961
  948SOL    HW2 3095  10.262   6.128   7.108
  949SOL     OW 3096   6.593  12.253   7.558
  949SOL    HW1 3097   6.634  12.284   7.477
  949SOL    HW2 3098   6.556  12.167   7.535
  950SOL     OW 3099   9.621   3.481   1.919
  950SOL    HW1 3100   9.547   3.493   1.979
  950SOL    HW2 3101   9.628   3.565   1.873
  951SOL     OW 3102   1.063   1.773   0.746
  951SOL    HW1 3103   1.124   1.770   0.820
  951SOL    HW2 3104   0.986   1.725   0.775
  952SOL     OW 3105   7.402   5.391   4.684
  952SOL    HW1 3106   7.321   5.341   4.678
  952SOL    HW2 3107   7.388   5.467   4.627
  953SOL     OW 3108  14.035   6.482   6.456
  953SOL    HW1 3109  14.030   6.391   6.483
  953SOL    HW2 3110  14.089   6.482   6.378
  954SOL     OW 3111   8.712  14.087   7.202
  954SOL    HW1 3112   8.699  14.040   7.285
  954SOL    HW2 3113   8.665  14.170   7.214
  955SOL     OW 3114   5.022   7.565   3.801
  955SOL    HW1 3115   4.938   7.606   3.819
  955SOL    HW2 3116   5.069   7.570   3.885
  956SOL     OW 3117   6.763   2.714   1.551
  956SOL    HW1 3118   6.713   2.633   1.535
  956SOL    HW2 3119   6.705   2.768   1.605
  957SOL     OW 3120   6.035   8.351   5.334
  957SOL    HW1 3121   6.097   8.390   5.396
  957SOL    HW2 3122   5.958   8.331   5.387
  958SOL     OW 3123   6.511  10.315   6.053
  958SOL    HW1 3124   6.504  10.282   5.963
  958SOL    HW2 3125   6.457  10.256   6.105
  959SOL     OW 3126  13.092   5.570   6.834
  959SOL    HW1 3127  13.133   5.612   6.758
  959SOL    HW2 3128  13.026   5.633   6.863
  960SOL     OW 3129   5.282  13.942   5.136
  960SOL    HW1 3130   5.222  13.870   5.157
  960SOL    HW2 3131   5.271  13.956   5.042
  961SOL     OW 3132   9.698  11.099   6.928
  961SOL    HW1 3133   9.668  11.039   6.859
  961SOL    HW2 3134   9.756  11.046   6.983
  962SOL     OW 3135  10.170   2.309   0.796
  962SOL    HW1 3136  10.100   2.294   0.859
  962SOL    HW2 3137  10.165   2.402   0.775
  963SOL     OW 3138  12.647   9.242   3.281
  963SOL    HW1 3139  12.688   9.157   3.260
  963SOL    HW2 3140  12.572   9.219   3.335
  964SOL     OW 3141   3.255  10.408   3.428
  964SOL    HW1 3142   3.194  10.444   3.364
  964SOL    HW2 3143   3.310  10.482   3.453
  965SOL     OW 3144  13.065   8.312   3.741
  965SOL    HW1 3145  13.051   8.343   3.831
  965SOL    HW2 3146  13.011   8.370   3.687
  966SOL     OW 3147   6.719   8.809   1.949
  966SOL    HW1 3148   6.805   8.814   1.990
  966SOL    HW2 3149   6.695   8.717   1.954
  967SOL     OW 3150   8.465  11.556   5.543
  967SOL    HW1 3151   8.521  11.625   5.510
  967SOL    HW2 3152   8.405  11.536   5.471
  968SOL     OW 3153  10.074   6.161   3.777
  968SOL    HW1 3154  10.032   6.076   3.789
  968SOL    HW2 3155  10.147   6.144   3.718
  969SOL     OW 3156   6.849   8.612   6.080
  969SOL    HW1 3157   6.767   8.640   6.040
  969SOL    HW2 3158   6.916   8.666   6.037
  970SOL     OW 3159   3.959   9.338   4.589
  970SOL    HW1 3160   3.907   9.382   4.521
  970SOL    HW2 3161   3.962   9.400   4.661
  971SOL     OW 3162  11.541   6.751   6.397
  971SOL    HW1 3163  11.529   6.669   6.445
  971SOL    HW2 3164  11.478   6.746   6.325
  972SOL     OW 3165   2.428   4.117   1.001
  972SOL    HW1 3166   2.347   4.081   1.037
  972SOL    HW2 3167   2.489   4.116   1.074
  973SOL     OW 3168   8.736  12.503   7.193
  973SOL    HW1 3169   8.700  12.574   7.246
  973SOL    HW2 3170   8.818  12.480   7.237
  974SOL     OW 3171   0.791   4.930   0.722
  974SOL    HW1 3172   0.721   4.964   0.665
  974SOL    HW2 3173   0.746   4.871   0.782
  975SOL     OW 3174  11.389  11.063   3.878
  975SOL    HW1 3175  11.465  11.030   3.830
  975SOL    HW2 3176  11.340  11.115   3.813
  976SOL     OW 3177   5.459  14.261   6.458
  976SOL    HW1 3178   5.397  14.305   6.517
  976SOL    HW2 3179   5.409  14.188   6.421
  977SOL     OW 3180   8.319   8.051   6.792
  977SOL    HW1 3181   8.275   8.074   6.710
  977SOL    HW2 3182   8.268   7.977   6.826
  978SOL     OW 3183  14.671   8.168   7.169
  978SOL    HW1 3184  14.742   8.138   7.226
  978SOL    HW2 3185  14.711   8.174   7.082
  979SOL     OW 3186   4.954  12.469   3.916
  979SOL    HW1 3187   4.980  12.536   3.853
  979SOL    HW2 3188   4.946  12.516   3.999
  980SOL     OW 3189   5.699   9.437   0.451
  980SOL    HW1 3190   5.614   9.461   0.488
  980SOL    HW2 3191   5.697   9.342   0.445
  981SOL     OW 3192  11.415   4.106   2.808
  981SOL    HW1 3193  11.334   4.128   2.853
  981SOL    HW2 3194  11.388   4.076   2.721
  982SOL     OW 3195   7.151   3.162   0.830
  982SOL    HW1 3196   7.075   3.126   0.877
  982SOL    HW2 3197   7.172   3.242   0.878
  983SOL     OW 3198  13.454  10.978   7.438
  983SOL    HW1 3199  13.408  11.045   7.387
  983SOL    HW2 3200  13.419  10.895   7.405
  984SOL     OW 3201   9.064   3.519   3.194
  984SOL    HW1 3202   9.018   3.444   3.233
  984SOL    HW2 3203   9.089   3.489   3.107
  985SOL     OW 3204   6.991   9.202   3.838
  985SOL    HW1 3205   6.912   9.188   3.890
  985SOL    HW2 3206   7.021   9.114   3.816
  986SOL     OW 3207   5.010  11.843   5.039
  986SOL    HW1 3208   5.014  11.747   5.032
  986SOL    HW2 3209   5.059  11.874   4.962
  987SOL     OW 3210   9.783   3.586   4.106
  987SOL    HW1 3211   9.858   3.611   4.053
  987SOL    HW2 3212   9.773   3.492   4.090
  988SOL     OW 3213  13.853  10.985   6.263
  988SOL    HW1 3214  13.940  10.999   6.301
  988SOL    HW2 3215  13.840  11.060   6.206
  989SOL     OW 3216  10.856  14.605   5.420
  989SOL    HW1 3217  10.834   3.871   5.336
  989SOL    HW2 3218  10.883  14.516   5.398
  990SOL     OW 3219  11.563   6.126   1.355
  990SOL    HW1 3220  11.496   6.058   1.347
  990SOL    HW2 3221  11.628   6.104   1.287
  991SOL     OW 3222  11.622   8.823   5.237
  991SOL    HW1 3223  11.667   8.795   5.158
  991SOL    HW2 3224  11.647   8.759   5.304
  992SOL     OW 3225  13.360   9.800   4.323
  992SOL    HW1 3226  13.289   9.863   4.337
  992SOL    HW2 3227  13.438   9.845   4.353
  993SOL     OW 3228   7.367   6.668   7.439
  993SOL    HW1 3229   7.380   6.761   7.456
  993SOL    HW2 3230   7.272   6.659   7.423
  994SOL     OW 3231   5.581   4.151   1.441
  994SOL    HW1 3232   5.632   4.129   1.519
  994SOL    HW2 3233   5.603   4.242   1.422
  995SOL     OW 3234   4.770   7.305   0.591
  995SOL    HW1 3235   4.763   7.400   0.605
  995SOL    HW2 3236   4.680   7.274   0.593
  996SOL     OW 3237   7.429  11.526   4.051
  996SOL    HW1 3238   7.503  11.493   4.000
  996SOL    HW2 3239   7.376  11.448   4.069
  997SOL     OW 3240   6.744   6.377   6.758
  997SOL    HW1 3241   6.722   6.453   6.812
  997SOL    HW2 3242   6.670   6.318   6.770
  998SOL     OW 3243   7.893  14.223   4.886
  998SOL    HW1 3244   7.957  14.163   4.924
  998SOL    HW2 3245   7.818  14.219   4.945
  999SOL     OW 3246   8.104   2.018   1.842
  999SOL    HW1 3247   8.104   2.105   1.882
  999SOL    HW2 3248   8.165   1.967   1.895
 1000SOL     OW 3249   3.132   1.808   2.011
 1000SOL    HW1 3250   3.185   1.884   2.034
 1000SOL    HW2 3251   3.191   1.733   2.019
 1001SOL     OW 3252  14.336  11.859   5.415
 1001SOL    HW1 3253  14.270  11.917   5.453
 1001SOL    HW2 3254  14.339  11.884   5.322
 1002SOL     OW 3255   7.677   5.108   1.571
 1002SOL    HW1 3256   7.735   5.071   1.504
 1002SOL    HW2 3257   7.730   5.108   1.650
 1003SOL     OW 3258   8.622  10.933   3.534
 1003SOL    HW1 3259   8.584  10.873   3.470
 1003SOL    HW2 3260   8.689  10.882   3.579
 1004SOL     OW 3261  13.811   8.114   5.872
 1004SOL    HW1 3262  13.883   8.053   5.887
 1004SOL    HW2 3263  13.753   8.067   5.812
 1005SOL     OW 3264   8.402   4.739   1.935
 1005SOL    HW1 3265   8.439   4.690   2.008
 1005SOL    HW2 3266   8.310   4.712   1.932
 1006SOL     OW 3267  11.925   7.685   3.969
 1006SOL    HW1 3268  11.851   7.698   3.911
 1006SOL    HW2 3269  11.886   7.678   4.056
 1007SOL     OW 3270   1.039   4.148   0.552
 1007SOL    HW1 3271   0.961   4.166   0.499
 1007SOL    HW2 3272   1.014   4.173   0.641
 1008SOL     OW 3273   0.675   7.094   0.682
 1008SOL    HW1 3274   0.650   7.009   0.718
 1008SOL    HW2 3275   0.688   7.077   0.588
 1009SOL     OW 3276   9.000  10.024   6.059
 1009SOL    HW1 3277   8.917   9.978   6.071
 1009SOL    HW2 3278   8.990  10.104   6.111
 1010SOL     OW 3279  11.240  10.741   2.311
 1010SOL    HW1 3280  11.283  10.756   2.227
 1010SOL    HW2 3281  11.253  10.648   2.328
 1011SOL     OW 3282   6.289   6.432   5.321
 1011SOL    HW1 3283   6.261   6.350   5.362
 1011SOL    HW2 3284   6.375   6.413   5.284
 1012SOL     OW 3285  13.668  10.452   7.257
 1012SOL    HW1 3286  13.601  10.410   7.203
 1012SOL    HW2 3287  13.749  10.445   7.206
 1013SOL     OW 3288  11.016   1.821   0.656
 1013SOL    HW1 3289  10.976   1.907   0.644
 1013SOL    HW2 3290  11.063   1.827   0.739
 1014SOL     OW 3291  13.677   5.796   5.747
 1014SOL    HW1 3292  13.711   5.735   5.813
 1014SOL    HW2 3293  13.625   5.859   5.797
 1015SOL     OW 3294   6.945  10.468   5.012
 1015SOL    HW1 3295   7.019  10.458   5.071
 1015SOL    HW2 3296   6.984  10.494   4.928
 1016SOL     OW 3297   6.390   5.747   0.970
 1016SOL    HW1 3298   6.380   5.767   0.877
 1016SOL    HW2 3299   6.301   5.731   1.001
 1017SOL     OW 3300   9.580  13.044   6.847
 1017SOL    HW1 3301   9.563  13.077   6.758
 1017SOL    HW2 3302   9.510  12.981   6.862
 1018SOL     OW 3303   9.794   5.207   1.199
 1018SOL    HW1 3304   9.767   5.274   1.135
 1018SOL    HW2 3305   9.826   5.257   1.274
 1019SOL     OW 3306   4.597   9.953   4.776
 1019SOL    HW1 3307   4.614   9.878   4.719
 1019SOL    HW2 3308   4.506   9.941   4.803
 1020SOL     OW 3309   6.610  11.032   3.412
 1020SOL    HW1 3310   6.605  10.999   3.322
 1020SOL    HW2 3311   6.699  11.068   3.419
 1021SOL     OW 3312   3.663   8.147   2.231
 1021SOL    HW1 3313   3.624   8.203   2.298
 1021SOL    HW2 3314   3.625   8.178   2.148
 1022SOL     OW 3315   6.571   2.405   1.084
 1022SOL    HW1 3316   6.611   2.344   1.021
 1022SOL    HW2 3317   6.631   2.406   1.158
 1023SOL     OW 3318  12.535   8.390   4.895
 1023SOL    HW1 3319  12.536   8.459   4.962
 1023SOL    HW2 3320  12.569   8.313   4.940
 1024SOL     OW 3321  15.169  10.743   6.884
 1024SOL    HW1 3322  15.161  10.819   6.827
 1024SOL    HW2 3323  15.202  10.779   6.966
 1025SOL     OW 3324   4.643   7.239   4.933
 1025SOL    HW1 3325   4.669   7.276   4.848
 1025SOL    HW2 3326   4.720   7.191   4.963
 1026SOL     OW 3327   1.483   8.481   1.969
 1026SOL    HW1 3328   1.426   8.552   1.941
 1026SOL    HW2 3329   1.464   8.410   1.907
 1027SOL     OW 3330  10.006  10.828   6.170
 1027SOL    HW1 3331   9.984  10.777   6.092
 1027SOL    HW2 3332  10.033  10.763   6.234
 1028SOL     OW 3333   8.233  10.180   1.149
 1028SOL    HW1 3334   8.194  10.188   1.062
 1028SOL    HW2 3335   8.290  10.257   1.156
 1029SOL     OW 3336   7.787   9.699   2.024
 1029SOL    HW1 3337   7.779   9.630   1.959
 1029SOL    HW2 3338   7.754   9.777   1.980
 1030SOL     OW 3339   8.696   6.549   5.693
 1030SOL    HW1 3340   8.672   6.583   5.779
 1030SOL    HW2 3341   8.654   6.608   5.631
 1031SOL     OW 3342   0.488   1.079   0.557
 1031SOL    HW1 3343   0.416   1.133   0.526
 1031SOL    HW2 3344   0.567   1.123   0.523
 1032SOL     OW 3345   3.995   6.764   0.669
 1032SOL    HW1 3346   4.046   6.754   0.588
 1032SOL    HW2 3347   3.904   6.762   0.640
 1033SOL     OW 3348  10.315   9.834   5.694
 1033SOL    HW1 3349  10.223   9.816   5.711
 1033SOL    HW2 3350  10.342   9.891   5.766
 1034SOL     OW 3351  12.197  10.458   4.491
 1034SOL    HW1 3352  12.276  10.410   4.516
 1034SOL    HW2 3353  12.198  10.458   4.395
 1035SOL     OW 3354   9.563   5.650   6.227
 1035SOL    HW1 3355   9.608   5.566   6.216
 1035SOL    HW2 3356   9.483   5.640   6.176
 1036SOL     OW 3357  11.757   9.333   6.044
 1036SOL    HW1 3358  11.694   9.374   5.985
 1036SOL    HW2 3359  11.819   9.402   6.065
 1037SOL     OW 3360   7.914   4.552   4.189
 1037SOL    HW1 3361   7.928   4.458   4.176
 1037SOL    HW2 3362   7.931   4.566   4.282
 1038SOL     OW 3363   7.632   9.831   1.703
 1038SOL    HW1 3364   7.710   9.778   1.689
 1038SOL    HW2 3365   7.660   9.920   1.678
 1039SOL     OW 3366   3.023   8.499   0.044
 1039SOL    HW1 3367   3.072   8.423   0.077
 1039SOL    HW2 3368   2.931   8.475   0.056
 1040SOL     OW 3369  11.640   4.800   3.277
 1040SOL    HW1 3370  11.561   4.821   3.326
 1040SOL    HW2 3371  11.628   4.844   3.193
 1041SOL     OW 3372   7.053   7.222   2.788
 1041SOL    HW1 3373   6.961   7.199   2.778
 1041SOL    HW2 3374   7.097   7.139   2.806
 1042SOL     OW 3375   2.511  10.124   2.449
 1042SOL    HW1 3376   2.445  10.055   2.446
 1042SOL    HW2 3377   2.542  10.132   2.359
 1043SOL     OW 3378  11.894  13.844   7.325
 1043SOL    HW1 3379  11.912  13.935   7.347
 1043SOL    HW2 3380  11.801  13.842   7.302
 1044SOL     OW 3381   3.373  12.572   4.761
 1044SOL    HW1 3382   3.346  12.613   4.679
 1044SOL    HW2 3383   3.443  12.628   4.794
 1045SOL     OW 3384  11.529  12.016   7.027
 1045SOL    HW1 3385  11.436  12.022   7.007
 1045SOL    HW2 3386  11.564  11.956   6.961
 1046SOL     OW 3387   3.793   2.592   1.428
 1046SOL    HW1 3388   3.824   2.539   1.502
 1046SOL    HW2 3389   3.819   2.543   1.351
 1047SOL     OW 3390   8.190   9.653   5.513
 1047SOL    HW1 3391   8.266   9.689   5.466
 1047SOL    HW2 3392   8.201   9.558   5.504
 1048SOL     OW 3393  10.379  10.956   7.496
 1048SOL    HW1 3394  10.354  10.968   7.405
 1048SOL    HW2 3395  10.443  11.026   7.513
 1049SOL     OW 3396  10.956   5.093   2.033
 1049SOL    HW1 3397  10.944   5.044   2.114
 1049SOL    HW2 3398  10.891   5.057   1.973
 1050SOL     OW 3399  12.645   8.416   5.618
 1050SOL    HW1 3400  12.672   8.453   5.702
 1050SOL    HW2 3401  12.613   8.490   5.567
 1051SOL     OW 3402   3.257   4.136   3.353
 1051SOL    HW1 3403   3.300   4.216   3.381
 1051SOL    HW2 3404   3.164   4.157   3.355
 1052SOL     OW 3405  10.361   8.082   5.783
 1052SOL    HW1 3406  10.452   8.087   5.752
 1052SOL    HW2 3407  10.353   7.994   5.820
 1053SOL     OW 3408   9.353  11.904   5.624
 1053SOL    HW1 3409   9.258  11.904   5.624
 1053SOL    HW2 3410   9.377  11.922   5.533
 1054SOL     OW 3411   6.145   3.064   3.147
 1054SOL    HW1 3412   6.146   3.058   3.242
 1054SOL    HW2 3413   6.053   3.050   3.124
 1055SOL     OW 3414   4.788   9.291   2.668
 1055SOL    HW1 3415   4.725   9.223   2.646
 1055SOL    HW2 3416   4.858   9.281   2.604
 1056SOL     OW 3417   4.442  10.681   0.601
 1056SOL    HW1 3418   4.421  10.725   0.683
 1056SOL    HW2 3419   4.503  10.740   0.557
 1057SOL     OW 3420  11.448   2.882   1.127
 1057SOL    HW1 3421  11.496   2.951   1.082
 1057SOL    HW2 3422  11.381   2.853   1.065
 1058SOL     OW 3423  11.010   7.411   0.615
 1058SOL    HW1 3424  11.042   7.354   0.685
 1058SOL    HW2 3425  11.058   7.384   0.538
 1059SOL     OW 3426  10.795  12.781   5.221
 1059SOL    HW1 3427  10.722  12.762   5.161
 1059SOL    HW2 3428  10.767  12.857   5.271
 1060SOL     OW 3429  11.934  11.302   2.271
 1060SOL    HW1 3430  11.967  11.359   2.202
 1060SOL    HW2 3431  12.012  11.253   2.300
 1061SOL     OW 3432  15.304  12.063   6.863
 1061SOL    HW1 3433  15.374  12.073   6.799
 1061SOL    HW2 3434  15.349  12.051   6.947
 1062SOL     OW 3435   3.684   6.364   3.851
 1062SOL    HW1 3436   3.671   6.275   3.882
 1062SOL    HW2 3437   3.778   6.378   3.856
 1063SOL     OW 3438   7.035  11.171   1.615
 1063SOL    HW1 3439   7.108  11.189   1.555
 1063SOL    HW2 3440   7.074  11.179   1.702
 1064SOL     OW 3441   3.976   4.054   0.756
 1064SOL    HW1 3442   3.899   4.051   0.813
 1064SOL    HW2 3443   3.953   4.120   0.690
 1065SOL     OW 3444   1.847   7.795   0.250
 1065SOL    HW1 3445   1.772   7.852   0.232
 1065SOL    HW2 3446   1.812   7.706   0.246
 1066SOL     OW 3447   2.636   2.605   1.236
 1066SOL    HW1 3448   2.623   2.697   1.211
 1066SOL    HW2 3449   2.698   2.571   1.171
 1067SOL     OW 3450   3.245   3.302   2.955
 1067SOL    HW1 3451   3.246   3.384   3.004
 1067SOL    HW2 3452   3.160   3.263   2.976
 1068SOL     OW 3453   6.519  10.696   5.768
 1068SOL    HW1 3454   6.569  10.631   5.717
 1068SOL    HW2 3455   6.432  10.657   5.776
 1069SOL     OW 3456  14.964  10.175   6.575
 1069SOL    HW1 3457  15.026  10.104   6.556
 1069SOL    HW2 3458  14.993  10.208   6.660
 1070SOL     OW 3459  14.451   7.899   5.324
 1070SOL    HW1 3460  14.451   7.970   5.260
 1070SOL    HW2 3461  14.484   7.823   5.276
 1071SOL     OW 3462   5.229  14.199   7.226
 1071SOL    HW1 3463   5.315  14.186   7.185
 1071SOL    HW2 3464   5.168  14.205   7.153
 1072SOL     OW 3465   2.642  10.012   1.424
 1072SOL    HW1 3466   2.704  10.023   1.352
 1072SOL    HW2 3467   2.669  10.077   1.489
 1073SOL     OW 3468   8.044   9.664   0.512
 1073SOL    HW1 3469   8.084   9.603   0.574
 1073SOL    HW2 3470   7.950   9.650   0.522
 1074SOL     OW 3471  11.263  11.663   5.894
 1074SOL    HW1 3472  11.218  11.744   5.872
 1074SOL    HW2 3473  11.202  11.615   5.949
 1075SOL     OW 3474   9.658   7.902   0.367
 1075SOL    HW1 3475   9.562   7.895   0.374
 1075SOL    HW2 3476   9.685   7.933   0.453
 1076SOL     OW 3477  14.939  12.789   7.009
 1076SOL    HW1 3478  14.951  12.748   7.094
 1076SOL    HW2 3479  14.869  12.852   7.022
 1077SOL     OW 3480   9.385   2.133   0.929
 1077SOL    HW1 3481   9.398   2.168   1.017
 1077SOL    HW2 3482   9.457   2.168   0.878
 1078SOL     OW 3483   3.611   9.853   2.406
 1078SOL    HW1 3484   3.638   9.764   2.385
 1078SOL    HW2 3485   3.635   9.865   2.498
 1079SOL     OW 3486   6.427   7.203   2.275
 1079SOL    HW1 3487   6.347   7.229   2.319
 1079SOL    HW2 3488   6.474   7.285   2.261
 1080SOL     OW 3489   9.649   3.047   1.047
 1080SOL    HW1 3490   9.670   3.133   1.011
 1080SOL    HW2 3491   9.734   3.003   1.055
 1081SOL     OW 3492   4.356   7.244   4.987
 1081SOL    HW1 3493   4.309   7.173   5.031
 1081SOL    HW2 3494   4.448   7.229   5.008
 1082SOL     OW 3495   5.634   7.002   6.301
 1082SOL    HW1 3496   5.668   7.005   6.212
 1082SOL    HW2 3497   5.554   6.950   6.294
 1083SOL     OW 3498   7.680  13.213   7.306
 1083SOL    HW1 3499   7.650  13.172   7.388
 1083SOL    HW2 3500   7.753  13.160   7.278
 1084SOL     OW 3501   8.390   9.608   3.423
 1084SOL    HW1 3502   8.411   9.667   3.495
 1084SOL    HW2 3503   8.383   9.665   3.346
 1085SOL     OW 3504   6.542  12.406   2.519
 1085SOL    HW1 3505   6.542  12.315   2.489
 1085SOL    HW2 3506   6.623  12.443   2.482
 1086SOL     OW 3507   5.581   7.176   7.012
 1086SOL    HW1 3508   5.655   7.217   7.056
 1086SOL    HW2 3509   5.505   7.225   7.042
 1087SOL     OW 3510  12.360   5.779   2.951
 1087SOL    HW1 3511  12.330   5.867   2.974
 1087SOL    HW2 3512  12.364   5.733   3.035
 1088SOL     OW 3513   4.880   8.908   1.399
 1088SOL    HW1 3514   4.805   8.966   1.409
 1088SOL    HW2 3515   4.860   8.855   1.322
 1089SOL     OW 3516  13.820  14.419   6.847
 1089SOL    HW1 3517  13.895  14.478   6.845
 1089SOL    HW2 3518  13.849  14.346   6.901
 1090SOL     OW 3519   4.758  13.305   6.572
 1090SOL    HW1 3520   4.851  13.307   6.551
 1090SOL    HW2 3521   4.739  13.393   6.605
 1091SOL     OW 3522   7.408   3.411   4.027
 1091SOL    HW1 3523   7.440   3.322   4.042
 1091SOL    HW2 3524   7.471   3.467   4.073
 1092SOL     OW 3525   8.891   8.157   6.545
 1092SOL    HW1 3526   8.865   8.070   6.577
 1092SOL    HW2 3527   8.810   8.206   6.539
 1093SOL     OW 3528  11.440   5.521   2.423
 1093SOL    HW1 3529  11.398   5.452   2.475
 1093SOL    HW2 3530  11.456   5.591   2.486
 1094SOL     OW 3531  12.495   7.234   4.998
 1094SOL    HW1 3532  12.480   7.284   5.078
 1094SOL    HW2 3533  12.407   7.218   4.963
 1095SOL     OW 3534   8.624  12.986   4.741
 1095SOL    HW1 3535   8.666  12.900   4.733
 1095SOL    HW2 3536   8.696  13.049   4.733
 1096SOL     OW 3537   9.223   4.162   1.804
 1096SOL    HW1 3538   9.193   4.071   1.808
 1096SOL    HW2 3539   9.234   4.178   1.710
 1097SOL     OW 3540  13.574   5.985   5.944
 1097SOL    HW1 3541  13.551   6.051   5.879
 1097SOL    HW2 3542  13.506   5.992   6.011
 1098SOL     OW 3543   3.756   3.121   0.251
 1098SOL    HW1 3544   3.838   3.098   0.294
 1098SOL    HW2 3545   3.772   3.208   0.213
 1099SOL     OW 3546   7.840   6.117   0.749
 1099SOL    HW1 3547   7.773   6.184   0.767
 1099SOL    HW2 3548   7.801   6.036   0.781
 1100SOL     OW 3549   6.392   7.449   1.749
 1100SOL    HW1 3550   6.479   7.435   1.787
 1100SOL    HW2 3551   6.409   7.482   1.661
 1101SOL     OW 3552  10.831   1.432   1.703
 1101SOL    HW1 3553  10.850   1.358   1.645
 1101SOL    HW2 3554  10.748   1.410   1.745
 1102SOL     OW 3555   9.936   8.341   0.519
 1102SOL    HW1 3556   9.975   8.428   0.524
 1102SOL    HW2 3557   9.997   8.285   0.568
 1103SOL     OW 3558  10.102   6.004   5.342
 1103SOL    HW1 3559  10.058   5.919   5.348
 1103SOL    HW2 3560  10.083   6.035   5.253
 1104SOL     OW 3561   5.233  10.737   5.767
 1104SOL    HW1 3562   5.260  10.810   5.712
 1104SOL    HW2 3563   5.184  10.679   5.708
 1105SOL     OW 3564  14.059   6.850   5.798
 1105SOL    HW1 3565  13.995   6.851   5.726
 1105SOL    HW2 3566  14.107   6.932   5.788
 1106SOL     OW 3567  12.054   6.795   2.112
 1106SOL    HW1 3568  12.049   6.711   2.158
 1106SOL    HW2 3569  12.103   6.852   2.171
 1107SOL     OW 3570  10.909   7.877   6.166
 1107SOL    HW1 3571  10.829   7.928   6.156
 1107SOL    HW2 3572  10.885   7.808   6.228
 1108SOL     OW 3573   7.761   6.946   0.873
 1108SOL    HW1 3574   7.792   6.922   0.786
 1108SOL    HW2 3575   7.731   7.036   0.864
 1109SOL     OW 3576  10.432  11.533   2.958
 1109SOL    HW1 3577  10.456  11.620   2.925
 1109SOL    HW2 3578  10.497  11.515   3.026
 1110SOL     OW 3579   4.975   4.452   2.102
 1110SOL    HW1 3580   4.886   4.417   2.116
 1110SOL    HW2 3581   4.989   4.443   2.008
 1111SOL     OW 3582   4.090  11.752   3.215
 1111SOL    HW1 3583   4.120  11.743   3.306
 1111SOL    HW2 3584   3.996  11.766   3.223
 1112SOL     OW 3585   1.545   2.682   1.590
 1112SOL    HW1 3586   1.470   2.731   1.557
 1112SOL    HW2 3587   1.515   2.591   1.591
 1113SOL     OW 3588  10.448   3.814   2.362
 1113SOL    HW1 3589  10.369   3.834   2.412
 1113SOL    HW2 3590  10.418   3.807   2.271
 1114SOL     OW 3591   8.590  14.546   6.071
 1114SOL    HW1 3592   8.529  14.596   6.125
 1114SOL    HW2 3593   8.537  14.513   5.999
 1115SOL     OW 3594   5.345  11.187   3.040
 1115SOL    HW1 3595   5.298  11.116   2.996
 1115SOL    HW2 3596   5.276  11.248   3.066
 1116SOL     OW 3597   8.686  10.493   1.501
 1116SOL    HW1 3598   8.625  10.509   1.573
 1116SOL    HW2 3599   8.635  10.511   1.422
 1117SOL     OW 3600   5.795  11.887   4.400
 1117SOL    HW1 3601   5.778  11.816   4.338
 1117SOL    HW2 3602   5.755  11.858   4.482
 1118SOL     OW 3603  15.038  14.233   6.073
 1118SOL    HW1 3604  15.052  14.326   6.061
 1118SOL    HW2 3605  15.062  14.216   6.164
 1119SOL     OW 3606   9.287   9.434   6.329
 1119SOL    HW1 3607   9.230   9.460   6.256
 1119SOL    HW2 3608   9.373   9.419   6.288
 1120SOL     OW 3609   0.876   6.431   0.039
 1120SOL    HW1 3610   0.899   6.522   0.021
 1120SOL    HW2 3611   0.878   6.424   0.135
 1121SOL     OW 3612  12.161   7.552   6.291
 1121SOL    HW1 3613  12.232   7.617   6.286
 1121SOL    HW2 3614  12.118   7.557   6.206
 1122SOL     OW 3615   4.935  10.877   5.739
 1122SOL    HW1 3616   4.882  10.830   5.804
 1122SOL    HW2 3617   4.898  10.965   5.738
 1123SOL     OW 3618   7.454   7.428   6.863
 1123SOL    HW1 3619   7.515   7.465   6.927
 1123SOL    HW2 3620   7.368   7.436   6.904
 1124SOL     OW 3621   9.237   5.017   3.765
 1124SOL    HW1 3622   9.182   5.093   3.749
 1124SOL    HW2 3623   9.201   4.949   3.708
 1125SOL     OW 3624  11.871   4.986   1.551
 1125SOL    HW1 3625   1.171   4.928   1.565
 1125SOL    HW2 3626  11.808   4.933   1.500
 1126SOL     OW 3627  10.466  13.119   6.871
 1126SOL    HW1 3628  10.374  13.109   6.846
 1126SOL    HW2 3629  10.463  13.147   6.963
 1127SOL     OW 3630  14.027  12.572   5.359
 1127SOL    HW1 3631  13.991  12.645   5.308
 1127SOL    HW2 3632  13.954  12.510   5.366
 1128SOL     OW 3633   7.312   3.616   3.135
 1128SOL    HW1 3634   7.312   3.677   3.209
 1128SOL    HW2 3635   7.405   3.595   3.121
 1129SOL     OW 3636   9.148   7.373   6.983
 1129SOL    HW1 3637   9.173   7.293   7.027
 1129SOL    HW2 3638   9.052   7.369   6.978
 1130SOL     OW 3639   5.641   8.048   4.683
 1130SOL    HW1 3640   5.677   7.994   4.754
 1130SOL    HW2 3641   5.552   8.015   4.670
 1131SOL     OW 3642   7.613  10.467   0.897
 1131SOL    HW1 3643   7.699  10.510   0.906
 1131SOL    HW2 3644   7.606  10.412   0.975
 1132SOL     OW 3645   4.757   5.158   6.348
 1132SOL    HW1 3646   4.736   5.190   6.261
 1132SOL    HW2 3647   4.755   5.063   6.340
 1133SOL     OW 3648   6.506   5.611   1.564
 1133SOL    HW1 3649   6.431   5.631   1.508
 1133SOL    HW2 3650   6.467   5.583   1.647
 1134SOL     OW 3651   3.117  13.139   3.888
 1134SOL    HW1 3652   3.184  13.167   3.951
 1134SOL    HW2 3653   3.166  13.089   3.822
 1135SOL     OW 3654   5.022  11.952   2.211
 1135SOL    HW1 3655   5.092  12.016   2.195
 1135SOL    HW2 3656   5.069  11.870   2.229
 1136SOL     OW 3657  13.965  14.306   5.691
 1136SOL    HW1 3658  13.935  14.347   5.773
 1136SOL    HW2 3659  13.902  14.236   5.674
 1137SOL     OW 3660   5.641   8.154   1.414
 1137SOL    HW1 3661   5.704   8.206   1.363
 1137SOL    HW2 3662   5.621   8.208   1.490
 1138SOL     OW 3663   5.874   8.070   0.998
 1138SOL    HW1 3664   5.871   8.046   0.906
 1138SOL    HW2 3665   5.885   7.987   1.044
 1139SOL     OW 3666  15.309   6.249   6.699
 1139SOL    HW1 3667  15.341   6.249   6.609
 1139SOL    HW2 3668  15.386   6.226   6.752
 1140SOL     OW 3669   7.177   6.943   2.115
 1140SOL    HW1 3670   7.122   6.917   2.189
 1140SOL    HW2 3671   7.230   7.015   2.149
 1141SOL     OW 3672  10.969   7.390   6.260
 1141SOL    HW1 3673  11.041   7.394   6.323
 1141SOL    HW2 3674  10.938   7.300   6.266
 1142SOL     OW 3675   1.486   1.758   1.394
 1142SOL    HW1 3676   1.560   1.816   1.374
 1142SOL    HW2 3677   1.487   1.750   1.489
 1143SOL     OW 3678   7.746  13.233   4.220
 1143SOL    HW1 3679   7.703  13.284   4.289
 1143SOL    HW2 3680   7.696  13.254   4.141
 1144SOL     OW 3681   9.389   8.616   1.553
 1144SOL    HW1 3682   9.474   8.621   1.511
 1144SOL    HW2 3683   9.367   8.523   1.553
 1145SOL     OW 3684  13.205   9.839   7.526
 1145SOL    HW1 3685  13.298   9.835   7.503
 1145SOL    HW2 3686  13.180   9.747   7.540
 1146SOL     OW 3687   5.605   5.606   1.106
 1146SOL    HW1 3688   5.516   5.641   1.091
 1146SOL    HW2 3689   5.657   5.684   1.126
 1147SOL     OW 3690   4.103   8.010   0.734
 1147SOL    HW1 3691   4.110   8.081   0.669
 1147SOL    HW2 3692   4.019   8.026   0.778
 1148SOL     OW 3693   4.175   9.847   1.042
 1148SOL    HW1 3694   4.261   9.888   1.026
 1148SOL    HW2 3695   4.167   9.782   0.972
 1149SOL     OW 3696   6.684   5.390   2.166
 1149SOL    HW1 3697   6.719   5.353   2.247
 1149SOL    HW2 3698   6.761   5.423   2.119
 1150SOL     OW 3699   3.188   3.239   0.516
 1150SOL    HW1 3700   3.103   3.214   0.552
 1150SOL    HW2 3701   3.236   3.275   0.590
 1151SOL     OW 3702  10.947   7.698   3.243
 1151SOL    HW1 3703  10.978   7.780   3.205
 1151SOL    HW2 3704  10.937   7.639   3.168
 1152SOL     OW 3705  10.427   4.497   6.331
 1152SOL    HW1 3706  10.360   4.543   6.381
 1152SOL    HW2 3707  10.408  15.179   6.344
 1153SOL     OW 3708   4.090   4.666   0.199
 1153SOL    HW1 3709   4.169   4.719   0.198
 1153SOL    HW2 3710   4.022   4.727   0.229
 1154SOL     OW 3711  11.414  11.660   7.488
 1154SOL    HW1 3712  11.491  11.638   7.436
 1154SOL    HW2 3713  11.408  11.755   7.483
 1155SOL     OW 3714  10.109  12.975   3.792
 1155SOL    HW1 3715  10.141  13.022   3.869
 1155SOL    HW2 3716  10.021  13.007   3.778
 1156SOL     OW 3717   2.375   9.864   2.447
 1156SOL    HW1 3718   2.399   9.772   2.445
 1156SOL    HW2 3719   2.280   9.864   2.461
 1157SOL     OW 3720  11.758  14.671   7.434
 1157SOL    HW1 3721  11.785  14.706   7.519
 1157SOL    HW2 3722  11.679  14.722   7.412
 1158SOL     OW 3723   8.850   9.663   0.202
 1158SOL    HW1 3724   8.913   9.594   0.184
 1158SOL    HW2 3725   8.878   9.737   0.147
 1159SOL     OW 3726   2.496   9.609   1.089
 1159SOL    HW1 3727   2.537   9.619   1.003
 1159SOL    HW2 3728   2.555   9.551   1.137
 1160SOL     OW 3729   8.846   6.351   5.846
 1160SOL    HW1 3730   8.791   6.380   5.774
 1160SOL    HW2 3731   8.793   6.367   5.924
 1161SOL     OW 3732  12.232   7.854   6.698
 1161SOL    HW1 3733  12.267   7.867   6.786
 1161SOL    HW2 3734  12.170   7.782   6.708
 1162SOL     OW 3735  10.696   5.920   0.068
 1162SOL    HW1 3736  10.606   5.894   0.087
 1162SOL    HW2 3737  16.091  11.297   7.592
 1163SOL     OW 3738  12.232   8.638   6.608
 1163SOL    HW1 3739  12.205   8.726   6.634
 1163SOL    HW2 3740  12.213   8.632   6.515
 1164SOL     OW 3741  10.942   3.626   0.625
 1164SOL    HW1 3742  10.939   3.691   0.554
 1164SOL    HW2 3743  10.994   3.668   0.693
 1165SOL     OW 3744   2.661   5.667   3.361
 1165SOL    HW1 3745   2.642   5.575   3.341
 1165SOL    HW2 3746   2.748   5.681   3.325
 1166SOL     OW 3747   7.198  12.595   7.308
 1166SOL    HW1 3748   7.134  12.528   7.284
 1166SOL    HW2 3749   7.271  12.581   7.248
 1167SOL     OW 3750   4.831   3.472   0.274
 1167SOL    HW1 3751   4.923   3.494   0.259
 1167SOL    HW2 3752   4.801   3.434   0.192
 1168SOL     OW 3753   8.975  11.577   3.098
 1168SOL    HW1 3754   8.975  11.605   3.006
 1168SOL    HW2 3755   8.947  11.485   3.095
 1169SOL     OW 3756  14.111  14.582   7.296
 1169SOL    HW1 3757  14.072  14.588   7.209
 1169SOL    HW2 3758  14.041  14.605   7.357
 1170SOL     OW 3759  10.389   2.517   1.445
 1170SOL    HW1 3760  10.376   2.593   1.501
 1170SOL    HW2 3761  10.304   2.473   1.443
 1171SOL     OW 3762  12.141  11.787   6.115
 1171SOL    HW1 3763  12.154  11.699   6.082
 1171SOL    HW2 3764  12.048  11.805   6.101
 1172SOL     OW 3765  14.367  13.767   6.300
 1172SOL    HW1 3766  14.454  13.759   6.338
 1172SOL    HW2 3767  14.338  13.677   6.287
 1173SOL     OW 3768   9.546  10.583   0.732
 1173SOL    HW1 3769   9.615  10.530   0.693
 1173SOL    HW2 3770   9.591  10.635   0.798
 1174SOL     OW 3771  13.348   9.140   6.612
 1174SOL    HW1 3772  13.418   9.198   6.581
 1174SOL    HW2 3773  13.356   9.061   6.559
 1175SOL     OW 3774   5.244   7.178   5.652
 1175SOL    HW1 3775   5.309   7.247   5.667
 1175SOL    HW2 3776   5.294   7.097   5.655
 1176SOL     OW 3777  13.742   4.184   5.496
 1176SOL    HW1 3778  13.813   4.193   5.560
 1176SOL    HW2 3779  13.785   4.182   5.411
 1177SOL     OW 3780  13.338  10.277   6.042
 1177SOL    HW1 3781  13.383  10.239   6.117
 1177SOL    HW2 3782  13.342  10.372   6.057
 1178SOL     OW 3783  10.317  10.531   1.139
 1178SOL    HW1 3784  10.335  10.446   1.179
 1178SOL    HW2 3785  10.222  10.540   1.143
 1179SOL     OW 3786   3.843   4.608   2.612
 1179SOL    HW1 3787   3.825   4.520   2.579
 1179SOL    HW2 3788   3.894   4.650   2.543
 1180SOL     OW 3789   4.915   9.850   3.950
 1180SOL    HW1 3790   4.911   9.942   3.976
 1180SOL    HW2 3791   4.991   9.815   3.997
 1181SOL     OW 3792  14.496  14.432   5.455
 1181SOL    HW1 3793  14.522  14.522   5.436
 1181SOL    HW2 3794  14.578  14.385   5.469
 1182SOL     OW 3795   5.129   5.887   6.854
 1182SOL    HW1 3796   5.210   5.933   6.876
 1182SOL    HW2 3797   5.059   5.943   6.886
 1183SOL     OW 3798  10.148   4.910   4.997
 1183SOL    HW1 3799  10.236   4.874   5.010
 1183SOL    HW2 3800  10.094   4.834   4.976
 1184SOL     OW 3801   9.641  10.836   5.950
 1184SOL    HW1 3802   9.560  10.785   5.956
 1184SOL    HW2 3803   9.651  10.875   6.037
 1185SOL     OW 3804   1.547   3.259   1.035
 1185SOL    HW1 3805   1.611   3.328   1.017
 1185SOL    HW2 3806   1.558   3.197   0.962
 1186SOL     OW 3807  10.584   5.661   3.283
 1186SOL    HW1 3808  10.534   5.704   3.353
 1186SOL    HW2 3809  10.518   5.639   3.217
 1187SOL     OW 3810   6.921   5.277   5.381
 1187SOL    HW1 3811   6.943   5.333   5.456
 1187SOL    HW2 3812   7.004   5.265   5.335
 1188SOL     OW 3813  15.300  14.768   7.390
 1188SOL    HW1 3814  15.275  14.743   7.479
 1188SOL    HW2 3815  15.230  14.732   7.334
 1189SOL     OW 3816   4.676   9.133   1.457
 1189SOL    HW1 3817   4.666   9.172   1.370
 1189SOL    HW2 3818   4.589   9.143   1.497
 1190SOL     OW 3819   9.303   4.307   0.225
 1190SOL    HW1 3820   9.213   4.298   0.193
 1190SOL    HW2 3821   9.357   4.306   0.147
 1191SOL     OW 3822  11.530   9.988   4.637
 1191SOL    HW1 3823  11.582  10.031   4.570
 1191SOL    HW2 3824  11.488   9.915   4.592
 1192SOL     OW 3825   9.711   4.416   1.632
 1192SOL    HW1 3826   9.662   4.493   1.604
 1192SOL    HW2 3827   9.802   4.437   1.612
 1193SOL     OW 3828   6.305  12.525   3.191
 1193SOL    HW1 3829   6.325  12.614   3.159
 1193SOL    HW2 3830   6.245  12.489   3.125
 1194SOL     OW 3831  13.299  11.192   4.895
 1194SOL    HW1 3832  13.351  11.230   4.823
 1194SOL    HW2 3833  13.328  11.239   4.973
 1195SOL     OW 3834   5.806   2.799   1.760
 1195SOL    HW1 3835   5.760   2.860   1.703
 1195SOL    HW2 3836   5.815   2.845   1.843
 1196SOL     OW 3837   5.018   7.785   6.056
 1196SOL    HW1 3838   5.078   7.825   6.119
 1196SOL    HW2 3839   4.941   7.842   6.057
 1197SOL     OW 3840   5.280   4.198   1.329
 1197SOL    HW1 3841   5.361   4.164   1.366
 1197SOL    HW2 3842   5.228   4.120   1.311
 1198SOL     OW 3843  11.017  10.632   7.084
 1198SOL    HW1 3844  10.966  10.671   7.013
 1198SOL    HW2 3845  11.107  10.634   7.054
 1199SOL     OW 3846   7.755  10.623   4.850
 1199SOL    HW1 3847   7.766  10.644   4.757
 1199SOL    HW2 3848   7.703  10.696   4.885
 1200SOL     OW 3849  14.466   7.846   6.105
 1200SOL    HW1 3850  14.450   7.895   6.024
 1200SOL    HW2 3851  14.542   7.888   6.144
 1201SOL     OW 3852   4.430  10.447   6.068
 1201SOL    HW1 3853   4.351  10.423   6.019
 1201SOL    HW2 3854   4.459  10.364   6.107
 1202SOL     OW 3855   7.812   9.701   5.916
 1202SOL    HW1 3856   7.861   9.627   5.879
 1202SOL    HW2 3857   7.743   9.661   5.968
 1203SOL     OW 3858   5.239   5.425   2.537
 1203SOL    HW1 3859   5.309   5.488   2.555
 1203SOL    HW2 3860   5.182   5.430   2.614
 1204SOL     OW 3861  10.985   4.998   1.704
 1204SOL    HW1 3862  10.933   5.049   1.766
 1204SOL    HW2 3863  11.071   4.991   1.746
 1205SOL     OW 3864  12.530   2.997   3.891
 1205SOL    HW1 3865  12.462   3.044   3.938
 1205SOL    HW2 3866  12.541   3.046   3.809
 1206SOL     OW 3867   4.331   9.419   1.548
 1206SOL    HW1 3868   4.371   9.348   1.500
 1206SOL    HW2 3869   4.263   9.453   1.490
 1207SOL     OW 3870   2.687   9.853   0.874
 1207SOL    HW1 3871   2.723   9.775   0.915
 1207SOL    HW2 3872   2.751   9.877   0.807
 1208SOL     OW 3873  10.802   4.849   6.478
 1208SOL    HW1 3874  10.771   4.793   6.407
 1208SOL    HW2 3875  10.825   4.788   6.548
 1209SOL     OW 3876  10.552  13.180   3.579
 1209SOL    HW1 3877  10.608  13.131   3.519
 1209SOL    HW2 3878  10.583  13.270   3.573
 1210SOL     OW 3879  13.575  10.885   4.129
 1210SOL    HW1 3880  13.610  10.811   4.178
 1210SOL    HW2 3881  13.529  10.844   4.055
 1211SOL     OW 3882   2.269  10.757   2.680
 1211SOL    HW1 3883   2.334  10.696   2.644
 1211SOL    HW2 3884   2.185  10.713   2.666
 1212SOL     OW 3885   0.707   9.319   0.278
 1212SOL    HW1 3886   0.785   9.307   0.225
 1212SOL    HW2 3887   0.639   9.268   0.233
 1213SOL     OW 3888  12.639  11.905   3.204
 1213SOL    HW1 3889  12.576  11.931   3.271
 1213SOL    HW2 3890  12.585  11.880   3.129
 1214SOL     OW 3891   8.900   3.778   5.029
 1214SOL    HW1 3892   8.827   3.802   4.971
 1214SOL    HW2 3893   8.888   3.834   5.106
 1215SOL     OW 3894   6.539   3.339   0.201
 1215SOL    HW1 3895   6.600   3.369   0.268
 1215SOL    HW2 3896   6.588   3.346   0.119
 1216SOL     OW 3897  12.817   5.364   6.176
 1216SOL    HW1 3898  12.893   5.415   6.149
 1216SOL    HW2 3899  12.842   5.273   6.162
 1217SOL     OW 3900  11.957  11.263   5.904
 1217SOL    HW1 3901  11.932  11.240   5.993
 1217SOL    HW2 3902  11.972  11.358   5.906
 1218SOL     OW 3903   4.992  10.654   1.740
 1218SOL    HW1 3904   4.998  10.596   1.816
 1218SOL    HW2 3905   5.068  10.631   1.686
 1219SOL     OW 3906   7.809   3.010   2.875
 1219SOL    HW1 3907   7.837   3.094   2.837
 1219SOL    HW2 3908   7.882   2.983   2.930
 1220SOL     OW 3909  12.394   7.499   5.314
 1220SOL    HW1 3910  12.483   7.490   5.279
 1220SOL    HW2 3911  12.396   7.582   5.362
 1221SOL     OW 3912   3.412   1.478   1.706
 1221SOL    HW1 3913   3.499   1.506   1.733
 1221SOL    HW2 3914   3.368   1.558   1.678
 1222SOL     OW 3915   8.280   8.041   0.629
 1222SOL    HW1 3916   8.255   8.124   0.587
 1222SOL    HW2 3917   8.324   7.992   0.559
 1223SOL     OW 3918   6.323   9.160   7.384
 1223SOL    HW1 3919   6.410   9.162   7.343
 1223SOL    HW2 3920   6.341   9.172   7.478
 1224SOL     OW 3921  11.550   7.574   1.552
 1224SOL    HW1 3922  11.497   7.559   1.473
 1224SOL    HW2 3923  11.510   7.651   1.592
 1225SOL     OW 3924   7.307   8.427   2.922
 1225SOL    HW1 3925   7.287   8.375   2.844
 1225SOL    HW2 3926   7.402   8.416   2.934
 1226SOL     OW 3927   7.277  11.128   2.992
 1226SOL    HW1 3928   7.320  11.212   3.008
 1226SOL    HW2 3929   7.238  11.105   3.076
 1227SOL     OW 3930   3.070   1.241   0.677
 1227SOL    HW1 3931   3.154   1.215   0.714
 1227SOL    HW2 3932   3.010   1.170   0.700
 1228SOL     OW 3933   5.581  11.699   4.346
 1228SOL    HW1 3934   5.489  11.710   4.372
 1228SOL    HW2 3935   5.601  11.607   4.367
 1229SOL     OW 3936   7.710   6.176   3.586
 1229SOL    HW1 3937   7.725   6.269   3.600
 1229SOL    HW2 3938   7.654   6.150   3.659
 1230SOL     OW 3939  13.151  11.578   6.743
 1230SOL    HW1 3940  13.080  11.623   6.698
 1230SOL    HW2 3941  13.226  11.636   6.735
 1231SOL     OW 3942   8.146   9.064   4.142
 1231SOL    HW1 3943   8.214   9.011   4.184
 1231SOL    HW2 3944   8.147   9.035   4.050
 1232SOL     OW 3945   2.716  12.122   2.066
 1232SOL    HW1 3946   2.672  12.113   2.150
 1232SOL    HW2 3947   2.750  12.212   2.066
 1233SOL     OW 3948   8.910  10.036   7.113
 1233SOL    HW1 3949   8.929  10.120   7.070
 1233SOL    HW2 3950   8.930  10.052   7.206
 1234SOL     OW 3951  10.154  14.475   6.792
 1234SOL    HW1 3952  10.068  14.508   6.818
 1234SOL    HW2 3953  10.156  14.484   6.697
 1235SOL     OW 3954   7.211   1.810   2.188
 1235SOL    HW1 3955   7.274   1.749   2.227
 1235SOL    HW2 3956   7.190   1.772   2.103
 1236SOL     OW 3957   6.453   5.515   7.181
 1236SOL    HW1 3958   6.391   5.583   7.208
 1236SOL    HW2 3959   6.508   5.557   7.115
 1237SOL     OW 3960  14.854  13.659   7.377
 1237SOL    HW1 3961  14.901  13.710   7.443
 1237SOL    HW2 3962  14.919  13.597   7.343
 1238SOL     OW 3963  12.203   6.087   6.461
 1238SOL    HW1 3964  12.197   6.162   6.402
 1238SOL    HW2 3965  12.297   6.076   6.477
 1239SOL     OW 3966   8.553   9.739   0.906
 1239SOL    HW1 3967   8.575   9.788   0.827
 1239SOL    HW2 3968   8.554   9.804   0.977
 1240SOL     OW 3969  10.415  13.088   3.806
 1240SOL    HW1 3970  10.477  13.112   3.736
 1240SOL    HW2 3971  10.338  13.142   3.789
 1241SOL     OW 3972   6.246   6.023   4.813
 1241SOL    HW1 3973   6.182   5.960   4.779
 1241SOL    HW2 3974   6.213   6.108   4.786
 1242SOL     OW 3975   4.675  10.727   2.312
 1242SOL    HW1 3976   4.593  10.760   2.348
 1242SOL    HW2 3977   4.737  10.730   2.385
 1243SOL     OW 3978   9.206   8.468   1.809
 1243SOL    HW1 3979   9.165   8.518   1.879
 1243SOL    HW2 3980   9.162   8.499   1.729
 1244SOL     OW 3981   7.228   9.156   1.310
 1244SOL    HW1 3982   7.159   9.117   1.364
 1244SOL    HW2 3983   7.302   9.167   1.369
 1245SOL     OW 3984  11.052   4.942   0.462
 1245SOL    HW1 3985  11.024   5.033   0.452
 1245SOL    HW2 3986  11.085   4.937   0.552
 1246SOL     OW 3987  12.620   5.854   7.225
 1246SOL    HW1 3988  12.709   5.862   7.190
 1246SOL    HW2 3989  12.589   5.769   7.192
 1247SOL     OW 3990  13.959  11.501   4.701
 1247SOL    HW1 3991  14.052  11.500   4.721
 1247SOL    HW2 3992  13.950  11.562   4.629
 1248SOL     OW 3993   1.874   1.896   0.481
 1248SOL    HW1 3994   1.926   1.964   0.523
 1248SOL    HW2 3995   1.892   1.817   0.532
 1249SOL     OW 3996   8.810  12.036   6.210
 1249SOL    HW1 3997   8.881  12.068   6.266
 1249SOL    HW2 3998   8.740  12.100   6.220
 1250SOL     OW 3999  10.236   8.594   6.510
 1250SOL    HW1 4000  10.289   8.669   6.482
 1250SOL    HW2 4001  10.188   8.625   6.587
 1251SOL     OW 4002  11.497  10.580   4.662
 1251SOL    HW1 4003  11.472  10.667   4.632
 1251SOL    HW2 4004  11.424  10.552   4.718
 1252SOL     OW 4005  12.357   4.855   3.509
 1252SOL    HW1 4006  12.269   4.817   3.501
 1252SOL    HW2 4007  12.381   4.878   3.419
 1253SOL     OW 4008   2.096   3.352   0.948
 1253SOL    HW1 4009   2.026   3.316   1.003
 1253SOL    HW2 4010   2.054   3.367   0.863
 1254SOL     OW 4011   8.141  10.620   5.783
 1254SOL    HW1 4012   8.165  10.588   5.870
 1254SOL    HW2 4013   8.122  10.540   5.733
 1255SOL     OW 4014   6.058   6.308   4.091
 1255SOL    HW1 4015   6.015   6.272   4.169
 1255SOL    HW2 4016   6.090   6.394   4.120
 1256SOL     OW 4017  11.224   7.227   5.733
 1256SOL    HW1 4018  11.137   7.257   5.761
 1256SOL    HW2 4019  11.205   7.149   5.679
 1257SOL     OW 4020  10.241  11.064   6.686
 1257SOL    HW1 4021  10.271  11.048   6.776
 1257SOL    HW2 4022  10.270  11.153   6.667
 1258SOL     OW 4023   3.789   6.900   5.268
 1258SOL    HW1 4024   3.765   6.879   5.178
 1258SOL    HW2 4025   3.884   6.884   5.272
 1259SOL     OW 4026   5.913   9.296   5.254
 1259SOL    HW1 4027   5.972   9.224   5.276
 1259SOL    HW2 4028   5.828   9.255   5.242
 1260SOL     OW 4029   8.849  11.527   6.313
 1260SOL    HW1 4030   8.858  11.464   6.384
 1260SOL    HW2 4031   8.932  11.575   6.313
 1261SOL     OW 4032   5.964   6.957   1.904
 1261SOL    HW1 4033   5.897   6.928   1.843
 1261SOL    HW2 4034   6.046   6.928   1.866
 1262SOL     OW 4035   4.391   8.253   2.466
 1262SOL    HW1 4036   4.298   8.252   2.490
 1262SOL    HW2 4037   4.403   8.336   2.420
 1263SOL     OW 4038  11.403   2.602   2.304
 1263SOL    HW1 4039  11.480   2.649   2.272
 1263SOL    HW2 4040  11.329   2.655   2.274
 1264SOL     OW 4041  14.080   5.178   5.053
 1264SOL    HW1 4042  14.056   5.162   5.144
 1264SOL    HW2 4043  14.122   5.096   5.026
 1265SOL     OW 4044   5.840   4.860   2.953
 1265SOL    HW1 4045   5.904   4.901   2.895
 1265SOL    HW2 4046   5.854   4.766   2.942
 1266SOL     OW 4047   3.152  12.133   3.453
 1266SOL    HW1 4048   3.082  12.174   3.504
 1266SOL    HW2 4049   3.183  12.061   3.509
 1267SOL     OW 4050  13.585   8.412   6.425
 1267SOL    HW1 4051  13.500   8.408   6.380
 1267SOL    HW2 4052  13.647   8.436   6.356
 1268SOL     OW 4053  11.398   7.243   6.055
 1268SOL    HW1 4054  11.369   7.313   5.996
 1268SOL    HW2 4055  11.452   7.287   6.120
 1269SOL     OW 4056  10.718  13.593   7.532
 1269SOL    HW1 4057  10.626  13.620   7.522
 1269SOL    HW2 4058  10.766  13.652   7.474
 1270SOL     OW 4059   8.913   6.310   5.242
 1270SOL    HW1 4060   8.850   6.326   5.311
 1270SOL    HW2 4061   8.916   6.215   5.233
 1271SOL     OW 4062   6.288  12.377   3.655
 1271SOL    HW1 4063   6.332  12.293   3.669
 1271SOL    HW2 4064   6.222  12.359   3.587
 1272SOL     OW 4065  11.181   8.386   4.810
 1272SOL    HW1 4066  11.086   8.383   4.802
 1272SOL    HW2 4067  11.198   8.444   4.884
 1273SOL     OW 4068   4.734   7.466   0.313
 1273SOL    HW1 4069   4.743   7.528   0.385
 1273SOL    HW2 4070   4.666   7.405   0.342
 1274SOL     OW 4071   9.156   2.733   1.412
 1274SOL    HW1 4072   9.156   2.718   1.317
 1274SOL    HW2 4073   9.100   2.663   1.447
 1275SOL     OW 4074   2.676   9.060   0.111
 1275SOL    HW1 4075   2.739   9.022   0.172
 1275SOL    HW2 4076   2.711   9.041   0.024
 1276SOL     OW 4077   8.303   5.530   5.412
 1276SOL    HW1 4078   8.339   5.609   5.452
 1276SOL    HW2 4079   8.208   5.537   5.425
 1277SOL     OW 4080   7.144  12.530   5.068
 1277SOL    HW1 4081   7.077  12.598   5.071
 1277SOL    HW2 4082   7.134  12.484   5.151
 1278SOL     OW 4083   3.366   9.050   4.404
 1278SOL    HW1 4084   3.325   8.967   4.377
 1278SOL    HW2 4085   3.449   9.052   4.357
 1279SOL     OW 4086  14.900  14.545   7.522
 1279SOL    HW1 4087  14.972  14.601   7.553
 1279SOL    HW2 4088  14.866  14.504   7.601
 1280SOL     OW 4089   9.757   5.429   1.045
 1280SOL    HW1 4090   9.713   5.502   1.000
 1280SOL    HW2 4091   9.837   5.416   0.995
 1281SOL     OW 4092   4.583   3.531   0.785
 1281SOL    HW1 4093   4.510   3.470   0.776
 1281SOL    HW2 4094   4.552   3.595   0.850
 1282SOL     OW 4095   7.517  11.427   1.593
 1282SOL    HW1 4096   7.584  11.496   1.595
 1282SOL    HW2 4097   7.465  11.446   1.515
 1283SOL     OW 4098   9.404   6.487   1.012
 1283SOL    HW1 4099   9.382   6.457   0.924
 1283SOL    HW2 4100   9.322   6.481   1.061
 1284SOL     OW 4101   4.467  11.591   4.614
 1284SOL    HW1 4102   4.508  11.554   4.536
 1284SOL    HW2 4103   4.395  11.644   4.580
 1285SOL     OW 4104  10.575   8.729   1.266
 1285SOL    HW1 4105  10.666   8.731   1.238
 1285SOL    HW2 4106  10.564   8.810   1.316
 1286SOL     OW 4107   1.903   6.031   0.016
 1286SOL    HW1 4108   1.854   6.106   0.052
 1286SOL    HW2 4109   7.305  11.442   7.543
 1287SOL     OW 4110   3.626   6.128   2.487
 1287SOL    HW1 4111   3.710   6.137   2.444
 1287SOL    HW2 4112   3.630   6.188   2.562
 1288SOL     OW 4113   9.466   6.075   4.978
 1288SOL    HW1 4114   9.409   6.000   4.998
 1288SOL    HW2 4115   9.517   6.088   5.058
 1289SOL     OW 4116   8.754   6.523   4.334
 1289SOL    HW1 4117   8.732   6.445   4.282
 1289SOL    HW2 4118   8.850   6.523   4.337
 1290SOL     OW 4119  10.299   8.310   0.409
 1290SOL    HW1 4120  10.228   8.322   0.472
 1290SOL    HW2 4121  10.257   8.268   0.334
 1291SOL     OW 4122   8.794   4.894   0.018
 1291SOL    HW1 4123   8.838   4.886   0.103
 1291SOL    HW2 4124   8.743   4.975   0.025
 1292SOL     OW 4125  10.711   1.726   1.624
 1292SOL    HW1 4126  10.740   1.729   1.715
 1292SOL    HW2 4127  10.631   1.674   1.626
 1293SOL     OW 4128   8.257   7.763   0.374
 1293SOL    HW1 4129   8.180   7.710   0.352
 1293SOL    HW2 4130   8.252   7.838   0.315
 1294SOL     OW 4131   3.799   3.838   0.305
 1294SOL    HW1 4132   3.886   3.805   0.284
 1294SOL    HW2 4133   3.776   3.796   0.387
 1295SOL     OW 4134   6.307  14.344   5.634
 1295SOL    HW1 4135   6.228  14.291   5.640
 1295SOL    HW2 4136   6.379  14.283   5.652
 1296SOL     OW 4137   9.999   5.285   0.344
 1296SOL    HW1 4138   9.942   5.266   0.270
 1296SOL    HW2 4139  10.059   5.211   0.348
 1297SOL     OW 4140   8.190   7.610   5.750
 1297SOL    HW1 4141   8.262   7.672   5.765
 1297SOL    HW2 4142   8.114   7.665   5.733
 1298SOL     OW 4143   9.637   3.450   3.799
 1298SOL    HW1 4144   9.715   3.398   3.815
 1298SOL    HW2 4145   9.564   3.391   3.820
 1299SOL     OW 4146  10.139   6.293   1.289
 1299SOL    HW1 4147  10.233   6.279   1.273
 1299SOL    HW2 4148  10.098   6.281   1.204
 1300SOL     OW 4149   9.958   2.671   3.708
 1300SOL    HW1 4150  10.034  13.429   3.763
 1300SOL    HW2 4151   9.983   2.639   3.622
 1301SOL     OW 4152   8.949   3.131   2.391
 1301SOL    HW1 4153   8.926   3.121   2.299
 1301SOL    HW2 4154   9.042   3.109   2.395
 1302SOL     OW 4155   1.729   0.966   0.018
 1302SOL    HW1 4156   1.788   1.011   0.079
 1302SOL    HW2 4157   1.673   0.913   0.073
 1303SOL     OW 4158   7.407   1.059   1.246
 1303SOL    HW1 4159   7.396   1.139   1.297
 1303SOL    HW2 4160   7.319   1.023   1.238
 1304SOL     OW 4161   6.265  13.980   6.271
 1304SOL    HW1 4162   6.288  13.887   6.284
 1304SOL    HW2 4163   6.348  14.022   6.249
 1305SOL     OW 4164  10.581  13.116   4.348
 1305SOL    HW1 4165  10.605  13.080   4.434
 1305SOL    HW2 4166  10.533  13.045   4.305
 1306SOL     OW 4167  12.495   5.241   4.820
 1306SOL    HW1 4168  12.426   5.184   4.785
 1306SOL    HW2 4169  12.500   5.219   4.913
 1307SOL     OW 4170  13.281   9.861   5.926
 1307SOL    HW1 4171  13.259   9.866   6.019
 1307SOL    HW2 4172  13.208   9.812   5.886
 1308SOL     OW 4173   8.540   3.180   2.878
 1308SOL    HW1 4174   8.494   3.098   2.863
 1308SOL    HW2 4175   8.619   3.154   2.927
 1309SOL     OW 4176   7.181  10.055   2.342
 1309SOL    HW1 4177   7.127  10.123   2.384
 1309SOL    HW2 4178   7.152  10.055   2.251
 1310SOL     OW 4179  13.382  11.799   4.489
 1310SOL    HW1 4180  13.445  11.727   4.494
 1310SOL    HW2 4181  13.428  11.873   4.531
 1311SOL     OW 4182   8.795   4.677   3.574
 1311SOL    HW1 4183   8.741   4.662   3.652
 1311SOL    HW2 4184   8.882   4.697   3.609
 1312SOL     OW 4185   7.581   6.049   4.700
 1312SOL    HW1 4186   7.626   6.128   4.731
 1312SOL    HW2 4187   7.494   6.054   4.739
 1313SOL     OW 4188  15.253   7.110   6.924
 1313SOL    HW1 4189  15.315   7.051   6.880
 1313SOL    HW2 4190  15.287   7.117   7.014
 1314SOL     OW 4191  10.430   9.342   4.367
 1314SOL    HW1 4192  10.337   9.351   4.344
 1314SOL    HW2 4193  10.448   9.417   4.424
 1315SOL     OW 4194   4.421  11.573   1.488
 1315SOL    HW1 4195   4.381  11.587   1.402
 1315SOL    HW2 4196   4.515  11.584   1.473
 1316SOL     OW 4197   4.436  12.354   2.969
 1316SOL    HW1 4198   4.500  12.318   2.907
 1316SOL    HW2 4199   4.364  12.292   2.968
 1317SOL     OW 4200   6.690   9.456   0.954
 1317SOL    HW1 4201   6.712   9.377   0.903
 1317SOL    HW2 4202   6.747   9.524   0.919
 1318SOL     OW 4203   7.891  13.166   5.785
 1318SOL    HW1 4204   7.932  13.162   5.699
 1318SOL    HW2 4205   7.926  13.090   5.832
 1319SOL     OW 4206   9.694   7.325   2.977
 1319SOL    HW1 4207   9.619   7.271   2.950
 1319SOL    HW2 4208   9.740   7.343   2.895
 1320SOL     OW 4209   8.288  10.874   3.776
 1320SOL    HW1 4210   8.299  10.801   3.837
 1320SOL    HW2 4211   8.374  10.914   3.770
 1321SOL     OW 4212   6.150   5.074   2.567
 1321SOL    HW1 4213   6.223   5.082   2.629
 1321SOL    HW2 4214   6.072   5.066   2.622
 1322SOL     OW 4215  10.231   8.580   5.747
 1322SOL    HW1 4216  10.147   8.548   5.779
 1322SOL    HW2 4217  10.295   8.516   5.778
 1323SOL     OW 4218   8.763  12.490   6.904
 1323SOL    HW1 4219   8.849  12.458   6.934
 1323SOL    HW2 4220   8.718  12.515   6.985
 1324SOL     OW 4221  10.411  13.930   4.532
 1324SOL    HW1 4222  10.320  13.934   4.560
 1324SOL    HW2 4223  10.461  13.965   4.607
 1325SOL     OW 4224   4.583  10.219   1.799
 1325SOL    HW1 4225   4.629  10.136   1.803
 1325SOL    HW2 4226   4.616  10.269   1.874
 1326SOL     OW 4227   8.962   1.731   0.067
 1326SOL    HW1 4228   8.926   1.800   0.122
 1326SOL    HW2 4229   9.049   1.764   0.041
 1327SOL     OW 4230   8.270  10.616   1.808
 1327SOL    HW1 4231   8.201  10.629   1.873
 1327SOL    HW2 4232   8.323  10.696   1.812
 1328SOL     OW 4233  11.243   6.847   3.368
 1328SOL    HW1 4234  11.305   6.825   3.298
 1328SOL    HW2 4235  11.197   6.924   3.335
 1329SOL     OW 4236   5.788   6.666   4.724
 1329SOL    HW1 4237   5.873   6.709   4.730
 1329SOL    HW2 4238   5.742   6.712   4.654
 1330SOL     OW 4239   8.705   5.232   3.720
 1330SOL    HW1 4240   8.684   5.300   3.785
 1330SOL    HW2 4241   8.730   5.281   3.642
 1331SOL     OW 4242  13.951   4.964   5.643
 1331SOL    HW1 4243  14.016   5.019   5.599
 1331SOL    HW2 4244  13.967   4.977   5.736
 1332SOL     OW 4245  10.221  14.820   7.539
 1332SOL    HW1 4246  10.162  14.749   7.513
 1332SOL    HW2 4247  10.275  14.782   7.608
 1333SOL     OW 4248   1.991   9.206   0.656
 1333SOL    HW1 4249   2.023   9.295   0.675
 1333SOL    HW2 4250   1.899   9.209   0.680
 1334SOL     OW 4251   7.787  12.852   6.044
 1334SOL    HW1 4252   7.750  12.768   6.072
 1334SOL    HW2 4253   7.744  12.917   6.100
 1335SOL     OW 4254   8.218   3.881   1.931
 1335SOL    HW1 4255   8.222   3.812   1.998
 1335SOL    HW2 4256   8.145   3.937   1.959
 1336SOL     OW 4257   7.073   8.350   5.160
 1336SOL    HW1 4258   7.061   8.295   5.238
 1336SOL    HW2 4259   7.008   8.317   5.098
 1337SOL     OW 4260   7.830  11.710   3.022
 1337SOL    HW1 4261   7.806  11.763   2.947
 1337SOL    HW2 4262   7.845  11.773   3.093
 1338SOL     OW 4263   4.029   9.695   0.199
 1338SOL    HW1 4264   4.100   9.685   0.263
 1338SOL    HW2 4265   4.058   9.768   0.144
 1339SOL     OW 4266   8.703  12.507   4.841
 1339SOL    HW1 4267   8.608  12.506   4.855
 1339SOL    HW2 4268   8.718  12.436   4.778
 1340SOL     OW 4269  10.550   4.384   1.416
 1340SOL    HW1 4270  10.597   4.405   1.335
 1340SOL    HW2 4271  10.486   4.454   1.426
 1341SOL     OW 4272  10.502   8.674   4.868
 1341SOL    HW1 4273  10.458   8.716   4.794
 1341SOL    HW2 4274  10.542   8.746   4.916
 1342SOL     OW 4275   3.273   3.469   3.435
 1342SOL    HW1 4276   3.211   3.398   3.417
 1342SOL    HW2 4277   3.225   3.529   3.492
 1343SOL     OW 4278   6.710  11.087   5.160
 1343SOL    HW1 4279   6.749  11.096   5.074
 1343SOL    HW2 4280   6.657  11.007   5.155
 1344SOL     OW 4281   2.192   3.727   1.441
 1344SOL    HW1 4282   2.227   3.791   1.503
 1344SOL    HW2 4283   2.267   3.702   1.387
 1345SOL     OW 4284   9.090  10.589   0.405
 1345SOL    HW1 4285   9.033  10.536   0.460
 1345SOL    HW2 4286   9.030  10.640   0.350
 1346SOL     OW 4287   5.656   9.428   5.422
 1346SOL    HW1 4288   5.728   9.380   5.462
 1346SOL    HW2 4289   5.589   9.431   5.490
 1347SOL     OW 4290   4.871   5.077   0.345
 1347SOL    HW1 4291   4.962   5.106   0.353
 1347SOL    HW2 4292   4.874   4.983   0.365
 1348SOL     OW 4293   8.718  10.545   6.192
 1348SOL    HW1 4294   8.650  10.611   6.208
 1348SOL    HW2 4295   8.799  10.588   6.219
 1349SOL     OW 4296  10.939   4.326   6.016
 1349SOL    HW1 4297  10.863   4.269   6.029
 1349SOL    HW2 4298  10.995   4.309   6.092
 1350SOL     OW 4299  12.856   6.060   3.979
 1350SOL    HW1 4300  12.832   6.005   3.904
 1350SOL    HW2 4301  12.947   6.086   3.960
 1351SOL     OW 4302  13.339   9.492   3.746
 1351SOL    HW1 4303  13.308   9.582   3.745
 1351SOL    HW2 4304  13.265   9.441   3.780
 1352SOL     OW 4305   5.706   5.136   0.960
 1352SOL    HW1 4306   5.790   5.108   0.997
 1352SOL    HW2 4307   5.642   5.116   1.028
 1353SOL     OW 4308   5.840   9.790   4.871
 1353SOL    HW1 4309   5.764   9.753   4.825
 1353SOL    HW2 4310   5.827   9.885   4.864
 1354SOL     OW 4311  10.602   8.483   5.316
 1354SOL    HW1 4312  10.589   8.548   5.247
 1354SOL    HW2 4313  10.556   8.519   5.392
 1355SOL     OW 4314   4.775   7.595   5.986
 1355SOL    HW1 4315   4.820   7.680   5.980
 1355SOL    HW2 4316   4.824   7.548   6.054
 1356SOL     OW 4317  11.097   4.810   4.560
 1356SOL    HW1 4318  11.096   4.725   4.604
 1356SOL    HW2 4319  11.131   4.870   4.626
 1357SOL     OW 4320  11.683   3.720   2.539
 1357SOL    HW1 4321  11.655   3.811   2.546
 1357SOL    HW2 4322  11.697   3.692   2.630
 1358SOL     OW 4323   5.145  13.017   4.312
 1358SOL    HW1 4324   5.104  12.990   4.230
 1358SOL    HW2 4325   5.178  12.936   4.351
 1359SOL     OW 4326  11.628  11.920   4.741
 1359SOL    HW1 4327  11.548  11.968   4.764
 1359SOL    HW2 4328  11.653  11.955   4.656
 1360SOL     OW 4329   7.844  11.402   4.212
 1360SOL    HW1 4330   7.881  11.321   4.178
 1360SOL    HW2 4331   7.767  11.374   4.262
 1361SOL     OW 4332   9.841   6.463   1.224
 1361SOL    HW1 4333   9.774   6.503   1.168
 1361SOL    HW2 4334   9.841   6.371   1.198
 1362SOL     OW 4335   3.500   7.656   0.091
 1362SOL    HW1 4336   3.568   7.643   0.157
 1362SOL    HW2 4337   3.516   7.588   0.026
 1363SOL     OW 4338   9.805  11.978   6.120
 1363SOL    HW1 4339   9.747  12.002   6.192
 1363SOL    HW2 4340   9.814  11.883   6.127
 1364SOL     OW 4341   6.825  11.221   1.218
 1364SOL    HW1 4342   6.907  11.186   1.182
 1364SOL    HW2 4343   6.844  11.313   1.233
 1365SOL     OW 4344   7.753   9.890   6.372
 1365SOL    HW1 4345   7.750   9.796   6.385
 1365SOL    HW2 4346   7.720   9.903   6.282
 1366SOL     OW 4347  12.427  12.922   7.578
 1366SOL    HW1 4348  12.506  12.882   7.615
 1366SOL    HW2 4349   6.994   7.572   0.034
 1367SOL     OW 4350   2.865  12.272   3.536
 1367SOL    HW1 4351   2.785  12.219   3.540
 1367SOL    HW2 4352   2.841  12.353   3.582
 1368SOL     OW 4353   8.139   2.923   1.628
 1368SOL    HW1 4354   8.058   2.886   1.663
 1368SOL    HW2 4355   8.113   2.966   1.546
 1369SOL     OW 4356   3.584   3.169   4.197
 1369SOL    HW1 4357   3.504   3.201   4.155
 1369SOL    HW2 4358   3.592   3.078   4.168
 1370SOL     OW 4359   3.324   7.603   1.629
 1370SOL    HW1 4360   3.244   7.599   1.578
 1370SOL    HW2 4361   3.374   7.675   1.590
 1371SOL     OW 4362  10.972   5.255   5.990
 1371SOL    HW1 4363  11.030   5.191   6.032
 1371SOL    HW2 4364  11.012   5.340   6.010
 1372SOL     OW 4365   3.126   3.326   4.069
 1372SOL    HW1 4366   3.156   3.395   4.011
 1372SOL    HW2 4367   3.206   3.287   4.103
 1373SOL     OW 4368   6.626  10.930   5.910
 1373SOL    HW1 4369   6.551  10.932   5.849
 1373SOL    HW2 4370   6.702  10.915   5.854
 1374SOL     OW 4371   5.049  11.011   1.867
 1374SOL    HW1 4372   5.046  11.033   1.960
 1374SOL    HW2 4373   5.032  11.093   1.821
 1375SOL     OW 4374  11.094   6.749   2.045
 1375SOL    HW1 4375  11.104   6.843   2.027
 1375SOL    HW2 4376  11.000   6.733   2.039
 1376SOL     OW 4377  13.037   6.641   5.068
 1376SOL    HW1 4378  12.979   6.604   5.001
 1376SOL    HW2 4379  12.979   6.687   5.128
 1377SOL     OW 4380  12.932   6.369   5.577
 1377SOL    HW1 4381  13.001   6.303   5.570
 1377SOL    HW2 4382  12.950   6.413   5.660
 1378SOL     OW 4383   8.036   2.802   0.805
 1378SOL    HW1 4384   7.984   2.743   0.751
 1378SOL    HW2 4385   8.096   2.744   0.852
 1379SOL     OW 4386   7.871   6.222   6.382
 1379SOL    HW1 4387   7.950   6.247   6.334
 1379SOL    HW2 4388   7.895   6.229   6.474
 1380SOL     OW 4389   5.707   7.601   4.533
 1380SOL    HW1 4390   5.644   7.608   4.461
 1380SOL    HW2 4391   5.700   7.685   4.578
 1381SOL     OW 4392   0.560   9.215   0.468
 1381SOL    HW1 4393   0.618   9.252   0.402
 1381SOL    HW2 4394   0.552   9.122   0.444
 1382SOL     OW 4395  11.390   8.905   2.844
 1382SOL    HW1 4396  11.382   8.900   2.939
 1382SOL    HW2 4397  11.301   8.892   2.812
 1383SOL     OW 4398  14.093   8.567   5.616
 1383SOL    HW1 4399  14.178   8.595   5.583
 1383SOL    HW2 4400  14.047   8.649   5.636
 1384SOL     OW 4401   6.350   4.018   2.341
 1384SOL    HW1 4402   6.366   4.011   2.435
 1384SOL    HW2 4403   6.273   3.963   2.326
 1385SOL     OW 4404   3.267   6.928   4.212
 1385SOL    HW1 4405   3.258   6.987   4.287
 1385SOL    HW2 4406   3.205   6.962   4.148
 1386SOL     OW 4407   6.236   6.670   2.541
 1386SOL    HW1 4408   6.262   6.581   2.519
 1386SOL    HW2 4409   6.140   6.667   2.545
 1387SOL     OW 4410   9.084   7.255   3.694
 1387SOL    HW1 4411   8.999   7.299   3.693
 1387SOL    HW2 4412   9.065   7.165   3.720
 1388SOL     OW 4413  14.493  11.909   7.536
 1388SOL    HW1 4414  14.422  11.924   7.474
 1388SOL    HW2 4415  14.561  11.971   7.510
 1389SOL     OW 4416  13.528  10.231   5.092
 1389SOL    HW1 4417  13.484  10.186   5.164
 1389SOL    HW2 4418  13.602  10.276   5.134
 1390SOL     OW 4419  12.758   9.022   6.300
 1390SOL    HW1 4420  12.759   9.099   6.357
 1390SOL    HW2 4421  12.747   8.948   6.360
 1391SOL     OW 4422   5.765   2.617   3.170
 1391SOL    HW1 4423   5.813   2.642   3.092
 1391SOL    HW2 4424   5.693   2.563   3.138
 1392SOL     OW 4425   9.121   2.457   2.350
 1392SOL    HW1 4426   9.029   2.439   2.331
 1392SOL    HW2 4427   9.118   2.521   2.421
 1393SOL     OW 4428  12.904  10.858   7.385
 1393SOL    HW1 4429  12.952  10.938   7.362
 1393SOL    HW2 4430  12.970  10.801   7.424
 1394SOL     OW 4431   8.753  11.073   1.915
 1394SOL    HW1 4432   8.694  11.011   1.873
 1394SOL    HW2 4433   8.818  11.094   1.848
 1395SOL     OW 4434  14.492   6.258   5.894
 1395SOL    HW1 4435  14.489   6.290   5.804
 1395SOL    HW2 4436  14.460   6.168   5.889
 1396SOL     OW 4437  14.406   5.149   5.695
 1396SOL    HW1 4438  14.433   5.083   5.759
 1396SOL    HW2 4439  14.324   5.184   5.730
 1397SOL     OW 4440  11.847   4.739   4.980
 1397SOL    HW1 4441  11.786   4.806   4.949
 1397SOL    HW2 4442  11.931   4.785   4.987
 1398SOL     OW 4443  10.166   3.935   3.519
 1398SOL    HW1 4444  10.223   3.859   3.524
 1398SOL    HW2 4445  10.139   3.950   3.610
 1399SOL     OW 4446  11.828   9.532   6.813
 1399SOL    HW1 4447  11.817   9.446   6.771
 1399SOL    HW2 4448  11.802   9.595   6.746
 1400SOL     OW 4449  15.117   8.882   6.926
 1400SOL    HW1 4450  15.100   8.841   7.010
 1400SOL    HW2 4451  15.211   8.871   6.912
 1401SOL     OW 4452  12.653   3.164   3.317
 1401SOL    HW1 4453  12.728   3.202   3.271
 1401SOL    HW2 4454  12.656   3.071   3.294
 1402SOL     OW 4455  13.503   6.807   4.226
 1402SOL    HW1 4456  13.493   6.895   4.192
 1402SOL    HW2 4457  13.503   6.751   4.148
 1403SOL     OW 4458   9.951   9.628   2.548
 1403SOL    HW1 4459   9.935   9.656   2.458
 1403SOL    HW2 4460   9.892   9.682   2.601
 1404SOL     OW 4461   9.118   6.854   5.916
 1404SOL    HW1 4462   9.109   6.865   6.011
 1404SOL    HW2 4463   9.031   6.868   5.881
 1405SOL     OW 4464   5.441   3.780   3.640
 1405SOL    HW1 4465   5.395   3.813   3.562
 1405SOL    HW2 4466   5.376   3.787   3.710
 1406SOL     OW 4467  10.121  10.101   0.514
 1406SOL    HW1 4468  10.087  10.146   0.437
 1406SOL    HW2 4469  10.065  10.024   0.523
 1407SOL     OW 4470   1.369   7.985   0.537
 1407SOL    HW1 4471   1.353   7.946   0.450
 1407SOL    HW2 4472   1.401   7.912   0.590
 1408SOL     OW 4473   6.225   6.840   5.849
 1408SOL    HW1 4474   6.226   6.929   5.814
 1408SOL    HW2 4475   6.190   6.787   5.777
 1409SOL     OW 4476   3.704  14.075   4.814
 1409SOL    HW1 4477   3.665  14.060   4.728
 1409SOL    HW2 4478   3.796  14.053   4.803
 1410SOL     OW 4479   1.851   5.194   0.620
 1410SOL    HW1 4480   1.759   5.171   0.632
 1410SOL    HW2 4481   1.852   5.254   0.546
 1411SOL     OW 4482   4.302   4.634   4.143
 1411SOL    HW1 4483   4.258   4.615   4.060
 1411SOL    HW2 4484   4.336   4.723   4.131
 1412SOL     OW 4485   6.692   0.665   0.151
 1412SOL    HW1 4486   6.682   0.605   0.225
 1412SOL    HW2 4487   6.606   0.664   0.108
 1413SOL     OW 4488   7.036   2.069   0.526
 1413SOL    HW1 4489   6.998   2.068   0.613
 1413SOL    HW2 4490   7.123   2.107   0.538
 1414SOL     OW 4491   7.975   6.449   5.555
 1414SOL    HW1 4492   7.946   6.530   5.597
 1414SOL    HW2 4493   7.973   6.384   5.625
 1415SOL     OW 4494  13.475  15.147   6.843
 1415SOL    HW1 4495  13.552  15.105   6.805
 1415SOL    HW2 4496  13.451  15.216   6.781
 1416SOL     OW 4497   6.964   6.527   4.601
 1416SOL    HW1 4498   6.941   6.585   4.528
 1416SOL    HW2 4499   6.933   6.441   4.573
 1417SOL     OW 4500   3.991   8.281   0.881
 1417SOL    HW1 4501   3.948   8.196   0.885
 1417SOL    HW2 4502   3.961   8.319   0.799
 1418SOL     OW 4503   8.547   9.222   5.120
 1418SOL    HW1 4504   8.628   9.183   5.152
 1418SOL    HW2 4505   8.520   9.282   5.190
 1419SOL     OW 4506   7.307   5.452   7.172
 1419SOL    HW1 4507   7.251   5.526   7.149
 1419SOL    HW2 4508   7.360   5.483   7.245
 1420SOL     OW 4509   2.721   9.866   3.140
 1420SOL    HW1 4510   2.774   9.942   3.120
 1420SOL    HW2 4511   2.684   9.838   3.056
 1421SOL     OW 4512   3.662   9.736   0.769
 1421SOL    HW1 4513   3.652   9.683   0.690
 1421SOL    HW2 4514   3.605   9.695   0.833
 1422SOL     OW 4515   8.961  11.882   1.936
 1422SOL    HW1 4516   8.880  11.892   1.987
 1422SOL    HW2 4517   9.005  11.806   1.974
 1423SOL     OW 4518   6.836   9.594   4.562
 1423SOL    HW1 4519   6.771   9.659   4.534
 1423SOL    HW2 4520   6.919   9.642   4.560
 1424SOL     OW 4521   5.211  10.267   1.676
 1424SOL    HW1 4522   5.119  10.270   1.701
 1424SOL    HW2 4523   5.250  10.204   1.737
 1425SOL     OW 4524   6.657   7.490   7.380
 1425SOL    HW1 4525   6.564   7.506   7.364
 1425SOL    HW2 4526   6.660   7.457   7.470
 1426SOL     OW 4527   3.886   4.808   1.171
 1426SOL    HW1 4528   3.849   4.732   1.127
 1426SOL    HW2 4529   3.879   4.879   1.106
 1427SOL     OW 4530  10.021  11.517   2.259
 1427SOL    HW1 4531   9.988  11.606   2.253
 1427SOL    HW2 4532   9.976  11.480   2.336
 1428SOL     OW 4533   5.071   7.537   2.425
 1428SOL    HW1 4534   5.053   7.519   2.332
 1428SOL    HW2 4535   5.166   7.543   2.430
 1429SOL     OW 4536  12.389   9.435   3.327
 1429SOL    HW1 4537  12.362   9.489   3.400
 1429SOL    HW2 4538  12.394   9.346   3.363
 1430SOL     OW 4539   6.668  11.496   5.757
 1430SOL    HW1 4540   6.675  11.564   5.824
 1430SOL    HW2 4541   6.750  11.500   5.708
 1431SOL     OW 4542   9.593   0.858   0.290
 1431SOL    HW1 4543   9.499   0.871   0.277
 1431SOL    HW2 4544   9.600   0.768   0.322
 1432SOL     OW 4545  10.117   7.796   2.286
 1432SOL    HW1 4546  10.156   7.877   2.255
 1432SOL    HW2 4547  10.026   7.818   2.305
 1433SOL     OW 4548   3.150   7.659   1.349
 1433SOL    HW1 4549   3.159   7.607   1.269
 1433SOL    HW2 4550   3.196   7.740   1.330
 1434SOL     OW 4551   1.271   4.285   0.491
 1434SOL    HW1 4552   1.203   4.218   0.501
 1434SOL    HW2 4553   1.286   4.318   0.579
 1435SOL     OW 4554  10.289   5.069   3.790
 1435SOL    HW1 4555  10.198   5.095   3.805
 1435SOL    HW2 4556  10.340   5.149   3.805
 1436SOL     OW 4557   6.541   9.973   1.870
 1436SOL    HW1 4558   6.634   9.958   1.849
 1436SOL    HW2 4559   6.515  10.046   1.814
 1437SOL     OW 4560   4.981   8.733   0.558
 1437SOL    HW1 4561   4.972   8.803   0.494
 1437SOL    HW2 4562   5.076   8.727   0.574
 1438SOL     OW 4563  11.241  12.209   6.055
 1438SOL    HW1 4564  11.233  12.304   6.048
 1438SOL    HW2 4565  11.197  12.175   5.977
 1439SOL     OW 4566   7.352  12.218   6.642
 1439SOL    HW1 4567   7.436  12.192   6.604
 1439SOL    HW2 4568   7.361  12.313   6.657
 1440SOL     OW 4569   3.976  13.449   5.157
 1440SOL    HW1 4570   4.043  13.432   5.224
 1440SOL    HW2 4571   3.911  13.504   5.200
 1441SOL     OW 4572   6.167  12.145   5.489
 1441SOL    HW1 4573   6.178  12.075   5.554
 1441SOL    HW2 4574   6.200  12.224   5.532
 1442SOL     OW 4575   1.167   4.667   1.106
 1442SOL    HW1 4576   1.096   4.654   1.043
 1442SOL    HW2 4577   1.177   4.762   1.112
 1443SOL     OW 4578   7.271  10.667   7.068
 1443SOL    HW1 4579   7.236  10.755   7.082
 1443SOL    HW2 4580   7.198  10.609   7.088
 1444SOL     OW 4581   6.014   2.834   3.744
 1444SOL    HW1 4582   5.943   2.894   3.721
 1444SOL    HW2 4583   6.083   2.891   3.779
 1445SOL     OW 4584  14.329   6.623   6.941
 1445SOL    HW1 4585  14.364   6.539   6.970
 1445SOL    HW2 4586  14.234   6.611   6.938
 1446SOL     OW 4587  10.865   8.270   6.054
 1446SOL    HW1 4588  10.856   8.188   6.102
 1446SOL    HW2 4589  10.931   8.252   5.986
 1447SOL     OW 4590   7.817   6.024   1.615
 1447SOL    HW1 4591   7.754   6.087   1.581
 1447SOL    HW2 4592   7.898   6.073   1.624
 1448SOL     OW 4593  10.047   7.731   6.408
 1448SOL    HW1 4594   9.954   7.737   6.388
 1448SOL    HW2 4595  10.059   7.643   6.442
 1449SOL     OW 4596   5.402  12.436   6.395
 1449SOL    HW1 4597   5.351  12.508   6.432
 1449SOL    HW2 4598   5.337  12.379   6.353
 1450SOL     OW 4599   9.120   8.207   2.620
 1450SOL    HW1 4600   9.030   8.211   2.586
 1450SOL    HW2 4601   9.172   8.179   2.545
 1451SOL     OW 4602   2.225  12.573   3.085
 1451SOL    HW1 4603   2.311  12.607   3.059
 1451SOL    HW2 4604  12.979  12.621   3.166
 1452SOL     OW 4605   9.353   6.772   6.224
 1452SOL    HW1 4606   9.352   6.677   6.238
 1452SOL    HW2 4607   9.324   6.808   6.308
 1453SOL     OW 4608   9.059  10.262   0.629
 1453SOL    HW1 4609   9.002  10.208   0.574
 1453SOL    HW2 4610   9.003  10.291   0.701
 1454SOL     OW 4611   8.387  10.605   4.568
 1454SOL    HW1 4612   8.425  10.640   4.648
 1454SOL    HW2 4613   8.295  10.632   4.571
 1455SOL     OW 4614   8.203   9.943   5.709
 1455SOL    HW1 4615   8.204   9.899   5.794
 1455SOL    HW2 4616   8.125   9.910   5.665
 1456SOL     OW 4617  12.139   7.724   5.438
 1456SOL    HW1 4618  12.105   7.677   5.362
 1456SOL    HW2 4619  12.097   7.810   5.435
 1457SOL     OW 4620   7.400  13.033   4.687
 1457SOL    HW1 4621   7.413  13.128   4.691
 1457SOL    HW2 4622   7.353  13.012   4.768
 1458SOL     OW 4623  13.826   7.757   6.870
 1458SOL    HW1 4624  13.813   7.767   6.964
 1458SOL    HW2 4625  13.871   7.673   6.860
 1459SOL     OW 4626   4.174  12.491   5.428
 1459SOL    HW1 4627   4.191  12.538   5.510
 1459SOL    HW2 4628   4.079  12.496   5.417
 1460SOL     OW 4629   4.695   3.148   1.365
 1460SOL    HW1 4630   4.712   3.079   1.428
 1460SOL    HW2 4631   4.714   3.229   1.412
 1461SOL     OW 4632   8.575   5.131   5.530
 1461SOL    HW1 4633   8.525   5.097   5.456
 1461SOL    HW2 4634   8.573   5.060   5.595
 1462SOL     OW 4635  15.033   7.757   6.024
 1462SOL    HW1 4636   4.275   7.813   5.948
 1462SOL    HW2 4637   4.337   7.704   6.032
 1463SOL     OW 4638   8.776  10.472   3.252
 1463SOL    HW1 4639   8.787  10.535   3.180
 1463SOL    HW2 4640   8.865  10.445   3.274
 1464SOL     OW 4641   2.198   6.496   1.626
 1464SOL    HW1 4642   2.217   6.515   1.718
 1464SOL    HW2 4643   2.111   6.457   1.627
 1465SOL     OW 4644   2.900   1.115   0.429
 1465SOL    HW1 4645   2.910   1.101   0.523
 1465SOL    HW2 4646   2.846   1.043   0.399
 1466SOL     OW 4647  14.782  15.009   6.695
 1466SOL    HW1 4648  14.845  15.082   6.689
 1466SOL    HW2 4649  14.734  15.012   6.613
 1467SOL     OW 4650   2.306   7.394   0.219
 1467SOL    HW1 4651   2.251   7.470   0.201
 1467SOL    HW2 4652   2.291   7.374   0.312
 1468SOL     OW 4653  13.490   6.767   5.269
 1468SOL    HW1 4654  13.537   6.700   5.319
 1468SOL    HW2 4655  13.403   6.770   5.309
 1469SOL     OW 4656  12.196   6.197   2.826
 1469SOL    HW1 4657  12.146   6.228   2.750
 1469SOL    HW2 4658  12.145   6.123   2.858
 1470SOL     OW 4659   2.191   1.858   0.340
 1470SOL    HW1 4660   2.226   1.946   0.358
 1470SOL    HW2 4661   2.113   1.874   0.286
 1471SOL     OW 4662   6.549   8.680   0.467
 1471SOL    HW1 4663   6.474   8.689   0.408
 1471SOL    HW2 4664   6.541   8.754   0.527
 1472SOL     OW 4665  10.091   5.853   7.394
 1472SOL    HW1 4666  10.084   5.836   7.300
 1472SOL    HW2 4667  10.001   5.849   7.426
 1473SOL     OW 4668   9.989   9.387   0.091
 1473SOL    HW1 4669  10.062   9.360   0.146
 1473SOL    HW2 4670   9.986   9.323   0.020
 1474SOL     OW 4671   8.387   8.242   7.355
 1474SOL    HW1 4672   8.381   8.308   7.424
 1474SOL    HW2 4673   8.469   8.262   7.309
 1475SOL     OW 4674   5.675   7.844   0.956
 1475SOL    HW1 4675   5.618   7.910   0.995
 1475SOL    HW2 4676   5.661   7.766   1.010
 1476SOL     OW 4677   6.796  10.937   0.365
 1476SOL    HW1 4678   6.711  10.906   0.334
 1476SOL    HW2 4679   6.814   0.240   0.312
 1477SOL     OW 4680   8.842  15.458   6.922
 1477SOL    HW1 4681   8.853  15.521   6.994
 1477SOL    HW2 4682   8.876  15.376   6.958
 1478SOL     OW 4683   4.639  10.454   4.181
 1478SOL    HW1 4684   4.629  10.510   4.105
 1478SOL    HW2 4685   4.576  10.488   4.245
 1479SOL     OW 4686   5.475  14.974   6.019
 1479SOL    HW1 4687   5.466  14.880   6.004
 1479SOL    HW2 4688   5.501   4.235   5.934
 1480SOL     OW 4689  11.530  10.298   6.886
 1480SOL    HW1 4690  11.447  10.316   6.931
 1480SOL    HW2 4691  11.593  10.280   6.955
 1481SOL     OW 4692   3.134  12.572   2.589
 1481SOL    HW1 4693   3.171  12.489   2.558
 1481SOL    HW2 4694   3.201   1.862   2.570
 1482SOL     OW 4695   3.744  10.337   1.433
 1482SOL    HW1 4696   3.659  10.370   1.461
 1482SOL    HW2 4697   3.747  10.357   1.339
 1483SOL     OW 4698  11.034   3.231   2.283
 1483SOL    HW1 4699  10.945   3.259   2.303
 1483SOL    HW2 4700  11.027   3.189   2.197
 1484SOL     OW 4701   7.632   9.583   2.647
 1484SOL    HW1 4702   7.721   9.589   2.610
 1484SOL    HW2 4703   7.643   9.528   2.724
 1485SOL     OW 4704   6.312   5.792   0.085
 1485SOL    HW1 4705   6.363   5.873   0.076
 1485SOL    HW2 4706   6.242   5.801   0.020
 1486SOL     OW 4707  10.291   5.570   5.315
 1486SOL    HW1 4708  10.343   5.489   5.312
 1486SOL    HW2 4709  10.243   5.571   5.232
 1487SOL     OW 4710   7.448   4.404   0.329
 1487SOL    HW1 4711   7.446   4.423   0.235
 1487SOL    HW2 4712   7.356   4.401   0.355
 1488SOL     OW 4713   9.660   7.489   2.717
 1488SOL    HW1 4714   9.672   7.512   2.625
 1488SOL    HW2 4715   9.742   7.514   2.759
 1489SOL     OW 4716   1.163   1.255   0.646
 1489SOL    HW1 4717   1.115   1.225   0.723
 1489SOL    HW2 4718   1.192   1.343   0.669
 1490SOL     OW 4719  11.382  12.974   3.648
 1490SOL    HW1 4720  11.316  13.039   3.673
 1490SOL    HW2 4721  11.348  12.891   3.680
 1491SOL     OW 4722   6.005   5.289   0.764
 1491SOL    HW1 4723   6.086   5.258   0.722
 1491SOL    HW2 4724   6.029   5.372   0.805
 1492SOL     OW 4725   7.114  12.790   7.111
 1492SOL    HW1 4726   7.187  12.823   7.060
 1492SOL    HW2 4727   7.153  12.728   7.173
 1493SOL     OW 4728   6.586   4.819   2.888
 1493SOL    HW1 4729   6.614   4.855   2.973
 1493SOL    HW2 4730   6.654   4.756   2.866
 1494SOL     OW 4731   5.978   8.818   3.540
 1494SOL    HW1 4732   5.958   8.766   3.618
 1494SOL    HW2 4733   6.062   8.784   3.509
 1495SOL     OW 4734  12.041   5.860   4.736
 1495SOL    HW1 4735  12.128   5.900   4.738
 1495SOL    HW2 4736  12.033   5.823   4.649
 1496SOL     OW 4737  11.593   2.835   3.092
 1496SOL    HW1 4738  11.500   2.848   3.071
 1496SOL    HW2 4739  11.638   2.910   3.053
 1497SOL     OW 4740   2.772   6.542   1.132
 1497SOL    HW1 4741   2.866   6.526   1.129
 1497SOL    HW2 4742   2.751   6.546   1.225
 1498SOL     OW 4743   7.215   7.556   6.156
 1498SOL    HW1 4744   7.206   7.633   6.100
 1498SOL    HW2 4745   7.128   7.543   6.193
 1499SOL     OW 4746   4.539   5.216   4.648
 1499SOL    HW1 4747   4.558   5.248   4.560
 1499SOL    HW2 4748   4.471   5.274   4.681
 1500SOL     OW 4749  10.838   3.411   2.501
 1500SOL    HW1 4750  10.765   3.355   2.477
 1500SOL    HW2 4751  10.908   3.350   2.526
 1501SOL     OW 4752   6.471   9.092   1.500
 1501SOL    HW1 4753   6.532   9.101   1.427
 1501SOL    HW2 4754   6.475   9.000   1.524
 1502SOL     OW 4755   5.127  11.521   4.265
 1502SOL    HW1 4756   5.213  11.549   4.234
 1502SOL    HW2 4757   5.119  11.431   4.236
 1503SOL     OW 4758   7.099   6.916   3.812
 1503SOL    HW1 4759   7.121   6.880   3.898
 1503SOL    HW2 4760   7.151   6.995   3.805
 1504SOL     OW 4761  11.909   5.044   1.928
 1504SOL    HW1 4762  11.958   5.076   1.853
 1504SOL    HW2 4763  11.952   4.962   1.953
 1505SOL     OW 4764   5.414   8.520   6.807
 1505SOL    HW1 4765   5.369   8.491   6.728
 1505SOL    HW2 4766   5.507   8.516   6.785
 1506SOL     OW 4767   9.447   5.925   3.196
 1506SOL    HW1 4768   9.369   5.970   3.163
 1506SOL    HW2 4769   9.520   5.981   3.169
 1507SOL     OW 4770   4.240   6.973   1.188
 1507SOL    HW1 4771   4.153   6.990   1.151
 1507SOL    HW2 4772   4.298   6.971   1.112
 1508SOL     OW 4773   3.364  11.142   0.791
 1508SOL    HW1 4774   3.362  11.233   0.820
 1508SOL    HW2 4775   3.338  11.091   0.868
 1509SOL     OW 4776   6.346   7.113   0.789
 1509SOL    HW1 4777   6.396   7.073   0.860
 1509SOL    HW2 4778   6.349   7.207   0.807
 1510SOL     OW 4779   6.494   2.430   0.596
 1510SOL    HW1 4780   6.456   2.517   0.595
 1510SOL    HW2 4781   6.485   2.399   0.506
 1511SOL     OW 4782  12.400   7.226   5.285
 1511SOL    HW1 4783  12.315   7.217   5.243
 1511SOL    HW2 4784  12.426   7.317   5.268
 1512SOL     OW 4785  13.212  14.095   4.934
 1512SOL    HW1 4786  13.211  14.114   4.840
 1512SOL    HW2 4787  13.304  14.073   4.953
 1513SOL     OW 4788   8.560   6.297   2.785
 1513SOL    HW1 4789   8.635   6.237   2.782
 1513SOL    HW2 4790   8.487   6.246   2.751
 1514SOL     OW 4791  10.478   4.371   1.775
 1514SOL    HW1 4792  10.449   4.436   1.710
 1514SOL    HW2 4793  10.564   4.344   1.745
 1515SOL     OW 4794   7.693   4.045   3.078
 1515SOL    HW1 4795   7.694   3.951   3.064
 1515SOL    HW2 4796   7.771   4.062   3.130
 1516SOL     OW 4797   1.076   5.946   1.105
 1516SOL    HW1 4798   1.038   5.858   1.109
 1516SOL    HW2 4799   1.143   5.940   1.036
 1517SOL     OW 4800  10.251   2.573   0.685
 1517SOL    HW1 4801  10.194   2.641   0.650
 1517SOL    HW2 4802  10.301   2.542   0.610
 1518SOL     OW 4803   3.437   5.584   3.109
 1518SOL    HW1 4804   3.486   5.653   3.155
 1518SOL    HW2 4805   3.404   5.626   3.030
 1519SOL     OW 4806   4.902   7.005   2.314
 1519SOL    HW1 4807   4.918   7.077   2.375
 1519SOL    HW2 4808   4.959   6.934   2.344
 1520SOL     OW 4809   4.931   5.581   4.566
 1520SOL    HW1 4810   4.967   5.508   4.617
 1520SOL    HW2 4811   4.920   5.651   4.630
 1521SOL     OW 4812   6.856   3.624   0.248
 1521SOL    HW1 4813   6.789   3.641   0.181
 1521SOL    HW2 4814   6.831   3.539   0.284
 1522SOL     OW 4815   3.115  12.783   3.662
 1522SOL    HW1 4816   3.114  12.707   3.603
 1522SOL    HW2 4817   3.023  12.803   3.677
 1523SOL     OW 4818   9.112   3.984   4.821
 1523SOL    HW1 4819   9.157   3.914   4.868
 1523SOL    HW2 4820   9.122   3.961   4.728
 1524SOL     OW 4821   7.508   8.960   0.384
 1524SOL    HW1 4822   7.575   8.982   0.450
 1524SOL    HW2 4823   7.534   9.010   0.307
 1525SOL     OW 4824   6.965   9.360   6.043
 1525SOL    HW1 4825   6.922   9.423   6.101
 1525SOL    HW2 4826   7.032   9.410   5.997
 1526SOL     OW 4827  13.127   8.879   3.454
 1526SOL    HW1 4828  13.212   8.910   3.485
 1526SOL    HW2 4829  13.097   8.949   3.396
 1527SOL     OW 4830   7.689   8.855   1.278
 1527SOL    HW1 4831   7.737   8.859   1.195
 1527SOL    HW2 4832   7.625   8.926   1.272
 1528SOL     OW 4833  11.383   0.787   0.926
 1528SOL    HW1 4834  11.440   0.766   0.999
 1528SOL    HW2 4835   0.636   0.874   0.897
 1529SOL     OW 4836   9.593  13.375   5.539
 1529SOL    HW1 4837   9.539  13.341   5.610
 1529SOL    HW2 4838   9.537  13.370   5.462
 1530SOL     OW 4839   8.833   6.682   5.896
 1530SOL    HW1 4840   8.870   6.704   5.810
 1530SOL    HW2 4841   8.871   6.596   5.915
 1531SOL     OW 4842   7.150  10.705   6.705
 1531SOL    HW1 4843   7.231  10.678   6.749
 1531SOL    HW2 4844   7.081  10.654   6.748
 1532SOL     OW 4845   4.519   6.821   2.814
 1532SOL    HW1 4846   4.492   6.887   2.750
 1532SOL    HW2 4847   4.438   6.795   2.857
 1533SOL     OW 4848   5.916   4.433   1.938
 1533SOL    HW1 4849   5.958   4.488   1.873
 1533SOL    HW2 4850   5.959   4.455   2.020
 1534SOL     OW 4851  10.900   9.952   4.623
 1534SOL    HW1 4852  10.906  10.027   4.564
 1534SOL    HW2 4853  10.988   9.943   4.659
 1535SOL     OW 4854  10.792   4.808   0.780
 1535SOL    HW1 4855  10.781   4.884   0.722
 1535SOL    HW2 4856  10.809   4.846   0.866
 1536SOL     OW 4857   7.415   2.647   3.322
 1536SOL    HW1 4858   7.405   2.562   3.365
 1536SOL    HW2 4859   7.389   2.632   3.231
 1537SOL     OW 4860   0.809   9.351   0.779
 1537SOL    HW1 4861   0.821   9.423   0.717
 1537SOL    HW2 4862   0.718   9.325   0.767
 1538SOL     OW 4863   5.391   7.541   6.747
 1538SOL    HW1 4864   5.306   7.521   6.708
 1538SOL    HW2 4865   5.454   7.498   6.690
 1539SOL     OW 4866  11.190   9.623   6.162
 1539SOL    HW1 4867  11.274   9.670   6.157
 1539SOL    HW2 4868  11.142   9.654   6.085
 1540SOL     OW 4869  12.678   9.137   5.195
 1540SOL    HW1 4870  12.719   9.211   5.238
 1540SOL    HW2 4871  12.738   9.114   5.124
 1541SOL     OW 4872   4.970   5.286   1.158
 1541SOL    HW1 4873   5.017   5.309   1.239
 1541SOL    HW2 4874   4.877   5.294   1.182
 1542SOL     OW 4875   8.821  11.520   6.006
 1542SOL    HW1 4876   8.759  11.453   6.032
 1542SOL    HW2 4877   8.839  11.570   6.086
 1543SOL     OW 4878  10.207   9.260   3.111
 1543SOL    HW1 4879  10.180   9.210   3.034
 1543SOL    HW2 4880  10.163   9.345   3.101
 1544SOL     OW 4881  12.975   5.086   5.564
 1544SOL    HW1 4882  12.980   5.105   5.470
 1544SOL    HW2 4883  13.066   5.072   5.591
 1545SOL     OW 4884   2.131   5.033   0.757
 1545SOL    HW1 4885   2.172   4.949   0.737
 1545SOL    HW2 4886   2.118   5.031   0.852
 1546SOL     OW 4887   8.060  11.530   4.621
 1546SOL    HW1 4888   8.136  11.505   4.674
 1546SOL    HW2 4889   7.987  11.535   4.683
 1547SOL     OW 4890  12.633  13.429   4.172
 1547SOL    HW1 4891  12.567  13.461   4.233
 1547SOL    HW2 4892  12.709  13.485   4.188
 1548SOL     OW 4893   8.589   8.131   6.522
 1548SOL    HW1 4894   8.607   8.115   6.429
 1548SOL    HW2 4895   8.590   8.044   6.562
 1549SOL     OW 4896   3.699   4.745   3.636
 1549SOL    HW1 4897   3.686   4.697   3.717
 1549SOL    HW2 4898   3.742   4.826   3.663
 1550SOL     OW 4899   2.913  10.429   3.900
 1550SOL    HW1 4900   2.987  10.422   3.961
 1550SOL    HW2 4901   2.916  10.349   3.848
 1551SOL     OW 4902   4.763   6.310   0.867
 1551SOL    HW1 4903   4.767   6.338   0.959
 1551SOL    HW2 4904   4.826   6.366   0.822
 1552SOL     OW 4905   6.260   5.933   2.769
 1552SOL    HW1 4906   6.176   5.925   2.722
 1552SOL    HW2 4907   6.236   5.922   2.861
 1553SOL     OW 4908  14.601  14.683   7.458
 1553SOL    HW1 4909  14.559  14.598   7.469
 1553SOL    HW2 4910  14.642  14.701   7.543
 1554SOL     OW 4911  10.600   7.413   4.247
 1554SOL    HW1 4912  10.527   7.393   4.188
 1554SOL    HW2 4913  10.584   7.502   4.277
 1555SOL     OW 4914  11.949  14.288   6.456
 1555SOL    HW1 4915  11.993  14.369   6.434
 1555SOL    HW2 4916  11.879  14.314   6.516
 1556SOL     OW 4917   2.036   0.512   0.128
 1556SOL    HW1 4918   2.100   0.490   0.196
 1556SOL    HW2 4919   2.083   0.499   0.046
 1557SOL     OW 4920   7.990  13.855   6.560
 1557SOL    HW1 4921   8.079  13.891   6.551
 1557SOL    HW2 4922   7.997  13.793   6.633
 1558SOL     OW 4923   7.127  12.112   1.953
 1558SOL    HW1 4924   7.120   1.344   1.857
 1558SOL    HW2 4925   7.072   1.408   1.986
 1559SOL     OW 4926   3.336   6.834   1.617
 1559SOL    HW1 4927   3.315   6.889   1.543
 1559SOL    HW2 4928   3.431   6.840   1.627
 1560SOL     OW 4929  12.925   7.443   6.073
 1560SOL    HW1 4930  12.959   7.431   5.985
 1560SOL    HW2 4931  12.858   7.376   6.083
 1561SOL     OW 4932   2.931   1.309   1.773
 1561SOL    HW1 4933   2.947   1.373   1.843
 1561SOL    HW2 4934   2.971  12.002   1.806
 1562SOL     OW 4935   5.052   5.189   1.824
 1562SOL    HW1 4936   5.040   5.141   1.743
 1562SOL    HW2 4937   5.060   5.280   1.797
 1563SOL     OW 4938   5.864   6.951   0.426
 1563SOL    HW1 4939   5.920   7.028   0.438
 1563SOL    HW2 4940   5.813   6.971   0.347
 1564SOL     OW 4941   9.280   8.333   3.901
 1564SOL    HW1 4942   9.187   8.320   3.884
 1564SOL    HW2 4943   9.300   8.276   3.975
 1565SOL     OW 4944  13.226  11.067   4.502
 1565SOL    HW1 4945  13.176  10.996   4.463
 1565SOL    HW2 4946  13.250  11.124   4.429
 1566SOL     OW 4947   6.521   9.458   4.100
 1566SOL    HW1 4948   6.595   9.416   4.142
 1566SOL    HW2 4949   6.559   9.531   4.051
 1567SOL     OW 4950  10.346  11.224   0.671
 1567SOL    HW1 4951  10.310  11.141   0.701
 1567SOL    HW2 4952  10.365   0.434   0.578
 1568SOL     OW 4953  14.402   7.791   5.594
 1568SOL    HW1 4954  14.423   7.866   5.649
 1568SOL    HW2 4955  14.323   7.818   5.546
 1569SOL     OW 4956   6.393  13.602   6.625
 1569SOL    HW1 4957   6.482  13.574   6.644
 1569SOL    HW2 4958   6.402  13.690   6.589
 1570SOL     OW 4959  13.024   9.319   4.713
 1570SOL    HW1 4960  12.957   9.338   4.778
 1570SOL    HW2 4961  12.975   9.309   4.631
 1571SOL     OW 4962  11.376   6.318   4.079
 1571SOL    HW1 4963  11.435   6.244   4.091
 1571SOL    HW2 4964  11.400   6.380   4.147
 1572SOL     OW 4965   8.824   2.557   2.543
 1572SOL    HW1 4966   8.856   2.550   2.453
 1572SOL    HW2 4967   8.870   2.487   2.589
 1573SOL     OW 4968  11.496   4.373   5.319
 1573SOL    HW1 4969  11.567   4.408   5.265
 1573SOL    HW2 4970  11.431   4.443   5.322
 1574SOL     OW 4971   5.271   4.662   3.994
 1574SOL    HW1 4972   5.300   4.705   4.075
 1574SOL    HW2 4973   5.306   4.717   3.924
 1575SOL     OW 4974   6.471   4.606   2.646
 1575SOL    HW1 4975   6.490   4.691   2.608
 1575SOL    HW2 4976   6.423   4.559   2.578
 1576SOL     OW 4977   6.291  11.434   6.434
 1576SOL    HW1 4978   6.288  11.389   6.519
 1576SOL    HW2 4979   6.384  11.434   6.411
 1577SOL     OW 4980  11.944   6.207   3.877
 1577SOL    HW1 4981  11.867   6.260   3.899
 1577SOL    HW2 4982  11.970   6.238   3.790
 1578SOL     OW 4983   4.508   7.515   5.080
 1578SOL    HW1 4984   4.454   7.469   5.145
 1578SOL    HW2 4985   4.550   7.445   5.030
 1579SOL     OW 4986   4.940   4.114   2.549
 1579SOL    HW1 4987   4.904   4.191   2.591
 1579SOL    HW2 4988   4.919   4.125   2.456
 1580SOL     OW 4989   9.728   5.039   3.074
 1580SOL    HW1 4990   9.674   5.118   3.080
 1580SOL    HW2 4991   9.799   5.062   3.015
 1581SOL     OW 4992   7.776   8.432   0.350
 1581SOL    HW1 4993   7.870   8.448   0.355
 1581SOL    HW2 4994   7.755   8.383   0.429
 1582SOL     OW 4995   3.022  12.805   3.376
 1582SOL    HW1 4996   3.033  12.899   3.366
 1582SOL    HW2 4997   2.969  12.796   3.455
 1583SOL     OW 4998   9.314   5.539   1.653
 1583SOL    HW1 4999   9.306   5.622   1.700
 1583SOL    HW2 5000   9.309   5.472   1.721
 1584SOL     OW 5001  12.934  14.932   7.178
 1584SOL    HW1 5002  12.977  14.906   7.096
 1584SOL    HW2 5003  12.842  14.944   7.153
 1585SOL     OW 5004   7.792  12.873   4.751
 1585SOL    HW1 5005   7.885  12.852   4.742
 1585SOL    HW2 5006   7.790  12.969   4.752
 1586SOL     OW 5007  12.577   3.341   4.497
 1586SOL    HW1 5008  12.580   3.368   4.405
 1586SOL    HW2 5009  12.658   3.293   4.511
 1587SOL     OW 5010  11.706   8.506   7.196
 1587SOL    HW1 5011  11.788   8.523   7.150
 1587SOL    HW2 5012  11.727   8.516   7.288
 1588SOL     OW 5013   8.210  10.038   4.283
 1588SOL    HW1 5014   8.202  10.055   4.377
 1588SOL    HW2 5015   8.124  10.004   4.258
 1589SOL     OW 5016  10.085   4.075   5.170
 1589SOL    HW1 5017  10.154   4.008   5.172
 1589SOL    HW2 5018  10.060   4.085   5.262
 1590SOL     OW 5019  10.168   6.297   5.076
 1590SOL    HW1 5020  10.182   6.243   4.998
 1590SOL    HW2 5021  10.224   6.257   5.143
 1591SOL     OW 5022  10.825   2.708   0.628
 1591SOL    HW1 5023  10.821   2.782   0.689
 1591SOL    HW2 5024  10.754   2.726   0.565
 1592SOL     OW 5025  11.691   8.873   6.250
 1592SOL    HW1 5026  11.719   8.799   6.304
 1592SOL    HW2 5027  11.742   8.947   6.282
 1593SOL     OW 5028   6.127   7.238   1.098
 1593SOL    HW1 5029   6.145   7.188   1.178
 1593SOL    HW2 5030   6.079   7.177   1.042
 1594SOL     OW 5031   2.069   4.175   0.932
 1594SOL    HW1 5032   2.085   4.159   0.839
 1594SOL    HW2 5033   2.125   4.111   0.977
 1595SOL     OW 5034   9.896   3.162   0.890
 1595SOL    HW1 5035   9.949   3.082   0.890
 1595SOL    HW2 5036   9.891   3.187   0.798
 1596SOL     OW 5037  11.496   9.076   5.329
 1596SOL    HW1 5038  11.514   8.986   5.303
 1596SOL    HW2 5039  11.559   9.128   5.280
 1597SOL     OW 5040   8.840  11.507   1.746
 1597SOL    HW1 5041   8.910  11.566   1.717
 1597SOL    HW2 5042   8.813  11.462   1.666
 1598SOL     OW 5043   5.792  10.235   2.933
 1598SOL    HW1 5044   5.771  10.146   2.907
 1598SOL    HW2 5045   5.712  10.268   2.973
 1599SOL     OW 5046   8.867  10.893   2.090
 1599SOL    HW1 5047   8.801  10.827   2.111
 1599SOL    HW2 5048   8.820  10.958   2.037
 1600SOL     OW 5049  11.348   9.880   6.452
 1600SOL    HW1 5050  11.258   9.908   6.436
 1600SOL    HW2 5051  11.385   9.866   6.365
 1601SOL     OW 5052  10.803  10.971   4.197
 1601SOL    HW1 5053  10.751  11.012   4.127
 1601SOL    HW2 5054  10.752  10.894   4.223
 1602SOL     OW 5055   4.183   4.520   4.999
 1602SOL    HW1 5056   4.112   4.558   4.948
 1602SOL    HW2 5057   4.263   4.545   4.952
 1603SOL     OW 5058   8.150  10.466   7.364
 1603SOL    HW1 5059   8.090  10.534   7.396
 1603SOL    HW2 5060   8.117  10.385   7.402
 1604SOL     OW 5061   5.486  12.615   6.885
 1604SOL    HW1 5062   5.563  12.580   6.840
 1604SOL    HW2 5063   5.505  12.707   6.898
 1605SOL     OW 5064  10.192   9.065   3.465
 1605SOL    HW1 5065  10.280   9.094   3.439
 1605SOL    HW2 5066  10.134   9.136   3.436
 1606SOL     OW 5067   2.588   1.961   0.013
 1606SOL    HW1 5068   2.638   1.980   0.093
 1606SOL    HW2 5069   2.561   1.869   0.023
 1607SOL     OW 5070   5.015   1.869   0.583
 1607SOL    HW1 5071   5.061   1.813   0.520
 1607SOL    HW2 5072   4.957   1.809   0.630
 1608SOL     OW 5073   4.611   2.445   1.215
 1608SOL    HW1 5074   4.537   2.384   1.225
 1608SOL    HW2 5075   4.687   2.396   1.248
 1609SOL     OW 5076  11.301  15.634   7.432
 1609SOL    HW1 5077  11.363  15.690   7.386
 1609SOL    HW2 5078  11.274  15.684   7.509
 1610SOL     OW 5079  10.837   7.996   2.016
 1610SOL    HW1 5080  10.836   8.090   2.035
 1610SOL    HW2 5081  10.746   7.975   1.995
 1611SOL     OW 5082   1.103  11.686   1.506
 1611SOL    HW1 5083   1.144  11.633   1.437
 1611SOL    HW2 5084   1.060  11.757   1.459
 1612SOL     OW 5085   6.647   1.142   1.365
 1612SOL    HW1 5086   6.638   1.236   1.379
 1612SOL    HW2 5087   6.679   1.133   1.275
 1613SOL     OW 5088  13.371   7.965   6.087
 1613SOL    HW1 5089  13.362   7.908   6.163
 1613SOL    HW2 5090  13.418   8.042   6.120
 1614SOL     OW 5091   4.443   3.935   4.915
 1614SOL    HW1 5092   4.348   3.928   4.910
 1614SOL    HW2 5093   4.472   3.941   4.824
 1615SOL     OW 5094   6.112  10.618   4.172
 1615SOL    HW1 5095   6.066  10.694   4.208
 1615SOL    HW2 5096   6.116  10.635   4.078
 1616SOL     OW 5097  11.197  10.410   1.778
 1616SOL    HW1 5098  11.181  10.360   1.698
 1616SOL    HW2 5099  11.128  10.383   1.838
 1617SOL     OW 5100   5.945  13.081   3.968
 1617SOL    HW1 5101   6.009  13.036   3.912
 1617SOL    HW2 5102   5.961  13.047   4.055
 1618SOL     OW 5103   9.883   5.128   1.634
 1618SOL    HW1 5104   9.947   5.121   1.563
 1618SOL    HW2 5105   9.858   5.221   1.634
 1619SOL     OW 5106   7.766   2.089   0.062
 1619SOL    HW1 5107  13.145   7.455   7.587
 1619SOL    HW2 5108   7.676   2.093   0.093
 1620SOL     OW 5109  13.493   5.672   6.912
 1620SOL    HW1 5110  13.513   5.761   6.882
 1620SOL    HW2 5111  13.471   5.683   7.005
 1621SOL     OW 5112  13.967   9.325   6.768
 1621SOL    HW1 5113  13.905   9.301   6.698
 1621SOL    HW2 5114  13.921   9.303   6.849
 1622SOL     OW 5115   3.311  12.766   3.970
 1622SOL    HW1 5116   3.287  12.837   3.910
 1622SOL    HW2 5117   3.402  12.783   3.993
 1623SOL     OW 5118  11.673  11.749   7.026
 1623SOL    HW1 5119  11.583  11.742   7.057
 1623SOL    HW2 5120  11.668  11.736   6.932
 1624SOL     OW 5121   4.244  10.757   0.216
 1624SOL    HW1 5122   4.258  10.851   0.206
 1624SOL    HW2 5123   4.235  10.724   0.126
 1625SOL     OW 5124   5.998  12.621   7.254
 1625SOL    HW1 5125   5.992  12.546   7.195
 1625SOL    HW2 5126   6.012  12.583   7.340
 1626SOL     OW 5127   9.330   4.069   2.713
 1626SOL    HW1 5128   9.281   4.101   2.788
 1626SOL    HW2 5129   9.356   4.148   2.666
 1627SOL     OW 5130   6.254   3.336   3.299
 1627SOL    HW1 5131   6.175   3.363   3.345
 1627SOL    HW2 5132   6.245   3.373   3.211
 1628SOL     OW 5133   3.309   7.054   1.895
 1628SOL    HW1 5134   3.386   7.110   1.905
 1628SOL    HW2 5135   3.251   7.081   1.966
 1629SOL     OW 5136   3.207  12.489   4.058
 1629SOL    HW1 5137   3.202  12.495   3.963
 1629SOL    HW2 5138   3.143  12.421   4.081
 1630SOL     OW 5139   8.193   4.790   5.835
 1630SOL    HW1 5140   8.239   4.783   5.752
 1630SOL    HW2 5141   8.173   4.883   5.844
 1631SOL     OW 5142   9.148   5.356   3.819
 1631SOL    HW1 5143   9.085   5.351   3.891
 1631SOL    HW2 5144   9.098   5.333   3.741
 1632SOL     OW 5145  10.249  10.633   4.403
 1632SOL    HW1 5146  10.223  10.552   4.448
 1632SOL    HW2 5147  10.283  10.689   4.472
 1633SOL     OW 5148   8.939   2.918   3.857
 1633SOL    HW1 5149   9.007   2.951   3.798
 1633SOL    HW2 5150   8.987   2.881   3.931
 1634SOL     OW 5151  11.050  11.278   6.968
 1634SOL    HW1 5152  11.054  11.361   6.921
 1634SOL    HW2 5153  10.957  11.260   6.979
 1635SOL     OW 5154  10.271  12.798   4.436
 1635SOL    HW1 5155  10.307  12.710   4.446
 1635SOL    HW2 5156  10.321  12.852   4.497
 1636SOL     OW 5157   5.188   7.339   4.387
 1636SOL    HW1 5158   5.141   7.265   4.426
 1636SOL    HW2 5159   5.170   7.412   4.446
 1637SOL     OW 5160  12.677   6.797   6.269
 1637SOL    HW1 5161  12.657   6.771   6.179
 1637SOL    HW2 5162  12.753   6.855   6.261
 1638SOL     OW 5163   8.661   4.893   2.765
 1638SOL    HW1 5164   8.655   4.988   2.781
 1638SOL    HW2 5165   8.588   4.874   2.707
 1639SOL     OW 5166  12.873   7.622   6.263
 1639SOL    HW1 5167  12.807   7.586   6.324
 1639SOL    HW2 5168  12.871   7.562   6.188
 1640SOL     OW 5169   5.267   8.353   3.564
 1640SOL    HW1 5170   5.347   8.353   3.511
 1640SOL    HW2 5171   5.227   8.438   3.548
 1641SOL     OW 5172  10.380  10.085   7.380
 1641SOL    HW1 5173  10.442  10.147   7.419
 1641SOL    HW2 5174  10.371  10.114   7.289
 1642SOL     OW 5175   3.440   8.256   4.592
 1642SOL    HW1 5176   3.366   8.286   4.646
 1642SOL    HW2 5177   3.417   8.283   4.503
 1643SOL     OW 5178   7.448   7.500   4.428
 1643SOL    HW1 5179   7.358   7.523   4.452
 1643SOL    HW2 5180   7.456   7.524   4.336
 1644SOL     OW 5181   3.308   5.473   3.342
 1644SOL    HW1 5182   3.333   5.528   3.268
 1644SOL    HW2 5183   3.273   5.534   3.407
 1645SOL     OW 5184   5.883  14.015   4.595
 1645SOL    HW1 5185   5.851  13.977   4.677
 1645SOL    HW2 5186   5.910  13.939   4.542
 1646SOL     OW 5187  11.670   6.303   6.142
 1646SOL    HW1 5188  11.742   6.271   6.196
 1646SOL    HW2 5189  11.593   6.293   6.197
 1647SOL     OW 5190  15.306   9.571   6.783
 1647SOL    HW1 5191  15.223   9.556   6.828
 1647SOL    HW2 5192  15.285   9.636   6.715
 1648SOL     OW 5193  11.387  14.179   4.881
 1648SOL    HW1 5194  11.407  14.099   4.832
 1648SOL    HW2 5195  11.468   3.456   4.878
 1649SOL     OW 5196   7.749   7.859   6.702
 1649SOL    HW1 5197   7.826   7.805   6.718
 1649SOL    HW2 5198   7.756   7.885   6.611
 1650SOL     OW 5199   1.302   7.459   1.383
 1650SOL    HW1 5200   1.321   7.383   1.328
 1650SOL    HW2 5201   1.388   7.488   1.415
 1651SOL     OW 5202   4.288   5.616   2.629
 1651SOL    HW1 5203   4.260   5.529   2.658
 1651SOL    HW2 5204   4.382   5.606   2.615
 1652SOL     OW 5205   3.637  12.049   2.210
 1652SOL    HW1 5206   3.733  12.052   2.209
 1652SOL    HW2 5207   3.613  12.029   2.119
 1653SOL     OW 5208   4.598   6.929   6.019
 1653SOL    HW1 5209   4.666   6.866   5.996
 1653SOL    HW2 5210   4.638   7.014   6.006
 1654SOL     OW 5211   5.138   5.369   0.956
 1654SOL    HW1 5212   5.206   5.378   1.023
 1654SOL    HW2 5213   5.060   5.343   1.005
 1655SOL     OW 5214  10.760   4.958   1.137
 1655SOL    HW1 5215  10.758   4.997   1.224
 1655SOL    HW2 5216  10.809   5.021   1.083
 1656SOL     OW 5217   7.300   6.210   6.672
 1656SOL    HW1 5218   7.269   6.271   6.738
 1656SOL    HW2 5219   7.221   6.187   6.621
 1657SOL     OW 5220   7.510   3.496   0.006
 1657SOL    HW1 5221   7.449   3.541   0.064
 1657SOL    HW2 5222   7.556   3.434   0.063
 1658SOL     OW 5223   7.853   4.667   2.523
 1658SOL    HW1 5224   7.901   4.737   2.479
 1658SOL    HW2 5225   7.883   4.587   2.480
 1659SOL     OW 5226   8.634  10.896   2.298
 1659SOL    HW1 5227   8.601  10.986   2.302
 1659SOL    HW2 5228   8.567  10.844   2.343
 1660SOL     OW 5229   7.934  13.209   3.561
 1660SOL    HW1 5230   8.011  13.153   3.572
 1660SOL    HW2 5231   7.942   2.468   3.472
 1661SOL     OW 5232   5.466  13.787   4.962
 1661SOL    HW1 5233   5.388  13.756   5.009
 1661SOL    HW2 5234   5.538  13.739   5.002
 1662SOL     OW 5235  11.503   9.282   4.900
 1662SOL    HW1 5236  11.578   9.245   4.947
 1662SOL    HW2 5237  11.528   9.372   4.882
 1663SOL     OW 5238   8.555   9.524   3.049
 1663SOL    HW1 5239   8.617   9.563   2.988
 1663SOL    HW2 5240   8.590   9.543   3.136
 1664SOL     OW 5241  11.245   7.003   6.055
 1664SOL    HW1 5242  11.249   7.098   6.066
 1664SOL    HW2 5243  11.300   6.985   5.979
 1665SOL     OW 5244   1.781   4.876   0.235
 1665SOL    HW1 5245   1.857   4.829   0.268
 1665SOL    HW2 5246   1.794   4.967   0.263
 1666SOL     OW 5247   8.515  10.982   7.322
 1666SOL    HW1 5248   8.600  10.971   7.363
 1666SOL    HW2 5249   8.504  10.905   7.267
 1667SOL     OW 5250   8.898  12.169   2.071
 1667SOL    HW1 5251   8.916   1.474   2.020
 1667SOL    HW2 5252   8.895  12.198   2.162
 1668SOL     OW 5253  12.834  11.516   3.579
 1668SOL    HW1 5254  12.798  11.441   3.627
 1668SOL    HW2 5255  12.789  11.592   3.615
 1669SOL     OW 5256  15.542   5.967   7.282
 1669SOL    HW1 5257  15.593   6.013   7.215
 1669SOL    HW2 5258  15.569   6.008   7.364
 1670SOL     OW 5259   5.216  12.772   4.398
 1670SOL    HW1 5260   5.192  12.702   4.459
 1670SOL    HW2 5261   5.306  12.752   4.372
 1671SOL     OW 5262   3.558   7.005   3.994
 1671SOL    HW1 5263   3.620   6.932   3.993
 1671SOL    HW2 5264   3.481   6.971   3.947
 1672SOL     OW 5265   4.259   2.383   3.330
 1672SOL    HW1 5266   4.207   2.325   3.273
 1672SOL    HW2 5267   4.304   2.441   3.269
 1673SOL     OW 5268   8.751   5.134   0.509
 1673SOL    HW1 5269   8.766   5.208   0.450
 1673SOL    HW2 5270   8.732   5.175   0.594
 1674SOL     OW 5271   3.722   9.086   2.673
 1674SOL    HW1 5272   3.793   9.026   2.651
 1674SOL    HW2 5273   3.669   9.038   2.737
 1675SOL     OW 5274  13.035   6.550   4.736
 1675SOL    HW1 5275  13.112   6.534   4.682
 1675SOL    HW2 5276  13.038   6.645   4.754
 1676SOL     OW 5277   3.525   5.356   2.683
 1676SOL    HW1 5278   3.599   5.393   2.635
 1676SOL    HW2 5279   3.551   5.266   2.704
 1677SOL     OW 5280   5.338  11.051   0.651
 1677SOL    HW1 5281   5.290  11.092   0.722
 1677SOL    HW2 5282   5.338  11.116   0.581
 1678SOL     OW 5283   5.448  10.121   5.021
 1678SOL    HW1 5284   5.527  10.141   5.071
 1678SOL    HW2 5285   5.477  10.063   4.951
 1679SOL     OW 5286  10.347   4.960   5.821
 1679SOL    HW1 5287  10.440   4.943   5.811
 1679SOL    HW2 5288  10.322   5.004   5.740
 1680SOL     OW 5289   1.960   7.492   2.152
 1680SOL    HW1 5290   1.869   7.492   2.183
 1680SOL    HW2 5291   2.009   7.538   2.221
 1681SOL     OW 5292   9.625  10.325   6.105
 1681SOL    HW1 5293   9.710  10.349   6.067
 1681SOL    HW2 5294   9.636  10.339   6.199
 1682SOL     OW 5295   8.360   2.698   3.419
 1682SOL    HW1 5296   8.437   2.650   3.388
 1682SOL    HW2 5297   8.345   2.666   3.508
 1683SOL     OW 5298  12.683   5.829   3.561
 1683SOL    HW1 5299  12.670   5.916   3.599
 1683SOL    HW2 5300  12.774   5.830   3.530
 1684SOL     OW 5301   7.934   3.577   1.216
 1684SOL    HW1 5302   7.883   3.595   1.295
 1684SOL    HW2 5303   7.909   3.647   1.155
 1685SOL     OW 5304   8.280  13.593   4.456
 1685SOL    HW1 5305   8.250  13.682   4.473
 1685SOL    HW2 5306   8.241  13.569   4.372
 1686SOL     OW 5307  10.037   9.401   5.547
 1686SOL    HW1 5308   9.988   9.320   5.562
 1686SOL    HW2 5309  10.128   9.373   5.540
 1687SOL     OW 5310  13.101  10.714   7.174
 1687SOL    HW1 5311  13.031  10.768   7.137
 1687SOL    HW2 5312  13.088  10.627   7.136
 1688SOL     OW 5313   9.041   8.300   5.537
 1688SOL    HW1 5314   9.058   8.212   5.571
 1688SOL    HW2 5315   8.997   8.284   5.453
 1689SOL     OW 5316  10.720   9.349   6.802
 1689SOL    HW1 5317  10.744   9.310   6.886
 1689SOL    HW2 5318  10.743   9.442   6.812
 1690SOL     OW 5319   6.099  14.547   6.192
 1690SOL    HW1 5320   6.178  14.585   6.231
 1690SOL    HW2 5321   6.053  14.622   6.154
 1691SOL     OW 5322   8.447   6.416   5.751
 1691SOL    HW1 5323   8.542   6.419   5.735
 1691SOL    HW2 5324   8.410   6.393   5.666
 1692SOL     OW 5325   3.734  11.260   1.650
 1692SOL    HW1 5326   3.642  11.264   1.621
 1692SOL    HW2 5327   3.738  11.321   1.724
 1693SOL     OW 5328   6.314   8.105   0.079
 1693SOL    HW1 5329   6.359   8.034   0.123
 1693SOL    HW2 5330   6.346   8.185   0.122
 1694SOL     OW 5331  11.544   4.332   4.715
 1694SOL    HW1 5332  11.581   4.365   4.633
 1694SOL    HW2 5333  11.557   4.403   4.778
 1695SOL     OW 5334  10.926  14.323   7.539
 1695SOL    HW1 5335  10.967  14.383   7.477
 1695SOL    HW2 5336  10.838  14.359   7.553
 1696SOL     OW 5337  12.085  13.744   4.240
 1696SOL    HW1 5338  12.127   3.044   4.282
 1696SOL    HW2 5339  12.116   2.973   4.149
 1697SOL     OW 5340   9.054   9.122   0.399
 1697SOL    HW1 5341   8.982   9.162   0.349
 1697SOL    HW2 5342   9.049   9.162   0.485
 1698SOL     OW 5343  11.030   7.853   6.781
 1698SOL    HW1 5344  11.112   7.833   6.827
 1698SOL    HW2 5345  11.057   7.876   6.692
 1699SOL     OW 5346  12.592   9.683   7.301
 1699SOL    HW1 5347  12.502   9.654   7.314
 1699SOL    HW2 5348  12.611   9.664   7.210
 1700SOL     OW 5349   5.690   8.901   7.339
 1700SOL    HW1 5350   5.639   8.983   7.335
 1700SOL    HW2 5351   5.757   8.918   7.405
 1701SOL     OW 5352   7.682  12.550   2.547
 1701SOL    HW1 5353   7.630   1.846   2.586
 1701SOL    HW2 5354   7.769  12.561   2.586
 1702SOL     OW 5355   9.555   5.218   6.984
 1702SOL    HW1 5356   9.520   5.205   6.896
 1702SOL    HW2 5357   9.478   5.233   7.039
 1703SOL     OW 5358   1.227   7.878   1.220
 1703SOL    HW1 5359   1.315   7.844   1.203
 1703SOL    HW2 5360   1.170   7.802   1.216
 1704SOL     OW 5361  13.628   9.757   5.776
 1704SOL    HW1 5362  13.724   9.761   5.775
 1704SOL    HW2 5363  13.605   9.737   5.685
 1705SOL     OW 5364  12.452  12.085   4.096
 1705SOL    HW1 5365  12.400  12.157   4.061
 1705SOL    HW2 5366  12.388  12.017   4.117
 1706SOL     OW 5367   6.087   5.286   6.593
 1706SOL    HW1 5368   6.038   5.290   6.511
 1706SOL    HW2 5369   6.179   5.285   6.566
 1707SOL     OW 5370   6.412   3.532   3.945
 1707SOL    HW1 5371   6.477   3.598   3.971
 1707SOL    HW2 5372   6.442   3.501   3.860
 1708SOL     OW 5373  11.439   8.739   4.356
 1708SOL    HW1 5374  11.517   8.795   4.351
 1708SOL    HW2 5375  11.370   8.791   4.316
 1709SOL     OW 5376   8.416   2.635   2.256
 1709SOL    HW1 5377   8.473   2.583   2.199
 1709SOL    HW2 5378   8.469   2.650   2.335
 1710SOL     OW 5379   9.957   4.107   5.572
 1710SOL    HW1 5380   9.923   4.078   5.657
 1710SOL    HW2 5381   9.901   4.063   5.508
 1711SOL     OW 5382   5.953   8.205   1.653
 1711SOL    HW1 5383   5.994   8.130   1.695
 1711SOL    HW2 5384   5.947   8.180   1.561
 1712SOL     OW 5385   9.714   3.477   0.535
 1712SOL    HW1 5386   9.633   3.428   0.547
 1712SOL    HW2 5387   9.778   3.434   0.592
 1713SOL     OW 5388  13.607  11.808   6.007
 1713SOL    HW1 5389  13.670  11.866   6.050
 1713SOL    HW2 5390  13.638  11.801   5.917
 1714SOL     OW 5391   8.464  10.407   0.961
 1714SOL    HW1 5392   8.442  10.410   0.868
 1714SOL    HW2 5393   8.556  10.431   0.965
 1715SOL     OW 5394   8.745  11.395   1.461
 1715SOL    HW1 5395   8.664  11.355   1.428
 1715SOL    HW2 5396   8.815  11.345   1.419
 1716SOL     OW 5397  11.799  12.285   2.997
 1716SOL    HW1 5398  11.892  12.273   3.014
 1716SOL    HW2 5399  11.777  12.216   2.934
 1717SOL     OW 5400  12.185  12.477   4.289
 1717SOL    HW1 5401  12.220  12.405   4.341
 1717SOL    HW2 5402  12.090  12.472   4.303
 1718SOL     OW 5403  11.857   6.022   3.318
 1718SOL    HW1 5404  11.776   6.068   3.295
 1718SOL    HW2 5405  11.853   5.940   3.268
 1719SOL     OW 5406  13.379   8.446   7.166
 1719SOL    HW1 5407  13.303   8.487   7.123
 1719SOL    HW2 5408  13.357   8.448   7.259
 1720SOL     OW 5409   6.451  10.160   1.687
 1720SOL    HW1 5410   6.481  10.185   1.599
 1720SOL    HW2 5411   6.374  10.105   1.672
 1721SOL     OW 5412   7.840   8.411   5.992
 1721SOL    HW1 5413   7.774   8.365   6.043
 1721SOL    HW2 5414   7.790   8.462   5.928
 1722SOL     OW 5415  14.124  13.032   5.280
 1722SOL    HW1 5416  14.079  13.088   5.216
 1722SOL    HW2 5417  14.163  13.093   5.342
 1723SOL     OW 5418   7.638  12.517   5.055
 1723SOL    HW1 5419   7.673  12.604   5.034
 1723SOL    HW2 5420   7.544  12.524   5.037
 1724SOL     OW 5421   3.135   8.012   0.800
 1724SOL    HW1 5422   3.102   7.924   0.819
 1724SOL    HW2 5423   3.196   8.000   0.727
 1725SOL     OW 5424  12.155   9.952   7.506
 1725SOL    HW1 5425  12.121   9.955   7.416
 1725SOL    HW2 5426  12.230  10.012   7.506
 1726SOL     OW 5427   3.929   8.759   1.665
 1726SOL    HW1 5428   3.854   8.706   1.639
 1726SOL    HW2 5429   3.955   8.723   1.750
 1727SOL     OW 5430   6.841  11.506   3.741
 1727SOL    HW1 5431   6.782  11.485   3.813
 1727SOL    HW2 5432   6.862  11.421   3.702
 1728SOL     OW 5433   4.226   3.017   3.866
 1728SOL    HW1 5434   4.193   3.074   3.935
 1728SOL    HW2 5435   4.321   3.020   3.877
 1729SOL     OW 5436   2.918   7.404   4.078
 1729SOL    HW1 5437   2.878   7.361   4.002
 1729SOL    HW2 5438  13.621   7.453   4.119
 1730SOL     OW 5439   8.399   7.275   3.695
 1730SOL    HW1 5440   8.417   7.336   3.766
 1730SOL    HW2 5441   8.317   7.232   3.720
 1731SOL     OW 5442  10.903  14.086   4.980
 1731SOL    HW1 5443  10.835  14.150   4.999
 1731SOL    HW2 5444  10.984  14.137   4.975
 1732SOL     OW 5445   9.423   8.407   3.698
 1732SOL    HW1 5446   9.358   8.387   3.765
 1732SOL    HW2 5447   9.504   8.369   3.731
 1733SOL     OW 5448   9.688   7.648   7.548
 1733SOL    HW1 5449   9.742   7.684   7.618
 1733SOL    HW2 5450   9.740   7.576   7.512
 1734SOL     OW 5451   5.868   5.576   4.581
 1734SOL    HW1 5452   5.951   5.529   4.572
 1734SOL    HW2 5453   5.802   5.511   4.555
 1735SOL     OW 5454   5.852  11.598   4.271
 1735SOL    HW1 5455   5.814  11.530   4.327
 1735SOL    HW2 5456   5.789  11.608   4.199
 1736SOL     OW 5457   9.219   3.129   1.346
 1736SOL    HW1 5458   9.245   3.070   1.275
 1736SOL    HW2 5459   9.297   3.180   1.365
 1737SOL     OW 5460  11.038  10.717   7.590
 1737SOL    HW1 5461  10.999  10.719   7.502
 1737SOL    HW2 5462   5.577   5.349   0.030
 1738SOL     OW 5463  12.133   7.777   7.292
 1738SOL    HW1 5464  12.047   7.775   7.249
 1738SOL    HW2 5465  12.166   7.865   7.275
 1739SOL     OW 5466   9.804   9.512   1.075
 1739SOL    HW1 5467   9.861   9.442   1.043
 1739SOL    HW2 5468   9.826   9.588   1.020
 1740SOL     OW 5469  10.576   5.622   6.735
 1740SOL    HW1 5470  10.621   5.643   6.817
 1740SOL    HW2 5471  10.605   5.689   6.673
 1741SOL     OW 5472  10.338  10.543   7.019
 1741SOL    HW1 5473  10.253  10.523   7.056
 1741SOL    HW2 5474  10.393  10.565   7.095
 1742SOL     OW 5475  12.044   8.257   5.363
 1742SOL    HW1 5476  11.990   8.333   5.341
 1742SOL    HW2 5477  12.131   8.279   5.330
 1743SOL     OW 5478   6.496   9.833   5.966
 1743SOL    HW1 5479   6.509   9.776   5.890
 1743SOL    HW2 5480   6.553   9.908   5.949
 1744SOL     OW 5481   4.616   3.067   3.523
 1744SOL    HW1 5482   4.648   3.108   3.442
 1744SOL    HW2 5483   4.554   3.130   3.559
 1745SOL     OW 5484  10.580   9.770   3.217
 1745SOL    HW1 5485  10.519   9.760   3.290
 1745SOL    HW2 5486  10.657   9.720   3.244
 1746SOL     OW 5487   8.636  12.713   6.768
 1746SOL    HW1 5488   8.667  12.623   6.773
 1746SOL    HW2 5489   8.680  12.749   6.691
 1747SOL     OW 5490   8.392  14.347   6.039
 1747SOL    HW1 5491   8.317  14.327   6.095
 1747SOL    HW2 5492   8.420  14.262   6.005
 1748SOL     OW 5493  12.869  11.435   4.411
 1748SOL    HW1 5494  12.781  11.408   4.437
 1748SOL    HW2 5495  12.876  11.409   4.319
 1749SOL     OW 5496   5.044   3.740   0.638
 1749SOL    HW1 5497   5.079   3.806   0.579
 1749SOL    HW2 5498   5.107   3.668   0.633
 1750SOL     OW 5499  10.573  11.672   4.412
 1750SOL    HW1 5500  10.607  11.640   4.329
 1750SOL    HW2 5501  10.486  11.631   4.419
 1751SOL     OW 5502   9.103   8.914   0.016
 1751SOL    HW1 5503  14.491  14.333   7.545
 1751SOL    HW2 5504   9.182   8.951   0.056
 1752SOL     OW 5505   6.863  10.667   1.333
 1752SOL    HW1 5506   6.885  10.577   1.359
 1752SOL    HW2 5507   6.851  10.714   1.416
 1753SOL     OW 5508  14.695  11.320   5.587
 1753SOL    HW1 5509  14.650  11.247   5.629
 1753SOL    HW2 5510  14.737  11.367   5.659
 1754SOL     OW 5511   9.688  10.448   5.755
 1754SOL    HW1 5512   9.737  10.418   5.832
 1754SOL    HW2 5513   9.706  10.542   5.751
 1755SOL     OW 5514  11.655  10.504   5.733
 1755SOL    HW1 5515  11.688  10.481   5.820
 1755SOL    HW2 5516  11.733  10.529   5.684
 1756SOL     OW 5517   9.324   8.499   5.419
 1756SOL    HW1 5518   9.409   8.517   5.377
 1756SOL    HW2 5519   9.319   8.564   5.490
 1757SOL     OW 5520   5.874   3.496   0.192
 1757SOL    HW1 5521   5.943   3.430   0.204
 1757SOL    HW2 5522   5.916   3.566   0.142
 1758SOL     OW 5523   3.191   7.360   0.309
 1758SOL    HW1 5524   3.246   7.296   0.264
 1758SOL    HW2 5525   3.129   7.390   0.242
 1759SOL     OW 5526   2.762   6.294   1.686
 1759SOL    HW1 5527   2.771   6.383   1.720
 1759SOL    HW2 5528   2.851   6.265   1.669
 1760SOL     OW 5529   7.197   4.026   3.507
 1760SOL    HW1 5530   7.291   4.033   3.490
 1760SOL    HW2 5531   7.156   4.082   3.442
 1761SOL     OW 5532  13.003   8.627   5.981
 1761SOL    HW1 5533  12.938   8.678   6.030
 1761SOL    HW2 5534  13.047   8.575   6.049
 1762SOL     OW 5535   5.394   4.745   3.756
 1762SOL    HW1 5536   5.463   4.729   3.693
 1762SOL    HW2 5537   5.439   4.749   3.841
 1763SOL     OW 5538   7.018  12.898   6.047
 1763SOL    HW1 5539   6.999  12.879   5.955
 1763SOL    HW2 5540   7.105  12.938   6.046
 1764SOL     OW 5541   4.360   5.815   5.160
 1764SOL    HW1 5542   4.299   5.888   5.164
 1764SOL    HW2 5543   4.417   5.835   5.086
 1765SOL     OW 5544   4.461   3.388   3.524
 1765SOL    HW1 5545   4.375   3.357   3.498
 1765SOL    HW2 5546   4.448   3.423   3.612
 1766SOL     OW 5547   6.030   6.484   4.697
 1766SOL    HW1 5548   6.045   6.574   4.724
 1766SOL    HW2 5549   5.935   6.477   4.688
 1767SOL     OW 5550   8.153   9.417   1.417
 1767SOL    HW1 5551   8.167   9.442   1.326
 1767SOL    HW2 5552   8.136   9.499   1.463
 1768SOL     OW 5553   5.968   5.198   3.623
 1768SOL    HW1 5554   5.950   5.143   3.546
 1768SOL    HW2 5555   6.064   5.202   3.627
 1769SOL     OW 5556   8.287   8.841   3.279
 1769SOL    HW1 5557   8.308   8.931   3.254
 1769SOL    HW2 5558   8.303   8.790   3.199
 1770SOL     OW 5559  11.299  13.880   6.357
 1770SOL    HW1 5560  11.313  13.851   6.267
 1770SOL    HW2 5561  11.386  13.905   6.388
 1771SOL     OW 5562   5.923  12.071   3.735
 1771SOL    HW1 5563   5.987  12.136   3.765
 1771SOL    HW2 5564   5.927  12.076   3.640
 1772SOL     OW 5565  10.633  14.096   5.722
 1772SOL    HW1 5566  10.681  14.149   5.658
 1772SOL    HW2 5567  10.541  14.121   5.710
 1773SOL     OW 5568   8.640   7.256   6.189
 1773SOL    HW1 5569   8.626   7.179   6.245
 1773SOL    HW2 5570   8.567   7.253   6.127
 1774SOL     OW 5571   6.931   4.533   4.591
 1774SOL    HW1 5572   7.023   4.538   4.564
 1774SOL    HW2 5573   6.929   4.464   4.657
 1775SOL     OW 5574   6.627   4.866   3.476
 1775SOL    HW1 5575   6.672   4.950   3.464
 1775SOL    HW2 5576   6.536   4.890   3.490
 1776SOL     OW 5577  10.135   8.869   0.947
 1776SOL    HW1 5578  10.169   8.958   0.935
 1776SOL    HW2 5579  10.181   8.836   1.024
 1777SOL     OW 5580  14.434   7.825   7.145
 1777SOL    HW1 5581  14.446   7.881   7.068
 1777SOL    HW2 5582  14.425   7.737   7.108
 1778SOL     OW 5583   8.128  12.504   7.112
 1778SOL    HW1 5584   8.125  12.469   7.201
 1778SOL    HW2 5585   8.130  12.426   7.056
 1779SOL     OW 5586   3.720  10.941   1.127
 1779SOL    HW1 5587   3.799  10.904   1.166
 1779SOL    HW2 5588   3.708  11.025   1.171
 1780SOL     OW 5589  10.219   9.882   1.144
 1780SOL    HW1 5590  10.133   9.923   1.141
 1780SOL    HW2 5591  10.210   9.812   1.209
 1781SOL     OW 5592   9.470   7.106   3.943
 1781SOL    HW1 5593   9.449   7.032   4.000
 1781SOL    HW2 5594   9.514   7.169   4.000
 1782SOL     OW 5595   6.663   6.963   5.119
 1782SOL    HW1 5596   6.750   6.991   5.091
 1782SOL    HW2 5597   6.638   7.027   5.185
 1783SOL     OW 5598  10.894   1.748   2.115
 1783SOL    HW1 5599  10.859   1.823   2.163
 1783SOL    HW2 5600  10.879   1.673   2.172
 1784SOL     OW 5601   5.697  13.797   5.490
 1784SOL    HW1 5602   5.726  13.765   5.576
 1784SOL    HW2 5603   5.710  13.892   5.495
 1785SOL     OW 5604   7.584   9.119   0.195
 1785SOL    HW1 5605   7.535   9.149   0.118
 1785SOL    HW2 5606   7.654   9.184   0.205
 1786SOL     OW 5607   2.665   8.101   1.515
 1786SOL    HW1 5608   2.684   8.030   1.576
 1786SOL    HW2 5609   2.720   8.174   1.543
 1787SOL     OW 5610   8.405  11.269   5.685
 1787SOL    HW1 5611   8.435  11.280   5.594
 1787SOL    HW2 5612   8.317  11.232   5.677
 1788SOL     OW 5613   8.072   8.290   6.072
 1788SOL    HW1 5614   7.986   8.326   6.052
 1788SOL    HW2 5615   8.133   8.360   6.048
 1789SOL     OW 5616  10.584   1.917   2.266
 1789SOL    HW1 5617  10.516   1.924   2.199
 1789SOL    HW2 5618  10.634   1.999   2.257
 1790SOL     OW 5619   5.742  13.230   3.706
 1790SOL    HW1 5620   5.720  13.208   3.797
 1790SOL    HW2 5621   5.835  13.250   3.708
 1791SOL     OW 5622   3.645   4.202   4.026
 1791SOL    HW1 5623   3.683   4.199   3.938
 1791SOL    HW2 5624   3.587   4.278   4.025
 1792SOL     OW 5625   6.266  10.764   1.881
 1792SOL    HW1 5626   6.216  10.825   1.826
 1792SOL    HW2 5627   6.250  10.678   1.843
 1793SOL     OW 5628   9.495   7.353   6.822
 1793SOL    HW1 5629   9.574   7.406   6.813
 1793SOL    HW2 5630   9.497   7.295   6.745
 1794SOL     OW 5631   7.957   7.922   0.536
 1794SOL    HW1 5632   7.989   7.995   0.590
 1794SOL    HW2 5633   7.862   7.931   0.538
 1795SOL     OW 5634   6.621   4.851   2.311
 1795SOL    HW1 5635   6.608   4.845   2.405
 1795SOL    HW2 5636   6.570   4.927   2.284
 1796SOL     OW 5637   9.138  11.931   7.125
 1796SOL    HW1 5638   9.051  11.968   7.135
 1796SOL    HW2 5639   9.132  11.873   7.049
 1797SOL     OW 5640   8.880   3.044   3.515
 1797SOL    HW1 5641   8.889   3.033   3.609
 1797SOL    HW2 5642   8.790   3.017   3.496
 1798SOL     OW 5643   3.685   8.888   1.324
 1798SOL    HW1 5644   3.703   8.827   1.253
 1798SOL    HW2 5645   3.611   8.941   1.292
 1799SOL     OW 5646   3.619   3.147   2.951
 1799SOL    HW1 5647   3.715   3.154   2.953
 1799SOL    HW2 5648   3.603   3.058   2.920
 1800SOL     OW 5649  11.208  10.331   4.830
 1800SOL    HW1 5650  11.295  10.371   4.833
 1800SOL    HW2 5651  11.148  10.405   4.834
 1801SOL     OW 5652   3.587   6.766   3.554
 1801SOL    HW1 5653   3.508   6.784   3.504
 1801SOL    HW2 5654   3.658   6.767   3.490
 1802SOL     OW 5655  10.255  10.215   6.437
 1802SOL    HW1 5656  10.304  10.148   6.390
 1802SOL    HW2 5657  10.282  10.206   6.529
 1803SOL     OW 5658  10.573  13.969   5.237
 1803SOL    HW1 5659  10.615  14.030   5.298
 1803SOL    HW2 5660  10.530  13.905   5.294
 1804SOL     OW 5661   5.043   3.980   5.438
 1804SOL    HW1 5662   4.965   3.991   5.493
 1804SOL    HW2 5663   5.038   3.889   5.409
 1805SOL     OW 5664   7.288   8.808   6.536
 1805SOL    HW1 5665   7.283   8.869   6.464
 1805SOL    HW2 5666   7.327   8.729   6.498
 1806SOL     OW 5667  11.770  11.188   3.690
 1806SOL    HW1 5668  11.801  11.211   3.602
 1806SOL    HW2 5669  11.850  11.170   3.739
 1807SOL     OW 5670   2.282   7.907   1.428
 1807SOL    HW1 5671   2.376   7.888   1.431
 1807SOL    HW2 5672   2.241   7.827   1.461
 1808SOL     OW 5673  11.957  11.545   5.841
 1808SOL    HW1 5674  11.980  11.548   5.934
 1808SOL    HW2 5675  11.989  11.629   5.806
 1809SOL     OW 5676   5.628   5.531   1.651
 1809SOL    HW1 5677   5.625   5.519   1.556
 1809SOL    HW2 5678   5.554   5.590   1.669
 1810SOL     OW 5679  13.598   5.458   6.473
 1810SOL    HW1 5680  13.618   5.548   6.497
 1810SOL    HW2 5681  13.597   5.410   6.556
 1811SOL     OW 5682   5.082  12.204   2.751
 1811SOL    HW1 5683   5.068  12.298   2.758
 1811SOL    HW2 5684   5.177  12.194   2.742
 1812SOL     OW 5685   3.186  10.758   3.111
 1812SOL    HW1 5686   3.227  10.829   3.160
 1812SOL    HW2 5687   3.102  10.744   3.155
 1813SOL     OW 5688  13.451   4.626   5.084
 1813SOL    HW1 5689  13.395   4.630   5.007
 1813SOL    HW2 5690  13.448   4.715   5.120
 1814SOL     OW 5691  11.986   5.190   2.666
 1814SOL    HW1 5692  11.981   5.259   2.600
 1814SOL    HW2 5693  11.977   5.236   2.749
 1815SOL     OW 5694   4.090   2.843   3.186
 1815SOL    HW1 5695   4.077   2.928   3.229
 1815SOL    HW2 5696   4.120   2.785   3.256
 1816SOL     OW 5697  14.443   9.611   7.439
 1816SOL    HW1 5698  14.476   9.600   7.350
 1816SOL    HW2 5699  14.349   9.624   7.429
 1817SOL     OW 5700   7.922   4.857   1.976
 1817SOL    HW1 5701   7.952   4.901   1.897
 1817SOL    HW2 5702   7.857   4.917   2.014
 1818SOL     OW 5703  13.953  13.128   5.092
 1818SOL    HW1 5704  13.965  13.089   5.005
 1818SOL    HW2 5705  13.887  13.196   5.079
 1819SOL     OW 5706   9.934   8.793   6.321
 1819SOL    HW1 5707   9.912   8.701   6.333
 1819SOL    HW2 5708   9.866   8.826   6.262
 1820SOL     OW 5709   6.016   9.595   7.072
 1820SOL    HW1 5710   5.945   9.631   7.123
 1820SOL    HW2 5711   6.033   9.509   7.111
 1821SOL     OW 5712   6.307   4.986   6.321
 1821SOL    HW1 5713   6.219   4.973   6.355
 1821SOL    HW2 5714   6.309   5.078   6.294
 1822SOL     OW 5715  12.489  13.451   6.159
 1822SOL    HW1 5716  12.427  13.389   6.196
 1822SOL    HW2 5717  12.556  13.461   6.227
 1823SOL     OW 5718   2.518   6.830   1.517
 1823SOL    HW1 5719   2.528   6.740   1.545
 1823SOL    HW2 5720   2.604   6.869   1.527
 1824SOL     OW 5721   7.385   8.523   2.590
 1824SOL    HW1 5722   7.397   8.547   2.682
 1824SOL    HW2 5723   7.462   8.558   2.546
 1825SOL     OW 5724   2.408   8.186   1.605
 1825SOL    HW1 5725   2.341   8.224   1.549
 1825SOL    HW2 5726   2.466   8.138   1.545
 1826SOL     OW 5727  11.100  13.495   4.099
 1826SOL    HW1 5728  11.128  13.522   4.012
 1826SOL    HW2 5729  11.005  13.487   4.093
 1827SOL     OW 5730   6.836   7.800   0.752
 1827SOL    HW1 5731   6.813   7.716   0.792
 1827SOL    HW2 5732   6.912   7.781   0.697
 1828SOL     OW 5733   8.341   6.400   2.638
 1828SOL    HW1 5734   8.247   6.391   2.652
 1828SOL    HW2 5735   8.349   6.427   2.547
 1829SOL     OW 5736   6.061   7.141   0.389
 1829SOL    HW1 5737   6.117   7.158   0.314
 1829SOL    HW2 5738   6.107   7.183   0.463
 1830SOL     OW 5739   9.707   5.911   3.889
 1830SOL    HW1 5740   9.798   5.914   3.860
 1830SOL    HW2 5741   9.656   5.946   3.816
 1831SOL     OW 5742   9.604   4.175   5.691
 1831SOL    HW1 5743   9.693   4.208   5.674
 1831SOL    HW2 5744   9.565   4.166   5.604
 1832SOL     OW 5745   5.931   3.742   0.949
 1832SOL    HW1 5746   5.894   3.796   0.879
 1832SOL    HW2 5747   5.955   3.660   0.906
 1833SOL     OW 5748  10.345  16.040   7.460
 1833SOL    HW1 5749  10.433   5.302   7.452
 1833SOL    HW2 5750  10.328  16.039   7.554
 1834SOL     OW 5751  11.946  10.974   5.824
 1834SOL    HW1 5752  11.853  10.958   5.843
 1834SOL    HW2 5753  11.960  11.065   5.849
 1835SOL     OW 5754   7.084  14.588   6.577
 1835SOL    HW1 5755   7.123  14.533   6.509
 1835SOL    HW2 5756   7.055  14.527   6.645
 1836SOL     OW 5757   5.717   5.971   3.334
 1836SOL    HW1 5758   5.671   6.045   3.295
 1836SOL    HW2 5759   5.809   5.995   3.330
 1837SOL     OW 5760   6.584   9.348   7.451
 1837SOL    HW1 5761   6.611   9.363   7.542
 1837SOL    HW2 5762   6.618   9.423   7.403
 1838SOL     OW 5763   3.852   8.719   0.758
 1838SOL    HW1 5764   3.912   8.671   0.701
 1838SOL    HW2 5765   3.765   8.703   0.721
 1839SOL     OW 5766   5.312   8.473   2.779
 1839SOL    HW1 5767   5.248   8.543   2.794
 1839SOL    HW2 5768   5.281   8.429   2.700
 1840SOL     OW 5769   5.983  13.254   6.756
 1840SOL    HW1 5770   5.994  13.225   6.846
 1840SOL    HW2 5771   6.061  13.223   6.711
 1841SOL     OW 5772   5.269  12.058   4.520
 1841SOL    HW1 5773   5.186  12.011   4.509
 1841SOL    HW2 5774   5.332  12.009   4.468
 1842SOL     OW 5775   2.941   5.853   2.965
 1842SOL    HW1 5776   3.003   5.780   2.962
 1842SOL    HW2 5777   2.874   5.829   2.900
 1843SOL     OW 5778   6.199   5.635   1.973
 1843SOL    HW1 5779   6.174   5.720   1.937
 1843SOL    HW2 5780   6.236   5.656   2.060
 1844SOL     OW 5781   5.497  11.046   7.205
 1844SOL    HW1 5782   5.475  11.139   7.204
 1844SOL    HW2 5783   5.544  11.031   7.123
 1845SOL     OW 5784   5.169  10.438   5.750
 1845SOL    HW1 5785   5.234  10.486   5.801
 1845SOL    HW2 5786   5.098  10.420   5.812
 1846SOL     OW 5787   6.433  11.463   3.254
 1846SOL    HW1 5788   6.392  11.393   3.304
 1846SOL    HW2 5789   6.498  11.500   3.314
 1847SOL     OW 5790   2.333   4.358   2.950
 1847SOL    HW1 5791   2.308   4.440   2.908
 1847SOL    HW2 5792   2.324   4.375   3.044
 1848SOL     OW 5793   8.093   3.299   4.358
 1848SOL    HW1 5794   8.049   3.363   4.415
 1848SOL    HW2 5795   8.169   3.346   4.324
 1849SOL     OW 5796   8.583   4.473   4.348
 1849SOL    HW1 5797   8.615   4.473   4.258
 1849SOL    HW2 5798   8.518   4.403   4.350
 1850SOL     OW 5799   5.335   6.643   6.028
 1850SOL    HW1 5800   5.271   6.698   6.073
 1850SOL    HW2 5801   5.408   6.702   6.008
 1851SOL     OW 5802  14.188  10.031   5.725
 1851SOL    HW1 5803  14.208  10.061   5.814
 1851SOL    HW2 5804  14.260   9.972   5.703
 1852SOL     OW 5805   3.409   3.801   4.591
 1852SOL    HW1 5806   3.399   3.771   4.681
 1852SOL    HW2 5807   3.442   3.891   4.599
 1853SOL     OW 5808  10.641  11.849   6.928
 1853SOL    HW1 5809  10.547  11.832   6.936
 1853SOL    HW2 5810  10.653  11.936   6.967
 1854SOL     OW 5811  10.165   7.265   3.184
 1854SOL    HW1 5812  10.145   7.357   3.170
 1854SOL    HW2 5813  10.102   7.237   3.251
 1855SOL     OW 5814   5.133   7.476   2.817
 1855SOL    HW1 5815   5.134   7.472   2.913
 1855SOL    HW2 5816   5.072   7.407   2.791
 1856SOL     OW 5817  11.187   6.144   6.594
 1856SOL    HW1 5818  11.119   6.210   6.581
 1856SOL    HW2 5819  11.235   6.174   6.671
 1857SOL     OW 5820   8.165   9.240   0.569
 1857SOL    HW1 5821   8.120   9.206   0.491
 1857SOL    HW2 5822   8.252   9.265   0.539
 1858SOL     OW 5823   6.531   7.883   2.164
 1858SOL    HW1 5824   6.514   7.894   2.257
 1858SOL    HW2 5825   6.623   7.907   2.153
 1859SOL     OW 5826   1.171   2.179   1.454
 1859SOL    HW1 5827   1.205   2.268   1.461
 1859SOL    HW2 5828   1.113   2.170   1.530
 1860SOL     OW 5829  15.323   6.729   7.344
 1860SOL    HW1 5830  15.352   6.698   7.430
 1860SOL    HW2 5831  15.228   6.715   7.344
 1861SOL     OW 5832   5.481   9.314   0.142
 1861SOL    HW1 5833   5.445   9.401   0.156
 1861SOL    HW2 5834   5.505   9.313   0.049
 1862SOL     OW 5835   8.733   3.667   0.258
 1862SOL    HW1 5836   8.672   3.729   0.219
 1862SOL    HW2 5837   8.792   3.721   0.311
 1863SOL     OW 5838   2.792   7.245   1.166
 1863SOL    HW1 5839   2.722   7.219   1.226
 1863SOL    HW2 5840   2.805   7.339   1.184
 1864SOL     OW 5841   8.464   3.889   1.866
 1864SOL    HW1 5842   8.502   3.801   1.877
 1864SOL    HW2 5843   8.375   3.880   1.899
 1865SOL     OW 5844   1.366   9.031   1.470
 1865SOL    HW1 5845   1.349   9.123   1.450
 1865SOL    HW2 5846   1.335   8.983   1.393
 1866SOL     OW 5847   4.150   3.844   1.546
 1866SOL    HW1 5848   4.183   3.764   1.506
 1866SOL    HW2 5849   4.146   3.907   1.474
 1867SOL     OW 5850   6.370   4.208   4.289
 1867SOL    HW1 5851   6.422   4.287   4.304
 1867SOL    HW2 5852   6.403   4.145   4.352
 1868SOL     OW 5853  15.803  13.594   7.514
 1868SOL    HW1 5854  15.823  13.555   7.429
 1868SOL    HW2 5855  15.712  13.567   7.531
 1869SOL     OW 5856   7.576   5.006   5.878
 1869SOL    HW1 5857   7.521   4.943   5.832
 1869SOL    HW2 5858   7.557   5.090   5.836
 1870SOL     OW 5859   3.900   6.786   1.227
 1870SOL    HW1 5860   3.842   6.748   1.161
 1870SOL    HW2 5861   3.929   6.869   1.188
 1871SOL     OW 5862   8.131   4.015   4.869
 1871SOL    HW1 5863   8.213   3.971   4.847
 1871SOL    HW2 5864   8.104   4.058   4.787
 1872SOL     OW 5865  10.835  12.899   7.556
 1872SOL    HW1 5866  10.870  12.822   7.601
 1872SOL    HW2 5867  10.909  12.960   7.552
 1873SOL     OW 5868  12.703   4.242   3.591
 1873SOL    HW1 5869  12.751   4.302   3.647
 1873SOL    HW2 5870  12.615   4.239   3.629
 1874SOL     OW 5871  11.736   4.598   5.791
 1874SOL    HW1 5872  11.791   4.603   5.714
 1874SOL    HW2 5873  11.652   4.564   5.759
 1875SOL     OW 5874  10.850   6.362   1.997
 1875SOL    HW1 5875  10.803   6.279   1.989
 1875SOL    HW2 5876  10.941   6.340   1.976
 1876SOL     OW 5877   6.549  10.077   3.109
 1876SOL    HW1 5878   6.503   9.993   3.098
 1876SOL    HW2 5879   6.642  10.054   3.109
 1877SOL     OW 5880   5.767   5.586   2.173
 1877SOL    HW1 5881   5.818   5.652   2.127
 1877SOL    HW2 5882   5.830   5.516   2.191
 1878SOL     OW 5883   7.091   5.456   4.305
 1878SOL    HW1 5884   7.090   5.502   4.388
 1878SOL    HW2 5885   7.127   5.369   4.326
 1879SOL     OW 5886   9.461   5.461   6.395
 1879SOL    HW1 5887   9.535   5.521   6.383
 1879SOL    HW2 5888   9.454   5.450   6.490
 1880SOL     OW 5889  14.622   5.948   6.616
 1880SOL    HW1 5890  14.650   5.888   6.547
 1880SOL    HW2 5891  14.696   6.008   6.626
 1881SOL     OW 5892   9.860   6.214   5.840
 1881SOL    HW1 5893   9.780   6.212   5.787
 1881SOL    HW2 5894   9.890   6.123   5.842
 1882SOL     OW 5895   5.906  12.135   4.812
 1882SOL    HW1 5896   5.987  12.147   4.861
 1882SOL    HW2 5897   5.932  12.086   4.735
 1883SOL     OW 5898  14.880   8.003   6.372
 1883SOL    HW1 5899  14.939   7.928   6.359
 1883SOL    HW2 5900  14.933   8.067   6.420
 1884SOL     OW 5901   5.165  11.779   3.655
 1884SOL    HW1 5902   5.224  11.850   3.681
 1884SOL    HW2 5903   5.080  11.804   3.689
 1885SOL     OW 5904  11.587   9.624   5.594
 1885SOL    HW1 5905  11.679   9.598   5.594
 1885SOL    HW2 5906  11.585   9.708   5.641
 1886SOL     OW 5907   4.254   2.022   0.719
 1886SOL    HW1 5908   4.235   2.104   0.673
 1886SOL    HW2 5909   4.169   1.991   0.749
 1887SOL     OW 5910  12.676   4.976   4.493
 1887SOL    HW1 5911  12.599   5.016   4.453
 1887SOL    HW2 5912  12.750   5.020   4.452
 1888SOL     OW 5913  11.561   8.427   6.221
 1888SOL    HW1 5914  11.495   8.379   6.171
 1888SOL    HW2 5915  11.519   8.444   6.305
 1889SOL     OW 5916   5.397   6.458   3.697
 1889SOL    HW1 5917   5.389   6.497   3.610
 1889SOL    HW2 5918   5.335   6.384   3.695
 1890SOL     OW 5919  13.399   6.411   6.396
 1890SOL    HW1 5920  13.460   6.341   6.417
 1890SOL    HW2 5921  13.318   6.367   6.372
 1891SOL     OW 5922  10.424  10.644   1.862
 1891SOL    HW1 5923  10.502  10.679   1.904
 1891SOL    HW2 5924  10.429  10.675   1.772
 1892SOL     OW 5925   7.729   1.523   2.087
 1892SOL    HW1 5926   7.668   1.541   2.015
 1892SOL    HW2 5927   7.710   1.591   2.151
 1893SOL     OW 5928   2.828  10.217   0.914
 1893SOL    HW1 5929   2.838  10.263   0.998
 1893SOL    HW2 5930   2.803  10.285   0.852
 1894SOL     OW 5931   6.644   5.787   4.943
 1894SOL    HW1 5932   6.599   5.799   5.027
 1894SOL    HW2 5933   6.616   5.701   4.912
 1895SOL     OW 5934   5.202   4.147   2.258
 1895SOL    HW1 5935   5.129   4.199   2.291
 1895SOL    HW2 5936   5.161   4.069   2.220
 1896SOL     OW 5937  12.081   7.514   5.167
 1896SOL    HW1 5938  11.990   7.543   5.171
 1896SOL    HW2 5939  12.077   7.421   5.190
 1897SOL     OW 5940   8.423  11.831   3.094
 1897SOL    HW1 5941   8.332  11.804   3.111
 1897SOL    HW2 5942   8.446  11.786   3.013
 1898SOL     OW 5943   8.023   1.090   0.428
 1898SOL    HW1 5944   7.987   1.004   0.447
 1898SOL    HW2 5945   8.047   1.086   0.335
 1899SOL     OW 5946  10.129   9.998   0.065
 1899SOL    HW1 5947  15.566  15.360   7.606
 1899SOL    HW2 5948  10.135   9.922   0.123
 1900SOL     OW 5949   7.726  11.273   1.233
 1900SOL    HW1 5950   7.751  11.362   1.208
 1900SOL    HW2 5951   7.632  11.278   1.249
 1901SOL     OW 5952   6.051   7.990   6.433
 1901SOL    HW1 5953   6.049   7.924   6.364
 1901SOL    HW2 5954   6.087   8.068   6.391
 1902SOL     OW 5955  10.934   1.979   0.373
 1902SOL    HW1 5956  10.902   1.892   0.394
 1902SOL    HW2 5957  10.973   1.970   0.285
 1903SOL     OW 5958  12.298   1.810   2.497
 1903SOL    HW1 5959  12.236  12.559   2.565
 1903SOL    HW2 5960  12.255   1.784   2.415
 1904SOL     OW 5961  11.741   4.908   4.062
 1904SOL    HW1 5962  11.760   4.955   3.981
 1904SOL    HW2 5963  11.780   4.821   4.049
 1905SOL     OW 5964   7.486   8.964   6.743
 1905SOL    HW1 5965   7.438   9.035   6.784
 1905SOL    HW2 5966   7.444   8.951   6.659
 1906SOL     OW 5967  12.811  14.079   6.148
 1906SOL    HW1 5968  12.852  14.020   6.085
 1906SOL    HW2 5969  12.870  14.153   6.154
 1907SOL     OW 5970   8.192   6.991   7.274
 1907SOL    HW1 5971   8.266   6.992   7.214
 1907SOL    HW2 5972   8.177   7.083   7.296
 1908SOL     OW 5973   8.928  15.366   7.442
 1908SOL    HW1 5974   9.010  15.398   7.479
 1908SOL    HW2 5975   8.877  15.445   7.424
 1909SOL     OW 5976   8.841  13.500   5.756
 1909SOL    HW1 5977   8.851  13.587   5.795
 1909SOL    HW2 5978   8.769  13.460   5.805
 1910SOL     OW 5979   5.854   6.811   1.064
 1910SOL    HW1 5980   5.854   6.907   1.071
 1910SOL    HW2 5981   5.943   6.790   1.036
 1911SOL     OW 5982   5.225  11.008   5.044
 1911SOL    HW1 5983   5.184  10.975   5.124
 1911SOL    HW2 5984   5.230  11.102   5.057
 1912SOL     OW 5985  11.231  15.110   6.862
 1912SOL    HW1 5986  11.263  15.050   6.929
 1912SOL    HW2 5987  11.310  15.153   6.828
 1913SOL     OW 5988  11.414   9.164   6.470
 1913SOL    HW1 5989  11.364   9.245   6.480
 1913SOL    HW2 5990  11.352   9.094   6.490
 1914SOL     OW 5991   7.050   7.008   5.516
 1914SOL    HW1 5992   7.076   6.917   5.533
 1914SOL    HW2 5993   7.021   7.041   5.601
 1915SOL     OW 5994   1.435   1.096   0.319
 1915SOL    HW1 5995   1.384   1.157   0.265
 1915SOL    HW2 5996   1.370   1.033   0.351
 1916SOL     OW 5997  11.633   4.892   4.839
 1916SOL    HW1 5998  11.590   4.893   4.753
 1916SOL    HW2 5999  11.695   4.965   4.835
 1917SOL     OW 6000   4.800   1.316   1.327
 1917SOL    HW1 6001   4.740   1.388   1.308
 1917SOL    HW2 6002   4.812   1.272   1.243
 1918SOL     OW 6003   6.485  14.376   7.603
 1918SOL    HW1 6004   1.162   8.938   0.035
 1918SOL    HW2 6005   6.482  14.331   7.518
 1919SOL     OW 6006  10.503   3.678   3.476
 1919SOL    HW1 6007  10.538   3.654   3.390
 1919SOL    HW2 6008  10.408   3.669   3.467
 1920SOL     OW 6009   8.611   9.508   0.753
 1920SOL    HW1 6010   8.529   9.464   0.774
 1920SOL    HW2 6011   8.612   9.585   0.810
 1921SOL     OW 6012   5.002   8.166   0.384
 1921SOL    HW1 6013   5.069   8.099   0.371
 1921SOL    HW2 6014   4.980   8.196   0.296
 1922SOL     OW 6015   6.691   7.067   5.435
 1922SOL    HW1 6016   6.597   7.060   5.452
 1922SOL    HW2 6017   6.700   7.139   5.373
 1923SOL     OW 6018  13.835   8.336   7.337
 1923SOL    HW1 6019  13.877   8.258   7.302
 1923SOL    HW2 6020  13.751   8.305   7.372
 1924SOL     OW 6021   4.313  11.593   3.151
 1924SOL    HW1 6022   4.221  11.612   3.171
 1924SOL    HW2 6023   4.338  11.659   3.087
 1925SOL     OW 6024  10.550   8.101   3.678
 1925SOL    HW1 6025  10.479   8.150   3.636
 1925SOL    HW2 6026  10.564   8.025   3.622
 1926SOL     OW 6027  13.119   5.259   4.822
 1926SOL    HW1 6028  13.032   5.231   4.794
 1926SOL    HW2 6029  13.177   5.189   4.792
 1927SOL     OW 6030  10.502   6.835   7.350
 1927SOL    HW1 6031  10.487   6.929   7.362
 1927SOL    HW2 6032  10.516   6.802   7.438
 1928SOL     OW 6033  11.278   4.354   3.700
 1928SOL    HW1 6034  11.339   4.394   3.762
 1928SOL    HW2 6035  11.333   4.296   3.647
 1929SOL     OW 6036   9.665  11.795   3.125
 1929SOL    HW1 6037   9.646  11.885   3.151
 1929SOL    HW2 6038   9.676  11.748   3.208
 1930SOL     OW 6039   7.863   2.845   0.056
 1930SOL    HW1 6040   7.884   2.901   0.130
 1930SOL    HW2 6041   7.906   2.761   0.076
 1931SOL     OW 6042   6.730   6.410   1.875
 1931SOL    HW1 6043   6.725   6.497   1.835
 1931SOL    HW2 6044   6.819   6.403   1.909
 1932SOL     OW 6045  13.074   8.732   4.212
 1932SOL    HW1 6046  13.147   8.720   4.151
 1932SOL    HW2 6047  13.004   8.771   4.159
 1933SOL     OW 6048   5.450  13.199   3.732
 1933SOL    HW1 6049   5.465  13.273   3.791
 1933SOL    HW2 6050   5.479  13.123   3.782
 1934SOL     OW 6051   3.340   3.810   3.201
 1934SOL    HW1 6052   3.425   3.851   3.186
 1934SOL    HW2 6053   3.309   3.786   3.113
 1935SOL     OW 6054   7.235   2.319   1.148
 1935SOL    HW1 6055   7.169   2.263   1.107
 1935SOL    HW2 6056   7.185   2.393   1.183
 1936SOL     OW 6057  13.094  15.722   7.402
 1936SOL    HW1 6058  13.035  15.667   7.454
 1936SOL    HW2 6059  13.118  15.793   7.461
 1937SOL     OW 6060  10.641   6.684   0.001
 1937SOL    HW1 6061  15.975  11.993   7.607
 1937SOL    HW2 6062  10.667   6.681   0.093
 1938SOL     OW 6063  10.868   2.936   0.864
 1938SOL    HW1 6064  10.920   3.015   0.850
 1938SOL    HW2 6065  10.920   2.882   0.923
 1939SOL     OW 6066   4.833   3.851   2.551
 1939SOL    HW1 6067   4.847   3.940   2.519
 1939SOL    HW2 6068   4.913   3.828   2.597
 1940SOL     OW 6069   2.709  11.071   0.532
 1940SOL    HW1 6070   2.774  11.021   0.483
 1940SOL    HW2 6071   2.625  11.030   0.510
 1941SOL     OW 6072   4.977   9.700   3.095
 1941SOL    HW1 6073   5.034   9.764   3.138
 1941SOL    HW2 6074   5.037   9.635   3.059
 1942SOL     OW 6075   1.763  11.788   1.616
 1942SOL    HW1 6076   1.771  11.701   1.655
 1942SOL    HW2 6077   1.808  11.847   1.677
 1943SOL     OW 6078   6.865   7.925   3.501
 1943SOL    HW1 6079   6.942   7.923   3.444
 1943SOL    HW2 6080   6.795   7.887   3.448
 1944SOL     OW 6081  15.363   5.270   6.841
 1944SOL    HW1 6082  15.291   5.329   6.865
 1944SOL    HW2 6083  15.356   5.198   6.904
 1945SOL     OW 6084  15.036   5.505   7.108
 1945SOL    HW1 6085  15.012   5.557   7.185
 1945SOL    HW2 6086  14.982   5.426   7.117
 1946SOL     OW 6087   6.956   2.517   1.102
 1946SOL    HW1 6088   6.878   2.558   1.138
 1946SOL    HW2 6089   7.028   2.555   1.152
 1947SOL     OW 6090  12.271  14.383   7.141
 1947SOL    HW1 6091  12.291  14.430   7.221
 1947SOL    HW2 6092  12.354  14.376   7.095
 1948SOL     OW 6093   5.126  13.379   4.356
 1948SOL    HW1 6094   5.083  13.300   4.322
 1948SOL    HW2 6095   5.212  13.379   4.314
 1949SOL     OW 6096   7.806   6.492   6.927
 1949SOL    HW1 6097   7.716   6.462   6.913
 1949SOL    HW2 6098   7.818   6.485   7.022
 1950SOL     OW 6099   6.556  10.824   7.334
 1950SOL    HW1 6100   6.614  10.786   7.268
 1950SOL    HW2 6101   6.614  10.845   7.407
 1951SOL     OW 6102   8.885   5.352   1.026
 1951SOL    HW1 6103   8.856   5.264   1.052
 1951SOL    HW2 6104   8.815   5.384   0.969
 1952SOL     OW 6105  11.977  10.702   3.270
 1952SOL    HW1 6106  12.073  10.704   3.263
 1952SOL    HW2 6107  11.949  10.645   3.198
 1953SOL     OW 6108  11.591   8.740   7.591
 1953SOL    HW1 6109   6.221   3.366   0.065
 1953SOL    HW2 6110  11.496   8.725   7.587
 1954SOL     OW 6111   5.496   3.035   2.819
 1954SOL    HW1 6112   5.555   3.051   2.745
 1954SOL    HW2 6113   5.448   3.117   2.830
 1955SOL     OW 6114   7.668  11.466   5.233
 1955SOL    HW1 6115   7.756  11.497   5.256
 1955SOL    HW2 6116   7.618  11.545   5.216
 1956SOL     OW 6117   8.178  11.098   4.239
 1956SOL    HW1 6118   8.158  11.163   4.172
 1956SOL    HW2 6119   8.242  11.141   4.296
 1957SOL     OW 6120   3.999  12.019   3.923
 1957SOL    HW1 6121   4.077  12.072   3.938
 1957SOL    HW2 6122   3.932  12.057   3.980
 1958SOL     OW 6123  12.798   4.854   5.532
 1958SOL    HW1 6124  12.712   4.839   5.573
 1958SOL    HW2 6125  12.833   4.930   5.579
 1959SOL     OW 6126  10.450  11.337   1.649
 1959SOL    HW1 6127  10.448  11.243   1.669
 1959SOL    HW2 6128  10.421  11.379   1.730
 1960SOL     OW 6129  11.040   9.288   6.667
 1960SOL    HW1 6130  11.128   9.296   6.703
 1960SOL    HW2 6131  11.026   9.371   6.621
 1961SOL     OW 6132   8.201   4.645   1.552
 1961SOL    HW1 6133   8.189   4.700   1.629
 1961SOL    HW2 6134   8.291   4.661   1.525
 1962SOL     OW 6135  11.086  12.625   4.731
 1962SOL    HW1 6136  11.120  12.569   4.662
 1962SOL    HW2 6137  11.162  12.675   4.761
 1963SOL     OW 6138   6.054   9.779   1.836
 1963SOL    HW1 6139   6.147   9.798   1.821
 1963SOL    HW2 6140   6.013   9.866   1.841
 1964SOL     OW 6141   8.401  10.514   2.163
 1964SOL    HW1 6142   8.496  10.502   2.160
 1964SOL    HW2 6143   8.381  10.524   2.256
 1965SOL     OW 6144   4.900   4.568   5.006
 1965SOL    HW1 6145   4.895   4.580   4.911
 1965SOL    HW2 6146   4.945   4.647   5.038
 1966SOL     OW 6147   5.125  11.208   2.547
 1966SOL    HW1 6148   5.044  11.239   2.505
 1966SOL    HW2 6149   5.149  11.278   2.607
 1967SOL     OW 6150   7.057   8.049   0.566
 1967SOL    HW1 6151   7.106   8.026   0.487
 1967SOL    HW2 6152   7.022   8.136   0.549
 1968SOL     OW 6153   1.166   4.662   0.312
 1968SOL    HW1 6154   1.193   4.626   0.227
 1968SOL    HW2 6155   1.133   4.750   0.291
 1969SOL     OW 6156   9.343  12.107   3.215
 1969SOL    HW1 6157   9.347  12.033   3.275
 1969SOL    HW2 6158   9.291  12.173   3.261
 1970SOL     OW 6159   3.445   3.486   4.571
 1970SOL    HW1 6160   3.351   3.505   4.572
 1970SOL    HW2 6161   3.485   3.570   4.593
 1971SOL     OW 6162  10.246   6.551   3.268
 1971SOL    HW1 6163  10.169   6.499   3.247
 1971SOL    HW2 6164  10.319   6.505   3.227
 1972SOL     OW 6165   2.801   4.064   2.457
 1972SOL    HW1 6166   2.895   4.047   2.462
 1972SOL    HW2 6167   2.767   3.994   2.401
 1973SOL     OW 6168   3.944  10.904   1.988
 1973SOL    HW1 6169   3.999  10.831   2.017
 1973SOL    HW2 6170   3.965  10.976   2.049
 1974SOL     OW 6171   1.839   8.310   0.048
 1974SOL    HW1 6172   1.806   8.220   0.050
 1974SOL    HW2 6173   1.768   8.361   0.008
 1975SOL     OW 6174   7.085  11.060   4.180
 1975SOL    HW1 6175   7.165  11.084   4.134
 1975SOL    HW2 6176   7.042  10.997   4.123
 1976SOL     OW 6177   8.728  10.262   6.775
 1976SOL    HW1 6178   8.652  10.205   6.768
 1976SOL    HW2 6179   8.694  10.350   6.759
 1977SOL     OW 6180   8.376   3.731   4.493
 1977SOL    HW1 6181   8.344   3.818   4.518
 1977SOL    HW2 6182   8.298   3.676   4.492
 1978SOL     OW 6183   3.487   8.426   3.730
 1978SOL    HW1 6184   3.412   8.412   3.671
 1978SOL    HW2 6185   3.564   8.405   3.677
 1979SOL     OW 6186   9.906   3.064   4.118
 1979SOL    HW1 6187   9.827   3.023   4.152
 1979SOL    HW2 6188   9.959   3.084   4.196
 1980SOL     OW 6189   9.549   0.943   0.950
 1980SOL    HW1 6190   9.461   0.933   0.914
 1980SOL    HW2 6191   9.593   1.003   0.889
 1981SOL     OW 6192   3.679   2.041   1.519
 1981SOL    HW1 6193   3.585   2.056   1.528
 1981SOL    HW2 6194   3.696   1.962   1.570
 1982SOL     OW 6195  15.768  14.717   7.155
 1982SOL    HW1 6196  15.682  14.698   7.192
 1982SOL    HW2 6197  15.759  14.806   7.120
 1983SOL     OW 6198  10.213   8.204   1.541
 1983SOL    HW1 6199  10.130   8.248   1.558
 1983SOL    HW2 6200  10.200   8.115   1.574
 1984SOL     OW 6201   9.903  10.046   7.262
 1984SOL    HW1 6202   9.862   9.961   7.246
 1984SOL    HW2 6203   9.877  10.068   7.351
 1985SOL     OW 6204   9.590  11.463   4.408
 1985SOL    HW1 6205   9.681  11.438   4.391
 1985SOL    HW2 6206   9.541  11.426   4.335
 1986SOL     OW 6207  11.074   9.206   3.340
 1986SOL    HW1 6208  11.052   9.299   3.335
 1986SOL    HW2 6209  11.152   9.196   3.286
 1987SOL     OW 6210  11.520   2.366   2.402
 1987SOL    HW1 6211  11.562   2.366   2.316
 1987SOL    HW2 6212  11.493   2.457   2.415
 1988SOL     OW 6213   3.602  11.644   2.521
 1988SOL    HW1 6214   3.649  11.698   2.458
 1988SOL    HW2 6215   3.534  11.702   2.555
 1989SOL     OW 6216  10.731   5.431   0.020
 1989SOL    HW1 6217  10.770   5.371   0.083
 1989SOL    HW2 6218  10.763   5.517   0.046
 1990SOL     OW 6219   2.805  11.007   0.814
 1990SOL    HW1 6220   2.762  11.091   0.795
 1990SOL    HW2 6221   2.842  10.980   0.730
 1991SOL     OW 6222  11.670  13.331   5.495
 1991SOL    HW1 6223  11.624  13.311   5.577
 1991SOL    HW2 6224  11.601  13.334   5.429
 1992SOL     OW 6225   6.248   8.897   1.248
 1992SOL    HW1 6226   6.165   8.880   1.204
 1992SOL    HW2 6227   6.303   8.938   1.181
 1993SOL     OW 6228   1.309   3.154   0.608
 1993SOL    HW1 6229   1.342   3.238   0.640
 1993SOL    HW2 6230   1.252   3.177   0.534
 1994SOL     OW 6231  12.944  13.132   6.982
 1994SOL    HW1 6232  12.854  13.165   6.972
 1994SOL    HW2 6233  12.940  13.080   7.062
 1995SOL     OW 6234   9.940   7.628   0.664
 1995SOL    HW1 6235   9.864   7.635   0.607
 1995SOL    HW2 6236   9.965   7.719   0.682
 1996SOL     OW 6237   4.119  10.994   2.405
 1996SOL    HW1 6238   4.054  10.995   2.334
 1996SOL    HW2 6239   4.111  11.080   2.445
 1997SOL     OW 6240   7.333  12.792   5.068
 1997SOL    HW1 6241   7.422  12.776   5.036
 1997SOL    HW2 6242   7.296  12.704   5.081
 1998SOL     OW 6243  10.074  11.396   5.533
 1998SOL    HW1 6244  10.147  11.339   5.557
 1998SOL    HW2 6245   9.997  11.339   5.534
 1999SOL     OW 6246   9.702   7.188   0.829
 1999SOL    HW1 6247   9.641   7.130   0.783
 1999SOL    HW2 6248   9.650   7.266   0.848
 2000SOL     OW 6249   9.744  13.335   7.116
 2000SOL    HW1 6250   9.799  13.361   7.042
 2000SOL    HW2 6251   9.754  13.240   7.121
 2001SOL     OW 6252   6.833   6.611   5.243
 2001SOL    HW1 6253   6.860   6.564   5.322
 2001SOL    HW2 6254   6.840   6.703   5.266
 2002SOL     OW 6255   9.335  11.622   6.496
 2002SOL    HW1 6256   9.342  11.604   6.590
 2002SOL    HW2 6257   9.340  11.537   6.454
 2003SOL     OW 6258   7.998  11.540   3.776
 2003SOL    HW1 6259   7.960  11.458   3.746
 2003SOL    HW2 6260   7.992  11.598   3.700
 2004SOL     OW 6261  13.492   7.926   4.918
 2004SOL    HW1 6262  13.468   8.000   4.975
 2004SOL    HW2 6263  13.565   7.885   4.964
 2005SOL     OW 6264   2.861   0.988   0.096
 2005SOL    HW1 6265   2.946   1.001   0.138
 2005SOL    HW2 6266   2.883   0.961   0.006
 2006SOL     OW 6267  10.304   8.006   0.779
 2006SOL    HW1 6268  10.304   7.955   0.698
 2006SOL    HW2 6269  10.365   7.960   0.837
 2007SOL     OW 6270   6.269   3.346   0.220
 2007SOL    HW1 6271   6.262   3.299   0.303
 2007SOL    HW2 6272   6.363   3.348   0.201
 2008SOL     OW 6273   7.657   4.513   6.173
 2008SOL    HW1 6274   7.574   4.473   6.145
 2008SOL    HW2 6275   7.639   4.542   6.262
 2009SOL     OW 6276  11.097  11.222   7.515
 2009SOL    HW1 6277  11.095  11.155   7.583
 2009SOL    HW2 6278  11.009  11.220   7.477
 2010SOL     OW 6279   9.427   6.235   0.758
 2010SOL    HW1 6280   9.521   6.244   0.745
 2010SOL    HW2 6281   9.418   6.163   0.821
 2011SOL     OW 6282   4.214   0.891   0.608
 2011SOL    HW1 6283   4.286   0.954   0.602
 2011SOL    HW2 6284   4.135   0.945   0.607
 2012SOL     OW 6285   7.858  10.490   3.085
 2012SOL    HW1 6286   7.884  10.567   3.033
 2012SOL    HW2 6287   7.763  10.498   3.091
 2013SOL     OW 6288   8.290   5.345   3.903
 2013SOL    HW1 6289   8.215   5.391   3.864
 2013SOL    HW2 6290   8.366   5.382   3.860
 2014SOL     OW 6291   8.995   6.127   1.113
 2014SOL    HW1 6292   9.077   6.176   1.112
 2014SOL    HW2 6293   8.938   6.173   1.051
 2015SOL     OW 6294  10.201  11.292   2.511
 2015SOL    HW1 6295  10.141  11.245   2.569
 2015SOL    HW2 6296  10.240  11.359   2.567
 2016SOL     OW 6297  10.825   9.675   4.591
 2016SOL    HW1 6298  10.842   9.769   4.596
 2016SOL    HW2 6299  10.912   9.635   4.599
 2017SOL     OW 6300   6.284   4.966   3.362
 2017SOL    HW1 6301   6.316   4.884   3.325
 2017SOL    HW2 6302   6.196   4.976   3.326
 2018SOL     OW 6303  11.771  11.224   2.665
 2018SOL    HW1 6304  11.863  11.244   2.684
 2018SOL    HW2 6305  11.752  11.272   2.585
 2019SOL     OW 6306   9.258   7.326   2.411
 2019SOL    HW1 6307   9.177   7.365   2.379
 2019SOL    HW2 6308   9.310   7.399   2.443
 2020SOL     OW 6309  11.421  11.676   7.056
 2020SOL    HW1 6310  11.419  11.713   7.145
 2020SOL    HW2 6311  11.331  11.688   7.023
 2021SOL     OW 6312   7.140  10.715   3.218
 2021SOL    HW1 6313   7.075  10.685   3.282
 2021SOL    HW2 6314   7.124  10.661   3.141
 2022SOL     OW 6315   2.631  10.819   2.205
 2022SOL    HW1 6316   2.681  10.750   2.249
 2022SOL    HW2 6317   2.548  10.777   2.181
 2023SOL     OW 6318   9.383   3.848   1.029
 2023SOL    HW1 6319   9.476   3.842   1.050
 2023SOL    HW2 6320   9.339   3.807   1.103
 2024SOL     OW 6321  12.969   6.205   7.369
 2024SOL    HW1 6322  12.876   6.228   7.359
 2024SOL    HW2 6323  12.970   6.143   7.441
 2025SOL     OW 6324  12.898   8.205   6.423
 2025SOL    HW1 6325  12.842   8.128   6.432
 2025SOL    HW2 6326  12.840   8.279   6.442
 2026SOL     OW 6327  10.071  12.102   7.488
 2026SOL    HW1 6328   9.981  12.069   7.485
 2026SOL    HW2 6329  10.119  12.033   7.533
 2027SOL     OW 6330  10.709   2.050   0.892
 2027SOL    HW1 6331  10.690   2.143   0.902
 2027SOL    HW2 6332  10.745   2.042   0.804
 2028SOL     OW 6333   1.094   7.037   0.655
 2028SOL    HW1 6334   1.187   7.056   0.646
 2028SOL    HW2 6335   1.091   6.946   0.685
 2029SOL     OW 6336   2.493   5.501   2.317
 2029SOL    HW1 6337   2.447   5.480   2.236
 2029SOL    HW2 6338   2.521   5.417   2.352
 2030SOL     OW 6339   5.196   5.439   2.018
 2030SOL    HW1 6340   5.179   5.509   2.081
 2030SOL    HW2 6341   5.124   5.445   1.955
 2031SOL     OW 6342   9.411   1.431   0.692
 2031SOL    HW1 6343   9.376   1.429   0.603
 2031SOL    HW2 6344   9.444   1.520   0.703
 2032SOL     OW 6345   4.464   9.539   0.838
 2032SOL    HW1 6346   4.384   9.572   0.881
 2032SOL    HW2 6347   4.455   9.444   0.841
 2033SOL     OW 6348   6.558  10.189   4.362
 2033SOL    HW1 6349   6.503  10.246   4.308
 2033SOL    HW2 6350   6.643  10.233   4.365
 2034SOL     OW 6351  11.126   5.619   2.970
 2034SOL    HW1 6352  11.077   5.559   3.026
 2034SOL    HW2 6353  11.134   5.699   3.022
 2035SOL     OW 6354   5.861  11.308   3.327
 2035SOL    HW1 6355   5.796  11.352   3.272
 2035SOL    HW2 6356   5.814  11.234   3.365
 2036SOL     OW 6357   3.589   3.358   1.336
 2036SOL    HW1 6358   3.648   3.304   1.284
 2036SOL    HW2 6359   3.636   3.370   1.419
 2037SOL     OW 6360  14.369   7.949   6.456
 2037SOL    HW1 6361  14.379   7.996   6.538
 2037SOL    HW2 6362  14.300   7.995   6.409
 2038SOL     OW 6363   7.313  11.164   2.307
 2038SOL    HW1 6364   7.352  11.246   2.277
 2038SOL    HW2 6365   7.219  11.178   2.299
 2039SOL     OW 6366  12.481   7.029   2.443
 2039SOL    HW1 6367  12.503   6.984   2.524
 2039SOL    HW2 6368   1.688   6.959   2.381
 2040SOL     OW 6369   7.408   0.900   0.498
 2040SOL    HW1 6370   7.391   0.988   0.533
 2040SOL    HW2 6371   7.500   0.883   0.518
 2041SOL     OW 6372   6.214   1.274   0.932
 2041SOL    HW1 6373   6.200   1.369   0.929
 2041SOL    HW2 6374   6.209   1.252   1.025
 2042SOL     OW 6375   7.127   4.755   6.377
 2042SOL    HW1 6376   7.218   4.779   6.391
 2042SOL    HW2 6377   7.111   4.683   6.438
 2043SOL     OW 6378   7.307   3.914   2.544
 2043SOL    HW1 6379   7.344   3.964   2.617
 2043SOL    HW2 6380   7.354   3.946   2.467
 2044SOL     OW 6381   7.547   4.198   1.621
 2044SOL    HW1 6382   7.566   4.143   1.545
 2044SOL    HW2 6383   7.521   4.283   1.584
 2045SOL     OW 6384   7.086   8.282   7.574
 2045SOL    HW1 6385   7.165   8.284   7.519
 2045SOL    HW2 6386   1.708   2.816   0.008
 2046SOL     OW 6387   3.223   3.135   1.719
 2046SOL    HW1 6388   3.312   3.150   1.688
 2046SOL    HW2 6389   3.207   3.042   1.701
 2047SOL     OW 6390  13.022   8.452   6.514
 2047SOL    HW1 6391  12.959   8.495   6.456
 2047SOL    HW2 6392  13.071   8.524   6.553
 2048SOL     OW 6393   8.025   5.152   2.334
 2048SOL    HW1 6394   8.086   5.181   2.402
 2048SOL    HW2 6395   7.939   5.180   2.364
 2049SOL     OW 6396   4.320  10.670   5.078
 2049SOL    HW1 6397   4.265  10.749   5.077
 2049SOL    HW2 6398   4.261  10.600   5.050
 2050SOL     OW 6399   6.921   1.146   0.016
 2050SOL    HW1 6400   6.872   1.198   0.080
 2050SOL    HW2 6401   6.911   1.056   0.045
 2051SOL     OW 6402  10.026   9.283   4.867
 2051SOL    HW1 6403  10.022   9.267   4.773
 2051SOL    HW2 6404   9.989   9.204   4.906
 2052SOL     OW 6405   4.432  12.277   5.775
 2052SOL    HW1 6406   4.522  12.254   5.799
 2052SOL    HW2 6407   4.385  12.277   5.858
 2053SOL     OW 6408   4.009   6.544   1.371
 2053SOL    HW1 6409   3.995   6.624   1.319
 2053SOL    HW2 6410   3.993   6.572   1.461
 2054SOL     OW 6411  10.273   4.626   6.124
 2054SOL    HW1 6412  10.281   4.720   6.111
 2054SOL    HW2 6413  10.317   4.610   6.208
 2055SOL     OW 6414   7.510  12.121   5.722
 2055SOL    HW1 6415   7.419  12.118   5.750
 2055SOL    HW2 6416   7.553  12.176   5.787
 2056SOL     OW 6417   3.756   6.093   0.101
 2056SOL    HW1 6418   3.670   6.090   0.058
 2056SOL    HW2 6419   3.743   6.151   0.176
 2057SOL     OW 6420   7.732   3.698   2.345
 2057SOL    HW1 6421   7.746   3.604   2.332
 2057SOL    HW2 6422   7.673   3.703   2.420
 2058SOL     OW 6423   8.140   5.153   0.567
 2058SOL    HW1 6424   8.140   5.128   0.660
 2058SOL    HW2 6425   8.057   5.119   0.534
 2059SOL     OW 6426   8.530   9.886   2.762
 2059SOL    HW1 6427   8.623   9.870   2.774
 2059SOL    HW2 6428   8.504   9.828   2.690
 2060SOL     OW 6429   7.994  14.991   6.274
 2060SOL    HW1 6430   8.007  14.896   6.283
 2060SOL    HW2 6431   7.934  15.013   6.345
 2061SOL     OW 6432   8.234   8.137   5.239
 2061SOL    HW1 6433   8.314   8.183   5.263
 2061SOL    HW2 6434   8.258   8.045   5.237
 2062SOL     OW 6435   4.785   9.347   2.008
 2062SOL    HW1 6436   4.713   9.336   1.945
 2062SOL    HW2 6437   4.790   9.442   2.022
 2063SOL     OW 6438   9.160   4.853   1.793
 2063SOL    HW1 6439   9.153   4.928   1.734
 2063SOL    HW2 6440   9.230   4.877   1.854
 2064SOL     OW 6441   6.276  13.605   4.330
 2064SOL    HW1 6442   6.222  13.606   4.409
 2064SOL    HW2 6443   6.322  13.521   4.334
 2065SOL     OW 6444  13.292  13.336   4.325
 2065SOL    HW1 6445  13.219  13.329   4.387
 2065SOL    HW2 6446  13.272  13.272   4.256
 2066SOL     OW 6447  10.698   9.739   4.360
 2066SOL    HW1 6448  10.619   9.759   4.410
 2066SOL    HW2 6449  10.764   9.719   4.427
 2067SOL     OW 6450   4.882   5.168   2.303
 2067SOL    HW1 6451   4.854   5.169   2.211
 2067SOL    HW2 6452   4.924   5.253   2.316
 2068SOL     OW 6453   9.537   1.768   2.257
 2068SOL    HW1 6454   9.509   1.703   2.191
 2068SOL    HW2 6455   9.518   1.852   2.217
 2069SOL     OW 6456   6.770   7.942   5.203
 2069SOL    HW1 6457   6.722   7.959   5.122
 2069SOL    HW2 6458   6.770   7.846   5.210
 2070SOL     OW 6459   2.037   9.885   1.871
 2070SOL    HW1 6460   1.963   9.859   1.815
 2070SOL    HW2 6461   2.113   9.880   1.815
 2071SOL     OW 6462   7.219   8.220   0.990
 2071SOL    HW1 6463   7.223   8.157   0.918
 2071SOL    HW2 6464   7.290   8.281   0.973
 2072SOL     OW 6465  12.264   4.567   6.288
 2072SOL    HW1 6466  12.282   4.475   6.269
 2072SOL    HW2 6467  12.236   4.604   6.204
 2073SOL     OW 6468   3.970  10.476   2.849
 2073SOL    HW1 6469   3.966  10.533   2.926
 2073SOL    HW2 6470   3.979  10.388   2.885
 2074SOL     OW 6471   7.042   2.649   1.859
 2074SOL    HW1 6472   7.120   2.705   1.859
 2074SOL    HW2 6473   7.072   2.566   1.821
 2075SOL     OW 6474   8.995   6.809   5.130
 2075SOL    HW1 6475   8.979   6.863   5.053
 2075SOL    HW2 6476   9.035   6.729   5.096
 2076SOL     OW 6477   7.287  15.440   6.735
 2076SOL    HW1 6478   7.331  15.472   6.657
 2076SOL    HW2 6479   7.209  15.395   6.702
 2077SOL     OW 6480  11.908   7.047   5.826
 2077SOL    HW1 6481  11.910   7.067   5.919
 2077SOL    HW2 6482  11.960   7.116   5.785
 2078SOL     OW 6483   5.694   9.281   2.013
 2078SOL    HW1 6484   5.676   9.237   1.930
 2078SOL    HW2 6485   5.782   9.252   2.037
 2079SOL     OW 6486  10.143   4.763   0.452
 2079SOL    HW1 6487  10.100   4.818   0.387
 2079SOL    HW2 6488  10.128   4.674   0.422
 2080SOL     OW 6489   9.883   9.510   3.493
 2080SOL    HW1 6490   9.822   9.517   3.420
 2080SOL    HW2 6491   9.847   9.568   3.560
 2081SOL     OW 6492   6.657   4.476   1.943
 2081SOL    HW1 6493   6.650   4.526   2.025
 2081SOL    HW2 6494   6.736   4.511   1.901
 2082SOL     OW 6495   5.699   1.936   1.757
 2082SOL    HW1 6496   5.650   1.999   1.810
 2082SOL    HW2 6497   5.791   1.961   1.769
 2083SOL     OW 6498  10.992  11.508   6.827
 2083SOL    HW1 6499  11.022  11.542   6.743
 2083SOL    HW2 6500  10.916  11.562   6.848
 2084SOL     OW 6501  11.365   5.810   7.215
 2084SOL    HW1 6502  11.321   5.819   7.130
 2084SOL    HW2 6503  11.351   5.719   7.239
 2085SOL     OW 6504   7.248  10.641   5.749
 2085SOL    HW1 6505   7.202  10.620   5.668
 2085SOL    HW2 6506   7.182  10.684   5.804
 2086SOL     OW 6507   8.404  13.599   6.697
 2086SOL    HW1 6508   8.450  13.638   6.772
 2086SOL    HW2 6509   8.455  13.520   6.677
 2087SOL     OW 6510   9.560   4.476   3.627
 2087SOL    HW1 6511   9.569   4.381   3.625
 2087SOL    HW2 6512   9.580   4.500   3.718
 2088SOL     OW 6513   6.513  10.444   1.110
 2088SOL    HW1 6514   6.561  10.382   1.165
 2088SOL    HW2 6515   6.443  10.391   1.070
 2089SOL     OW 6516  12.116  10.779   4.464
 2089SOL    HW1 6517  12.211  10.791   4.476
 2089SOL    HW2 6518  12.081  10.776   4.552
 2090SOL     OW 6519   8.126  13.641   4.791
 2090SOL    HW1 6520   8.087  13.566   4.747
 2090SOL    HW2 6521   8.058  13.674   4.849
 2091SOL     OW 6522   5.496   5.811   3.122
 2091SOL    HW1 6523   5.471   5.728   3.163
 2091SOL    HW2 6524   5.584   5.796   3.087
 2092SOL     OW 6525   5.953   7.175   4.134
 2092SOL    HW1 6526   6.032   7.224   4.155
 2092SOL    HW2 6527   5.926   7.137   4.217
 2093SOL     OW 6528   3.063   5.601   2.207
 2093SOL    HW1 6529   3.034   5.598   2.115
 2093SOL    HW2 6530   2.982   5.594   2.257
 2094SOL     OW 6531   5.111   9.404   3.407
 2094SOL    HW1 6532   5.169   9.478   3.387
 2094SOL    HW2 6533   5.030   9.445   3.437
 2095SOL     OW 6534  11.983   6.983   5.063
 2095SOL    HW1 6535  11.945   7.048   5.121
 2095SOL    HW2 6536  12.066   7.021   5.035
 2096SOL     OW 6537  10.279  13.361   4.898
 2096SOL    HW1 6538  10.225  13.307   4.956
 2096SOL    HW2 6539  10.254  13.334   4.810
 2097SOL     OW 6540   9.927  12.620   2.979
 2097SOL    HW1 6541   9.846  12.615   3.031
 2097SOL    HW2 6542   9.995  12.589   3.038
 2098SOL     OW 6543   5.213  13.412   6.924
 2098SOL    HW1 6544   5.181  13.340   6.870
 2098SOL    HW2 6545   5.273  13.371   6.986
 2099SOL     OW 6546   6.977   8.150   1.139
 2099SOL    HW1 6547   7.060   8.153   1.092
 2099SOL    HW2 6548   6.996   8.186   1.226
 2100SOL     OW 6549  14.718   5.709   6.523
 2100SOL    HW1 6550  14.803   5.731   6.560
 2100SOL    HW2 6551  14.682   5.643   6.583
 2101SOL     OW 6552  10.505   6.799   3.906
 2101SOL    HW1 6553  10.427   6.831   3.861
 2101SOL    HW2 6554  10.481   6.712   3.937
 2102SOL     OW 6555   9.002   8.550   4.870
 2102SOL    HW1 6556   8.972   8.640   4.883
 2102SOL    HW2 6557   8.934   8.496   4.911
 2103SOL     OW 6558   5.563   7.628   3.892
 2103SOL    HW1 6559   5.643   7.580   3.916
 2103SOL    HW2 6560   5.586   7.673   3.810
 2104SOL     OW 6561   4.647   7.564   0.910
 2104SOL    HW1 6562   4.652   7.651   0.871
 2104SOL    HW2 6563   4.611   7.509   0.841
 2105SOL     OW 6564   5.689   9.669   2.460
 2105SOL    HW1 6565   5.615   9.700   2.407
 2105SOL    HW2 6566   5.700   9.578   2.434
 2106SOL     OW 6567   5.117   7.106   1.395
 2106SOL    HW1 6568   5.051   7.086   1.328
 2106SOL    HW2 6569   5.153   7.191   1.368
 2107SOL     OW 6570   6.689  14.655   6.725
 2107SOL    HW1 6571   6.649  14.714   6.788
 2107SOL    HW2 6572   6.759  14.611   6.774
 2108SOL     OW 6573   5.745  11.004   1.172
 2108SOL    HW1 6574   5.833  11.025   1.143
 2108SOL    HW2 6575   5.689  11.071   1.131
 2109SOL     OW 6576   4.730   1.896   1.159
 2109SOL    HW1 6577   4.719   1.847   1.077
 2109SOL    HW2 6578   4.773   1.977   1.133
 2110SOL     OW 6579   7.373  12.334   2.763
 2110SOL    HW1 6580   7.296  12.286   2.793
 2110SOL    HW2 6581   7.446  12.291   2.808
 2111SOL     OW 6582  12.704   7.481   5.546
 2111SOL    HW1 6583  12.786   7.527   5.563
 2111SOL    HW2 6584  12.647   7.548   5.507
 2112SOL     OW 6585   7.474  12.517   4.396
 2112SOL    HW1 6586   7.549  12.473   4.435
 2112SOL    HW2 6587   7.476  12.605   4.432
 2113SOL     OW 6588   9.361  13.922   6.522
 2113SOL    HW1 6589   9.398  14.001   6.482
 2113SOL    HW2 6590   9.435  13.862   6.530
 2114SOL     OW 6591  11.548   9.900   5.711
 2114SOL    HW1 6592  11.527   9.953   5.634
 2114SOL    HW2 6593  11.465   9.860   5.736
 2115SOL     OW 6594  12.658   7.944   3.330
 2115SOL    HW1 6595  12.655   7.969   3.422
 2115SOL    HW2 6596  12.609   8.013   3.285
 2116SOL     OW 6597   8.285   6.505   5.924
 2116SOL    HW1 6598   8.247   6.574   5.870
 2116SOL    HW2 6599   8.358   6.472   5.872
 2117SOL     OW 6600   2.491   4.339   0.870
 2117SOL    HW1 6601   2.453   4.401   0.932
 2117SOL    HW2 6602   2.478   4.253   0.912
 2118SOL     OW 6603   9.340   8.598   6.043
 2118SOL    HW1 6604   9.429   8.617   6.071
 2118SOL    HW2 6605   9.332   8.503   6.052
 2119SOL     OW 6606   5.096   4.426   4.333
 2119SOL    HW1 6607   5.040   4.392   4.403
 2119SOL    HW2 6608   5.071   4.518   4.326
 2120SOL     OW 6609  15.031   9.763   7.336
 2120SOL    HW1 6610  15.033   9.854   7.307
 2120SOL    HW2 6611  15.123   9.739   7.347
 2121SOL     OW 6612   8.644  12.086   4.750
 2121SOL    HW1 6613   8.679  12.168   4.786
 2121SOL    HW2 6614   8.703  12.018   4.783
 2122SOL     OW 6615   4.735   9.341   3.207
 2122SOL    HW1 6616   4.723   9.354   3.301
 2122SOL    HW2 6617   4.647   9.321   3.174
 2123SOL     OW 6618   9.755  11.457   3.924
 2123SOL    HW1 6619   9.759  11.552   3.922
 2123SOL    HW2 6620   9.794  11.430   3.841
 2124SOL     OW 6621   3.643   6.716   3.257
 2124SOL    HW1 6622   3.568   6.759   3.216
 2124SOL    HW2 6623   3.672   6.652   3.191
 2125SOL     OW 6624  13.159   4.809   3.885
 2125SOL    HW1 6625  13.100   4.871   3.929
 2125SOL    HW2 6626  13.122   4.723   3.903
 2126SOL     OW 6627  14.735  14.154   5.916
 2126SOL    HW1 6628  14.772  14.135   6.002
 2126SOL    HW2 6629  14.807  14.141   5.855
 2127SOL     OW 6630   9.610  11.447   7.540
 2127SOL    HW1 6631   9.578  11.535   7.520
 2127SOL    HW2 6632   9.557  11.419   7.614
 2128SOL     OW 6633   7.450  10.694   0.407
 2128SOL    HW1 6634   7.395  10.656   0.339
 2128SOL    HW2 6635   7.406  10.775   0.431
 2129SOL     OW 6636  15.267   5.028   6.704
 2129SOL    HW1 6637  15.184   5.035   6.656
 2129SOL    HW2 6638  15.317   5.105   6.677
 2130SOL     OW 6639   2.657   4.792   3.740
 2130SOL    HW1 6640   2.716   4.867   3.732
 2130SOL    HW2 6641  13.407   4.790   3.832
 2131SOL     OW 6642   7.656   8.153   3.015
 2131SOL    HW1 6643   7.690   8.240   3.036
 2131SOL    HW2 6644   7.648   8.152   2.920
 2132SOL     OW 6645   6.528   6.074   4.818
 2132SOL    HW1 6646   6.439   6.047   4.796
 2132SOL    HW2 6647   6.567   6.098   4.734
 2133SOL     OW 6648  10.716   4.655   0.419
 2133SOL    HW1 6649  10.641   4.646   0.360
 2133SOL    HW2 6650  10.763   4.731   0.386
 2134SOL     OW 6651  11.737   6.027   5.343
 2134SOL    HW1 6652  11.786   6.035   5.262
 2134SOL    HW2 6653  11.788   6.076   5.407
 2135SOL     OW 6654   9.822   3.996   4.035
 2135SOL    HW1 6655   9.800   3.920   3.982
 2135SOL    HW2 6656   9.826   3.963   4.125
 2136SOL     OW 6657   7.579   7.964   0.954
 2136SOL    HW1 6658   7.576   8.041   1.011
 2136SOL    HW2 6659   7.668   7.931   0.961
 2137SOL     OW 6660   4.408  10.189   5.947
 2137SOL    HW1 6661   4.422  10.104   5.988
 2137SOL    HW2 6662   4.321  10.183   5.908
 2138SOL     OW 6663   3.453   9.128   4.819
 2138SOL    HW1 6664   3.385   9.174   4.771
 2138SOL    HW2 6665   3.531   9.137   4.764
 2139SOL     OW 6666   3.865   9.608   2.032
 2139SOL    HW1 6667   3.959   9.607   2.050
 2139SOL    HW2 6668   3.857   9.572   1.943
 2140SOL     OW 6669   6.038  11.225   6.811
 2140SOL    HW1 6670   6.044  11.211   6.716
 2140SOL    HW2 6671   6.099  11.161   6.848
 2141SOL     OW 6672   9.866   5.642   1.569
 2141SOL    HW1 6673   9.942   5.584   1.573
 2141SOL    HW2 6674   9.813   5.606   1.497
 2142SOL     OW 6675   4.168   9.235   3.876
 2142SOL    HW1 6676   4.106   9.161   3.879
 2142SOL    HW2 6677   4.186   9.254   3.968
 2143SOL     OW 6678   6.235   5.864   5.492
 2143SOL    HW1 6679   6.308   5.925   5.504
 2143SOL    HW2 6680   6.203   5.882   5.404
 2144SOL     OW 6681   8.658   5.430   6.393
 2144SOL    HW1 6682   8.588   5.480   6.435
 2144SOL    HW2 6683   8.739   5.473   6.423
 2145SOL     OW 6684   5.041   8.645   1.750
 2145SOL    HW1 6685   5.028   8.711   1.818
 2145SOL    HW2 6686   5.059   8.564   1.797
 2146SOL     OW 6687   8.175  10.486   3.123
 2146SOL    HW1 6688   8.246  10.460   3.183
 2146SOL    HW2 6689   8.097  10.488   3.178
 2147SOL     OW 6690  11.592   7.815   6.431
 2147SOL    HW1 6691  11.622   7.753   6.366
 2147SOL    HW2 6692  11.508   7.848   6.397
 2148SOL     OW 6693   9.586   8.079   1.013
 2148SOL    HW1 6694   9.590   8.112   0.923
 2148SOL    HW2 6695   9.605   7.985   1.005
 2149SOL     OW 6696   5.599  12.525   4.266
 2149SOL    HW1 6697   5.529  12.461   4.261
 2149SOL    HW2 6698   5.674  12.477   4.301
 2150SOL     OW 6699   3.961   5.520   4.632
 2150SOL    HW1 6700   3.994   5.598   4.676
 2150SOL    HW2 6701   3.976   5.537   4.539
 2151SOL     OW 6702   9.485   6.470   0.086
 2151SOL    HW1 6703   9.577   6.450   0.102
 2151SOL    HW2 6704   9.473   6.558   0.124
 2152SOL     OW 6705   4.872   5.009   6.848
 2152SOL    HW1 6706  15.598   4.936   6.886
 2152SOL    HW2 6707   4.827   5.028   6.766
 2153SOL     OW 6708  11.461   7.428   7.205
 2153SOL    HW1 6709  11.509   7.508   7.183
 2153SOL    HW2 6710  11.405   7.453   7.279
 2154SOL     OW 6711   4.535   5.101   1.092
 2154SOL    HW1 6712   4.592   5.027   1.072
 2154SOL    HW2 6713   4.578   5.145   1.165
 2155SOL     OW 6714  10.118  10.515   0.849
 2155SOL    HW1 6715  10.058  10.465   0.794
 2155SOL    HW2 6716  10.200  10.465   0.847
 2156SOL     OW 6717  10.343   8.565   2.849
 2156SOL    HW1 6718  10.383   8.643   2.887
 2156SOL    HW2 6719  10.298   8.523   2.922
 2157SOL     OW 6720   8.508  11.549   6.883
 2157SOL    HW1 6721   8.597  11.555   6.916
 2157SOL    HW2 6722   8.502  11.460   6.847
 2158SOL     OW 6723   7.177  11.615   5.671
 2158SOL    HW1 6724   7.189  11.524   5.698
 2158SOL    HW2 6725   7.195  11.614   5.577
 2159SOL     OW 6726   0.729  10.605   0.186
 2159SOL    HW1 6727   0.782  10.584   0.263
 2159SOL    HW2 6728   0.787  10.589   0.112
 2160SOL     OW 6729   7.761   5.694   5.781
 2160SOL    HW1 6730   7.777   5.759   5.713
 2160SOL    HW2 6731   7.698   5.633   5.742
 2161SOL     OW 6732  11.761   2.214   2.519
 2161SOL    HW1 6733  11.730   2.155   2.450
 2161SOL    HW2 6734  11.851   2.187   2.536
 2162SOL     OW 6735   6.335  12.540   6.550
 2162SOL    HW1 6736   6.317  12.564   6.641
 2162SOL    HW2 6737   6.419  12.581   6.529
 2163SOL     OW 6738   5.386   1.762   1.761
 2163SOL    HW1 6739   5.294   1.788   1.769
 2163SOL    HW2 6740   5.422   1.822   1.696
 2164SOL     OW 6741   8.862   9.252   0.620
 2164SOL    HW1 6742   8.769   9.253   0.598
 2164SOL    HW2 6743   8.866   9.293   0.706
 2165SOL     OW 6744  10.161   8.539   3.187
 2165SOL    HW1 6745  10.161   8.527   3.092
 2165SOL    HW2 6746  10.081   8.495   3.216
 2166SOL     OW 6747   6.779   6.550   2.462
 2166SOL    HW1 6748   6.718   6.524   2.532
 2166SOL    HW2 6749   6.722   6.565   2.386
 2167SOL     OW 6750   3.114   9.871   0.612
 2167SOL    HW1 6751   3.049   9.941   0.606
 2167SOL    HW2 6752   3.104   9.822   0.531
 2168SOL     OW 6753   7.685   4.913   5.618
 2168SOL    HW1 6754   7.773   4.888   5.589
 2168SOL    HW2 6755   7.637   4.933   5.538
 2169SOL     OW 6756   4.760   5.817   6.704
 2169SOL    HW1 6757  15.452   5.775   6.680
 2169SOL    HW2 6758   4.828   5.755   6.676
 2170SOL     OW 6759   5.327  13.969   4.564
 2170SOL    HW1 6760   5.396  13.907   4.590
 2170SOL    HW2 6761   5.368   3.281   4.574
 2171SOL     OW 6762  13.738   7.878   4.721
 2171SOL    HW1 6763  13.666   7.919   4.770
 2171SOL    HW2 6764  13.697   7.805   4.675
 2172SOL     OW 6765   7.782   6.626   3.871
 2172SOL    HW1 6766   7.818   6.638   3.783
 2172SOL    HW2 6767   7.690   6.602   3.856
 2173SOL     OW 6768  10.059   8.922   5.887
 2173SOL    HW1 6769  10.103   8.841   5.913
 2173SOL    HW2 6770  10.122   8.967   5.831
 2174SOL     OW 6771   7.244   5.394   5.890
 2174SOL    HW1 6772   7.299   5.387   5.968
 2174SOL    HW2 6773   7.255   5.309   5.845
 2175SOL     OW 6774   6.941  13.987   6.571
 2175SOL    HW1 6775   6.917  13.898   6.599
 2175SOL    HW2 6776   6.879  14.006   6.500
 2176SOL     OW 6777  15.321  14.155   6.655
 2176SOL    HW1 6778  15.243  14.113   6.691
 2176SOL    HW2 6779  15.357  14.205   6.729
 2177SOL     OW 6780  10.884   8.807   0.632
 2177SOL    HW1 6781  10.848   8.868   0.696
 2177SOL    HW2 6782  10.811   8.749   0.611
 2178SOL     OW 6783   4.347   7.330   2.007
 2178SOL    HW1 6784   4.402   7.407   2.019
 2178SOL    HW2 6785   4.384   7.285   1.931
 2179SOL     OW 6786   8.825   4.184   2.759
 2179SOL    HW1 6787   8.825   4.091   2.737
 2179SOL    HW2 6788   8.773   4.190   2.839
 2180SOL     OW 6789  14.145  15.341   7.069
 2180SOL    HW1 6790  14.170  15.271   7.009
 2180SOL    HW2 6791  14.071  15.306   7.118
 2181SOL     OW 6792   3.769  11.006   0.851
 2181SOL    HW1 6793   3.747  10.962   0.933
 2181SOL    HW2 6794   3.697  10.985   0.792
 2182SOL     OW 6795  10.490   6.326   7.092
 2182SOL    HW1 6796  10.510   6.354   7.003
 2182SOL    HW2 6797  10.422   6.386   7.122
 2183SOL     OW 6798   4.494   8.980   5.382
 2183SOL    HW1 6799   4.588   8.971   5.363
 2183SOL    HW2 6800   4.491   9.015   5.471
 2184SOL     OW 6801   6.144   8.695   4.687
 2184SOL    HW1 6802   6.102   8.690   4.602
 2184SOL    HW2 6803   6.094   8.762   4.735
 2185SOL     OW 6804   4.587   1.150   0.755
 2185SOL    HW1 6805   4.591   1.234   0.801
 2185SOL    HW2 6806   4.663   1.101   0.787
 2186SOL     OW 6807   1.959   3.524   0.420
 2186SOL    HW1 6808   1.894   3.591   0.441
 2186SOL    HW2 6809   1.909   3.442   0.417
 2187SOL     OW 6810  11.833  10.032   2.567
 2187SOL    HW1 6811  11.884  10.113   2.563
 2187SOL    HW2 6812  11.804  10.018   2.477
 2188SOL     OW 6813   5.325   1.335   1.511
 2188SOL    HW1 6814   5.345   1.406   1.450
 2188SOL    HW2 6815   5.408   1.291   1.525
 2189SOL     OW 6816   9.238   7.521   4.665
 2189SOL    HW1 6817   9.233   7.426   4.670
 2189SOL    HW2 6818   9.285   7.539   4.584
 2190SOL     OW 6819   5.415   9.042   4.486
 2190SOL    HW1 6820   5.468   9.116   4.516
 2190SOL    HW2 6821   5.331   9.053   4.531
 2191SOL     OW 6822   5.130  10.900   0.412
 2191SOL    HW1 6823   5.107  10.978   0.463
 2191SOL    HW2 6824   5.102  10.827   0.467
 2192SOL     OW 6825  10.479  12.414   6.246
 2192SOL    HW1 6826  10.558  12.468   6.240
 2192SOL    HW2 6827  10.412  12.463   6.200
 2193SOL     OW 6828   8.718  13.216   5.692
 2193SOL    HW1 6829   8.716  13.221   5.788
 2193SOL    HW2 6830   8.811  13.227   5.670
 2194SOL     OW 6831  10.183  14.395   5.785
 2194SOL    HW1 6832  10.161  14.358   5.870
 2194SOL    HW2 6833  10.129  14.347   5.722
 2195SOL     OW 6834  11.557   6.053   3.278
 2195SOL    HW1 6835  11.520   6.102   3.205
 2195SOL    HW2 6836  11.485   5.999   3.311
 2196SOL     OW 6837  11.119  10.593   3.162
 2196SOL    HW1 6838  11.028  10.622   3.155
 2196SOL    HW2 6839  11.170  10.674   3.169
 2197SOL     OW 6840   2.057   3.394   1.903
 2197SOL    HW1 6841   2.144   3.431   1.889
 2197SOL    HW2 6842   2.074   3.303   1.931
 2198SOL     OW 6843   3.771   7.540   5.009
 2198SOL    HW1 6844   3.864   7.534   5.035
 2198SOL    HW2 6845   3.734   7.604   5.070
 2199SOL     OW 6846  15.506  11.260   7.312
 2199SOL    HW1 6847  15.481  11.203   7.239
 2199SOL    HW2 6848  15.548  11.335   7.270
 2200SOL     OW 6849   4.560  11.321   2.002
 2200SOL    HW1 6850   4.588  11.385   2.067
 2200SOL    HW2 6851   4.570  11.366   1.918
 2201SOL     OW 6852   5.356  12.852   6.100
 2201SOL    HW1 6853   5.363  12.947   6.108
 2201SOL    HW2 6854   5.263  12.834   6.110
 2202SOL     OW 6855   9.210   7.494   4.391
 2202SOL    HW1 6856   9.137   7.553   4.407
 2202SOL    HW2 6857   9.288   7.550   4.396
 2203SOL     OW 6858   3.209   5.028   0.374
 2203SOL    HW1 6859   3.116   5.005   0.375
 2203SOL    HW2 6860   3.226   5.051   0.283
 2204SOL     OW 6861  13.130  10.761   6.634
 2204SOL    HW1 6862  13.181  10.700   6.580
 2204SOL    HW2 6863  13.056  10.710   6.666
 2205SOL     OW 6864   7.865  10.716   2.205
 2205SOL    HW1 6865   7.843  10.732   2.114
 2205SOL    HW2 6866   7.953  10.754   2.216
 2206SOL     OW 6867   9.466   9.910   7.252
 2206SOL    HW1 6868   9.472   9.998   7.214
 2206SOL    HW2 6869   9.544   9.903   7.307
 2207SOL     OW 6870   3.742   2.004   0.895
 2207SOL    HW1 6871   3.702   2.052   0.968
 2207SOL    HW2 6872   3.776   1.924   0.935
 2208SOL     OW 6873   8.579   7.096   5.259
 2208SOL    HW1 6874   8.611   7.098   5.169
 2208SOL    HW2 6875   8.488   7.124   5.252
 2209SOL     OW 6876   9.445  14.411   6.883
 2209SOL    HW1 6877   9.490  14.357   6.948
 2209SOL    HW2 6878   9.439  14.356   6.805
 2210SOL     OW 6879   4.199   1.063   0.952
 2210SOL    HW1 6880   4.171   0.974   0.972
 2210SOL    HW2 6881   4.132   1.119   0.992
 2211SOL     OW 6882   6.794   3.683   4.451
 2211SOL    HW1 6883   6.704   3.680   4.483
 2211SOL    HW2 6884   6.793   3.630   4.371
 2212SOL     OW 6885   6.088   4.146   3.321
 2212SOL    HW1 6886   6.068   4.162   3.413
 2212SOL    HW2 6887   6.007   4.111   3.285
 2213SOL     OW 6888  12.814  10.116   4.025
 2213SOL    HW1 6889  12.892  10.092   4.075
 2213SOL    HW2 6890  12.797  10.207   4.050
 2214SOL     OW 6891   8.692   7.213   2.960
 2214SOL    HW1 6892   8.666   7.275   2.892
 2214SOL    HW2 6893   8.609   7.182   2.997
 2215SOL     OW 6894   6.956  12.218   3.097
 2215SOL    HW1 6895   6.948  12.163   3.175
 2215SOL    HW2 6896   6.881  12.276   3.101
 2216SOL     OW 6897   7.339   9.034   4.986
 2216SOL    HW1 6898   7.258   8.984   4.989
 2216SOL    HW2 6899   7.344   9.066   4.896
 2217SOL     OW 6900   7.087   5.734   5.995
 2217SOL    HW1 6901   7.059   5.746   6.085
 2217SOL    HW2 6902   7.024   5.672   5.958
 2218SOL     OW 6903   5.265  12.757   3.166
 2218SOL    HW1 6904   5.309  12.832   3.205
 2218SOL    HW2 6905   5.299  12.752   3.077
 2219SOL     OW 6906   5.613   9.848   5.496
 2219SOL    HW1 6907   5.661   9.902   5.559
 2219SOL    HW2 6908   5.527   9.890   5.490
 2220SOL     OW 6909   7.367  12.499   6.388
 2220SOL    HW1 6910   7.446  12.457   6.421
 2220SOL    HW2 6911   7.375  12.493   6.292
 2221SOL     OW 6912   6.028   1.986   0.075
 2221SOL    HW1 6913   6.110   2.035   0.075
 2221SOL    HW2 6914   5.978   2.022   0.002
 2222SOL     OW 6915   4.823   6.863   6.521
 2222SOL    HW1 6916   4.792   6.952   6.504
 2222SOL    HW2 6917   4.827   6.822   6.435
 2223SOL     OW 6918   1.763   6.678   0.332
 2223SOL    HW1 6919   1.681   6.634   0.353
 2223SOL    HW2 6920   1.743   6.728   0.253
 2224SOL     OW 6921   5.913   7.979   0.701
 2224SOL    HW1 6922   5.898   7.964   0.608
 2224SOL    HW2 6923   5.910   7.892   0.741
 2225SOL     OW 6924   6.942   9.109   1.124
 2225SOL    HW1 6925   6.986   9.119   1.039
 2225SOL    HW2 6926   6.912   9.197   1.146
 2226SOL     OW 6927   6.721   8.491   1.171
 2226SOL    HW1 6928   6.808   8.518   1.141
 2226SOL    HW2 6929   6.663   8.563   1.148
 2227SOL     OW 6930   1.363   8.730   1.901
 2227SOL    HW1 6931   1.353   8.751   1.808
 2227SOL    HW2 6932  12.048   8.730   1.935
 2228SOL     OW 6933   2.625   5.113   0.425
 2228SOL    HW1 6934   2.650   5.028   0.390
 2228SOL    HW2 6935   2.557   5.145   0.365
 2229SOL     OW 6936   8.234   3.394   0.797
 2229SOL    HW1 6937   8.153   3.441   0.817
 2229SOL    HW2 6938   8.292   3.460   0.762
 2230SOL     OW 6939   7.547   9.408   5.905
 2230SOL    HW1 6940   7.545   9.324   5.859
 2230SOL    HW2 6941   7.569   9.472   5.837
 2231SOL     OW 6942  11.011   6.914   7.417
 2231SOL    HW1 6943  11.036   7.003   7.439
 2231SOL    HW2 6944  10.932   6.924   7.363
 2232SOL     OW 6945   3.930  10.050   5.170
 2232SOL    HW1 6946   4.025  10.060   5.172
 2232SOL    HW2 6947   3.897  10.139   5.153
 2233SOL     OW 6948   1.692   8.782   0.099
 2233SOL    HW1 6949   1.613   8.771   0.046
 2233SOL    HW2 6950   1.694   8.875   0.119
 2234SOL     OW 6951  12.020   4.506   4.848
 2234SOL    HW1 6952  11.973   4.588   4.830
 2234SOL    HW2 6953  12.016   4.458   4.765
 2235SOL     OW 6954   7.343   3.647   0.203
 2235SOL    HW1 6955   7.314   3.623   0.290
 2235SOL    HW2 6956   7.298   3.730   0.185
 2236SOL     OW 6957   8.128  10.025   0.686
 2236SOL    HW1 6958   8.049   9.973   0.670
 2236SOL    HW2 6959   8.201   9.966   0.667
 2237SOL     OW 6960  11.357   7.256   5.476
 2237SOL    HW1 6961  11.284   7.311   5.447
 2237SOL    HW2 6962  11.434   7.295   5.436
 2238SOL     OW 6963   4.352   8.027   2.036
 2238SOL    HW1 6964   4.352   7.941   2.079
 2238SOL    HW2 6965   4.271   8.068   2.066
 2239SOL     OW 6966  13.866  14.345   5.935
 2239SOL    HW1 6967  13.854  14.253   5.960
 2239SOL    HW2 6968  13.871  14.392   6.018
 2240SOL     OW 6969   7.981   6.395   3.665
 2240SOL    HW1 6970   7.992   6.370   3.757
 2240SOL    HW2 6971   7.918   6.467   3.667
 2241SOL     OW 6972  13.716   7.853   7.122
 2241SOL    HW1 6973  13.643   7.881   7.176
 2241SOL    HW2 6974  13.769   7.931   7.109
 2242SOL     OW 6975  12.906   6.772   6.999
 2242SOL    HW1 6976  12.989   6.814   6.975
 2242SOL    HW2 6977  12.873   6.736   6.916
 2243SOL     OW 6978  10.127  13.439   4.605
 2243SOL    HW1 6979  10.117  13.397   4.519
 2243SOL    HW2 6980  10.041  13.433   4.645
 2244SOL     OW 6981  12.076   2.178   2.338
 2244SOL    HW1 6982  12.012   2.152   2.404
 2244SOL    HW2 6983  12.059   2.120   2.263
 2245SOL     OW 6984   4.154   8.413   1.381
 2245SOL    HW1 6985   4.227   8.435   1.322
 2245SOL    HW2 6986   4.088   8.480   1.364
 2246SOL     OW 6987   6.853   7.299   3.927
 2246SOL    HW1 6988   6.862   7.280   3.833
 2246SOL    HW2 6989   6.761   7.320   3.939
 2247SOL     OW 6990  10.404   6.163   6.522
 2247SOL    HW1 6991  10.363   6.197   6.442
 2247SOL    HW2 6992  10.356   6.083   6.542
 2248SOL     OW 6993   7.629   3.860   4.379
 2248SOL    HW1 6994   7.618   3.918   4.454
 2248SOL    HW2 6995   7.661   3.917   4.309
 2249SOL     OW 6996   7.472   5.915   1.649
 2249SOL    HW1 6997   7.537   5.931   1.718
 2249SOL    HW2 6998   7.485   5.823   1.626
 2250SOL     OW 6999   3.832   4.361   0.991
 2250SOL    HW1 7000   3.765   4.429   0.987
 2250SOL    HW2 7001   3.869   4.359   0.902
 2251SOL     OW 7002   6.256  12.394   5.268
 2251SOL    HW1 7003   6.255  12.487   5.245
 2251SOL    HW2 7004   6.204  12.388   5.348
 2252SOL     OW 7005  12.762   8.357   3.303
 2252SOL    HW1 7006  12.848   8.325   3.328
 2252SOL    HW2 7007  12.747   8.321   3.215
 2253SOL     OW 7008   9.492  13.463   7.552
 2253SOL    HW1 7009   9.494  13.390   7.613
 2253SOL    HW2 7010   9.409  13.454   7.506
 2254SOL     OW 7011   9.136  11.339   4.058
 2254SOL    HW1 7012   9.070  11.390   4.105
 2254SOL    HW2 7013   9.101  11.250   4.056
 2255SOL     OW 7014   5.440  11.009   1.611
 2255SOL    HW1 7015   5.357  10.979   1.649
 2255SOL    HW2 7016   5.423  11.012   1.516
 2256SOL     OW 7017   6.463   7.764   2.863
 2256SOL    HW1 7018   6.406   7.792   2.791
 2256SOL    HW2 7019   6.462   7.668   2.858
 2257SOL     OW 7020   4.241  12.665   3.525
 2257SOL    HW1 7021   4.213  12.636   3.438
 2257SOL    HW2 7022   4.223  12.759   3.526
 2258SOL     OW 7023   8.391   8.161   4.558
 2258SOL    HW1 7024   8.404   8.068   4.541
 2258SOL    HW2 7025   8.298   8.169   4.578
 2259SOL     OW 7026   8.016   8.692   1.813
 2259SOL    HW1 7027   8.061   8.609   1.830
 2259SOL    HW2 7028   7.937   8.688   1.866
 2260SOL     OW 7029   9.464  10.156   1.643
 2260SOL    HW1 7030   9.485  10.149   1.550
 2260SOL    HW2 7031   9.376  10.118   1.650
 2261SOL     OW 7032   8.940   2.003   2.303
 2261SOL    HW1 7033   8.906   2.026   2.217
 2261SOL    HW2 7034   8.968   1.912   2.295
 2262SOL     OW 7035   8.111  12.626   5.684
 2262SOL    HW1 7036   8.091  12.700   5.626
 2262SOL    HW2 7037   8.083  12.549   5.636
 2263SOL     OW 7038   3.278   7.279   2.507
 2263SOL    HW1 7039   3.296   7.371   2.489
 2263SOL    HW2 7040   3.188   7.266   2.478
 2264SOL     OW 7041  12.767   6.763   3.664
 2264SOL    HW1 7042  12.694   6.801   3.713
 2264SOL    HW2 7043  12.760   6.669   3.679
 2265SOL     OW 7044   5.776  10.121   4.340
 2265SOL    HW1 7045   5.824  10.121   4.257
 2265SOL    HW2 7046   5.722  10.200   4.335
 2266SOL     OW 7047   4.634  12.312   3.184
 2266SOL    HW1 7048   4.724  12.303   3.213
 2266SOL    HW2 7049   4.637  12.292   3.090
 2267SOL     OW 7050   7.636   6.380   3.985
 2267SOL    HW1 7051   7.576   6.452   3.968
 2267SOL    HW2 7052   7.701   6.417   4.045
 2268SOL     OW 7053  11.317  10.647   3.894
 2268SOL    HW1 7054  11.402  10.683   3.869
 2268SOL    HW2 7055  11.309  10.667   3.987
 2269SOL     OW 7056   4.154   2.594   3.643
 2269SOL    HW1 7057   4.227  13.332   3.693
 2269SOL    HW2 7058   4.111  13.292   3.604
 2270SOL     OW 7059   9.509  13.198   7.350
 2270SOL    HW1 7060   9.568  13.215   7.423
 2270SOL    HW2 7061   9.429  13.244   7.373
 2271SOL     OW 7062   3.533   4.976   2.828
 2271SOL    HW1 7063   3.555   5.024   2.748
 2271SOL    HW2 7064   3.569   4.888   2.815
 2272SOL     OW 7065   6.860  12.603   5.020
 2272SOL    HW1 7066   6.888  12.676   5.075
 2272SOL    HW2 7067   6.848  12.531   5.082
 2273SOL     OW 7068   4.580   9.917   5.276
 2273SOL    HW1 7069   4.675   9.922   5.293
 2273SOL    HW2 7070   4.559   9.998   5.230
 2274SOL     OW 7071  15.296  11.738   6.711
 2274SOL    HW1 7072  15.266  11.687   6.786
 2274SOL    HW2 7073  15.278  11.683   6.635
 2275SOL     OW 7074  10.260   5.260   3.185
 2275SOL    HW1 7075  10.283   5.215   3.266
 2275SOL    HW2 7076  10.187   5.209   3.149
 2276SOL     OW 7077  11.157   7.528   2.852
 2276SOL    HW1 7078  11.172   7.525   2.758
 2276SOL    HW2 7079  11.244   7.515   2.891
 2277SOL     OW 7080  10.398   3.621   1.674
 2277SOL    HW1 7081  10.399   3.536   1.719
 2277SOL    HW2 7082  10.374   3.683   1.743
 2278SOL     OW 7083   5.784   7.293   3.100
 2278SOL    HW1 7084   5.716   7.358   3.087
 2278SOL    HW2 7085   5.742   7.210   3.078
 2279SOL     OW 7086  12.093   8.135   4.964
 2279SOL    HW1 7087  12.097   8.132   5.060
 2279SOL    HW2 7088  12.154   8.068   4.935
 2280SOL     OW 7089   8.951   0.882   0.553
 2280SOL    HW1 7090   9.016   0.886   0.624
 2280SOL    HW2 7091   8.984   0.942   0.486
 2281SOL     OW 7092   8.269   8.845   1.768
 2281SOL    HW1 7093   8.241   8.755   1.753
 2281SOL    HW2 7094   8.188   8.896   1.767
 2282SOL     OW 7095   9.439   5.184   4.437
 2282SOL    HW1 7096   9.495   5.192   4.514
 2282SOL    HW2 7097   9.477   5.113   4.386
 2283SOL     OW 7098   9.610   6.319   4.477
 2283SOL    HW1 7099   9.586   6.411   4.471
 2283SOL    HW2 7100   9.564   6.287   4.555
 2284SOL     OW 7101   5.474  12.086   2.356
 2284SOL    HW1 7102   5.459  12.176   2.327
 2284SOL    HW2 7103   5.565  12.068   2.330
 2285SOL     OW 7104   3.749   6.615   1.007
 2285SOL    HW1 7105   3.840   6.594   0.985
 2285SOL    HW2 7106   3.712   6.531   1.035
 2286SOL     OW 7107   8.663   9.121   3.134
 2286SOL    HW1 7108   8.726   9.129   3.205
 2286SOL    HW2 7109   8.700   9.055   3.075
 2287SOL     OW 7110   7.691   2.386   0.507
 2287SOL    HW1 7111   7.759   2.374   0.573
 2287SOL    HW2 7112   7.737   2.384   0.423
 2288SOL     OW 7113   7.779   5.038   2.097
 2288SOL    HW1 7114   7.684   5.046   2.103
 2288SOL    HW2 7115   7.812   5.103   2.158
 2289SOL     OW 7116   7.649   8.109   5.373
 2289SOL    HW1 7117   7.717   8.042   5.362
 2289SOL    HW2 7118   7.678   8.159   5.450
 2290SOL     OW 7119   4.812   2.454   2.738
 2290SOL    HW1 7120   4.723   2.420   2.729
 2290SOL    HW2 7121   4.802   2.532   2.792
 2291SOL     OW 7122   9.249   8.815   4.949
 2291SOL    HW1 7123   9.154   8.804   4.940
 2291SOL    HW2 7124   9.259   8.893   5.003
 2292SOL     OW 7125  15.304   8.362   7.242
 2292SOL    HW1 7126  15.303   8.329   7.332
 2292SOL    HW2 7127  15.375   8.315   7.199
 2293SOL     OW 7128  10.582   8.715   3.731
 2293SOL    HW1 7129  10.611   8.778   3.797
 2293SOL    HW2 7130  10.504   8.756   3.691
 2294SOL     OW 7131   0.405   3.536   0.185
 2294SOL    HW1 7132   0.468   3.474   0.222
 2294SOL    HW2 7133   0.340   3.480   0.141
 2295SOL     OW 7134   9.399   6.640   1.845
 2295SOL    HW1 7135   9.486   6.599   1.845
 2295SOL    HW2 7136   9.359   6.611   1.763
 2296SOL     OW 7137  11.323   7.811   6.307
 2296SOL    HW1 7138  11.274   7.742   6.262
 2296SOL    HW2 7139  11.378   7.850   6.239
 2297SOL     OW 7140  13.646   7.567   5.564
 2297SOL    HW1 7141  13.685   7.520   5.491
 2297SOL    HW2 7142  13.562   7.599   5.530
 2298SOL     OW 7143   3.712   9.571   3.096
 2298SOL    HW1 7144   3.790   9.549   3.045
 2298SOL    HW2 7145   3.730   9.658   3.130
 2299SOL     OW 7146   6.988   5.699   5.417
 2299SOL    HW1 7147   7.043   5.769   5.452
 2299SOL    HW2 7148   6.902   5.716   5.455
 2300SOL     OW 7149   5.566   2.446   1.106
 2300SOL    HW1 7150   5.608   2.504   1.170
 2300SOL    HW2 7151   5.500   2.399   1.157
 2301SOL     OW 7152   7.185   5.654   3.678
 2301SOL    HW1 7153   7.154   5.566   3.658
 2301SOL    HW2 7154   7.150   5.672   3.765
 2302SOL     OW 7155  13.685   8.944   5.170
 2302SOL    HW1 7156  13.665   8.873   5.109
 2302SOL    HW2 7157  13.612   8.944   5.231
 2303SOL     OW 7158   8.740  13.416   6.381
 2303SOL    HW1 7159   8.836  13.413   6.373
 2303SOL    HW2 7160   8.714  13.325   6.388
 2304SOL     OW 7161   2.168  10.724   0.609
 2304SOL    HW1 7162   2.236  10.740   0.674
 2304SOL    HW2 7163   2.090  10.703   0.660
 2305SOL     OW 7164   6.138   3.718   2.471
 2305SOL    HW1 7165   6.178   3.662   2.404
 2305SOL    HW2 7166   6.160   3.676   2.554
 2306SOL     OW 7167  10.321   4.152   1.947
 2306SOL    HW1 7168  10.276   4.166   1.864
 2306SOL    HW2 7169  10.379   4.227   1.956
 2307SOL     OW 7170  10.924   7.338   4.967
 2307SOL    HW1 7171  10.831   7.345   4.945
 2307SOL    HW2 7172  10.965   7.302   4.888
 2308SOL     OW 7173  15.481   6.356   7.603
 2308SOL    HW1 7174  10.060   0.941   0.069
 2308SOL    HW2 7175  15.464   6.450   7.599
 2309SOL     OW 7176   2.833   1.312   1.503
 2309SOL    HW1 7177   2.825   1.220   1.478
 2309SOL    HW2 7178   2.856   1.310   1.596
 2310SOL     OW 7179  12.671  12.775   3.506
 2310SOL    HW1 7180  12.637  12.817   3.585
 2310SOL    HW2 7181  12.616  12.810   3.435
 2311SOL     OW 7182   6.414  10.439   1.398
 2311SOL    HW1 7183   6.336  10.415   1.448
 2311SOL    HW2 7184   6.384  10.446   1.308
 2312SOL     OW 7185   8.495  12.348   3.783
 2312SOL    HW1 7186   8.423  12.296   3.818
 2312SOL    HW2 7187   8.453  12.417   3.733
 2313SOL     OW 7188  10.102  12.436   6.670
 2313SOL    HW1 7189  10.035  12.369   6.682
 2313SOL    HW2 7190  10.182  12.386   6.654
 2314SOL     OW 7191  11.069   9.977   0.891
 2314SOL    HW1 7192  11.140   9.913   0.880
 2314SOL    HW2 7193  11.009   9.959   0.818
 2315SOL     OW 7194   7.883   0.680   0.791
 2315SOL    HW1 7195   7.861   0.601   0.840
 2315SOL    HW2 7196   7.874   0.751   0.854
 2316SOL     OW 7197   7.791  10.359   3.724
 2316SOL    HW1 7198   7.859  10.427   3.720
 2316SOL    HW2 7199   7.710  10.407   3.743
 2317SOL     OW 7200   2.499   2.538   0.107
 2317SOL    HW1 7201   2.542   2.464   0.063
 2317SOL    HW2 7202   2.570   2.599   0.126
 2318SOL     OW 7203   8.302  13.294   4.951
 2318SOL    HW1 7204   8.376  13.300   4.891
 2318SOL    HW2 7205   8.279  13.201   4.951
 2319SOL     OW 7206  11.023   7.747   5.058
 2319SOL    HW1 7207  10.967   7.672   5.039
 2319SOL    HW2 7208  11.112   7.712   5.052
 2320SOL     OW 7209  12.381   6.352   2.518
 2320SOL    HW1 7210  12.468   6.372   2.551
 2320SOL    HW2 7211  12.365   6.418   2.451
 2321SOL     OW 7212   1.968   8.307   2.572
 2321SOL    HW1 7213   2.046   8.350   2.535
 2321SOL    HW2 7214   1.895   8.339   2.519
 2322SOL     OW 7215   7.815   7.568   3.130
 2322SOL    HW1 7216   7.880   7.615   3.181
 2322SOL    HW2 7217   7.748   7.544   3.194
 2323SOL     OW 7218   5.428   9.706   2.304
 2323SOL    HW1 7219   5.493   9.655   2.255
 2323SOL    HW2 7220   5.435   9.794   2.267
 2324SOL     OW 7221  10.857   7.238   4.179
 2324SOL    HW1 7222  10.807   7.319   4.192
 2324SOL    HW2 7223  10.937   7.251   4.229
 2325SOL     OW 7224   8.477  15.521   7.498
 2325SOL    HW1 7225   8.414  15.450   7.487
 2325SOL    HW2 7226   8.552  15.480   7.540
 2326SOL     OW 7227   3.678   5.763   2.285
 2326SOL    HW1 7228   3.707   5.702   2.352
 2326SOL    HW2 7229   3.706   5.722   2.202
 2327SOL     OW 7230  10.638  10.247   5.876
 2327SOL    HW1 7231  10.597  10.332   5.860
 2327SOL    HW2 7232  10.623  10.231   5.969
 2328SOL     OW 7233   6.952   3.943   1.172
 2328SOL    HW1 7234   6.932   3.870   1.232
 2328SOL    HW2 7235   6.891   4.012   1.198
 2329SOL     OW 7236   8.302   2.439   0.644
 2329SOL    HW1 7237   8.323   2.522   0.600
 2329SOL    HW2 7238   8.210   2.449   0.670
 2330SOL     OW 7239   9.411  11.361   3.470
 2330SOL    HW1 7240   9.469  11.368   3.395
 2330SOL    HW2 7241   9.378  11.449   3.484
 2331SOL     OW 7242  12.495   6.652   5.133
 2331SOL    HW1 7243  12.443   6.574   5.113
 2331SOL    HW2 7244  12.545   6.628   5.212
 2332SOL     OW 7245   7.027  10.228   6.783
 2332SOL    HW1 7246   6.938  10.204   6.811
 2332SOL    HW2 7247   7.077  10.147   6.788
 2333SOL     OW 7248  11.388   5.112   5.396
 2333SOL    HW1 7249  11.390   5.109   5.300
 2333SOL    HW2 7250  11.296   5.100   5.419
 2334SOL     OW 7251   6.260   2.382   2.968
 2334SOL    HW1 7252   6.311   2.386   2.887
 2334SOL    HW2 7253   6.233   2.472   2.984
 2335SOL     OW 7254   8.391  11.588   3.303
 2335SOL    HW1 7255   8.411  11.563   3.213
 2335SOL    HW2 7256   8.424  11.678   3.311
 2336SOL     OW 7257   1.758   2.059   1.965
 2336SOL    HW1 7258   1.832   2.072   2.025
 2336SOL    HW2 7259   1.685   2.106   2.006
 2337SOL     OW 7260  14.908   6.865   6.657
 2337SOL    HW1 7261  15.002   6.850   6.649
 2337SOL    HW2 7262  14.892   6.943   6.604
 2338SOL     OW 7263   3.869   2.810   3.738
 2338SOL    HW1 7264   3.860   2.902   3.762
 2338SOL    HW2 7265   3.914   2.811   3.654
 2339SOL     OW 7266   2.834   4.751   1.713
 2339SOL    HW1 7267   2.922   4.715   1.714
 2339SOL    HW2 7268   2.801   4.737   1.801
 2340SOL     OW 7269   8.906   3.868   3.692
 2340SOL    HW1 7270   8.920   3.954   3.653
 2340SOL    HW2 7271   8.871   3.886   3.780
 2341SOL     OW 7272   7.018   9.947   1.087
 2341SOL    HW1 7273   7.029   9.880   1.154
 2341SOL    HW2 7274   7.021   9.900   1.004
 2342SOL     OW 7275   3.051  11.292   1.979
 2342SOL    HW1 7276   3.066  11.316   2.070
 2342SOL    HW2 7277   3.129  11.322   1.933
 2343SOL     OW 7278  12.795  11.199   7.560
 2343SOL    HW1 7279  12.796  11.208   7.465
 2343SOL    HW2 7280  12.716  11.148   7.579
 2344SOL     OW 7281   5.963   7.040   1.451
 2344SOL    HW1 7282   5.889   7.034   1.390
 2344SOL    HW2 7283   5.935   6.991   1.528
 2345SOL     OW 7284   6.352   9.451   5.732
 2345SOL    HW1 7285   6.366   9.540   5.764
 2345SOL    HW2 7286   6.380   9.395   5.804
 2346SOL     OW 7287   6.408   3.662   4.236
 2346SOL    HW1 7288   6.402   3.660   4.332
 2346SOL    HW2 7289   6.490   3.707   4.218
 2347SOL     OW 7290   5.223   6.285   1.794
 2347SOL    HW1 7291   5.234   6.194   1.766
 2347SOL    HW2 7292   5.200   6.331   1.713
 2348SOL     OW 7293   6.648  11.988   7.321
 2348SOL    HW1 7294   6.560  12.025   7.328
 2348SOL    HW2 7295   6.644  11.907   7.373
 2349SOL     OW 7296  12.089   4.926   2.698
 2349SOL    HW1 7297  12.026   4.856   2.688
 2349SOL    HW2 7298  12.041   5.006   2.675
 2350SOL     OW 7299   9.293   9.627   4.771
 2350SOL    HW1 7300   9.271   9.546   4.817
 2350SOL    HW2 7301   9.234   9.629   4.696
 2351SOL     OW 7302   5.829   8.985   7.048
 2351SOL    HW1 7303   5.888   9.014   6.979
 2351SOL    HW2 7304   5.861   9.030   7.127
 2352SOL     OW 7305   9.602  15.430   7.198
 2352SOL    HW1 7306   9.621  15.336   7.199
 2352SOL    HW2 7307   9.597  15.455   7.290
 2353SOL     OW 7308   8.657   7.946   2.414
 2353SOL    HW1 7309   8.652   7.899   2.497
 2353SOL    HW2 7310   8.582   8.005   2.416
 2354SOL     OW 7311   4.249   0.342   0.465
 2354SOL    HW1 7312   4.224   0.432   0.484
 2354SOL    HW2 7313   4.301  11.090   0.541
 2355SOL     OW 7314  12.457  13.511   4.378
 2355SOL    HW1 7315  12.416  13.496   4.463
 2355SOL    HW2 7316  12.449  13.606   4.365
 2356SOL     OW 7317   3.045   4.362   4.034
 2356SOL    HW1 7318   3.110   4.426   4.005
 2356SOL    HW2 7319   3.091   4.308   4.098
 2357SOL     OW 7320   8.001  13.021   6.145
 2357SOL    HW1 7321   7.984  12.965   6.069
 2357SOL    HW2 7322   8.069  13.081   6.115
 2358SOL     OW 7323  13.097   7.788   6.159
 2358SOL    HW1 7324  13.024   7.766   6.217
 2358SOL    HW2 7325  13.156   7.840   6.213
 2359SOL     OW 7326  10.707   2.768   1.097
 2359SOL    HW1 7327  10.802   2.775   1.097
 2359SOL    HW2 7328  10.677   2.855   1.121
 2360SOL     OW 7329  15.090  13.856   7.541
 2360SOL    HW1 7330  15.101  13.868   7.447
 2360SOL    HW2 7331  15.170  13.814   7.570
 2361SOL     OW 7332  12.326   2.545   3.369
 2361SOL    HW1 7333  12.338   2.474   3.431
 2361SOL    HW2 7334  12.310   2.502   3.285
 2362SOL     OW 7335   5.571   4.335   5.754
 2362SOL    HW1 7336   5.640   4.310   5.692
 2362SOL    HW2 7337   5.499   4.366   5.698
 2363SOL     OW 7338  11.587   8.946   3.891
 2363SOL    HW1 7339  11.608   8.944   3.984
 2363SOL    HW2 7340  11.632   8.870   3.855
 2364SOL     OW 7341   9.695   9.934   4.547
 2364SOL    HW1 7342   9.730   9.853   4.511
 2364SOL    HW2 7343   9.644   9.906   4.623
 2365SOL     OW 7344   5.431   7.819   4.079
 2365SOL    HW1 7345   5.456   7.739   4.033
 2365SOL    HW2 7346   5.479   7.888   4.034
 2366SOL     OW 7347   5.498  11.489   3.075
 2366SOL    HW1 7348   5.415  11.495   3.029
 2366SOL    HW2 7349   5.552  11.430   3.022
 2367SOL     OW 7350   6.126   8.770   0.354
 2367SOL    HW1 7351   6.077   8.706   0.406
 2367SOL    HW2 7352   6.059   8.817   0.305
 2368SOL     OW 7353  13.836  10.286   5.470
 2368SOL    HW1 7354  13.913  10.231   5.478
 2368SOL    HW2 7355  13.785  10.269   5.550
 2369SOL     OW 7356   5.366   6.086   5.437
 2369SOL    HW1 7357   5.281   6.059   5.472
 2369SOL    HW2 7358   5.425   6.082   5.512
 2370SOL     OW 7359   5.786   3.432   1.464
 2370SOL    HW1 7360   5.836   3.491   1.408
 2370SOL    HW2 7361   5.844   3.413   1.538
 2371SOL     OW 7362   9.431   7.392   2.841
 2371SOL    HW1 7363   9.421   7.480   2.876
 2371SOL    HW2 7364   9.506   7.397   2.783
 2372SOL     OW 7365   6.854   3.374   1.442
 2372SOL    HW1 7366   6.764   3.384   1.471
 2372SOL    HW2 7367   6.864   3.440   1.373
 2373SOL     OW 7368  10.681  13.842   4.354
 2373SOL    HW1 7369  10.680  13.798   4.438
 2373SOL    HW2 7370  10.623  13.789   4.298
 2374SOL     OW 7371   5.404   0.852   0.430
 2374SOL    HW1 7372   5.380   0.915   0.362
 2374SOL    HW2 7373   5.499   0.842   0.421
 2375SOL     OW 7374   9.129  10.707   3.232
 2375SOL    HW1 7375   9.186  10.783   3.221
 2375SOL    HW2 7376   9.178  10.648   3.289
 2376SOL     OW 7377   7.340  10.948   0.389
 2376SOL    HW1 7378   7.282  11.024   0.383
 2376SOL    HW2 7379   7.406  10.962   0.322
 2377SOL     OW 7380  12.035   8.339   5.942
 2377SOL    HW1 7381  12.125   8.359   5.918
 2377SOL    HW2 7382  12.012   8.263   5.888
 2378SOL     OW 7383   6.645  13.790   4.908
 2378SOL    HW1 7384   6.728  13.837   4.903
 2378SOL    HW2 7385   6.585  13.841   4.853
 2379SOL     OW 7386  12.901   6.554   5.770
 2379SOL    HW1 7387  12.842   6.623   5.737
 2379SOL    HW2 7388  12.912   6.574   5.863
 2380SOL     OW 7389   2.150   4.570   1.474
 2380SOL    HW1 7390   2.238   4.565   1.512
 2380SOL    HW2 7391   2.146   4.496   1.413
 2381SOL     OW 7392   4.608   7.532   5.547
 2381SOL    HW1 7393   4.648   7.592   5.609
 2381SOL    HW2 7394   4.594   7.585   5.468
 2382SOL     OW 7395  14.556   7.749   6.513
 2382SOL    HW1 7396  14.497   7.681   6.545
 2382SOL    HW2 7397  14.500   7.823   6.493
 2383SOL     OW 7398   7.337  10.002   1.765
 2383SOL    HW1 7399   7.368   9.953   1.688
 2383SOL    HW2 7400   7.293  10.079   1.728
 2384SOL     OW 7401  10.769   9.065   7.530
 2384SOL    HW1 7402  10.835   9.098   7.592
 2384SOL    HW2 7403  10.729   9.144   7.493
 2385SOL     OW 7404  10.921  10.135   1.227
 2385SOL    HW1 7405  10.851  10.146   1.162
 2385SOL    HW2 7406  10.920  10.216   1.277
 2386SOL     OW 7407   3.864   5.547   1.771
 2386SOL    HW1 7408   3.954   5.577   1.757
 2386SOL    HW2 7409   3.852   5.478   1.707
 2387SOL     OW 7410   5.734  10.397   3.745
 2387SOL    HW1 7411   5.706  10.380   3.655
 2387SOL    HW2 7412   5.700  10.324   3.795
 2388SOL     OW 7413   6.670   7.825   5.805
 2388SOL    HW1 7414   6.647   7.849   5.895
 2388SOL    HW2 7415   6.600   7.764   5.779
 2389SOL     OW 7416  11.796   5.078   5.108
 2389SOL    HW1 7417  11.728   5.014   5.127
 2389SOL    HW2 7418  11.808   5.073   5.013
 2390SOL     OW 7419   2.721   4.001   3.341
 2390SOL    HW1 7420   2.759   4.049   3.268
 2390SOL    HW2 7421   2.633   3.979   3.310
 2391SOL     OW 7422   5.694   3.912   1.364
 2391SOL    HW1 7423   5.639   3.984   1.393
 2391SOL    HW2 7424   5.704   3.925   1.270
 2392SOL     OW 7425   7.214   9.823   0.322
 2392SOL    HW1 7426   7.282   9.820   0.389
 2392SOL    HW2 7427   7.149   9.759   0.352
 2393SOL     OW 7428   4.372  11.922   5.486
 2393SOL    HW1 7429   4.297  11.970   5.522
 2393SOL    HW2 7430   4.439  11.927   5.554
 2394SOL     OW 7431   6.123  10.288   3.483
 2394SOL    HW1 7432   6.060  10.217   3.491
 2394SOL    HW2 7433   6.148  10.287   3.390
 2395SOL     OW 7434   6.673   3.003   1.892
 2395SOL    HW1 7435   6.732   2.938   1.930
 2395SOL    HW2 7436   6.695   3.085   1.936
 2396SOL     OW 7437  11.210   3.663   3.643
 2396SOL    HW1 7438  11.197   3.622   3.557
 2396SOL    HW2 7439  11.263   3.740   3.625
 2397SOL     OW 7440   2.739  10.028   2.194
 2397SOL    HW1 7441   2.659  10.060   2.153
 2397SOL    HW2 7442   2.781   9.975   2.127
 2398SOL     OW 7443   4.740   3.698   0.983
 2398SOL    HW1 7444   4.757   3.735   0.896
 2398SOL    HW2 7445   4.702   3.770   1.033
 2399SOL     OW 7446   7.721   4.979   1.038
 2399SOL    HW1 7447   7.771   4.971   0.957
 2399SOL    HW2 7448   7.742   4.899   1.087
 2400SOL     OW 7449  10.647   9.317   3.356
 2400SOL    HW1 7450  10.577   9.376   3.386
 2400SOL    HW2 7451  10.728   9.358   3.388
 2401SOL     OW 7452   5.974   4.550   1.508
 2401SOL    HW1 7453   6.059   4.587   1.487
 2401SOL    HW2 7454   5.934   4.530   1.423
 2402SOL     OW 7455   2.576  10.814   1.359
 2402SOL    HW1 7456   2.616  10.879   1.300
 2402SOL    HW2 7457   2.552  10.864   1.437
 2403SOL     OW 7458   8.546  10.811   3.881
 2403SOL    HW1 7459   8.522  10.802   3.973
 2403SOL    HW2 7460   8.638  10.786   3.877
 2404SOL     OW 7461   2.184   5.024   1.337
 2404SOL    HW1 7462   2.114   5.087   1.356
 2404SOL    HW2 7463   2.206   4.986   1.422
 2405SOL     OW 7464   8.767   6.358   3.788
 2405SOL    HW1 7465   8.678   6.390   3.769
 2405SOL    HW2 7466   8.775   6.366   3.883
 2406SOL     OW 7467   5.769  10.854   6.647
 2406SOL    HW1 7468   5.805  10.830   6.732
 2406SOL    HW2 7469   5.676  10.830   6.653
 2407SOL     OW 7470  10.017  13.379   6.003
 2407SOL    HW1 7471  10.089  13.346   6.057
 2407SOL    HW2 7472  10.050  13.462   5.968
 2408SOL     OW 7473   8.010   3.072   4.219
 2408SOL    HW1 7474   7.958   3.093   4.141
 2408SOL    HW2 7475   8.023   3.157   4.262
 2409SOL     OW 7476   7.836  11.848   2.785
 2409SOL    HW1 7477   7.838  11.817   2.694
 2409SOL    HW2 7478   7.753  11.895   2.792
 2410SOL     OW 7479  10.670   8.263   0.938
 2410SOL    HW1 7480  10.594   8.255   0.880
 2410SOL    HW2 7481  10.732   8.199   0.905
 2411SOL     OW 7482   5.215   5.069   4.599
 2411SOL    HW1 7483   5.290   5.014   4.620
 2411SOL    HW2 7484   5.243   5.158   4.620
 2412SOL     OW 7485  10.804   4.082   0.436
 2412SOL    HW1 7486  10.841   4.155   0.387
 2412SOL    HW2 7487  10.738   4.121   0.492
 2413SOL     OW 7488  14.293  10.025   7.469
 2413SOL    HW1 7489  14.209  10.034   7.425
 2413SOL    HW2 7490  14.273  10.030   7.562
 2414SOL     OW 7491   9.804   7.843   6.415
 2414SOL    HW1 7492   9.787   7.921   6.362
 2414SOL    HW2 7493   9.761   7.862   6.499
 2415SOL     OW 7494  10.805   5.747   3.897
 2415SOL    HW1 7495  10.824   5.699   3.977
 2415SOL    HW2 7496  10.714   5.776   3.908
 2416SOL     OW 7497  11.710   8.277   1.630
 2416SOL    HW1 7498  11.664   8.194   1.618
 2416SOL    HW2 7499  11.747   8.272   1.718
 2417SOL     OW 7500  11.818   5.938   2.113
 2417SOL    HW1 7501  11.787   5.892   2.035
 2417SOL    HW2 7502  11.780   6.026   2.106
 2418SOL     OW 7503   6.734   3.145   0.707
 2418SOL    HW1 7504   6.674   3.204   0.661
 2418SOL    HW2 7505   6.821   3.178   0.685
 2419SOL     OW 7506  14.041   7.151   6.782
 2419SOL    HW1 7507  14.124   7.106   6.765
 2419SOL    HW2 7508  13.981   7.116   6.717
 2420SOL     OW 7509   4.423   6.833   3.537
 2420SOL    HW1 7510   4.444   6.742   3.555
 2420SOL    HW2 7511   4.414   6.838   3.442
 2421SOL     OW 7512   7.977   4.067   1.017
 2421SOL    HW1 7513   7.997   4.022   0.934
 2421SOL    HW2 7514   7.891   4.107   1.002
 2422SOL     OW 7515  13.230  14.197   6.277
 2422SOL    HW1 7516  13.277  14.140   6.336
 2422SOL    HW2 7517  13.296  14.228   6.215
 2423SOL     OW 7518  11.246   9.438   1.890
 2423SOL    HW1 7519  11.325   9.391   1.864
 2423SOL    HW2 7520  11.178   9.407   1.830
 2424SOL     OW 7521   2.623   8.588   0.598
 2424SOL    HW1 7522   2.690   8.562   0.662
 2424SOL    HW2 7523   2.622   8.518   0.534
 2425SOL     OW 7524  13.527   7.292   3.892
 2425SOL    HW1 7525  13.496   7.375   3.854
 2425SOL    HW2 7526  13.447   7.248   3.920
 2426SOL     OW 7527   9.182  13.240   3.489
 2426SOL    HW1 7528   9.263  13.253   3.538
 2426SOL    HW2 7529   9.176   2.542   3.432
 2427SOL     OW 7530   3.964   2.128   1.146
 2427SOL    HW1 7531   3.924   2.121   1.232
 2427SOL    HW2 7532   4.033   2.062   1.146
 2428SOL     OW 7533  10.241   4.939   6.409
 2428SOL    HW1 7534  10.192   5.020   6.420
 2428SOL    HW2 7535  10.237   4.921   6.315
 2429SOL     OW 7536  12.987  14.703   5.702
 2429SOL    HW1 7537  13.051  14.748   5.758
 2429SOL    HW2 7538  12.909  14.695   5.756
 2430SOL     OW 7539  13.151   4.868   6.592
 2430SOL    HW1 7540  13.131   4.906   6.677
 2430SOL    HW2 7541  13.101   4.920   6.529
 2431SOL     OW 7542  10.457   4.997   5.450
 2431SOL    HW1 7543  10.420   4.971   5.366
 2431SOL    HW2 7544  10.542   5.035   5.429
 2432SOL     OW 7545   8.275   2.320   2.684
 2432SOL    HW1 7546   8.221   2.244   2.660
 2432SOL    HW2 7547   8.319   2.293   2.764
 2433SOL     OW 7548  10.918   3.539   4.725
 2433SOL    HW1 7549  10.960   3.543   4.810
 2433SOL    HW2 7550  10.832   3.578   4.739
 2434SOL     OW 7551  10.178  11.981   6.438
 2434SOL    HW1 7552  10.150  11.909   6.382
 2434SOL    HW2 7553  10.186  12.056   6.380
 2435SOL     OW 7554   8.180  10.355   3.885
 2435SOL    HW1 7555   8.206  10.444   3.864
 2435SOL    HW2 7556   8.102  10.364   3.939
 2436SOL     OW 7557   6.702   4.684   0.836
 2436SOL    HW1 7558   6.754   4.750   0.789
 2436SOL    HW2 7559   6.738   4.685   0.925
 2437SOL     OW 7560   5.974   3.419   1.253
 2437SOL    HW1 7561   6.041   3.478   1.288
 2437SOL    HW2 7562   5.985   3.338   1.302
 2438SOL     OW 7563  13.426   8.738   7.596
 2438SOL    HW1 7564  13.452   8.657   7.552
 2438SOL    HW2 7565  13.465   8.807   7.543
 2439SOL     OW 7566   3.415   9.424   0.420
 2439SOL    HW1 7567   3.459   9.478   0.486
 2439SOL    HW2 7568   3.481   9.413   0.351
 2440SOL     OW 7569   7.721   9.521   3.444
 2440SOL    HW1 7570   7.797   9.579   3.433
 2440SOL    HW2 7571   7.677   9.523   3.359
 2441SOL     OW 7572   7.138   6.674   0.282
 2441SOL    HW1 7573   7.140   6.724   0.200
 2441SOL    HW2 7574   7.208   6.610   0.273
 2442SOL     OW 7575  13.943   4.794   6.481
 2442SOL    HW1 7576  13.951   4.876   6.433
 2442SOL    HW2 7577  13.849   4.784   6.496
 2443SOL     OW 7578   8.813   8.475   5.962
 2443SOL    HW1 7579   8.814   8.571   5.968
 2443SOL    HW2 7580   8.729   8.455   5.921
 2444SOL     OW 7581  12.638  15.838   7.367
 2444SOL    HW1 7582  12.558  15.802   7.406
 2444SOL    HW2 7583  12.636  15.931   7.390
 2445SOL     OW 7584   7.589   8.688   3.976
 2445SOL    HW1 7585   7.679   8.696   4.009
 2445SOL    HW2 7586   7.558   8.778   3.971
 2446SOL     OW 7587  10.267   7.100   5.558
 2446SOL    HW1 7588  10.212   7.049   5.617
 2446SOL    HW2 7589  10.347   7.048   5.548
 2447SOL     OW 7590   3.604   5.882   4.182
 2447SOL    HW1 7591   3.700   5.890   4.189
 2447SOL    HW2 7592   3.570   5.941   4.249
 2448SOL     OW 7593  14.645  13.755   6.577
 2448SOL    HW1 7594  14.607  13.674   6.612
 2448SOL    HW2 7595  14.590  13.825   6.612
 2449SOL     OW 7596   8.963  10.704   3.528
 2449SOL    HW1 7597   9.056  10.700   3.506
 2449SOL    HW2 7598   8.959  10.676   3.620
 2450SOL     OW 7599  12.523  12.677   4.274
 2450SOL    HW1 7600  12.593  12.690   4.211
 2450SOL    HW2 7601  12.538  12.589   4.309
 2451SOL     OW 7602  10.951   4.301   3.224
 2451SOL    HW1 7603  11.017   4.316   3.156
 2451SOL    HW2 7604  10.874   4.348   3.192
 2452SOL     OW 7605   0.421   1.493   0.294
 2452SOL    HW1 7606   0.505   1.476   0.251
 2452SOL    HW2 7607   0.441   1.560   0.359
 2453SOL     OW 7608   9.406   4.783   6.708
 2453SOL    HW1 7609   9.436  15.522   6.792
 2453SOL    HW2 7610   9.484   4.781   6.652
 2454SOL     OW 7611   5.873   6.611   1.431
 2454SOL    HW1 7612   5.883   6.704   1.411
 2454SOL    HW2 7613   5.801   6.608   1.495
 2455SOL     OW 7614   5.832  13.481   4.492
 2455SOL    HW1 7615   5.745  13.449   4.469
 2455SOL    HW2 7616   5.865  13.524   4.413
 2456SOL     OW 7617   7.039   7.130   5.160
 2456SOL    HW1 7618   7.061   7.184   5.236
 2456SOL    HW2 7619   7.069   7.043   5.182
 2457SOL     OW 7620  14.325  11.852   6.641
 2457SOL    HW1 7621  14.338  11.829   6.733
 2457SOL    HW2 7622  14.230  11.849   6.628
 2458SOL     OW 7623   2.850   2.661   3.311
 2458SOL    HW1 7624   2.760   2.632   3.323
 2458SOL    HW2 7625   2.889   2.655   3.398
 2459SOL     OW 7626  13.868   7.510   4.557
 2459SOL    HW1 7627  13.857   7.536   4.466
 2459SOL    HW2 7628  13.859   7.415   4.556
 2460SOL     OW 7629  12.179  10.236   3.693
 2460SOL    HW1 7630  12.132  10.319   3.700
 2460SOL    HW2 7631  12.115  10.171   3.723
 2461SOL     OW 7632   3.434   4.839   2.242
 2461SOL    HW1 7633   3.487   4.918   2.236
 2461SOL    HW2 7634   3.453   4.791   2.160
 2462SOL     OW 7635   5.136   9.025   4.603
 2462SOL    HW1 7636   5.071   9.023   4.533
 2462SOL    HW2 7637   5.085   9.034   4.684
 2463SOL     OW 7638   2.769   4.049   3.067
 2463SOL    HW1 7639   2.820   4.042   2.987
 2463SOL    HW2 7640   2.681   4.020   3.042
 2464SOL     OW 7641   5.070  13.250   5.033
 2464SOL    HW1 7642   5.085  13.305   4.955
 2464SOL    HW2 7643   5.029  13.171   4.998
 2465SOL     OW 7644   7.423   2.029   2.743
 2465SOL    HW1 7645   7.410   2.037   2.837
 2465SOL    HW2 7646   7.340   1.997   2.709
 2466SOL     OW 7647  14.765  11.133   7.383
 2466SOL    HW1 7648  14.690  11.156   7.327
 2466SOL    HW2 7649  14.812  11.215   7.394
 2467SOL     OW 7650   9.171   3.649   4.234
 2467SOL    HW1 7651   9.221   3.672   4.313
 2467SOL    HW2 7652   9.232   3.666   4.162
 2468SOL     OW 7653  14.947   5.620   6.068
 2468SOL    HW1 7654  15.020   5.595   6.125
 2468SOL    HW2 7655  14.885   5.547   6.075
 2469SOL     OW 7656   7.140   7.044   0.318
 2469SOL    HW1 7657   7.178   7.132   0.324
 2469SOL    HW2 7658   7.066   7.046   0.379
 2470SOL     OW 7659   7.436   4.138   2.397
 2470SOL    HW1 7660   7.416   4.162   2.307
 2470SOL    HW2 7661   7.526   4.105   2.395
 2471SOL     OW 7662   4.605  10.592   0.908
 2471SOL    HW1 7663   4.545  10.556   0.842
 2471SOL    HW2 7664   4.551  10.649   0.962
 2472SOL     OW 7665  12.355   6.400   6.059
 2472SOL    HW1 7666  12.441   6.358   6.066
 2472SOL    HW2 7667  12.293   6.333   6.088
 2473SOL     OW 7668   8.909   8.718   1.468
 2473SOL    HW1 7669   8.869   8.668   1.540
 2473SOL    HW2 7670   8.844   8.784   1.446
 2474SOL     OW 7671  10.709   3.672   0.464
 2474SOL    HW1 7672  10.792   3.707   0.431
 2474SOL    HW2 7673  10.672   3.624   0.390
 2475SOL     OW 7674   7.583   6.045   3.919
 2475SOL    HW1 7675   7.563   6.062   4.011
 2475SOL    HW2 7676   7.609   6.130   3.884
 2476SOL     OW 7677  10.414  10.093   4.373
 2476SOL    HW1 7678  10.374  10.176   4.344
 2476SOL    HW2 7679  10.341  10.042   4.408
 2477SOL     OW 7680   8.369   9.145   4.785
 2477SOL    HW1 7681   8.336   9.161   4.873
 2477SOL    HW2 7682   8.458   9.113   4.798
 2478SOL     OW 7683  11.448   6.825   1.862
 2478SOL    HW1 7684  11.371   6.778   1.831
 2478SOL    HW2 7685  11.520   6.762   1.852
 2479SOL     OW 7686  13.456   4.748   5.582
 2479SOL    HW1 7687  13.465   4.827   5.529
 2479SOL    HW2 7688  13.402   4.774   5.656
 2480SOL     OW 7689   8.146  11.987   6.973
 2480SOL    HW1 7690   8.129  11.985   6.879
 2480SOL    HW2 7691   8.158  11.895   6.997
 2481SOL     OW 7692   7.895   2.271   3.212
 2481SOL    HW1 7693   7.908  12.986   3.286
 2481SOL    HW2 7694   7.967   2.251   3.152
 2482SOL     OW 7695  14.325   5.967   5.085
 2482SOL    HW1 7696  14.294   6.051   5.050
 2482SOL    HW2 7697  14.252   5.935   5.139
 2483SOL     OW 7698  11.849   3.919   4.514
 2483SOL    HW1 7699  11.782   3.979   4.545
 2483SOL    HW2 7700  11.826   3.902   4.423
 2484SOL     OW 7701  12.551   7.042   6.560
 2484SOL    HW1 7702  12.601   6.962   6.574
 2484SOL    HW2 7703  12.615   7.113   6.568
 2485SOL     OW 7704   6.934  11.693   2.795
 2485SOL    HW1 7705   6.923  11.691   2.700
 2485SOL    HW2 7706   7.012  11.745   2.809
 2486SOL     OW 7707  10.659  10.064   5.214
 2486SOL    HW1 7708  10.636  10.011   5.290
 2486SOL    HW2 7709  10.753  10.050   5.202
 2487SOL     OW 7710   5.330   8.377   5.074
 2487SOL    HW1 7711   5.322   8.349   5.165
 2487SOL    HW2 7712   5.344   8.296   5.025
 2488SOL     OW 7713   5.919  13.932   5.612
 2488SOL    HW1 7714   5.958  13.912   5.696
 2488SOL    HW2 7715   5.984  13.985   5.566
 2489SOL     OW 7716   9.017   7.453   0.745
 2489SOL    HW1 7717   8.958   7.418   0.679
 2489SOL    HW2 7718   8.959   7.490   0.812
 2490SOL     OW 7719   9.028  13.360   6.363
 2490SOL    HW1 7720   9.037  13.291   6.429
 2490SOL    HW2 7721   9.117  13.393   6.351
 2491SOL     OW 7722   2.215   8.200   2.685
 2491SOL    HW1 7723   2.256   8.268   2.738
 2491SOL    HW2 7724   2.129   8.186   2.725
 2492SOL     OW 7725   8.604   9.583   1.136
 2492SOL    HW1 7726   8.573   9.574   1.046
 2492SOL    HW2 7727   8.693   9.547   1.134
 2493SOL     OW 7728   3.632   6.907   1.193
 2493SOL    HW1 7729   3.687   6.927   1.269
 2493SOL    HW2 7730   3.681   6.941   1.118
 2494SOL     OW 7731  13.798  10.101   4.383
 2494SOL    HW1 7732   3.119  10.098   4.384
 2494SOL    HW2 7733  13.772  10.102   4.475
 2495SOL     OW 7734   1.300   1.571   0.129
 2495SOL    HW1 7735   1.310   1.563   0.034
 2495SOL    HW2 7736   1.390   1.564   0.163
 2496SOL     OW 7737   8.380   6.109   3.259
 2496SOL    HW1 7738   8.285   6.101   3.271
 2496SOL    HW2 7739   8.417   6.059   3.332
 2497SOL     OW 7740   7.375   9.527   5.436
 2497SOL    HW1 7741   7.354   9.518   5.343
 2497SOL    HW2 7742   7.313   9.469   5.480
 2498SOL     OW 7743   9.290   5.844   5.889
 2498SOL    HW1 7744   9.266   5.908   5.956
 2498SOL    HW2 7745   9.236   5.767   5.909
 2499SOL     OW 7746   4.600  11.320   3.535
 2499SOL    HW1 7747   4.667  11.300   3.470
 2499SOL    HW2 7748   4.527  11.355   3.483
 2500SOL     OW 7749  11.995   6.413   5.096
 2500SOL    HW1 7750  11.985   6.497   5.140
 2500SOL    HW2 7751  11.910   6.397   5.055
 2501SOL     OW 7752   5.142   7.884   3.218
 2501SOL    HW1 7753   5.223   7.834   3.226
 2501SOL    HW2 7754   5.170   7.976   3.217
 2502SOL     OW 7755   6.925  14.785   5.955
 2502SOL    HW1 7756   6.836  14.821   5.953
 2502SOL    HW2 7757   6.926  14.717   5.888
 2503SOL     OW 7758   4.988  14.166   6.822
 2503SOL    HW1 7759   4.975  14.071   6.830
 2503SOL    HW2 7760   5.081  14.175   6.800
 2504SOL     OW 7761  10.329  11.949   2.677
 2504SOL    HW1 7762  10.354  12.026   2.627
 2504SOL    HW2 7763  10.401  11.887   2.664
 2505SOL     OW 7764   5.289   9.843   4.216
 2505SOL    HW1 7765   5.255   9.887   4.294
 2505SOL    HW2 7766   5.382   9.829   4.235
 2506SOL     OW 7767  10.675   5.608   6.172
 2506SOL    HW1 7768  10.743   5.621   6.239
 2506SOL    HW2 7769  10.703   5.531   6.123
 2507SOL     OW 7770   4.981   9.142   4.409
 2507SOL    HW1 7771   4.895   9.099   4.419
 2507SOL    HW2 7772   4.971   9.198   4.332
 2508SOL     OW 7773   7.061  13.245   4.464
 2508SOL    HW1 7774   7.022  13.330   4.445
 2508SOL    HW2 7775   7.031  13.189   4.393
 2509SOL     OW 7776  14.210  11.087   7.034
 2509SOL    HW1 7777  14.149  11.151   7.072
 2509SOL    HW2 7778  14.181  11.077   6.943
 2510SOL     OW 7779   2.422   5.632   3.161
 2510SOL    HW1 7780   2.512   5.615   3.134
 2510SOL    HW2 7781   2.387   5.690   3.093
 2511SOL     OW 7782   9.121   9.514   7.540
 2511SOL    HW1 7783   9.094   9.459   7.613
 2511SOL    HW2 7784   9.210   9.485   7.520
 2512SOL     OW 7785   3.070   6.990   3.105
 2512SOL    HW1 7786   3.153   7.016   3.063
 2512SOL    HW2 7787   3.097   6.938   3.180
 2513SOL     OW 7788   8.839   4.340   0.265
 2513SOL    HW1 7789   8.785   4.274   0.220
 2513SOL    HW2 7790   8.781   4.416   0.273
 2514SOL     OW 7791   9.470   1.077   0.660
 2514SOL    HW1 7792   9.462   1.149   0.598
 2514SOL    HW2 7793   9.552   1.033   0.636
 2515SOL     OW 7794   3.786   4.862   4.436
 2515SOL    HW1 7795   3.752   4.809   4.508
 2515SOL    HW2 7796   3.742   4.946   4.444
 2516SOL     OW 7797   9.653   9.170   3.311
 2516SOL    HW1 7798   9.627   9.080   3.333
 2516SOL    HW2 7799   9.644   9.174   3.216
 2517SOL     OW 7800   6.587  12.636   5.725
 2517SOL    HW1 7801   6.568  12.594   5.640
 2517SOL    HW2 7802   6.564  12.569   5.790
 2518SOL     OW 7803   8.678   6.748   3.163
 2518SOL    HW1 7804   8.700   6.829   3.118
 2518SOL    HW2 7805   8.740   6.683   3.129
 2519SOL     OW 7806   4.483  11.256   5.876
 2519SOL    HW1 7807   4.407  11.311   5.857
 2519SOL    HW2 7808   4.445  11.172   5.902
 2520SOL     OW 7809   7.615   3.646   4.197
 2520SOL    HW1 7810   7.566   3.604   4.268
 2520SOL    HW2 7811   7.635   3.734   4.230
 2521SOL     OW 7812  11.505  12.416   3.704
 2521SOL    HW1 7813  11.451  12.421   3.783
 2521SOL    HW2 7814  11.448  12.447   3.634
 2522SOL     OW 7815   5.973  15.367   7.585
 2522SOL    HW1 7816   6.056  15.324   7.564
 2522SOL    HW2 7817   0.553   9.932   0.043
 2523SOL     OW 7818   2.147   3.142   0.742
 2523SOL    HW1 7819   2.235   3.180   0.744
 2523SOL    HW2 7820   2.090   3.213   0.771
 2524SOL     OW 7821   7.318   8.156   0.710
 2524SOL    HW1 7822   7.346   8.115   0.628
 2524SOL    HW2 7823   7.239   8.205   0.687
 2525SOL     OW 7824  10.693   8.957   2.370
 2525SOL    HW1 7825  10.680   8.893   2.441
 2525SOL    HW2 7826  10.704   9.041   2.415
 2526SOL     OW 7827   1.771   1.188   1.024
 2526SOL    HW1 7828   1.738   1.250   0.959
 2526SOL    HW2 7829   1.705   1.118   1.026
 2527SOL     OW 7830   5.891   8.423   6.215
 2527SOL    HW1 7831   5.914   8.407   6.307
 2527SOL    HW2 7832   5.806   8.466   6.219
 2528SOL     OW 7833  11.930   7.459   1.635
 2528SOL    HW1 7834   1.189   7.475   1.547
 2528SOL    HW2 7835   1.231   7.474   1.692
 2529SOL     OW 7836   2.526   7.125   2.210
 2529SOL    HW1 7837   2.550   7.056   2.272
 2529SOL    HW2 7838   2.571   7.203   2.242
 2530SOL     OW 7839   9.069   5.719   2.809
 2530SOL    HW1 7840   9.067   5.652   2.877
 2530SOL    HW2 7841   9.073   5.802   2.857
 2531SOL     OW 7842  11.807  14.343   6.677
 2531SOL    HW1 7843  11.722  14.380   6.698
 2531SOL    HW2 7844  11.861  14.360   6.755
 2532SOL     OW 7845   3.085   4.081   2.503
 2532SOL    HW1 7846   3.142   4.006   2.520
 2532SOL    HW2 7847   3.125   4.153   2.551
 2533SOL     OW 7848   9.111   6.270   0.393
 2533SOL    HW1 7849   9.079   6.181   0.402
 2533SOL    HW2 7850   9.064   6.306   0.318
 2534SOL     OW 7851  11.050  13.074   5.245
 2534SOL    HW1 7852  11.029  13.159   5.283
 2534SOL    HW2 7853  11.014  13.010   5.306
 2535SOL     OW 7854   5.191   3.449   4.499
 2535SOL    HW1 7855   5.171   3.379   4.438
 2535SOL    HW2 7856   5.159   3.418   4.583
 2536SOL     OW 7857   6.872  13.787   5.368
 2536SOL    HW1 7858   6.919  13.869   5.386
 2536SOL    HW2 7859   6.935  13.732   5.322
 2537SOL     OW 7860   1.431  10.574   0.375
 2537SOL    HW1 7861   1.466  10.621   0.451
 2537SOL    HW2 7862   1.364  10.632   0.340
 2538SOL     OW 7863  11.256   4.779   2.733
 2538SOL    HW1 7864  11.294   4.705   2.782
 2538SOL    HW2 7865  11.224   4.838   2.801
 2539SOL     OW 7866   6.201   3.163   1.360
 2539SOL    HW1 7867   6.266   3.225   1.393
 2539SOL    HW2 7868   6.212   3.165   1.265
 2540SOL     OW 7869   9.677  10.428   0.553
 2540SOL    HW1 7870   9.769  10.411   0.535
 2540SOL    HW2 7871   9.641  10.459   0.470
 2541SOL     OW 7872   3.839   3.011   2.364
 2541SOL    HW1 7873   3.759   3.038   2.319
 2541SOL    HW2 7874   3.813   2.934   2.414
 2542SOL     OW 7875   4.638   6.570   1.420
 2542SOL    HW1 7876   4.580   6.639   1.389
 2542SOL    HW2 7877   4.584   6.490   1.418
 2543SOL     OW 7878   6.538  11.085   3.669
 2543SOL    HW1 7879   6.549  11.011   3.729
 2543SOL    HW2 7880   6.569  11.052   3.584
 2544SOL     OW 7881   3.147   3.532   2.256
 2544SOL    HW1 7882   3.180   3.565   2.172
 2544SOL    HW2 7883   3.212   3.468   2.284
 2545SOL     OW 7884   3.065  13.509   3.925
 2545SOL    HW1 7885   3.122  13.451   3.875
 2545SOL    HW2 7886   3.033  13.455   3.997
 2546SOL     OW 7887   7.205   6.923   5.769
 2546SOL    HW1 7888   7.241   6.879   5.846
 2546SOL    HW2 7889   7.269   6.991   5.748
 2547SOL     OW 7890   8.437   5.438   4.169
 2547SOL    HW1 7891   8.381   5.416   4.095
 2547SOL    HW2 7892   8.525   5.413   4.141
 2548SOL     OW 7893  11.128   4.622   5.082
 2548SOL    HW1 7894  11.179   4.701   5.069
 2548SOL    HW2 7895  11.037   4.652   5.088
 2549SOL     OW 7896   5.933  11.144   5.081
 2549SOL    HW1 7897   5.909  11.082   5.012
 2549SOL    HW2 7898   5.897  11.228   5.052
 2550SOL     OW 7899   8.107   8.147   7.056
 2550SOL    HW1 7900   8.180   8.155   6.994
 2550SOL    HW2 7901   8.109   8.056   7.085
 2551SOL     OW 7902   3.245   7.649   2.897
 2551SOL    HW1 7903   3.237   7.554   2.897
 2551SOL    HW2 7904   3.260   7.672   2.989
 2552SOL     OW 7905   1.369  10.006   0.407
 2552SOL    HW1 7906   1.296  10.060   0.375
 2552SOL    HW2 7907   1.391  10.044   0.492
 2553SOL     OW 7908   4.992   4.278   2.897
 2553SOL    HW1 7909   4.922   4.338   2.924
 2553SOL    HW2 7910   4.946   4.206   2.854
 2554SOL     OW 7911   9.097   7.241   4.434
 2554SOL    HW1 7912   9.159   7.167   4.437
 2554SOL    HW2 7913   9.152   7.317   4.416
 2555SOL     OW 7914   1.062   6.540   0.271
 2555SOL    HW1 7915   1.123   6.591   0.217
 2555SOL    HW2 7916   1.051   6.592   0.351
 2556SOL     OW 7917   6.326   1.238   0.317
 2556SOL    HW1 7918   6.411   1.196   0.327
 2556SOL    HW2 7919   6.297   1.254   0.407
 2557SOL     OW 7920   8.491  12.177   6.533
 2557SOL    HW1 7921   8.493  12.097   6.586
 2557SOL    HW2 7922   8.431  12.235   6.579
 2558SOL     OW 7923   6.394   7.449   5.312
 2558SOL    HW1 7924   6.345   7.508   5.369
 2558SOL    HW2 7925   6.465   7.416   5.366
 2559SOL     OW 7926   6.083  12.170   5.780
 2559SOL    HW1 7927   6.001  12.159   5.732
 2559SOL    HW2 7928   6.056  12.184   5.871
 2560SOL     OW 7929   7.569   4.954   3.365
 2560SOL    HW1 7930   7.555   4.994   3.279
 2560SOL    HW2 7931   7.628   5.014   3.410
 2561SOL     OW 7932   3.118   7.655   4.032
 2561SOL    HW1 7933   3.132   7.743   3.997
 2561SOL    HW2 7934   3.162   7.597   3.970
 2562SOL     OW 7935   7.921   7.364   5.696
 2562SOL    HW1 7936   7.971   7.331   5.770
 2562SOL    HW2 7937   7.860   7.293   5.675
 2563SOL     OW 7938  11.489   7.911   1.944
 2563SOL    HW1 7939  11.416   7.968   1.920
 2563SOL    HW2 7940  11.447   7.831   1.976
 2564SOL     OW 7941  10.624   3.383   4.722
 2564SOL    HW1 7942  10.643  14.089   4.786
 2564SOL    HW2 7943  10.538   3.416   4.746
 2565SOL     OW 7944   5.913  12.761   2.922
 2565SOL    HW1 7945   5.831  12.779   2.875
 2565SOL    HW2 7946   5.982  12.780   2.858
 2566SOL     OW 7947   9.528   4.207   1.616
 2566SOL    HW1 7948   9.488   4.243   1.695
 2566SOL    HW2 7949   9.601   4.265   1.597
 2567SOL     OW 7950   7.298  10.803   4.932
 2567SOL    HW1 7951   7.239  10.757   4.872
 2567SOL    HW2 7952   7.256  10.797   5.017
 2568SOL     OW 7953   5.002   8.768   5.955
 2568SOL    HW1 7954   5.069   8.703   5.972
 2568SOL    HW2 7955   5.050   8.850   5.943
 2569SOL     OW 7956   7.784   4.683   2.190
 2569SOL    HW1 7957   7.861   4.627   2.205
 2569SOL    HW2 7958   7.806   4.765   2.233
 2570SOL     OW 7959   3.905  11.601   4.010
 2570SOL    HW1 7960   3.862  11.666   4.066
 2570SOL    HW2 7961   3.892  11.634   3.921
 2571SOL     OW 7962   9.644   8.050   6.562
 2571SOL    HW1 7963   9.617   8.104   6.637
 2571SOL    HW2 7964   9.601   7.966   6.577
 2572SOL     OW 7965   4.316   7.198   1.335
 2572SOL    HW1 7966   4.285   7.133   1.272
 2572SOL    HW2 7967   4.252   7.196   1.406
 2573SOL     OW 7968   9.165   8.392   5.883
 2573SOL    HW1 7969   9.157   8.302   5.852
 2573SOL    HW2 7970   9.259   8.409   5.885
 2574SOL     OW 7971  12.790   6.521   5.036
 2574SOL    HW1 7972  12.775   6.506   4.943
 2574SOL    HW2 7973  12.788   6.616   5.045
 2575SOL     OW 7974  12.200  11.718   3.527
 2575SOL    HW1 7975  12.181  11.739   3.436
 2575SOL    HW2 7976  12.210  11.803   3.570
 2576SOL     OW 7977   9.604  10.576   0.282
 2576SOL    HW1 7978   9.683  10.554   0.231
 2576SOL    HW2 7979   9.539  10.598   0.215
 2577SOL     OW 7980   5.367   9.561   0.183
 2577SOL    HW1 7981   5.278   9.595   0.183
 2577SOL    HW2 7982   5.422   9.636   0.160
 2578SOL     OW 7983   3.320   4.637   3.229
 2578SOL    HW1 7984   3.403   4.682   3.243
 2578SOL    HW2 7985   3.297   4.600   3.314
 2579SOL     OW 7986   1.905   3.106   0.156
 2579SOL    HW1 7987   1.867   3.104   0.068
 2579SOL    HW2 7988   1.953   3.023   0.163
 2580SOL     OW 7989   8.688   7.761   7.068
 2580SOL    HW1 7990   8.722   7.686   7.019
 2580SOL    HW2 7991   8.666   7.725   7.154
 2581SOL     OW 7992  10.046   5.085   4.339
 2581SOL    HW1 7993  10.130   5.081   4.384
 2581SOL    HW2 7994  10.059   5.031   4.260
 2582SOL     OW 7995   6.517   7.144   1.559
 2582SOL    HW1 7996   6.565   7.166   1.639
 2582SOL    HW2 7997   6.426   7.166   1.579
 2583SOL     OW 7998  11.024   5.582   2.008
 2583SOL    HW1 7999  11.053   5.625   2.089
 2583SOL    HW2 8000  11.015   5.490   2.032
 2584SOL     OW 8001  15.569   7.748   7.215
 2584SOL    HW1 8002  15.614   7.817   7.166
 2584SOL    HW2 8003  15.548   7.787   7.299
 2585SOL     OW 8004   9.722   4.377   0.543
 2585SOL    HW1 8005   9.781   4.322   0.492
 2585SOL    HW2 8006   9.704   4.452   0.486
 2586SOL     OW 8007   4.851   9.222   6.713
 2586SOL    HW1 8008   4.758   9.201   6.721
 2586SOL    HW2 8009   4.884   9.158   6.650
 2587SOL     OW 8010   5.135   8.165   5.668
 2587SOL    HW1 8011   5.086   8.121   5.599
 2587SOL    HW2 8012   5.164   8.247   5.629
 2588SOL     OW 8013   3.982   7.772   0.002
 2588SOL    HW1 8014   3.968   7.688   0.046
 2588SOL    HW2 8015   9.287  13.177   7.576
 2589SOL     OW 8016  10.093  12.509   4.467
 2589SOL    HW1 8017  10.069  12.602   4.463
 2589SOL    HW2 8018  10.058  12.478   4.551
 2590SOL     OW 8019  13.997  14.414   6.589
 2590SOL    HW1 8020  13.955  14.496   6.615
 2590SOL    HW2 8021  13.975  14.352   6.660
 2591SOL     OW 8022   2.888   6.678   1.386
 2591SOL    HW1 8023   2.915   6.742   1.319
 2591SOL    HW2 8024   2.967   6.665   1.439
 2592SOL     OW 8025  11.833   9.602   3.177
 2592SOL    HW1 8026  11.867   9.572   3.262
 2592SOL    HW2 8027  11.781   9.679   3.198
 2593SOL     OW 8028   2.363   2.510   3.074
 2593SOL    HW1 8029   2.322   2.587   3.113
 2593SOL    HW2 8030   2.292   2.467   3.026
 2594SOL     OW 8031  11.856   7.439   4.969
 2594SOL    HW1 8032  11.884   7.479   4.886
 2594SOL    HW2 8033  11.890   7.350   4.965
 2595SOL     OW 8034   5.272  10.373   3.213
 2595SOL    HW1 8035   5.320  10.455   3.210
 2595SOL    HW2 8036   5.222  10.376   3.294
 2596SOL     OW 8037   3.524   1.539   2.088
 2596SOL    HW1 8038   3.534  12.297   2.182
 2596SOL    HW2 8039   3.612   1.526   2.052
 2597SOL     OW 8040  11.047   7.267   3.958
 2597SOL    HW1 8041  11.020   7.178   3.938
 2597SOL    HW2 8042  10.969   7.308   3.996
 2598SOL     OW 8043   6.100   5.752   4.696
 2598SOL    HW1 8044   6.045   5.687   4.652
 2598SOL    HW2 8045   6.122   5.712   4.780
 2599SOL     OW 8046  11.844  10.679   7.097
 2599SOL    HW1 8047  11.930  10.713   7.074
 2599SOL    HW2 8048  11.790  10.699   7.021
 2600SOL     OW 8049   6.995   3.119   2.831
 2600SOL    HW1 8050   6.931   3.180   2.869
 2600SOL    HW2 8051   7.018   3.061   2.904
 2601SOL     OW 8052   6.497   6.599   2.015
 2601SOL    HW1 8053   6.505   6.517   1.966
 2601SOL    HW2 8054   6.405   6.624   2.005
 2602SOL     OW 8055  12.595  10.553   4.468
 2602SOL    HW1 8056  12.611  10.470   4.422
 2602SOL    HW2 8057  12.669  10.562   4.527
 2603SOL     OW 8058   5.490   5.579   2.555
 2603SOL    HW1 8059   5.479   5.533   2.472
 2603SOL    HW2 8060   5.580   5.612   2.552
 2604SOL     OW 8061   7.168   9.584   4.893
 2604SOL    HW1 8062   7.132   9.513   4.840
 2604SOL    HW2 8063   7.228   9.541   4.954
 2605SOL     OW 8064   5.452   7.590   5.759
 2605SOL    HW1 8065   5.515   7.622   5.823
 2605SOL    HW2 8066   5.378   7.559   5.811
 2606SOL     OW 8067  14.333  13.329   6.091
 2606SOL    HW1 8068  14.238  13.317   6.086
 2606SOL    HW2 8069  14.358  13.351   6.001
 2607SOL     OW 8070  11.212  12.836   3.908
 2607SOL    HW1 8071  11.161  12.825   3.827
 2607SOL    HW2 8072  11.262  12.755   3.916
 2608SOL     OW 8073   4.140   9.468   1.327
 2608SOL    HW1 8074   4.072   9.535   1.318
 2608SOL    HW2 8075   4.106   9.407   1.392
 2609SOL     OW 8076  11.625   3.530   4.696
 2609SOL    HW1 8077  11.703   3.575   4.664
 2609SOL    HW2 8078  11.619   3.554   4.788
 2610SOL     OW 8079  13.281   3.179   4.105
 2610SOL    HW1 8080  13.254   3.258   4.152
 2610SOL    HW2 8081  13.362   3.153   4.148
 2611SOL     OW 8082   5.666  13.943   5.855
 2611SOL    HW1 8083   5.655  14.024   5.804
 2611SOL    HW2 8084   5.600  13.884   5.821
 2612SOL     OW 8085   8.627   3.264   1.787
 2612SOL    HW1 8086   8.550   3.244   1.733
 2612SOL    HW2 8087   8.696   3.207   1.752
 2613SOL     OW 8088  13.260  12.425   5.183
 2613SOL    HW1 8089  13.303  12.497   5.229
 2613SOL    HW2 8090  13.167  12.445   5.189
 2614SOL     OW 8091   9.891   8.333   0.127
 2614SOL    HW1 8092   9.875   8.253   0.176
 2614SOL    HW2 8093   9.962   8.310   0.067
 2615SOL     OW 8094   9.806  11.353   5.669
 2615SOL    HW1 8095   9.724  11.394   5.697
 2615SOL    HW2 8096   9.780  11.264   5.643
 2616SOL     OW 8097   3.208  10.085   1.733
 2616SOL    HW1 8098   3.198  10.089   1.828
 2616SOL    HW2 8099   3.129  10.039   1.703
 2617SOL     OW 8100  14.628  15.337   7.360
 2617SOL    HW1 8101  14.643  15.365   7.269
 2617SOL    HW2 8102  14.534  15.319   7.364
 2618SOL     OW 8103  14.213  14.165   6.297
 2618SOL    HW1 8104  14.242  14.096   6.357
 2618SOL    HW2 8105  14.224  14.246   6.346
 2619SOL     OW 8106   5.325   6.242   6.285
 2619SOL    HW1 8107   5.267   6.196   6.346
 2619SOL    HW2 8108   5.285   6.328   6.274
 2620SOL     OW 8109   3.333   3.342   2.536
 2620SOL    HW1 8110   3.343   3.297   2.620
 2620SOL    HW2 8111   3.320   3.434   2.559
 2621SOL     OW 8112   1.750  10.715   1.847
 2621SOL    HW1 8113   1.762  10.789   1.787
 2621SOL    HW2 8114   1.682  10.744   1.908
 2622SOL     OW 8115   9.382   4.872   0.734
 2622SOL    HW1 8116   9.476   4.885   0.752
 2622SOL    HW2 8117   9.345   4.960   0.736
 2623SOL     OW 8118   6.732  11.811   3.131
 2623SOL    HW1 8119   6.664  11.778   3.073
 2623SOL    HW2 8120   6.727  11.755   3.209
 2624SOL     OW 8121   9.464   7.641   1.500
 2624SOL    HW1 8122   9.445   7.550   1.477
 2624SOL    HW2 8123   9.378   7.679   1.519
 2625SOL     OW 8124   9.103   5.211   4.536
 2625SOL    HW1 8125   9.168   5.177   4.474
 2625SOL    HW2 8126   9.155   5.263   4.598
 2626SOL     OW 8127   3.343   8.313   0.411
 2626SOL    HW1 8128   3.368   8.322   0.503
 2626SOL    HW2 8129   3.312   8.400   0.387
 2627SOL     OW 8130   5.564   9.851   7.004
 2627SOL    HW1 8131   5.650   9.891   6.986
 2627SOL    HW2 8132   5.504   9.925   7.012
 2628SOL     OW 8133   4.133   8.007   4.148
 2628SOL    HW1 8134   4.147   8.096   4.117
 2628SOL    HW2 8135   4.148   8.011   4.242
 2629SOL     OW 8136  10.012   7.247   0.834
 2629SOL    HW1 8137   9.966   7.330   0.849
 2629SOL    HW2 8138   9.976   7.187   0.900
 2630SOL     OW 8139   9.814   8.417   4.966
 2630SOL    HW1 8140   9.811   8.480   5.038
 2630SOL    HW2 8141   9.726   8.381   4.962
 2631SOL     OW 8142  13.257  15.773   7.193
 2631SOL    HW1 8143  13.226  15.863   7.200
 2631SOL    HW2 8144  13.236  15.734   7.278
 2632SOL     OW 8145   5.218   7.781   2.223
 2632SOL    HW1 8146   5.201   7.852   2.161
 2632SOL    HW2 8147   5.141   7.724   2.216
 2633SOL     OW 8148   9.092  15.567   7.091
 2633SOL    HW1 8149   9.182  15.559   7.059
 2633SOL    HW2 8150   9.100  15.555   7.186
 2634SOL     OW 8151   6.062  11.248   6.519
 2634SOL    HW1 8152   5.990  11.307   6.498
 2634SOL    HW2 8153   6.036  11.163   6.482
 2635SOL     OW 8154   8.360  12.019   2.881
 2635SOL    HW1 8155   8.282  12.072   2.864
 2635SOL    HW2 8156   8.370  12.022   2.976
 2636SOL     OW 8157   5.816   4.552   0.176
 2636SOL    HW1 8158   5.883   4.614   0.148
 2636SOL    HW2 8159   5.859   4.500   0.243
 2637SOL     OW 8160   4.822  11.898   2.406
 2637SOL    HW1 8161   4.875  11.964   2.362
 2637SOL    HW2 8162   4.810  11.932   2.495
 2638SOL     OW 8163   2.400   8.938   1.385
 2638SOL    HW1 8164   2.313   8.960   1.419
 2638SOL    HW2 8165   2.449   8.909   1.462
 2639SOL     OW 8166   6.379  10.344   4.234
 2639SOL    HW1 8167   6.294  10.308   4.262
 2639SOL    HW2 8168   6.380  10.433   4.270
 2640SOL     OW 8169   7.293   6.011   7.316
 2640SOL    HW1 8170   7.269   5.918   7.312
 2640SOL    HW2 8171   7.259   6.048   7.234
 2641SOL     OW 8172  12.637  11.724   4.779
 2641SOL    HW1 8173  12.652  11.689   4.691
 2641SOL    HW2 8174  12.644  11.819   4.769
 2642SOL     OW 8175   4.957   2.543   2.118
 2642SOL    HW1 8176   5.042   2.569   2.152
 2642SOL    HW2 8177   4.967   2.541   2.023
 2643SOL     OW 8178   8.857  14.469   6.627
 2643SOL    HW1 8179   8.800  14.434   6.696
 2643SOL    HW2 8180   8.821  14.555   6.607
 2644SOL     OW 8181   9.037   8.173   1.872
 2644SOL    HW1 8182   8.992   8.089   1.868
 2644SOL    HW2 8183   8.971   8.235   1.901
 2645SOL     OW 8184  10.655   4.687   5.296
 2645SOL    HW1 8185  10.741   4.687   5.255
 2645SOL    HW2 8186  10.623   4.597   5.285
 2646SOL     OW 8187   6.196  11.669   2.945
 2646SOL    HW1 8188   6.118  11.641   2.992
 2646SOL    HW2 8189   6.221  11.752   2.987
 2647SOL     OW 8190   2.748   6.357   0.499
 2647SOL    HW1 8191   2.674   6.300   0.520
 2647SOL    HW2 8192   2.820   6.324   0.552
 2648SOL     OW 8193   8.362  10.616   7.516
 2648SOL    HW1 8194   8.277  10.584   7.487
 2648SOL    HW2 8195   8.361  10.709   7.496
 2649SOL     OW 8196   5.724  10.286   5.084
 2649SOL    HW1 8197   5.741  10.367   5.036
 2649SOL    HW2 8198   5.704  10.314   5.173
 2650SOL     OW 8199  12.378  10.153   2.370
 2650SOL    HW1 8200  12.430  10.094   2.426
 2650SOL    HW2 8201  12.319  10.095   2.323
 2651SOL     OW 8202   9.079   2.248   2.936
 2651SOL    HW1 8203   9.151   2.202   2.893
 2651SOL    HW2 8204   9.121   2.318   2.986
 2652SOL     OW 8205   9.863   1.855   0.943
 2652SOL    HW1 8206   9.824   1.818   0.865
 2652SOL    HW2 8207   9.818   1.811   1.016
 2653SOL     OW 8208   4.815   5.660   2.748
 2653SOL    HW1 8209   4.888   5.669   2.686
 2653SOL    HW2 8210   4.763   5.738   2.734
 2654SOL     OW 8211  13.451  10.409   6.551
 2654SOL    HW1 8212  13.531  10.448   6.515
 2654SOL    HW2 8213  13.463  10.315   6.539
 2655SOL     OW 8214   7.938   9.789   7.461
 2655SOL    HW1 8215   7.978   9.808   7.377
 2655SOL    HW2 8216   8.007   9.809   7.525
 2656SOL     OW 8217  11.037   8.531   7.243
 2656SOL    HW1 8218  11.001   8.602   7.296
 2656SOL    HW2 8219  10.960   8.479   7.219
 2657SOL     OW 8220   5.471   2.601   2.121
 2657SOL    HW1 8221   5.543   2.635   2.173
 2657SOL    HW2 8222   5.513   2.563   2.044
 2658SOL     OW 8223  11.484  12.179   6.234
 2658SOL    HW1 8224  11.443  12.177   6.148
 2658SOL    HW2 8225  11.441  12.250   6.281
 2659SOL     OW 8226  10.300  11.227   7.110
 2659SOL    HW1 8227  10.362  11.297   7.089
 2659SOL    HW2 8228  10.260  11.204   7.026
 2660SOL     OW 8229   5.565   5.855   1.884
 2660SOL    HW1 8230   5.511   5.796   1.831
 2660SOL    HW2 8231   5.619   5.901   1.819
 2661SOL     OW 8232   1.958   1.472   1.736
 2661SOL    HW1 8233   1.978   1.495   1.646
 2661SOL    HW2 8234   1.918   1.551   1.773
 2662SOL     OW 8235  12.003   7.578   3.122
 2662SOL    HW1 8236  11.948   7.536   3.187
 2662SOL    HW2 8237  12.018   7.666   3.156
 2663SOL     OW 8238  11.385  12.414   3.260
 2663SOL    HW1 8239  11.451  12.348   3.242
 2663SOL    HW2 8240  11.432  12.497   3.260
 2664SOL     OW 8241   7.231   9.821   3.118
 2664SOL    HW1 8242   7.296   9.846   3.052
 2664SOL    HW2 8243   7.213   9.729   3.100
 2665SOL     OW 8244  15.700   8.430   7.260
 2665SOL    HW1 8245  15.757   8.355   7.278
 2665SOL    HW2 8246  15.623   8.393   7.219
 2666SOL     OW 8247   9.782  11.799   4.151
 2666SOL    HW1 8248   9.807  11.857   4.223
 2666SOL    HW2 8249   9.748  11.721   4.194
 2667SOL     OW 8250   7.187   7.691   5.933
 2667SOL    HW1 8251   7.245   7.668   5.860
 2667SOL    HW2 8252   7.100   7.699   5.894
 2668SOL     OW 8253   3.096  11.883   2.767
 2668SOL    HW1 8254   3.007  11.853   2.753
 2668SOL    HW2 8255   3.138  11.813   2.817
 2669SOL     OW 8256   3.986   5.174   3.341
 2669SOL    HW1 8257   3.908   5.177   3.286
 2669SOL    HW2 8258   4.049   5.232   3.297
 2670SOL     OW 8259  11.477   9.874   4.039
 2670SOL    HW1 8260  11.443   9.938   3.977
 2670SOL    HW2 8261  11.489   9.924   4.120
 2671SOL     OW 8262   5.030  10.724   4.355
 2671SOL    HW1 8263   5.070  10.783   4.419
 2671SOL    HW2 8264   5.066  10.638   4.377
 2672SOL     OW 8265  14.634  10.667   6.738
 2672SOL    HW1 8266  14.664  10.691   6.826
 2672SOL    HW2 8267  14.714  10.662   6.686
 2673SOL     OW 8268   4.892   5.745   4.776
 2673SOL    HW1 8269   4.914   5.837   4.763
 2673SOL    HW2 8270   4.860   5.741   4.867
 2674SOL     OW 8271  10.543   7.203   2.711
 2674SOL    HW1 8272  10.544   7.220   2.617
 2674SOL    HW2 8273  10.590   7.278   2.749
 2675SOL     OW 8274   6.868   3.204   2.410
 2675SOL    HW1 8275   6.778   3.172   2.402
 2675SOL    HW2 8276   6.919   3.127   2.434
 2676SOL     OW 8277   6.355   5.135   5.898
 2676SOL    HW1 8278   6.334   5.201   5.832
 2676SOL    HW2 8279   6.290   5.150   5.968
 2677SOL     OW 8280   6.181   3.706   4.591
 2677SOL    HW1 8281   6.148   3.618   4.574
 2677SOL    HW2 8282   6.103   3.761   4.592
 2678SOL     OW 8283   4.466   1.348   0.230
 2678SOL    HW1 8284   4.412   1.394   0.294
 2678SOL    HW2 8285   4.535   1.411   0.209
 2679SOL     OW 8286   4.450   5.852   1.605
 2679SOL    HW1 8287   4.425   5.760   1.605
 2679SOL    HW2 8288   4.372   5.897   1.639
 2680SOL     OW 8289  12.827  13.709   5.861
 2680SOL    HW1 8290  12.868  13.766   5.927
 2680SOL    HW2 8291  12.757  13.664   5.909
 2681SOL     OW 8292  14.958   7.552   7.298
 2681SOL    HW1 8293  14.962   7.601   7.380
 2681SOL    HW2 8294  14.879   7.499   7.305
 2682SOL     OW 8295   3.541  10.070   2.261
 2682SOL    HW1 8296   3.553   9.997   2.321
 2682SOL    HW2 8297   3.446  10.087   2.263
 2683SOL     OW 8298  15.219   8.062   6.373
 2683SOL    HW1 8299  15.228   7.996   6.303
 2683SOL    HW2 8300   4.514   8.125   6.354
 2684SOL     OW 8301   7.389   6.478   1.126
 2684SOL    HW1 8302   7.328   6.515   1.189
 2684SOL    HW2 8303   7.432   6.554   1.087
 2685SOL     OW 8304   8.367   9.296   6.760
 2685SOL    HW1 8305   8.418   9.224   6.723
 2685SOL    HW2 8306   8.433   9.355   6.796
 2686SOL     OW 8307   9.704   7.852   5.811
 2686SOL    HW1 8308   9.719   7.801   5.731
 2686SOL    HW2 8309   9.789   7.890   5.832
 2687SOL     OW 8310   4.945   2.869   3.011
 2687SOL    HW1 8311   4.923   2.921   3.089
 2687SOL    HW2 8312   4.885   2.795   3.014
 2688SOL     OW 8313   4.898  10.008   2.006
 2688SOL    HW1 8314   4.837  10.006   2.079
 2688SOL    HW2 8315   4.895   9.919   1.971
 2689SOL     OW 8316   4.626   4.915   5.851
 2689SOL    HW1 8317   4.587   4.929   5.764
 2689SOL    HW2 8318   4.716   4.888   5.833
 2690SOL     OW 8319   5.428  10.057   1.915
 2690SOL    HW1 8320   5.352  10.050   1.857
 2690SOL    HW2 8321   5.412   9.992   1.984
 2691SOL     OW 8322  12.510   3.350   3.903
 2691SOL    HW1 8323  12.556   3.378   3.982
 2691SOL    HW2 8324  12.423   3.389   3.911
 2692SOL     OW 8325   7.324   5.102   6.840
 2692SOL    HW1 8326   7.270   5.031   6.875
 2692SOL    HW2 8327   7.406   5.096   6.890
 2693SOL     OW 8328   8.404  13.762   5.809
 2693SOL    HW1 8329   8.434  13.723   5.891
 2693SOL    HW2 8330   8.426  13.855   5.817
 2694SOL     OW 8331   6.086  13.461   4.558
 2694SOL    HW1 8332   6.138  13.382   4.542
 2694SOL    HW2 8333   5.995  13.430   4.559
 2695SOL     OW 8334  11.632  11.015   3.379
 2695SOL    HW1 8335  11.716  11.028   3.422
 2695SOL    HW2 8336  11.654  10.972   3.296
 2696SOL     OW 8337   4.471   3.168   0.310
 2696SOL    HW1 8338   4.376   3.167   0.321
 2696SOL    HW2 8339   4.505   3.167   0.400
 2697SOL     OW 8340   1.134   8.620   0.448
 2697SOL    HW1 8341   1.134   8.681   0.522
 2697SOL    HW2 8342   1.122   8.534   0.488
 2698SOL     OW 8343  14.750   7.581   7.601
 2698SOL    HW1 8344   9.348   2.150   0.067
 2698SOL    HW2 8345  14.666   7.574   7.556
 2699SOL     OW 8346  11.582   4.283   2.132
 2699SOL    HW1 8347  11.523   4.358   2.125
 2699SOL    HW2 8348  11.559   4.228   2.057
 2700SOL     OW 8349   9.416   4.399   1.038
 2700SOL    HW1 8350   9.380   4.319   1.001
 2700SOL    HW2 8351   9.425   4.459   0.964
 2701SOL     OW 8352   4.777   6.270   3.109
 2701SOL    HW1 8353   4.842   6.225   3.054
 2701SOL    HW2 8354   4.829   6.309   3.179
 2702SOL     OW 8355   9.051   7.085   4.962
 2702SOL    HW1 8356   9.102   7.033   4.900
 2702SOL    HW2 8357   9.115   7.117   5.025
 2703SOL     OW 8358   7.589   6.137   7.065
 2703SOL    HW1 8359   7.528   6.210   7.070
 2703SOL    HW2 8360   7.644   6.147   7.144
 2704SOL     OW 8361   3.649  12.707   3.834
 2704SOL    HW1 8362   3.662  12.728   3.741
 2704SOL    HW2 8363   3.732  12.669   3.862
 2705SOL     OW 8364   7.282   9.224   6.009
 2705SOL    HW1 8365   7.359   9.171   6.027
 2705SOL    HW2 8366   7.228   9.170   5.951
 2706SOL     OW 8367   7.524   5.406   2.501
 2706SOL    HW1 8368   7.433   5.383   2.483
 2706SOL    HW2 8369   7.537   5.384   2.593
 2707SOL     OW 8370   4.414   3.376   1.533
 2707SOL    HW1 8371   4.341   3.333   1.489
 2707SOL    HW2 8372   4.392   3.374   1.626
 2708SOL     OW 8373   7.561   9.612   2.362
 2708SOL    HW1 8374   7.560   9.697   2.317
 2708SOL    HW2 8375   7.619   9.626   2.437
 2709SOL     OW 8376  10.945   9.875   6.792
 2709SOL    HW1 8377  10.852   9.855   6.786
 2709SOL    HW2 8378  10.987   9.814   6.731
 2710SOL     OW 8379   8.301  13.308   3.636
 2710SOL    HW1 8380   8.273  13.372   3.701
 2710SOL    HW2 8381   8.343  13.238   3.686
 2711SOL     OW 8382   5.751   4.816   3.231
 2711SOL    HW1 8383   5.735   4.841   3.140
 2711SOL    HW2 8384   5.676   4.853   3.279
 2712SOL     OW 8385   6.860   9.653   5.812
 2712SOL    HW1 8386   6.837   9.743   5.793
 2712SOL    HW2 8387   6.953   9.646   5.789
 2713SOL     OW 8388   9.389   7.735   5.102
 2713SOL    HW1 8389   9.337   7.658   5.125
 2713SOL    HW2 8390   9.478   7.713   5.130
 2714SOL     OW 8391   7.299   7.368   1.046
 2714SOL    HW1 8392   7.351   7.337   0.972
 2714SOL    HW2 8393   7.316   7.462   1.050
 2715SOL     OW 8394  14.027  12.650   7.184
 2715SOL    HW1 8395  13.990  12.606   7.107
 2715SOL    HW2 8396  14.120  12.660   7.163
 2716SOL     OW 8397   8.340   4.108   3.022
 2716SOL    HW1 8398   8.301   4.171   2.961
 2716SOL    HW2 8399   8.289   4.117   3.102
 2717SOL     OW 8400  11.314   5.739   4.223
 2717SOL    HW1 8401  11.354   5.670   4.171
 2717SOL    HW2 8402  11.266   5.693   4.292
 2718SOL     OW 8403   9.358   7.893   2.584
 2718SOL    HW1 8404   9.326   7.865   2.670
 2718SOL    HW2 8405   9.412   7.820   2.554
 2719SOL     OW 8406   9.676   6.354   3.197
 2719SOL    HW1 8407   9.696   6.378   3.287
 2719SOL    HW2 8408   9.611   6.419   3.168
 2720SOL     OW 8409   8.379   5.494   5.087
 2720SOL    HW1 8410   8.307   5.533   5.138
 2720SOL    HW2 8411   8.338   5.466   5.005
 2721SOL     OW 8412   5.007  10.788   5.038
 2721SOL    HW1 8413   4.974  10.876   5.023
 2721SOL    HW2 8414   4.933  10.731   5.021
 2722SOL     OW 8415  11.383  10.083   1.753
 2722SOL    HW1 8416  11.296  10.122   1.766
 2722SOL    HW2 8417  11.402  10.099   1.660
 2723SOL     OW 8418   3.483  13.445   4.634
 2723SOL    HW1 8419   3.468  13.403   4.549
 2723SOL    HW2 8420   3.408  13.419   4.687
 2724SOL     OW 8421   2.755  10.057   3.461
 2724SOL    HW1 8422   2.767  10.063   3.366
 2724SOL    HW2 8423   2.839  10.025   3.494
 2725SOL     OW 8424   7.086  10.082   2.055
 2725SOL    HW1 8425   6.998  10.047   2.047
 2725SOL    HW2 8426   7.109  10.110   1.966
 2726SOL     OW 8427  14.134   7.184   5.448
 2726SOL    HW1 8428  14.050   7.223   5.469
 2726SOL    HW2 8429  14.178   7.250   5.394
 2727SOL     OW 8430   7.294  11.747   3.936
 2727SOL    HW1 8431   7.318  11.660   3.970
 2727SOL    HW2 8432   7.249  11.790   4.009
 2728SOL     OW 8433  12.873  15.451   7.098
 2728SOL    HW1 8434  12.862  15.546   7.093
 2728SOL    HW2 8435  12.865  15.421   7.007
 2729SOL     OW 8436   7.748   8.097   0.013
 2729SOL    HW1 8437  13.187  13.522   7.561
 2729SOL    HW2 8438  13.115  13.395   7.602
 2730SOL     OW 8439   6.422   9.267   3.219
 2730SOL    HW1 8440   6.419   9.182   3.264
 2730SOL    HW2 8441   6.454   9.246   3.131
 2731SOL     OW 8442   5.559   6.515   3.416
 2731SOL    HW1 8443   5.488   6.532   3.354
 2731SOL    HW2 8444   5.587   6.602   3.444
 2732SOL     OW 8445   8.281  10.310   1.902
 2732SOL    HW1 8446   8.225  10.375   1.861
 2732SOL    HW2 8447   8.270  10.324   1.996
 2733SOL     OW 8448  11.944   2.965   3.420
 2733SOL    HW1 8449  12.017   2.940   3.363
 2733SOL    HW2 8450  11.876   2.900   3.401
 2734SOL     OW 8451  10.183   6.834   2.174
 2734SOL    HW1 8452  10.254   6.896   2.162
 2734SOL    HW2 8453  10.105   6.879   2.141
 2735SOL     OW 8454  11.522  11.284   5.352
 2735SOL    HW1 8455  11.590  11.289   5.285
 2735SOL    HW2 8456  11.522  11.192   5.380
 2736SOL     OW 8457  15.435  15.384   7.109
 2736SOL    HW1 8458  15.521  15.359   7.144
 2736SOL    HW2 8459  15.453  15.462   7.057
 2737SOL     OW 8460   0.997   4.742   0.867
 2737SOL    HW1 8461   1.017   4.729   0.774
 2737SOL    HW2 8462   0.949   4.663   0.892
 2738SOL     OW 8463  12.074   3.683   2.466
 2738SOL    HW1 8464  11.988   3.701   2.428
 2738SOL    HW2 8465  12.113   3.770   2.478
 2739SOL     OW 8466  13.786   8.667   5.658
 2739SOL    HW1 8467  13.779   8.642   5.751
 2739SOL    HW2 8468  13.853   8.735   5.657
 2740SOL     OW 8469   1.431   5.478   1.184
 2740SOL    HW1 8470   1.489   5.543   1.143
 2740SOL    HW2 8471   1.488   5.404   1.203
 2741SOL     OW 8472   7.699   3.649   3.815
 2741SOL    HW1 8473   7.652   3.665   3.733
 2741SOL    HW2 8474   7.780   3.606   3.788
 2742SOL     OW 8475   4.232  11.098   3.986
 2742SOL    HW1 8476   4.199  11.129   3.902
 2742SOL    HW2 8477   4.276  11.016   3.966
 2743SOL     OW 8478  10.762   9.615   6.792
 2743SOL    HW1 8479  10.814   9.648   6.719
 2743SOL    HW2 8480  10.826   9.578   6.853
 2744SOL     OW 8481  10.285   5.838   7.163
 2744SOL    HW1 8482  10.212   5.794   7.119
 2744SOL    HW2 8483  10.285   5.926   7.125
 2745SOL     OW 8484   6.236   7.475   5.830
 2745SOL    HW1 8485   6.246   7.508   5.919
 2745SOL    HW2 8486   6.294   7.531   5.778
 2746SOL     OW 8487   8.894   7.915   7.294
 2746SOL    HW1 8488   8.841   7.868   7.358
 2746SOL    HW2 8489   8.934   7.847   7.241
 2747SOL     OW 8490  10.278   7.434   4.312
 2747SOL    HW1 8491  10.329   7.355   4.329
 2747SOL    HW2 8492  10.340   7.506   4.325
 2748SOL     OW 8493   4.085  12.296   2.170
 2748SOL    HW1 8494   4.160  12.242   2.149
 2748SOL    HW2 8495   4.059   1.562   2.087
 2749SOL     OW 8496   0.616   6.163   0.432
 2749SOL    HW1 8497   0.703   6.132   0.455
 2749SOL    HW2 8498   0.592   6.221   0.505
 2750SOL     OW 8499  10.041   4.461   0.401
 2750SOL    HW1 8500  10.029   4.368   0.418
 2750SOL    HW2 8501  10.118   4.466   0.346
 2751SOL     OW 8502   7.512  11.531   1.281
 2751SOL    HW1 8503   7.546  11.619   1.297
 2751SOL    HW2 8504   7.527  11.515   1.188
 2752SOL     OW 8505  12.475   6.559   3.743
 2752SOL    HW1 8506  12.482   6.500   3.818
 2752SOL    HW2 8507  12.385   6.591   3.745
 2753SOL     OW 8508   4.961   5.698   5.859
 2753SOL    HW1 8509   4.949   5.771   5.920
 2753SOL    HW2 8510   5.050   5.709   5.825
 2754SOL     OW 8511   2.118   2.619   0.640
 2754SOL    HW1 8512   2.038   2.660   0.606
 2754SOL    HW2 8513   2.102   2.609   0.734
 2755SOL     OW 8514   0.678   2.894   0.723
 2755SOL    HW1 8515   0.624   2.961   0.764
 2755SOL    HW2 8516   0.730   2.857   0.794
 2756SOL     OW 8517  14.114  12.254   6.170
 2756SOL    HW1 8518  14.173  12.223   6.101
 2756SOL    HW2 8519  14.065  12.176   6.196
 2757SOL     OW 8520   4.773   6.637   3.811
 2757SOL    HW1 8521   4.851   6.611   3.763
 2757SOL    HW2 8522   4.753   6.725   3.780
 2758SOL     OW 8523   9.991   9.677   4.199
 2758SOL    HW1 8524   9.914   9.725   4.167
 2758SOL    HW2 8525  10.012   9.719   4.282
 2759SOL     OW 8526   6.254   6.571   4.572
 2759SOL    HW1 8527   6.326   6.562   4.635
 2759SOL    HW2 8528   6.183   6.519   4.608
 2760SOL     OW 8529  15.023   9.114   6.252
 2760SOL    HW1 8530  15.011   9.138   6.344
 2760SOL    HW2 8531  15.025   9.198   6.205
 2761SOL     OW 8532   8.378   4.430   1.655
 2761SOL    HW1 8533   8.420   4.344   1.661
 2761SOL    HW2 8534   8.448   4.490   1.630
 2762SOL     OW 8535   8.636   7.241   5.020
 2762SOL    HW1 8536   8.638   7.266   4.928
 2762SOL    HW2 8537   8.726   7.213   5.039
 2763SOL     OW 8538  12.111   9.979   6.197
 2763SOL    HW1 8539  12.120  10.074   6.203
 2763SOL    HW2 8540  12.137   9.958   6.107
 2764SOL     OW 8541   6.838   3.870   0.825
 2764SOL    HW1 8542   6.819   3.853   0.733
 2764SOL    HW2 8543   6.808   3.960   0.840
 2765SOL     OW 8544   8.792   5.981   2.500
 2765SOL    HW1 8545   8.787   6.067   2.542
 2765SOL    HW2 8546   8.848   5.995   2.424
 2766SOL     OW 8547   9.667   6.696   0.556
 2766SOL    HW1 8548   9.595   6.648   0.597
 2766SOL    HW2 8549   9.720   6.628   0.514
 2767SOL     OW 8550   3.874   5.698   1.402
 2767SOL    HW1 8551   3.962   5.674   1.374
 2767SOL    HW2 8552   3.817   5.662   1.335
 2768SOL     OW 8553   2.429   0.660   0.261
 2768SOL    HW1 8554   2.388   0.591   0.312
 2768SOL    HW2 8555   2.402   0.741   0.304
 2769SOL     OW 8556   6.810   1.299   0.245
 2769SOL    HW1 8557   6.887   1.354   0.235
 2769SOL    HW2 8558   6.793   1.299   0.339
 2770SOL     OW 8559  10.972  13.908   6.815
 2770SOL    HW1 8560  10.961  13.960   6.735
 2770SOL    HW2 8561  10.907  13.838   6.807
 2771SOL     OW 8562   5.321  14.353   5.762
 2771SOL    HW1 8563   5.341  14.298   5.686
 2771SOL    HW2 8564   5.402  14.402   5.777
 2772SOL     OW 8565   7.686   9.226   3.086
 2772SOL    HW1 8566   7.618   9.271   3.137
 2772SOL    HW2 8567   7.638   9.185   3.014
 2773SOL     OW 8568   7.934   7.776   3.544
 2773SOL    HW1 8569   7.897   7.716   3.608
 2773SOL    HW2 8570   7.958   7.854   3.595
 2774SOL     OW 8571   3.715   4.461   4.749
 2774SOL    HW1 8572   3.657   4.386   4.760
 2774SOL    HW2 8573   3.746   4.480   4.838
 2775SOL     OW 8574   7.182   6.518   3.164
 2775SOL    HW1 8575   7.183   6.501   3.258
 2775SOL    HW2 8576   7.107   6.577   3.151
 2776SOL     OW 8577   7.009   5.717   1.029
 2776SOL    HW1 8578   7.052   5.695   0.947
 2776SOL    HW2 8579   6.940   5.779   1.004
 2777SOL     OW 8580   8.405   2.884   0.743
 2777SOL    HW1 8581   8.343   2.956   0.727
 2777SOL    HW2 8582   8.420   2.887   0.838
 2778SOL     OW 8583  13.494   7.152   7.272
 2778SOL    HW1 8584  13.400   7.171   7.267
 2778SOL    HW2 8585  13.516   7.166   7.364
 2779SOL     OW 8586  10.498   1.359   1.314
 2779SOL    HW1 8587  10.583   1.371   1.356
 2779SOL    HW2 8588  10.458   1.446   1.314
 2780SOL     OW 8589  14.185   8.964   7.351
 2780SOL    HW1 8590  14.134   9.007   7.282
 2780SOL    HW2 8591  14.239   9.033   7.387
 2781SOL     OW 8592  14.540  10.870   7.135
 2781SOL    HW1 8593  14.477  10.815   7.181
 2781SOL    HW2 8594  14.524  10.958   7.169
 2782SOL     OW 8595  10.198   6.395   3.797
 2782SOL    HW1 8596  10.134   6.461   3.823
 2782SOL    HW2 8597  10.161   6.312   3.826
 2783SOL     OW 8598   6.307   8.422   3.404
 2783SOL    HW1 8599   6.238   8.364   3.372
 2783SOL    HW2 8600   6.386   8.367   3.405
 2784SOL     OW 8601   7.813   9.454   6.762
 2784SOL    HW1 8602   7.757   9.468   6.686
 2784SOL    HW2 8603   7.812   9.538   6.808
 2785SOL     OW 8604  10.483  11.294   5.092
 2785SOL    HW1 8605  10.506  11.341   5.011
 2785SOL    HW2 8606  10.561  11.302   5.146
 2786SOL     OW 8607  12.411   4.336   4.144
 2786SOL    HW1 8608  12.483   4.273   4.149
 2786SOL    HW2 8609  12.331   4.283   4.148
 2787SOL     OW 8610   4.336   7.178   0.427
 2787SOL    HW1 8611   4.401   7.187   0.357
 2787SOL    HW2 8612   4.254   7.204   0.387
 2788SOL     OW 8613  11.340   8.271   2.510
 2788SOL    HW1 8614  11.366   8.359   2.536
 2788SOL    HW2 8615  11.280   8.283   2.437
 2789SOL     OW 8616  13.323  10.451   5.305
 2789SOL    HW1 8617  13.378  10.528   5.292
 2789SOL    HW2 8618  13.351  10.414   5.389
 2790SOL     OW 8619  11.621   5.610   7.042
 2790SOL    HW1 8620  11.698   5.648   7.000
 2790SOL    HW2 8621  11.583   5.682   7.092
 2791SOL     OW 8622  11.615   1.791   1.675
 2791SOL    HW1 8623  11.590   1.729   1.744
 2791SOL    HW2 8624  11.534   1.805   1.626
 2792SOL     OW 8625   2.867  11.056   1.382
 2792SOL    HW1 8626   2.829  11.144   1.382
 2792SOL    HW2 8627   2.802  11.002   1.337
 2793SOL     OW 8628   4.410   7.793   4.201
 2793SOL    HW1 8629   4.337   7.745   4.163
 2793SOL    HW2 8630   4.396   7.788   4.295
 2794SOL     OW 8631  11.559  12.474   4.386
 2794SOL    HW1 8632  11.618  12.542   4.418
 2794SOL    HW2 8633  11.559  12.408   4.456
 2795SOL     OW 8634   8.364   6.969   2.761
 2795SOL    HW1 8635   8.334   7.007   2.678
 2795SOL    HW2 8636   8.323   6.882   2.763
 2796SOL     OW 8637  13.752   5.668   5.975
 2796SOL    HW1 8638  13.846   5.668   5.993
 2796SOL    HW2 8639  13.712   5.700   6.056
 2797SOL     OW 8640   2.178   5.346   2.749
 2797SOL    HW1 8641   2.137   5.329   2.664
 2797SOL    HW2 8642   2.139   5.281   2.807
 2798SOL     OW 8643   9.627   8.078   6.006
 2798SOL    HW1 8644   9.693   8.052   6.069
 2798SOL    HW2 8645   9.623   8.174   6.014
 2799SOL     OW 8646   9.981   7.299   2.898
 2799SOL    HW1 8647  10.046   7.329   2.962
 2799SOL    HW2 8648  10.012   7.334   2.814
 2800SOL     OW 8649  13.477   7.358   4.566
 2800SOL    HW1 8650  13.467   7.331   4.475
 2800SOL    HW2 8651  13.567   7.391   4.571
 2801SOL     OW 8652   8.876  10.888   4.609
 2801SOL    HW1 8653   8.830  10.965   4.576
 2801SOL    HW2 8654   8.968  10.914   4.611
 2802SOL     OW 8655   7.922   3.901   2.274
 2802SOL    HW1 8656   7.841   3.851   2.289
 2802SOL    HW2 8657   7.894   3.992   2.273
 2803SOL     OW 8658   9.631  12.729   3.572
 2803SOL    HW1 8659   9.544  12.688   3.565
 2803SOL    HW2 8660   9.672  12.686   3.648
 2804SOL     OW 8661   8.359   8.943   5.596
 2804SOL    HW1 8662   8.348   9.009   5.664
 2804SOL    HW2 8663   8.454   8.931   5.589
 2805SOL     OW 8664   3.358   3.506   1.317
 2805SOL    HW1 8665   3.427   3.572   1.322
 2805SOL    HW2 8666   3.404   3.423   1.307
 2806SOL     OW 8667  14.724  14.662   6.992
 2806SOL    HW1 8668  14.683  14.587   6.948
 2806SOL    HW2 8669  14.719  14.641   7.085
 2807SOL     OW 8670   9.735   2.570   3.145
 2807SOL    HW1 8671   9.726   2.634   3.075
 2807SOL    HW2 8672   9.676   2.601   3.214
 2808SOL     OW 8673   6.323   3.234   1.687
 2808SOL    HW1 8674   6.316   3.173   1.760
 2808SOL    HW2 8675   6.233   3.248   1.658
 2809SOL     OW 8676   7.673   9.944   2.116
 2809SOL    HW1 8677   7.596   9.976   2.162
 2809SOL    HW2 8678   7.692  10.011   2.051
 2810SOL     OW 8679   3.321   8.059   2.125
 2810SOL    HW1 8680   3.393   8.038   2.184
 2810SOL    HW2 8681   3.350   8.029   2.039
 2811SOL     OW 8682  12.143   5.647   2.796
 2811SOL    HW1 8683  12.053   5.663   2.826
 2811SOL    HW2 8684  12.198   5.677   2.868
 2812SOL     OW 8685  15.942  14.427   7.412
 2812SOL    HW1 8686  15.977  14.511   7.382
 2812SOL    HW2 8687  15.957  14.368   7.338
 2813SOL     OW 8688  14.428   7.214   6.424
 2813SOL    HW1 8689  14.422   7.241   6.515
 2813SOL    HW2 8690  14.341   7.230   6.388
 2814SOL     OW 8691   3.649   1.765   1.573
 2814SOL    HW1 8692   3.721   1.739   1.515
 2814SOL    HW2 8693   3.618   1.683   1.611
 2815SOL     OW 8694   2.735   5.243   1.918
 2815SOL    HW1 8695   2.740   5.244   1.822
 2815SOL    HW2 8696   2.824   5.260   1.948
 2816SOL     OW 8697   1.010  11.441   1.328
 2816SOL    HW1 8698   1.072  11.411   1.394
 2816SOL    HW2 8699  11.718  11.489   1.377
 2817SOL     OW 8700  10.197  12.572   3.869
 2817SOL    HW1 8701  10.232  12.660   3.867
 2817SOL    HW2 8702  10.266  12.519   3.909
 2818SOL     OW 8703   3.256   8.030   3.255
 2818SOL    HW1 8704   3.346   8.001   3.241
 2818SOL    HW2 8705   3.262   8.092   3.328
 2819SOL     OW 8706  11.954   3.189   3.152
 2819SOL    HW1 8707  11.935   3.223   3.240
 2819SOL    HW2 8708  11.980   3.265   3.101
 2820SOL     OW 8709   3.189  11.450   1.751
 2820SOL    HW1 8710   3.238  11.527   1.723
 2820SOL    HW2 8711   3.099  11.466   1.720
 2821SOL     OW 8712   7.110   6.861   4.085
 2821SOL    HW1 8713   7.046   6.805   4.128
 2821SOL    HW2 8714   7.172   6.883   4.154
 2822SOL     OW 8715  11.936   5.107   3.581
 2822SOL    HW1 8716  11.934   5.013   3.563
 2822SOL    HW2 8717  12.025   5.123   3.613
 2823SOL     OW 8718   7.165   7.575   3.896
 2823SOL    HW1 8719   7.138   7.615   3.979
 2823SOL    HW2 8720   7.112   7.619   3.830
 2824SOL     OW 8721  10.544   8.023   5.407
 2824SOL    HW1 8722  10.542   8.114   5.436
 2824SOL    HW2 8723  10.506   7.974   5.480
 2825SOL     OW 8724  10.631  10.375   5.473
 2825SOL    HW1 8725  10.558  10.326   5.435
 2825SOL    HW2 8726  10.604  10.393   5.563
 2826SOL     OW 8727   3.567   2.458   0.010
 2826SOL    HW1 8728   3.538   2.541   0.046
 2826SOL    HW2 8729   3.492   2.399   0.020
 2827SOL     OW 8730   9.994   3.511   3.528
 2827SOL    HW1 8731  10.048   3.455   3.585
 2827SOL    HW2 8732  10.024   3.491   3.440
 2828SOL     OW 8733  13.012   7.175   5.415
 2828SOL    HW1 8734  12.981   7.214   5.497
 2828SOL    HW2 8735  13.107   7.168   5.425
 2829SOL     OW 8736   4.387   2.127   2.109
 2829SOL    HW1 8737   4.303   2.090   2.138
 2829SOL    HW2 8738   4.438   2.136   2.189
 2830SOL     OW 8739   9.379   3.256   3.561
 2830SOL    HW1 8740   9.409   3.347   3.560
 2830SOL    HW2 8741   9.300   3.256   3.506
 2831SOL     OW 8742   7.124   9.749   0.907
 2831SOL    HW1 8743   7.179   9.671   0.911
 2831SOL    HW2 8744   7.185   9.821   0.892
 2832SOL     OW 8745   3.823   5.783   0.333
 2832SOL    HW1 8746   3.815   5.693   0.365
 2832SOL    HW2 8747   3.806   5.837   0.410
 2833SOL     OW 8748  12.003   8.081   2.420
 2833SOL    HW1 8749  11.952   8.158   2.398
 2833SOL    HW2 8750  11.953   8.008   2.385
 2834SOL     OW 8751   9.158  13.563   6.976
 2834SOL    HW1 8752   9.223  13.552   6.907
 2834SOL    HW2 8753   9.092  13.620   6.938
 2835SOL     OW 8754   4.761   6.178   5.010
 2835SOL    HW1 8755   4.741   6.199   4.919
 2835SOL    HW2 8756   4.727   6.253   5.060
 2836SOL     OW 8757   4.728   3.462   2.846
 2836SOL    HW1 8758   4.701   3.502   2.928
 2836SOL    HW2 8759   4.703   3.370   2.854
 2837SOL     OW 8760   9.136   9.780   5.002
 2837SOL    HW1 8761   9.207   9.754   4.944
 2837SOL    HW2 8762   9.062   9.798   4.944
 2838SOL     OW 8763   3.225  11.023   3.818
 2838SOL    HW1 8764   3.243  11.115   3.839
 2838SOL    HW2 8765   3.180  10.989   3.895
 2839SOL     OW 8766  15.628   8.439   6.914
 2839SOL    HW1 8767  15.625   8.347   6.887
 2839SOL    HW2 8768   4.945   8.454   6.939
 2840SOL     OW 8769   6.475   5.711   3.817
 2840SOL    HW1 8770   6.475   5.615   3.821
 2840SOL    HW2 8771   6.433   5.731   3.734
 2841SOL     OW 8772   3.977  12.511   5.093
 2841SOL    HW1 8773   3.910  12.571   5.126
 2841SOL    HW2 8774   3.929  12.433   5.066
 2842SOL     OW 8775  13.121   4.948   4.728
 2842SOL    HW1 8776  13.052   4.907   4.676
 2842SOL    HW2 8777  13.092   4.937   4.819
 2843SOL     OW 8778  15.573  13.951   7.308
 2843SOL    HW1 8779  15.491  13.912   7.281
 2843SOL    HW2 8780  15.626  13.954   7.228
 2844SOL     OW 8781  12.783   9.007   7.420
 2844SOL    HW1 8782  12.815   9.097   7.425
 2844SOL    HW2 8783  12.818   8.965   7.499
 2845SOL     OW 8784   8.911   2.822   0.223
 2845SOL    HW1 8785   9.006   2.832   0.219
 2845SOL    HW2 8786   8.894   2.735   0.189
 2846SOL     OW 8787   6.722  11.021   0.945
 2846SOL    HW1 8788   6.753  11.111   0.933
 2846SOL    HW2 8789   6.731  10.981   0.859
 2847SOL     OW 8790   5.381  10.396   1.279
 2847SOL    HW1 8791   5.387  10.349   1.363
 2847SOL    HW2 8792   5.459  10.369   1.231
 2848SOL     OW 8793   7.773   1.630   1.089
 2848SOL    HW1 8794   7.799   1.540   1.072
 2848SOL    HW2 8795   7.681   1.625   1.114
 2849SOL     OW 8796  10.461  10.638   4.857
 2849SOL    HW1 8797  10.554  10.620   4.844
 2849SOL    HW2 8798  10.459  10.706   4.924
 2850SOL     OW 8799  13.779  14.573   6.427
 2850SOL    HW1 8800  13.860  14.522   6.417
 2850SOL    HW2 8801  13.713  14.508   6.451
 2851SOL     OW 8802   6.263  10.670   3.833
 2851SOL    HW1 8803   6.314  10.597   3.867
 2851SOL    HW2 8804   6.226  10.638   3.751
 2852SOL     OW 8805  12.536   6.724   4.807
 2852SOL    HW1 8806  12.565   6.758   4.722
 2852SOL    HW2 8807  12.616   6.705   4.855
 2853SOL     OW 8808   7.818   7.224   3.555
 2853SOL    HW1 8809   7.772   7.159   3.502
 2853SOL    HW2 8810   7.758   7.244   3.626
 2854SOL     OW 8811   7.483   5.905   7.489
 2854SOL    HW1 8812   7.545   5.974   7.465
 2854SOL    HW2 8813   7.398   5.948   7.487
 2855SOL     OW 8814  10.038   5.796   1.354
 2855SOL    HW1 8815   9.962   5.826   1.404
 2855SOL    HW2 8816  10.102   5.867   1.362
 2856SOL     OW 8817   5.688   3.530   3.979
 2856SOL    HW1 8818   5.599   3.503   3.953
 2856SOL    HW2 8819   5.744   3.461   3.944
 2857SOL     OW 8820  11.752   4.401   1.832
 2857SOL    HW1 8821  11.733   4.482   1.880
 2857SOL    HW2 8822  11.822   4.424   1.772
 2858SOL     OW 8823  10.028   1.510   2.135
 2858SOL    HW1 8824  10.120  12.263   2.154
 2858SOL    HW2 8825   9.987  12.199   2.120
 2859SOL     OW 8826   9.254  13.628   4.788
 2859SOL    HW1 8827   9.272  13.719   4.765
 2859SOL    HW2 8828   9.176  13.605   4.737
 2860SOL     OW 8829   9.898   1.546   0.653
 2860SOL    HW1 8830   9.978   1.573   0.697
 2860SOL    HW2 8831   9.836   1.528   0.724
 2861SOL     OW 8832   1.998   3.420   0.719
 2861SOL    HW1 8833   2.034   3.444   0.634
 2861SOL    HW2 8834   1.908   3.454   0.718
 2862SOL     OW 8835   4.106   5.034   3.880
 2862SOL    HW1 8836   4.038   5.101   3.882
 2862SOL    HW2 8837   4.178   5.072   3.930
 2863SOL     OW 8838  12.774  12.028   3.877
 2863SOL    HW1 8839  12.681  12.016   3.896
 2863SOL    HW2 8840  12.809  11.938   3.874
 2864SOL     OW 8841   2.424   9.313   1.748
 2864SOL    HW1 8842   2.345   9.275   1.786
 2864SOL    HW2 8843   2.475   9.238   1.717
 2865SOL     OW 8844  10.863   7.532   5.653
 2865SOL    HW1 8845  10.805   7.594   5.696
 2865SOL    HW2 8846  10.808   7.491   5.585
 2866SOL     OW 8847   9.439  10.384   1.017
 2866SOL    HW1 8848   9.455  10.473   0.987
 2866SOL    HW2 8849   9.392  10.343   0.945
 2867SOL     OW 8850   9.434   8.626   6.564
 2867SOL    HW1 8851   9.348   8.591   6.589
 2867SOL    HW2 8852   9.417   8.717   6.538
 2868SOL     OW 8853   3.924   6.007   3.010
 2868SOL    HW1 8854   3.850   6.050   3.052
 2868SOL    HW2 8855   3.972   5.966   3.082
 2869SOL     OW 8856  11.055  12.008   7.444
 2869SOL    HW1 8857  10.996  11.954   7.498
 2869SOL    HW2 8858  11.107  12.057   7.507
 2870SOL     OW 8859   5.970   3.328   3.277
 2870SOL    HW1 8860   6.000   3.360   3.192
 2870SOL    HW2 8861   5.888   3.282   3.258
 2871SOL     OW 8862   3.582   4.451   0.429
 2871SOL    HW1 8863   3.530   4.525   0.459
 2871SOL    HW2 8864   3.530   4.374   0.453
 2872SOL     OW 8865  13.380  11.949   4.221
 2872SOL    HW1 8866  13.442  11.910   4.160
 2872SOL    HW2 8867  13.392  11.900   4.302
 2873SOL     OW 8868   6.347   4.969   2.358
 2873SOL    HW1 8869   6.256   4.952   2.335
 2873SOL    HW2 8870   6.344   4.994   2.451
 2874SOL     OW 8871  11.654  10.944   1.856
 2874SOL    HW1 8872  11.579  10.885   1.846
 2874SOL    HW2 8873  11.654  10.997   1.777
 2875SOL     OW 8874  10.934   2.268   0.806
 2875SOL    HW1 8875  10.927   2.181   0.767
 2875SOL    HW2 8876  10.893   2.259   0.892
 2876SOL     OW 8877   2.281   2.478   2.070
 2876SOL    HW1 8878   2.289   2.394   2.025
 2876SOL    HW2 8879   2.224   2.530   2.014
 2877SOL     OW 8880   4.531   4.638   0.606
 2877SOL    HW1 8881   4.456   4.695   0.627
 2877SOL    HW2 8882   4.506   4.552   0.639
 2878SOL     OW 8883  11.329   5.833   1.920
 2878SOL    HW1 8884  11.293   5.816   2.007
 2878SOL    HW2 8885  11.424   5.820   1.930
 2879SOL     OW 8886   3.642   9.873   3.388
 2879SOL    HW1 8887   3.557   9.917   3.391
 2879SOL    HW2 8888   3.653   9.847   3.297
 2880SOL     OW 8889   8.357   4.933   1.753
 2880SOL    HW1 8890   8.377   4.874   1.825
 2880SOL    HW2 8891   8.268   4.911   1.726
 2881SOL     OW 8892  13.536   3.135   4.177
 2881SOL    HW1 8893  13.622   3.115   4.141
 2881SOL    HW2 8894  13.551   3.147   4.271
 2882SOL     OW 8895  10.058  10.399   4.215
 2882SOL    HW1 8896  10.122  10.329   4.218
 2882SOL    HW2 8897   9.993  10.370   4.150
 2883SOL     OW 8898   8.630   2.588   2.074
 2883SOL    HW1 8899   8.637   2.684   2.081
 2883SOL    HW2 8900   8.670   2.567   1.990
 2884SOL     OW 8901   9.788   5.888   5.890
 2884SOL    HW1 8902   9.709   5.941   5.903
 2884SOL    HW2 8903   9.787   5.825   5.962
 2885SOL     OW 8904  10.643   8.723   4.538
 2885SOL    HW1 8905  10.663   8.630   4.522
 2885SOL    HW2 8906  10.589   8.749   4.464
 2886SOL     OW 8907   5.029   8.021   6.802
 2886SOL    HW1 8908   4.977   8.002   6.724
 2886SOL    HW2 8909   5.060   8.111   6.789
 2887SOL     OW 8910  11.823  11.867   2.137
 2887SOL    HW1 8911  11.897  11.928   2.136
 2887SOL    HW2 8912  11.768  11.896   2.209
 2888SOL     OW 8913  11.499  10.383   4.313
 2888SOL    HW1 8914  11.410  10.382   4.346
 2888SOL    HW2 8915  11.546  10.318   4.366
 2889SOL     OW 8916   8.982  14.519   5.539
 2889SOL    HW1 8917   9.019  14.451   5.596
 2889SOL    HW2 8918   8.925  14.471   5.479
 2890SOL     OW 8919  14.212   9.154   5.843
 2890SOL    HW1 8920  14.296   9.128   5.806
 2890SOL    HW2 8921  14.233   9.222   5.907
 2891SOL     OW 8922   9.359   5.444   5.099
 2891SOL    HW1 8923   9.439   5.463   5.149
 2891SOL    HW2 8924   9.360   5.348   5.088
 2892SOL     OW 8925   9.678  13.764   5.306
 2892SOL    HW1 8926   9.669  13.675   5.339
 2892SOL    HW2 8927   9.673  13.820   5.384
 2893SOL     OW 8928   4.368   2.823   3.683
 2893SOL    HW1 8929   4.293   2.866   3.725
 2893SOL    HW2 8930   4.393   2.754   3.744
 2894SOL     OW 8931  11.170   3.337   4.224
 2894SOL    HW1 8932  11.221   3.374   4.152
 2894SOL    HW2 8933  11.109   3.406   4.249
 2895SOL     OW 8934   7.478   9.572   7.355
 2895SOL    HW1 8935   7.566   9.536   7.365
 2895SOL    HW2 8936   7.489   9.667   7.361
 2896SOL     OW 8937  11.166  10.618   3.459
 2896SOL    HW1 8938  11.218  10.697   3.442
 2896SOL    HW2 8939  11.127  10.633   3.545
 2897SOL     OW 8940  12.685   2.463   3.403
 2897SOL    HW1 8941  12.690   2.516   3.323
 2897SOL    HW2 8942  12.774   2.466   3.439
 2898SOL     OW 8943   6.701   4.910   0.587
 2898SOL    HW1 8944   6.724   4.949   0.671
 2898SOL    HW2 8945   6.778   4.927   0.531
 2899SOL     OW 8946   9.578  10.226   4.753
 2899SOL    HW1 8947   9.635  10.300   4.731
 2899SOL    HW2 8948   9.632  10.149   4.739
 2900SOL     OW 8949   4.457   8.089   0.092
 2900SOL    HW1 8950   4.405   8.167   0.072
 2900SOL    HW2 8951   4.396   8.016   0.081
 2901SOL     OW 8952   6.520   7.134   3.613
 2901SOL    HW1 8953   6.564   7.188   3.678
 2901SOL    HW2 8954   6.431   7.168   3.608
 2902SOL     OW 8955   5.195   8.766   4.029
 2902SOL    HW1 8956   5.161   8.851   4.056
 2902SOL    HW2 8957   5.240   8.782   3.946
 2903SOL     OW 8958   8.859   3.096   0.955
 2903SOL    HW1 8959   8.790   3.085   1.020
 2903SOL    HW2 8960   8.940   3.089   1.005
 2904SOL     OW 8961   5.750  13.204   5.310
 2904SOL    HW1 8962   5.759  13.130   5.370
 2904SOL    HW2 8963   5.658  13.230   5.316
 2905SOL     OW 8964   9.803   7.817   0.070
 2905SOL    HW1 8965   9.748   7.878   0.021
 2905SOL    HW2 8966   9.750   7.795   0.147
 2906SOL     OW 8967  12.581  11.768   5.658
 2906SOL    HW1 8968  12.591  11.853   5.700
 2906SOL    HW2 8969  12.561  11.788   5.567
 2907SOL     OW 8970   4.238   2.605   2.805
 2907SOL    HW1 8971   4.305   2.669   2.828
 2907SOL    HW2 8972   4.248   2.593   2.710
 2908SOL     OW 8973   2.049   3.400   1.252
 2908SOL    HW1 8974   1.974   3.359   1.296
 2908SOL    HW2 8975   2.117   3.403   1.319
 2909SOL     OW 8976  10.620  11.509   7.470
 2909SOL    HW1 8977  10.566  11.520   7.548
 2909SOL    HW2 8978  10.653  11.597   7.451
 2910SOL     OW 8979  13.818   4.060   4.824
 2910SOL    HW1 8980  13.869   3.983   4.851
 2910SOL    HW2 8981  13.767   4.084   4.901
 2911SOL     OW 8982   6.108   4.687   6.004
 2911SOL    HW1 8983   6.192   4.691   5.958
 2911SOL    HW2 8984   6.132   4.672   6.095
 2912SOL     OW 8985   6.858   2.317   2.023
 2912SOL    HW1 8986   6.943   2.347   2.057
 2912SOL    HW2 8987   6.875   2.230   1.989
 2913SOL     OW 8988  11.414  12.365   5.571
 2913SOL    HW1 8989  11.326  12.354   5.535
 2913SOL    HW2 8990  11.472  12.343   5.499
 2914SOL     OW 8991   3.239   7.816   2.686
 2914SOL    HW1 8992   3.212   7.743   2.629
 2914SOL    HW2 8993   3.269   7.774   2.766
 2915SOL     OW 8994   2.998   6.133   3.687
 2915SOL    HW1 8995   3.023   6.124   3.595
 2915SOL    HW2 8996   3.070   6.090   3.734
 2916SOL     OW 8997  14.428   9.677   6.179
 2916SOL    HW1 8998  14.366   9.726   6.125
 2916SOL    HW2 8999  14.428   9.724   6.263
 2917SOL     OW 9000   9.767  11.627   1.491
 2917SOL    HW1 9001   9.708  11.654   1.561
 2917SOL    HW2 9002   9.791  11.709   1.448
 2918SOL     OW 9003   3.943   4.858   1.527
 2918SOL    HW1 9004   4.029   4.849   1.568
 2918SOL    HW2 9005   3.957   4.919   1.456
 2919SOL     OW 9006   9.221  10.035   1.882
 2919SOL    HW1 9007   9.137  10.081   1.873
 2919SOL    HW2 9008   9.197   9.946   1.908
 2920SOL     OW 9009   8.031  13.266   7.583
 2920SOL    HW1 9010   8.113  13.217   7.586
 2920SOL    HW2 9011   8.028  13.303   7.495
 2921SOL     OW 9012   5.352   6.001   5.184
 2921SOL    HW1 9013   5.354   6.084   5.136
 2921SOL    HW2 9014   5.351   6.027   5.276
 2922SOL     OW 9015   4.049  13.618   5.469
 2922SOL    HW1 9016   3.970  13.639   5.420
 2922SOL    HW2 9017   4.117  13.672   5.430
 2923SOL     OW 9018   1.026   5.720   0.628
 2923SOL    HW1 9019   1.060   5.639   0.590
 2923SOL    HW2 9020   1.085   5.738   0.701
 2924SOL     OW 9021   6.368  11.031   1.958
 2924SOL    HW1 9022   6.385  11.021   2.052
 2924SOL    HW2 9023   6.322  10.951   1.933
 2925SOL     OW 9024   4.331   4.149   4.465
 2925SOL    HW1 9025   4.284   4.092   4.404
 2925SOL    HW2 9026   4.318   4.237   4.431
 2926SOL     OW 9027   7.987  11.790   2.543
 2926SOL    HW1 9028   7.997  11.872   2.495
 2926SOL    HW2 9029   8.076  11.765   2.565
 2927SOL     OW 9030   6.850   9.173   3.216
 2927SOL    HW1 9031   6.811   9.259   3.198
 2927SOL    HW2 9032   6.835   9.123   3.136
 2928SOL     OW 9033  12.543   3.418   2.956
 2928SOL    HW1 9034  12.458   3.457   2.938
 2928SOL    HW2 9035  12.606   3.486   2.932
 2929SOL     OW 9036   8.960  15.036   6.034
 2929SOL    HW1 9037   9.042   4.311   6.043
 2929SOL    HW2 9038   8.914   4.305   5.963
 2930SOL     OW 9039   9.574  11.501   2.026
 2930SOL    HW1 9040   9.591  11.524   2.117
 2930SOL    HW2 9041   9.660  11.484   1.989
 2931SOL     OW 9042   5.110   8.989   1.516
 2931SOL    HW1 9043   5.038   8.969   1.455
 2931SOL    HW2 9044   5.122   9.084   1.507
 2932SOL     OW 9045   3.927   6.570   5.456
 2932SOL    HW1 9046   4.007   6.601   5.413
 2932SOL    HW2 9047   3.928   6.613   5.541
 2933SOL     OW 9048   1.360   7.560   0.006
 2933SOL    HW1 9049   1.304   7.513   0.068
 2933SOL    HW2 9050   6.704  12.936   7.540
 2934SOL     OW 9051   9.505   2.802   2.044
 2934SOL    HW1 9052   9.473   2.808   2.134
 2934SOL    HW2 9053   9.572   2.870   2.039
 2935SOL     OW 9054   4.468  10.610   0.016
 2935SOL    HW1 9055   9.764  16.015   7.611
 2935SOL    HW2 9056   9.903  16.076   7.607
 2936SOL     OW 9057   6.819   4.771   6.462
 2936SOL    HW1 9058   6.914   4.770   6.465
 2936SOL    HW2 9059   6.798   4.815   6.380
 2937SOL     OW 9060   6.310  14.662   6.309
 2937SOL    HW1 9061   6.349  14.651   6.396
 2937SOL    HW2 9062   6.349  14.742   6.274
 2938SOL     OW 9063   9.158   6.303   0.675
 2938SOL    HW1 9064   9.171   6.236   0.743
 2938SOL    HW2 9065   9.178   6.258   0.593
 2939SOL     OW 9066   5.672  13.230   5.784
 2939SOL    HW1 9067   5.630  13.170   5.847
 2939SOL    HW2 9068   5.678  13.178   5.704
 2940SOL     OW 9069   4.847   9.906   2.358
 2940SOL    HW1 9070   4.907   9.841   2.395
 2940SOL    HW2 9071   4.828   9.966   2.430
 2941SOL     OW 9072   2.752   4.737   1.958
 2941SOL    HW1 9073   2.799   4.805   2.007
 2941SOL    HW2 9074   2.668   4.728   2.003
 2942SOL     OW 9075   2.727   6.472   1.447
 2942SOL    HW1 9076   2.775   6.555   1.454
 2942SOL    HW2 9077   2.658   6.480   1.513
 2943SOL     OW 9078   7.202   7.484   6.753
 2943SOL    HW1 9079   7.254   7.554   6.790
 2943SOL    HW2 9080   7.263   7.436   6.695
 2944SOL     OW 9081  10.635  10.094   3.329
 2944SOL    HW1 9082  10.654  10.083   3.236
 2944SOL    HW2 9083  10.566  10.030   3.347
 2945SOL     OW 9084  10.336   6.301   6.305
 2945SOL    HW1 9085  10.320   6.289   6.211
 2945SOL    HW2 9086  10.282   6.376   6.329
 2946SOL     OW 9087   8.726  11.970   4.358
 2946SOL    HW1 9088   8.667  11.927   4.296
 2946SOL    HW2 9089   8.676  12.045   4.390
 2947SOL     OW 9090  12.815  14.886   6.130
 2947SOL    HW1 9091  12.866  14.846   6.200
 2947SOL    HW2 9092  12.865  14.964   6.106
 2948SOL     OW 9093  10.988   9.329   0.932
 2948SOL    HW1 9094  11.069   9.342   0.882
 2948SOL    HW2 9095  10.975   9.234   0.930
 2949SOL     OW 9096   6.521   4.821   6.401
 2949SOL    HW1 9097   6.540   4.910   6.430
 2949SOL    HW2 9098   6.461   4.832   6.327
 2950SOL     OW 9099   9.616   8.136   2.903
 2950SOL    HW1 9100   9.521   8.121   2.895
 2950SOL    HW2 9101   9.627   8.228   2.881
 2951SOL     OW 9102  10.910   4.743   5.203
 2951SOL    HW1 9103  10.980   4.739   5.269
 2951SOL    HW2 9104  10.874   4.831   5.211
 2952SOL     OW 9105  12.085  10.591   4.955
 2952SOL    HW1 9106  12.176  10.572   4.980
 2952SOL    HW2 9107  12.046  10.505   4.940
 2953SOL     OW 9108  10.483   4.272   3.771
 2953SOL    HW1 9109  10.537   4.231   3.838
 2953SOL    HW2 9110  10.479   4.207   3.701
 2954SOL     OW 9111  14.203  13.972   5.257
 2954SOL    HW1 9112  14.215  14.026   5.335
 2954SOL    HW2 9113  14.286  13.978   5.210
 2955SOL     OW 9114   4.539  10.277   3.012
 2955SOL    HW1 9115   4.565  10.338   3.081
 2955SOL    HW2 9116   4.545  10.190   3.053
 2956SOL     OW 9117   4.914   3.674   5.164
 2956SOL    HW1 9118   4.904   3.714   5.078
 2956SOL    HW2 9119   5.005   3.690   5.188
 2957SOL     OW 9120   8.481   7.589   6.179
 2957SOL    HW1 9121   8.576   7.577   6.176
 2957SOL    HW2 9122   8.467   7.645   6.255
 2958SOL     OW 9123   7.520   6.907   5.367
 2958SOL    HW1 9124   7.557   6.921   5.280
 2958SOL    HW2 9125   7.551   6.820   5.393
 2959SOL     OW 9126   8.629   8.912   5.637
 2959SOL    HW1 9127   8.687   8.955   5.575
 2959SOL    HW2 9128   8.688   8.865   5.697
 2960SOL     OW 9129   2.643   9.330   1.917
 2960SOL    HW1 9130   2.559   9.298   1.884
 2960SOL    HW2 9131   2.677   9.257   1.969
 2961SOL     OW 9132  13.278   5.639   6.609
 2961SOL    HW1 9133  13.287   5.543   6.606
 2961SOL    HW2 9134  13.278   5.665   6.516
 2962SOL     OW 9135   7.479   4.251   2.157
 2962SOL    HW1 9136   7.472   4.346   2.156
 2962SOL    HW2 9137   7.429   4.222   2.081
 2963SOL     OW 9138  10.889   8.005   4.135
 2963SOL    HW1 9139  10.811   8.030   4.085
 2963SOL    HW2 9140  10.959   8.061   4.100
 2964SOL     OW 9141  10.412   9.351   1.771
 2964SOL    HW1 9142  10.507   9.365   1.762
 2964SOL    HW2 9143  10.400   9.258   1.753
 2965SOL     OW 9144   0.849  10.152   0.489
 2965SOL    HW1 9145   0.771  10.112   0.527
 2965SOL    HW2 9146   0.827  10.164   0.396
 2966SOL     OW 9147  11.151   4.948   0.742
 2966SOL    HW1 9148  11.106   4.950   0.826
 2966SOL    HW2 9149  11.187   5.036   0.733
 2967SOL     OW 9150   6.087   9.639   6.332
 2967SOL    HW1 9151   6.058   9.725   6.364
 2967SOL    HW2 9152   6.181   9.648   6.321
 2968SOL     OW 9153   6.532   9.441   1.711
 2968SOL    HW1 9154   6.567   9.367   1.762
 2968SOL    HW2 9155   6.445   9.455   1.748
 2969SOL     OW 9156  11.678   8.691   1.451
 2969SOL    HW1 9157  11.696   8.696   1.545
 2969SOL    HW2 9158  11.637   8.605   1.439
 2970SOL     OW 9159   9.434   7.564   0.872
 2970SOL    HW1 9160   9.493   7.538   0.801
 2970SOL    HW2 9161   9.467   7.520   0.949
 2971SOL     OW 9162   0.183   2.450   0.161
 2971SOL    HW1 9163  10.891   2.479   0.224
 2971SOL    HW2 9164   0.132   2.411   0.090
 2972SOL     OW 9165   8.049  13.927   7.282
 2972SOL    HW1 9166   7.995  13.925   7.204
 2972SOL    HW2 9167   8.139  13.926   7.249
 2973SOL     OW 9168  13.142   9.621   5.621
 2973SOL    HW1 9169  13.231   9.592   5.598
 2973SOL    HW2 9170  13.141   9.623   5.716
 2974SOL     OW 9171   1.911   9.062   1.629
 2974SOL    HW1 9172   1.964   8.999   1.678
 2974SOL    HW2 9173   1.842   9.008   1.588
 2975SOL     OW 9174   9.267   5.367   2.108
 2975SOL    HW1 9175   9.214   5.299   2.151
 2975SOL    HW2 9176   9.284   5.431   2.177
 2976SOL     OW 9177   5.234   6.994   5.330
 2976SOL    HW1 9178   5.321   6.974   5.298
 2976SOL    HW2 9179   5.221   6.933   5.404
 2977SOL     OW 9180  11.155   5.995   5.182
 2977SOL    HW1 9181  11.245   5.966   5.169
 2977SOL    HW2 9182  11.149   6.012   5.276
 2978SOL     OW 9183   6.457   2.160   2.874
 2978SOL    HW1 9184   6.450   2.084   2.816
 2978SOL    HW2 9185   6.549   2.185   2.870
 2979SOL     OW 9186  10.746   6.421   0.299
 2979SOL    HW1 9187  10.655   6.432   0.271
 2979SOL    HW2 9188  10.743   6.426   0.395
 2980SOL     OW 9189   8.155  11.786   3.140
 2980SOL    HW1 9190   8.116  11.709   3.182
 2980SOL    HW2 9191   8.104  11.798   3.060
 2981SOL     OW 9192   8.876   4.406   1.925
 2981SOL    HW1 9193   8.839   4.329   1.968
 2981SOL    HW2 9194   8.908   4.460   1.997
 2982SOL     OW 9195  11.600  15.471   7.546
 2982SOL    HW1 9196  11.526  15.412   7.538
 2982SOL    HW2 9197  11.575  15.531   7.616
 2983SOL     OW 9198   1.023   3.132   0.759
 2983SOL    HW1 9199   0.935   3.118   0.725
 2983SOL    HW2 9200   1.060   3.199   0.702
 2984SOL     OW 9201   5.331  10.809   7.202
 2984SOL    HW1 9202   5.383  10.763   7.136
 2984SOL    HW2 9203   5.360  10.900   7.195
 2985SOL     OW 9204   2.228   1.977   2.507
 2985SOL    HW1 9205   2.249   2.070   2.496
 2985SOL    HW2 9206   2.143   1.967   2.464
 2986SOL     OW 9207   6.860  12.657   5.545
 2986SOL    HW1 9208   6.903  12.620   5.468
 2986SOL    HW2 9209   6.862  12.587   5.610
 2987SOL     OW 9210   9.328   8.001   5.103
 2987SOL    HW1 9211   9.330   8.041   5.016
 2987SOL    HW2 9212   9.347   7.909   5.087
 2988SOL     OW 9213   8.707  11.296   5.145
 2988SOL    HW1 9214   8.752  11.332   5.221
 2988SOL    HW2 9215   8.725  11.202   5.149
 2989SOL     OW 9216  11.820   7.916   7.461
 2989SOL    HW1 9217  11.839   8.009   7.452
 2989SOL    HW2 9218  11.881   7.886   7.528
 2990SOL     OW 9219   4.026   2.905   1.760
 2990SOL    HW1 9220   4.080   2.891   1.682
 2990SOL    HW2 9221   4.032   2.999   1.776
 2991SOL     OW 9222   8.934   7.370   3.376
 2991SOL    HW1 9223   8.894   7.355   3.462
 2991SOL    HW2 9224   9.025   7.341   3.387
 2992SOL     OW 9225   4.469  12.338   2.368
 2992SOL    HW1 9226   4.420  12.418   2.390
 2992SOL    HW2 9227   4.544  12.369   2.317
 2993SOL     OW 9228  11.588  13.166   3.664
 2993SOL    HW1 9229  11.529  13.096   3.691
 2993SOL    HW2 9230  11.675  13.134   3.688
 2994SOL     OW 9231   3.186   6.420   3.833
 2994SOL    HW1 9232   3.201   6.456   3.921
 2994SOL    HW2 9233   3.246   6.468   3.777
 2995SOL     OW 9234   3.608   8.465   4.575
 2995SOL    HW1 9235   3.535   8.415   4.611
 2995SOL    HW2 9236   3.641   8.517   4.648
 2996SOL     OW 9237  10.413   9.654   5.981
 2996SOL    HW1 9238  10.495   9.699   5.958
 2996SOL    HW2 9239  10.356   9.723   6.015
 2997SOL     OW 9240   5.883  10.607   3.428
 2997SOL    HW1 9241   5.942  10.544   3.388
 2997SOL    HW2 9242   5.873  10.676   3.362
 2998SOL     OW 9243  10.753   7.765   4.897
 2998SOL    HW1 9244  10.832   7.815   4.875
 2998SOL    HW2 9245  10.682   7.814   4.855
 2999SOL     OW 9246   4.265   9.348   5.711
 2999SOL    HW1 9247   4.170   9.341   5.723
 2999SOL    HW2 9248   4.284   9.441   5.727
 3000SOL     OW 9249   9.179   8.799   6.847
 3000SOL    HW1 9250   9.242   8.780   6.917
 3000SOL    HW2 9251   9.113   8.854   6.888
 3001SOL     OW 9252  11.042   1.499   1.116
 3001SOL    HW1 9253  11.069   1.408   1.130
 3001SOL    HW2 9254  11.057   1.541   1.200
 3002SOL     OW 9255   3.545  14.251   4.965
 3002SOL    HW1 9256   3.611  14.223   4.902
 3002SOL    HW2 9257   3.589  14.243   5.050
 3003SOL     OW 9258   1.871   1.708   0.931
 3003SOL    HW1 9259   1.849   1.675   0.844
 3003SOL    HW2 9260   1.944   1.653   0.960
 3004SOL     OW 9261   7.458   4.130   1.356
 3004SOL    HW1 9262   7.409   4.150   1.276
 3004SOL    HW2 9263   7.403   4.066   1.402
 3005SOL     OW 9264  10.665   4.313   5.749
 3005SOL    HW1 9265  10.572   4.314   5.775
 3005SOL    HW2 9266  10.692   4.404   5.754
 3006SOL     OW 9267  10.961   3.038   2.914
 3006SOL    HW1 9268  11.021   3.076   2.978
 3006SOL    HW2 9269  10.921   2.965   2.960
 3007SOL     OW 9270   7.717   9.948   5.338
 3007SOL    HW1 9271   7.642   9.913   5.290
 3007SOL    HW2 9272   7.717   9.902   5.421
 3008SOL     OW 9273   6.007   9.568   1.539
 3008SOL    HW1 9274   6.032   9.656   1.566
 3008SOL    HW2 9275   5.969   9.580   1.452
 3009SOL     OW 9276   9.389   7.981   3.120
 3009SOL    HW1 9277   9.321   8.048   3.128
 3009SOL    HW2 9278   9.342   7.898   3.118
 3010SOL     OW 9279  12.414   6.508   7.192
 3010SOL    HW1 9280  12.348   6.507   7.122
 3010SOL    HW2 9281  12.457   6.423   7.185
 3011SOL     OW 9282   4.344   9.249   1.332
 3011SOL    HW1 9283   4.328   9.301   1.254
 3011SOL    HW2 9284   4.391   9.172   1.301
 3012SOL     OW 9285   9.992   3.566   3.918
 3012SOL    HW1 9286  10.072   3.572   3.867
 3012SOL    HW2 9287   9.926   3.613   3.867
 3013SOL     OW 9288   1.739   9.937   0.846
 3013SOL    HW1 9289   1.676   9.887   0.897
 3013SOL    HW2 9290   1.822   9.926   0.892
 3014SOL     OW 9291  12.269   7.540   4.353
 3014SOL    HW1 9292  12.344   7.481   4.359
 3014SOL    HW2 9293  12.305   7.626   4.373
 3015SOL     OW 9294   9.709  12.588   6.181
 3015SOL    HW1 9295   9.791  12.628   6.151
 3015SOL    HW2 9296   9.702  12.613   6.273
 3016SOL     OW 9297  11.262  12.353   3.516
 3016SOL    HW1 9298  11.279  12.419   3.448
 3016SOL    HW2 9299  11.171  12.328   3.503
 3017SOL     OW 9300  11.716   3.831   5.403
 3017SOL    HW1 9301  11.734  14.634   5.493
 3017SOL    HW2 9302  11.667   3.903   5.365
 3018SOL     OW 9303  10.504   9.873   1.840
 3018SOL    HW1 9304  10.534   9.932   1.909
 3018SOL    HW2 9305  10.419   9.842   1.870
 3019SOL     OW 9306   6.746   9.116   3.918
 3019SOL    HW1 9307   6.786   9.029   3.919
 3019SOL    HW2 9308   6.670   9.109   3.975
 3020SOL     OW 9309  10.060   4.483   2.370
 3020SOL    HW1 9310   9.984   4.437   2.332
 3020SOL    HW2 9311  10.135   4.433   2.339
 3021SOL     OW 9312   6.349   3.933   3.493
 3021SOL    HW1 9313   6.290   3.857   3.484
 3021SOL    HW2 9314   6.382   3.948   3.405
 3022SOL     OW 9315   7.455  11.956   4.282
 3022SOL    HW1 9316   7.548  11.960   4.258
 3022SOL    HW2 9317   7.452  11.993   4.370
 3023SOL     OW 9318  12.388   3.656   2.642
 3023SOL    HW1 9319  12.442   3.707   2.702
 3023SOL    HW2 9320  12.337   3.722   2.594
 3024SOL     OW 9321  11.541   4.240   4.992
 3024SOL    HW1 9322  11.449   4.251   5.014
 3024SOL    HW2 9323  11.541   4.189   4.911
 3025SOL     OW 9324   2.170   4.158   0.649
 3025SOL    HW1 9325   2.242   4.100   0.671
 3025SOL    HW2 9326   2.129   4.119   0.572
 3026SOL     OW 9327   9.185  11.013   3.094
 3026SOL    HW1 9328   9.230  11.073   3.035
 3026SOL    HW2 9329   9.195  11.052   3.181
 3027SOL     OW 9330   7.532   8.594   3.150
 3027SOL    HW1 9331   7.511   8.628   3.064
 3027SOL    HW2 9332   7.591   8.659   3.189
 3028SOL     OW 9333   8.880   3.992   2.280
 3028SOL    HW1 9334   8.964   3.995   2.327
 3028SOL    HW2 9335   8.814   4.003   2.348
 3029SOL     OW 9336  10.271   9.951   5.167
 3029SOL    HW1 9337  10.278   9.857   5.151
 3029SOL    HW2 9338  10.302   9.991   5.086
 3030SOL     OW 9339   7.093  10.078   4.294
 3030SOL    HW1 9340   7.110  10.097   4.201
 3030SOL    HW2 9341   7.150  10.140   4.341
 3031SOL     OW 9342  11.924   6.772   2.818
 3031SOL    HW1 9343  11.868   6.768   2.895
 3031SOL    HW2 9344  12.012   6.789   2.853
 3032SOL     OW 9345   9.180  11.073   2.175
 3032SOL    HW1 9346   9.199  11.094   2.266
 3032SOL    HW2 9347   9.127  11.146   2.144
 3033SOL     OW 9348   6.533   1.458   1.087
 3033SOL    HW1 9349   6.519   1.392   1.154
 3033SOL    HW2 9350   6.626   1.480   1.094
 3034SOL     OW 9351  12.972   6.764   4.032
 3034SOL    HW1 9352  13.026   6.695   4.072
 3034SOL    HW2 9353  13.001   6.844   4.076
 3035SOL     OW 9354  11.112   4.441   4.391
 3035SOL    HW1 9355  11.031   4.446   4.442
 3035SOL    HW2 9356  11.174   4.397   4.449
 3036SOL     OW 9357  10.731   4.073   1.231
 3036SOL    HW1 9358  10.808   4.037   1.275
 3036SOL    HW2 9359  10.662   4.070   1.297
 3037SOL     OW 9360   9.336   9.489   2.752
 3037SOL    HW1 9361   9.354   9.458   2.840
 3037SOL    HW2 9362   9.297   9.576   2.764
 3038SOL     OW 9363  10.972  12.584   6.681
 3038SOL    HW1 9364  10.896  12.563   6.735
 3038SOL    HW2 9365  11.002  12.499   6.648
 3039SOL     OW 9366   4.350   4.706   5.562
 3039SOL    HW1 9367   4.326   4.781   5.508
 3039SOL    HW2 9368   4.294   4.714   5.640
 3040SOL     OW 9369   7.665  10.131   5.930
 3040SOL    HW1 9370   7.612  10.139   5.851
 3040SOL    HW2 9371   7.683  10.221   5.957
 3041SOL     OW 9372  10.267   7.105   1.149
 3041SOL    HW1 9373  10.172   7.119   1.154
 3041SOL    HW2 9374  10.285   7.036   1.213
 3042SOL     OW 9375   6.951   3.601   3.377
 3042SOL    HW1 9376   6.988   3.681   3.339
 3042SOL    HW2 9377   7.017   3.534   3.360
 3043SOL     OW 9378   9.170   3.270   0.439
 3043SOL    HW1 9379   9.246   3.217   0.464
 3043SOL    HW2 9380   9.095   3.213   0.455
 3044SOL     OW 9381   9.077   3.143   4.005
 3044SOL    HW1 9382   9.093   3.227   4.049
 3044SOL    HW2 9383   9.156   3.092   4.023
 3045SOL     OW 9384   8.781   4.676   2.119
 3045SOL    HW1 9385   8.872   4.704   2.111
 3045SOL    HW2 9386   8.763   4.628   2.038
 3046SOL     OW 9387  11.969  10.749   6.074
 3046SOL    HW1 9388  11.947  10.768   6.165
 3046SOL    HW2 9389  12.045  10.803   6.056
 3047SOL     OW 9390   7.785  11.140   0.990
 3047SOL    HW1 9391   7.813  11.065   1.043
 3047SOL    HW2 9392   7.811  11.217   1.040
 3048SOL     OW 9393   7.825   4.524   1.487
 3048SOL    HW1 9394   7.762   4.480   1.429
 3048SOL    HW2 9395   7.854   4.600   1.437
 3049SOL     OW 9396  10.091  11.509   1.271
 3049SOL    HW1 9397  10.180  11.539   1.290
 3049SOL    HW2 9398  10.062  11.565   1.199
 3050SOL     OW 9399  11.092   5.609   5.699
 3050SOL    HW1 9400  11.085   5.701   5.725
 3050SOL    HW2 9401  11.136   5.611   5.613
 3051SOL     OW 9402   2.509  12.745   3.027
 3051SOL    HW1 9403   2.472  12.831   3.009
 3051SOL    HW2 9404   2.535  12.713   2.940
 3052SOL     OW 9405   3.856  10.438   3.640
 3052SOL    HW1 9406   3.860  10.454   3.546
 3052SOL    HW2 9407   3.898  10.514   3.680
 3053SOL     OW 9408   8.694   1.544   0.254
 3053SOL    HW1 9409   8.705   1.636   0.276
 3053SOL    HW2 9410   8.610   1.519   0.293
 3054SOL     OW 9411   9.993  14.098   7.564
 3054SOL    HW1 9412  10.015  14.005   7.568
 3054SOL    HW2 9413   4.651   8.749   0.021
 3055SOL     OW 9414   8.041   4.006   0.241
 3055SOL    HW1 9415   8.127   4.046   0.251
 3055SOL    HW2 9416   7.980   4.071   0.277
 3056SOL     OW 9417  10.358   5.296   5.710
 3056SOL    HW1 9418  10.356   5.292   5.805
 3056SOL    HW2 9419  10.300   5.226   5.682
 3057SOL     OW 9420   6.541   8.084   0.292
 3057SOL    HW1 9421   6.532   8.000   0.247
 3057SOL    HW2 9422   6.507   8.067   0.380
 3058SOL     OW 9423   8.943   6.207   1.970
 3058SOL    HW1 9424   8.940   6.202   1.874
 3058SOL    HW2 9425   8.887   6.136   2.000
 3059SOL     OW 9426   4.257   2.332   1.143
 3059SOL    HW1 9427   4.238   2.258   1.201
 3059SOL    HW2 9428   4.228   2.303   1.056
 3060SOL     OW 9429   5.437  10.217   7.207
 3060SOL    HW1 9430   5.394  10.157   7.268
 3060SOL    HW2 9431   5.410  10.187   7.120
 3061SOL     OW 9432  13.577  12.897   4.063
 3061SOL    HW1 9433   2.862  12.829   4.033
 3061SOL    HW2 9434  13.519  12.913   3.989
 3062SOL     OW 9435   7.581   7.159   3.378
 3062SOL    HW1 9436   7.597   7.221   3.307
 3062SOL    HW2 9437   7.583   7.073   3.336
 3063SOL     OW 9438  11.307  13.608   4.589
 3063SOL    HW1 9439  11.291  13.546   4.660
 3063SOL    HW2 9440  11.234  13.594   4.529
 3064SOL     OW 9441   3.630   9.334   0.781
 3064SOL    HW1 9442   3.602   9.260   0.727
 3064SOL    HW2 9443   3.550   9.367   0.821
 3065SOL     OW 9444   8.790   7.543   1.068
 3065SOL    HW1 9445   8.883   7.524   1.052
 3065SOL    HW2 9446   8.763   7.478   1.132
 3066SOL     OW 9447   2.502   9.061   1.694
 3066SOL    HW1 9448   2.494   9.044   1.788
 3066SOL    HW2 9449   2.589   9.029   1.672
 3067SOL     OW 9450  11.144  10.457   4.368
 3067SOL    HW1 9451  11.158  10.377   4.418
 3067SOL    HW2 9452  11.060  10.490   4.399
 3068SOL     OW 9453  10.126   5.763   5.932
 3068SOL    HW1 9454  10.083   5.825   5.873
 3068SOL    HW2 9455  10.067   5.756   6.006
 3069SOL     OW 9456   2.156   1.944   0.723
 3069SOL    HW1 9457   2.144   1.991   0.641
 3069SOL    HW2 9458   2.228   1.991   0.767
 3070SOL     OW 9459   9.776   3.770   3.814
 3070SOL    HW1 9460   9.847   3.813   3.765
 3070SOL    HW2 9461   9.706   3.761   3.750
 3071SOL     OW 9462  10.257   5.001   2.840
 3071SOL    HW1 9463  10.347   4.988   2.870
 3071SOL    HW2 9464  10.234   5.090   2.869
 3072SOL     OW 9465   4.914   5.986   4.435
 3072SOL    HW1 9466   5.003   6.009   4.409
 3072SOL    HW2 9467   4.859   6.025   4.368
 3073SOL     OW 9468  14.054  13.557   5.333
 3073SOL    HW1 9469  14.128  13.607   5.370
 3073SOL    HW2 9470  14.094  13.504   5.264
 3074SOL     OW 9471   3.481   4.456   3.400
 3074SOL    HW1 9472   3.488   4.363   3.381
 3074SOL    HW2 9473   3.571   4.488   3.403
 3075SOL     OW 9474   0.860  10.236   0.867
 3075SOL    HW1 9475   0.813  10.156   0.844
 3075SOL    HW2 9476   0.948  10.206   0.889
 3076SOL     OW 9477   7.543  13.354   4.385
 3076SOL    HW1 9478   7.463  13.344   4.436
 3076SOL    HW2 9479   7.540  13.444   4.353
 3077SOL     OW 9480  10.188   6.901   5.303
 3077SOL    HW1 9481  10.211   6.873   5.215
 3077SOL    HW2 9482  10.094   6.916   5.300
 3078SOL     OW 9483  13.025  12.100   6.986
 3078SOL    HW1 9484  12.931  12.118   6.991
 3078SOL    HW2 9485  13.035  12.050   6.905
 3079SOL     OW 9486   6.832  11.202   5.923
 3079SOL    HW1 9487   6.778  11.278   5.944
 3079SOL    HW2 9488   6.816  11.185   5.830
 3080SOL     OW 9489   5.670  10.257   5.699
 3080SOL    HW1 9490   5.699  10.342   5.666
 3080SOL    HW2 9491   5.706  10.253   5.788
 3081SOL     OW 9492   9.541  12.504   5.372
 3081SOL    HW1 9493   9.523  12.571   5.305
 3081SOL    HW2 9494   9.569  12.427   5.322
 3082SOL     OW 9495   6.995   5.807   2.345
 3082SOL    HW1 9496   6.941   5.820   2.422
 3082SOL    HW2 9497   6.957   5.731   2.301
 3083SOL     OW 9498   7.913   2.780   3.574
 3083SOL    HW1 9499   7.989   2.835   3.557
 3083SOL    HW2 9500   7.949   2.693   3.589
 3084SOL     OW 9501  10.254   3.917   4.774
 3084SOL    HW1 9502  10.260   3.843   4.714
 3084SOL    HW2 9503  10.162   3.917   4.803
 3085SOL     OW 9504   1.402   7.765   1.645
 3085SOL    HW1 9505   1.316   7.787   1.681
 3085SOL    HW2 9506   1.453   7.736   1.721
 3086SOL     OW 9507   1.188  10.199   0.399
 3086SOL    HW1 9508   1.243  10.267   0.362
 3086SOL    HW2 9509   1.103  10.240   0.410
 3087SOL     OW 9510   6.678   9.235   6.774
 3087SOL    HW1 9511   6.710   9.200   6.692
 3087SOL    HW2 9512   6.588   9.262   6.755
 3088SOL     OW 9513   5.630  11.306   3.682
 3088SOL    HW1 9514   5.619  11.303   3.778
 3088SOL    HW2 9515   5.556  11.255   3.649
 3089SOL     OW 9516   9.704   5.870   5.525
 3089SOL    HW1 9517   9.703   5.830   5.438
 3089SOL    HW2 9518   9.713   5.964   5.508
 3090SOL     OW 9519  12.907   6.964   6.359
 3090SOL    HW1 9520  13.002   6.981   6.362
 3090SOL    HW2 9521  12.880   6.964   6.451
 3091SOL     OW 9522  10.633  12.126   5.705
 3091SOL    HW1 9523  10.724  12.139   5.679
 3091SOL    HW2 9524  10.635  12.124   5.800
 3092SOL     OW 9525  11.507   6.648   6.813
 3092SOL    HW1 9526  11.429   6.697   6.787
 3092SOL    HW2 9527  11.493   6.629   6.906
 3093SOL     OW 9528   7.674  11.459   3.988
 3093SOL    HW1 9529   7.712  11.454   3.900
 3093SOL    HW2 9530   7.749  11.472   4.046
 3094SOL     OW 9531   7.873   8.595   4.621
 3094SOL    HW1 9532   7.957   8.582   4.576
 3094SOL    HW2 9533   7.862   8.690   4.624
 3095SOL     OW 9534   8.559   1.425   1.128
 3095SOL    HW1 9535   8.653   1.412   1.116
 3095SOL    HW2 9536   8.526   1.444   1.041
 3096SOL     OW 9537   7.737   6.943   4.239
 3096SOL    HW1 9538   7.803   6.916   4.302
 3096SOL    HW2 9539   7.697   6.862   4.209
 3097SOL     OW 9540   6.672   8.210   1.246
 3097SOL    HW1 9541   6.746   8.152   1.228
 3097SOL    HW2 9542   6.685   8.240   1.336
 3098SOL     OW 9543   7.446  11.890   2.369
 3098SOL    HW1 9544   7.398  11.971   2.355
 3098SOL    HW2 9545   7.421  11.862   2.457
 3099SOL     OW 9546   6.255   6.197   5.435
 3099SOL    HW1 9547   6.173   6.163   5.472
 3099SOL    HW2 9548   6.318   6.190   5.505
 3100SOL     OW 9549   3.170   5.701   3.134
 3100SOL    HW1 9550   3.193   5.642   3.062
 3100SOL    HW2 9551   3.234   5.772   3.128
 3101SOL     OW 9552  10.436  10.266   3.033
 3101SOL    HW1 9553  10.434  10.174   3.062
 3101SOL    HW2 9554  10.427  10.316   3.113
 3102SOL     OW 9555   4.090   5.521   0.816
 3102SOL    HW1 9556   3.998   5.532   0.840
 3102SOL    HW2 9557   4.127   5.466   0.886
 3103SOL     OW 9558  10.802   6.697   3.861
 3103SOL    HW1 9559  10.801   6.764   3.929
 3103SOL    HW2 9560  10.885   6.711   3.816
 3104SOL     OW 9561  10.191   9.928   7.518
 3104SOL    HW1 9562  10.216   9.862   7.584
 3104SOL    HW2 9563  10.274   9.961   7.485
 3105SOL     OW 9564   2.533  11.607   2.753
 3105SOL    HW1 9565   2.589  11.638   2.824
 3105SOL    HW2 9566   2.589  11.549   2.702
 3106SOL     OW 9567   8.615  13.427   6.902
 3106SOL    HW1 9568   8.705  13.430   6.932
 3106SOL    HW2 9569   8.590  13.335   6.911
 3107SOL     OW 9570   5.202   9.526   5.476
 3107SOL    HW1 9571   5.219   9.617   5.451
 3107SOL    HW2 9572   5.107   9.517   5.468
 3108SOL     OW 9573   8.243  13.501   7.592
 3108SOL    HW1 9574   8.215  13.447   7.518
 3108SOL    HW2 9575   2.877   8.050   0.043
 3109SOL     OW 9576  12.936  14.415   5.782
 3109SOL    HW1 9577  12.999  14.443   5.849
 3109SOL    HW2 9578  12.974  14.335   5.745
 3110SOL     OW 9579   7.204   6.654   1.844
 3110SOL    HW1 9580   7.143   6.581   1.851
 3110SOL    HW2 9581   7.150   6.730   1.822
 3111SOL     OW 9582   1.693  10.517   2.236
 3111SOL    HW1 9583   1.733  10.555   2.158
 3111SOL    HW2 9584   1.765  10.473   2.281
 3112SOL     OW 9585   5.553  14.369   5.315
 3112SOL    HW1 9586   5.531  14.375   5.222
 3112SOL    HW2 9587   5.544  14.276   5.336
 3113SOL     OW 9588   1.540   5.789   1.958
 3113SOL    HW1 9589   1.594   5.839   1.897
 3113SOL    HW2 9590   1.477   5.744   1.902
 3114SOL     OW 9591   4.181  11.434   2.225
 3114SOL    HW1 9592   4.175  11.342   2.198
 3114SOL    HW2 9593   4.105  11.476   2.185
 3115SOL     OW 9594   5.310   8.408   2.489
 3115SOL    HW1 9595   5.394   8.386   2.530
 3115SOL    HW2 9596   5.334   8.447   2.405
 3116SOL     OW 9597   9.331   5.414   5.490
 3116SOL    HW1 9598   9.271   5.401   5.563
 3116SOL    HW2 9599   9.317   5.505   5.463
 3117SOL     OW 9600   6.596  13.333   6.354
 3117SOL    HW1 9601   6.640  13.266   6.406
 3117SOL    HW2 9602   6.505  13.332   6.384
 3118SOL     OW 9603   7.838  14.610   7.235
 3118SOL    HW1 9604   7.787  14.529   7.241
 3118SOL    HW2 9605   7.816  14.646   7.149
 3119SOL     OW 9606   5.371   9.252   0.556
 3119SOL    HW1 9607   5.399   9.322   0.498
 3119SOL    HW2 9608   5.356   9.296   0.640
 3120SOL     OW 9609  11.624   2.185   3.014
 3120SOL    HW1 9610  11.619   2.206   3.108
 3120SOL    HW2 9611  11.669   2.260   2.975
 3121SOL     OW 9612  12.863   8.082   7.598
 3121SOL    HW1 9613   7.499   2.711   0.071
 3121SOL    HW2 9614  12.857   8.170   7.560
 3122SOL     OW 9615   8.702   8.953   2.572
 3122SOL    HW1 9616   8.725   8.875   2.622
 3122SOL    HW2 9617   8.750   8.944   2.489
 3123SOL     OW 9618   6.122   2.860   1.381
 3123SOL    HW1 9619   6.139   2.953   1.366
 3123SOL    HW2 9620   6.029   2.849   1.362
 3124SOL     OW 9621  10.490  10.609   4.553
 3124SOL    HW1 9622  10.572  10.613   4.602
 3124SOL    HW2 9623  10.465  10.517   4.553
 3125SOL     OW 9624  15.068  13.562   6.834
 3125SOL    HW1 9625  14.977  13.544   6.857
 3125SOL    HW2 9626  15.088  13.645   6.876
 3126SOL     OW 9627   3.624  12.050   3.137
 3126SOL    HW1 9628   3.654  12.109   3.205
 3126SOL    HW2 9629   3.689  12.058   3.067
 3127SOL     OW 9630   5.039   6.621   3.185
 3127SOL    HW1 9631   5.101   6.683   3.145
 3127SOL    HW2 9632   4.953   6.655   3.160
 3128SOL     OW 9633   6.179  10.436   7.577
 3128SOL    HW1 9634   0.784   5.108   0.033
 3128SOL    HW2 9635   6.267  10.400   7.584
 3129SOL     OW 9636   7.347   8.129   4.894
 3129SOL    HW1 9637   7.428   8.106   4.939
 3129SOL    HW2 9638   7.325   8.216   4.928
 3130SOL     OW 9639  11.393   3.303   3.315
 3130SOL    HW1 9640  11.443   3.225   3.338
 3130SOL    HW2 9641  11.303   3.272   3.303
 3131SOL     OW 9642   6.031   3.781   3.434
 3131SOL    HW1 9643   6.084   3.760   3.357
 3131SOL    HW2 9644   6.011   3.696   3.473
 3132SOL     OW 9645   5.156   6.727   0.026
 3132SOL    HW1 9646   5.212   6.649   0.025
 3132SOL    HW2 9647   5.113   6.725   0.112
 3133SOL     OW 9648   1.769  10.217   2.191
 3133SOL    HW1 9649   1.797  10.130   2.162
 3133SOL    HW2 9650   1.707  10.200   2.262
 3134SOL     OW 9651   3.049   4.208   3.761
 3134SOL    HW1 9652   3.056   4.283   3.821
 3134SOL    HW2 9653   3.100   4.235   3.684
 3135SOL     OW 9654  11.757   9.181   4.425
 3135SOL    HW1 9655  11.758   9.086   4.437
 3135SOL    HW2 9656  11.843   9.201   4.387
 3136SOL     OW 9657   3.262   9.714   4.417
 3136SOL    HW1 9658   3.233   9.730   4.507
 3136SOL    HW2 9659   3.356   9.732   4.419
 3137SOL     OW 9660   6.242  11.659   5.827
 3137SOL    HW1 9661   6.259  11.698   5.741
 3137SOL    HW2 9662   6.155  11.620   5.819
 3138SOL     OW 9663   4.735   4.387   4.691
 3138SOL    HW1 9664   4.679   4.347   4.758
 3138SOL    HW2 9665   4.737   4.322   4.621
 3139SOL     OW 9666  11.551   1.299   1.526
 3139SOL    HW1 9667  11.515   1.387   1.533
 3139SOL    HW2 9668  11.605   1.289   1.605
 3140SOL     OW 9669  10.591   3.525   2.857
 3140SOL    HW1 9670  10.550   3.562   2.778
 3140SOL    HW2 9671  10.664   3.584   2.875
 3141SOL     OW 9672   4.099   9.682   3.224
 3141SOL    HW1 9673   4.033   9.622   3.258
 3141SOL    HW2 9674   4.116   9.742   3.296
 3142SOL     OW 9675   9.092  11.657   6.295
 3142SOL    HW1 9676   9.136  11.690   6.217
 3142SOL    HW2 9677   9.163  11.619   6.348
 3143SOL     OW 9678   6.002   3.735   1.257
 3143SOL    HW1 9679   5.920   3.743   1.210
 3143SOL    HW2 9680   6.066   3.711   1.190
 3144SOL     OW 9681  10.234  11.671   6.414
 3144SOL    HW1 9682  10.241  11.584   6.374
 3144SOL    HW2 9683  10.289  11.727   6.358
 3145SOL     OW 9684   8.327   5.641   3.416
 3145SOL    HW1 9685   8.331   5.683   3.502
 3145SOL    HW2 9686   8.349   5.549   3.432
 3146SOL     OW 9687   8.962  14.221   5.058
 3146SOL    HW1 9688   8.869  14.197   5.053
 3146SOL    HW2 9689   9.007  14.151   5.013
 3147SOL     OW 9690   4.969   7.699   2.685
 3147SOL    HW1 9691   5.036   7.631   2.687
 3147SOL    HW2 9692   5.008   7.771   2.635
 3148SOL     OW 9693   6.420   8.080   4.499
 3148SOL    HW1 9694   6.507   8.053   4.527
 3148SOL    HW2 9695   6.408   8.039   4.414
 3149SOL     OW 9696   7.890   7.354   2.961
 3149SOL    HW1 9697   7.852   7.422   3.016
 3149SOL    HW2 9698   7.982   7.379   2.951
 3150SOL     OW 9699   9.194   1.655   1.751
 3150SOL    HW1 9700   9.135   1.687   1.683
 3150SOL    HW2 9701   9.141   1.658   1.831
 3151SOL     OW 9702   8.397  13.138   4.541
 3151SOL    HW1 9703   8.493  13.138   4.542
 3151SOL    HW2 9704   8.373  13.186   4.463
 3152SOL     OW 9705   5.748   9.445   6.974
 3152SOL    HW1 9706   5.811   9.515   6.958
 3152SOL    HW2 9707   5.801   9.365   6.972
 3153SOL     OW 9708   5.118  10.213   4.700
 3153SOL    HW1 9709   5.137  10.277   4.769
 3153SOL    HW2 9710   5.135  10.260   4.619
 3154SOL     OW 9711  12.095   6.509   4.234
 3154SOL    HW1 9712  12.089   6.492   4.328
 3154SOL    HW2 9713  12.027   6.573   4.217
 3155SOL     OW 9714   5.240   6.315   2.093
 3155SOL    HW1 9715   5.239   6.332   1.999
 3155SOL    HW2 9716   5.151   6.335   2.122
 3156SOL     OW 9717   8.774  11.682   5.668
 3156SOL    HW1 9718   8.801  11.708   5.580
 3156SOL    HW2 9719   8.828  11.736   5.726
 3157SOL     OW 9720   8.252   3.252   0.218
 3157SOL    HW1 9721   8.264   3.308   0.295
 3157SOL    HW2 9722   8.273   3.308   0.144
 3158SOL     OW 9723  14.819   5.395   6.139
 3158SOL    HW1 9724  14.844   5.391   6.232
 3158SOL    HW2 9725  14.743   5.337   6.132
 3159SOL     OW 9726   8.204  11.369   2.000
 3159SOL    HW1 9727   8.279  11.429   1.998
 3159SOL    HW2 9728   8.128  11.426   2.015
 3160SOL     OW 9729  12.454   7.359   4.454
 3160SOL    HW1 9730  12.413   7.288   4.405
 3160SOL    HW2 9731  12.493   7.316   4.530
 3161SOL     OW 9732   5.277  12.034   6.001
 3161SOL    HW1 9733   5.239  11.947   5.985
 3161SOL    HW2 9734   5.358  12.034   5.950
 3162SOL     OW 9735   6.413  10.569   0.148
 3162SOL    HW1 9736   6.467  10.510   0.199
 3162SOL    HW2 9737   6.398  10.523   0.065
 3163SOL     OW 9738   8.791   3.935   2.712
 3163SOL    HW1 9739   8.726   3.928   2.641
 3163SOL    HW2 9740   8.870   3.895   2.676
 3164SOL     OW 9741   8.863   6.369   3.257
 3164SOL    HW1 9742   8.847   6.463   3.249
 3164SOL    HW2 9743   8.788   6.328   3.213
 3165SOL     OW 9744  10.869   9.573   2.534
 3165SOL    HW1 9745  10.783   9.608   2.556
 3165SOL    HW2 9746  10.851   9.503   2.471
 3166SOL     OW 9747  14.508  11.275   7.539
 3166SOL    HW1 9748  14.548  11.313   7.617
 3166SOL    HW2 9749  14.459  11.347   7.500
 3167SOL     OW 9750   5.056   5.052   4.362
 3167SOL    HW1 9751   5.140   5.043   4.316
 3167SOL    HW2 9752   5.079   5.050   4.455
 3168SOL     OW 9753  10.472   6.554   2.589
 3168SOL    HW1 9754  10.502   6.600   2.667
 3168SOL    HW2 9755  10.528   6.477   2.584
 3169SOL     OW 9756  13.682   8.815   7.175
 3169SOL    HW1 9757  13.616   8.843   7.238
 3169SOL    HW2 9758  13.686   8.720   7.184
 3170SOL     OW 9759  12.510   4.467   5.071
 3170SOL    HW1 9760  12.603   4.485   5.085
 3170SOL    HW2 9761  12.467   4.552   5.086
 3171SOL     OW 9762  14.001  13.122   7.090
 3171SOL    HW1 9763  13.922  13.069   7.103
 3171SOL    HW2 9764  14.047  13.079   7.018
 3172SOL     OW 9765   2.919   3.784   0.612
 3172SOL    HW1 9766   2.831   3.787   0.648
 3172SOL    HW2 9767   2.942   3.691   0.611
 3173SOL     OW 9768  11.245   6.655   1.834
 3173SOL    HW1 9769  11.168   6.666   1.779
 3173SOL    HW2 9770  11.211   6.632   1.920
 3174SOL     OW 9771  14.463   6.321   6.878
 3174SOL    HW1 9772  14.543   6.320   6.825
 3174SOL    HW2 9773  14.414   6.245   6.849
 3175SOL     OW 9774  10.771  10.341   1.845
 3175SOL    HW1 9775  10.827  10.376   1.914
 3175SOL    HW2 9776  10.769  10.409   1.779
 3176SOL     OW 9777  12.358   7.982   3.523
 3176SOL    HW1 9778  12.262   7.984   3.524
 3176SOL    HW2 9779  12.380   7.892   3.548
 3177SOL     OW 9780   2.630   0.858   1.131
 3177SOL    HW1 9781   2.569   0.929   1.114
 3177SOL    HW2 9782   2.709   0.901   1.165
 3178SOL     OW 9783   4.007   8.923   4.230
 3178SOL    HW1 9784   3.960   8.867   4.168
 3178SOL    HW2 9785   3.948   8.931   4.305
 3179SOL     OW 9786   6.568   8.715   5.312
 3179SOL    HW1 9787   6.494   8.669   5.273
 3179SOL    HW2 9788   6.529   8.770   5.380
 3180SOL     OW 9789   5.811   5.298   1.191
 3180SOL    HW1 9790   5.891   5.348   1.204
 3180SOL    HW2 9791   5.841   5.215   1.153
 3181SOL     OW 9792   4.973   6.369   5.443
 3181SOL    HW1 9793   5.027   6.420   5.504
 3181SOL    HW2 9794   5.020   6.286   5.433
 3182SOL     OW 9795   4.634   6.206   5.660
 3182SOL    HW1 9796   4.622   6.300   5.670
 3182SOL    HW2 9797   4.680   6.179   5.739
 3183SOL     OW 9798   2.997   3.070   0.895
 3183SOL    HW1 9799   3.092   3.061   0.891
 3183SOL    HW2 9800   2.982   3.161   0.920
 3184SOL     OW 9801   2.923   3.442   0.429
 3184SOL    HW1 9802   2.943   3.427   0.521
 3184SOL    HW2 9803   2.954   3.530   0.411
 3185SOL     OW 9804   6.182   4.542   4.434
 3185SOL    HW1 9805   6.233   4.529   4.354
 3185SOL    HW2 9806   6.143   4.456   4.451
 3186SOL     OW 9807   8.878   5.539   4.616
 3186SOL    HW1 9808   8.847   5.473   4.554
 3186SOL    HW2 9809   8.805   5.601   4.623
 3187SOL     OW 9810  11.941   6.489   2.775
 3187SOL    HW1 9811  12.024   6.527   2.803
 3187SOL    HW2 9812  11.876   6.556   2.795
 3188SOL     OW 9813   7.705  11.671   6.079
 3188SOL    HW1 9814   7.682  11.713   5.996
 3188SOL    HW2 9815   7.775  11.726   6.115
 3189SOL     OW 9816   1.666   8.930   0.936
 3189SOL    HW1 9817   1.608   8.856   0.954
 3189SOL    HW2 9818   1.753   8.890   0.924
 3190SOL     OW 9819   3.158  10.178   0.332
 3190SOL    HW1 9820   3.181  10.086   0.340
 3190SOL    HW2 9821   3.081  10.188   0.388
 3191SOL     OW 9822   5.740   3.568   0.627
 3191SOL    HW1 9823   5.815   3.581   0.569
 3191SOL    HW2 9824   5.778   3.547   0.712
 3192SOL     OW 9825   5.229  12.699   3.932
 3192SOL    HW1 9826   5.141  12.692   3.897
 3192SOL    HW2 9827   5.255  12.790   3.913
 3193SOL     OW 9828  11.964   5.680   6.614
 3193SOL    HW1 9829  11.869   5.685   6.623
 3193SOL    HW2 9830  11.990   5.609   6.673
 3194SOL     OW 9831  10.686   8.588   6.348
 3194SOL    HW1 9832  10.612   8.636   6.311
 3194SOL    HW2 9833  10.699   8.626   6.435
 3195SOL     OW 9834   6.374   8.984   3.816
 3195SOL    HW1 9835   6.354   8.981   3.910
 3195SOL    HW2 9836   6.291   9.009   3.775
 3196SOL     OW 9837   3.212   8.065   4.263
 3196SOL    HW1 9838   3.197   7.976   4.231
 3196SOL    HW2 9839   3.303   8.084   4.241
 3197SOL     OW 9840   8.104   1.182   0.998
 3197SOL    HW1 9841   8.081   1.228   1.079
 3197SOL    HW2 9842   8.074   1.240   0.929
 3198SOL     OW 9843   6.380  11.281   0.874
 3198SOL    HW1 9844   6.439  11.206   0.884
 3198SOL    HW2 9845   6.412  11.325   0.795
 3199SOL     OW 9846   5.648  12.579   4.794
 3199SOL    HW1 9847   5.618  12.513   4.731
 3199SOL    HW2 9848   5.643  12.535   4.879
 3200SOL     OW 9849   6.504  13.040   3.544
 3200SOL    HW1 9850   6.433  13.087   3.500
 3200SOL    HW2 9851   6.482  12.947   3.532
 3201SOL     OW 9852  13.843   5.504   5.478
 3201SOL    HW1 9853  13.777   5.460   5.532
 3201SOL    HW2 9854  13.846   5.593   5.513
 3202SOL     OW 9855   6.149   8.185   7.418
 3202SOL    HW1 9856   6.150   8.241   7.341
 3202SOL    HW2 9857   6.235   8.143   7.418
 3203SOL     OW 9858   7.290  10.262   6.121
 3203SOL    HW1 9859   7.323  10.323   6.055
 3203SOL    HW2 9860   7.317  10.176   6.089
 3204SOL     OW 9861   4.776   6.747   1.593
 3204SOL    HW1 9862   4.846   6.688   1.621
 3204SOL    HW2 9863   4.744   6.709   1.511
 3205SOL     OW 9864  13.073  12.242   4.978
 3205SOL    HW1 9865  13.028  12.320   5.010
 3205SOL    HW2 9866  13.165  12.256   5.001
 3206SOL     OW 9867  13.895   9.693   5.858
 3206SOL    HW1 9868  13.859   9.608   5.831
 3206SOL    HW2 9869  13.954   9.672   5.930
 3207SOL     OW 9870   8.636   7.559   2.011
 3207SOL    HW1 9871   8.602   7.641   1.975
 3207SOL    HW2 9872   8.584   7.491   1.968
 3208SOL     OW 9873  12.448   7.730   7.418
 3208SOL    HW1 9874  12.496   7.789   7.360
 3208SOL    HW2 9875  12.370   7.780   7.443
 3209SOL     OW 9876   5.627   4.650   2.875
 3209SOL    HW1 9877   5.541   4.644   2.917
 3209SOL    HW2 9878   5.607   4.671   2.783
 3210SOL     OW 9879   7.869   7.052   7.364
 3210SOL    HW1 9880   7.878   6.957   7.373
 3210SOL    HW2 9881   7.792   7.074   7.416
 3211SOL     OW 9882  11.720  14.236   5.483
 3211SOL    HW1 9883  11.813  14.229   5.462
 3211SOL    HW2 9884  11.709  14.181   5.561
 3212SOL     OW 9885  10.532   8.345   4.631
 3212SOL    HW1 9886  10.556   8.331   4.540
 3212SOL    HW2 9887  10.483   8.427   4.632
 3213SOL     OW 9888   4.719  12.895   4.400
 3213SOL    HW1 9889   4.640  12.926   4.443
 3213SOL    HW2 9890   4.695  12.810   4.363
 3214SOL     OW 9891   5.357   4.891   4.191
 3214SOL    HW1 9892   5.406   4.972   4.207
 3214SOL    HW2 9893   5.272   4.920   4.160
 3215SOL     OW 9894   9.985   1.691   1.708
 3215SOL    HW1 9895   9.948   1.765   1.756
 3215SOL    HW2 9896   9.917   1.669   1.644
 3216SOL     OW 9897   2.871   8.137   2.390
 3216SOL    HW1 9898   2.889   8.110   2.300
 3216SOL    HW2 9899   2.800   8.201   2.382
 3217SOL     OW 9900   3.799   7.025   3.798
 3217SOL    HW1 9901   3.841   7.052   3.880
 3217SOL    HW2 9902   3.740   6.954   3.823
 3218SOL     OW 9903   8.972   5.740   4.073
 3218SOL    HW1 9904   9.065   5.751   4.057
 3218SOL    HW2 9905   8.930   5.805   4.016
 3219SOL     OW 9906   9.803   5.393   5.928
 3219SOL    HW1 9907   9.785   5.402   5.834
 3219SOL    HW2 9908   9.889   5.432   5.940
 3220SOL     OW 9909   9.765  12.489   4.040
 3220SOL    HW1 9910   9.686  12.516   3.992
 3220SOL    HW2 9911   9.731  12.448   4.119
 3221SOL     OW 9912   5.978  10.855   0.144
 3221SOL    HW1 9913   6.024   0.067   0.061
 3221SOL    HW2 9914   5.981   0.175   0.159
 3222SOL     OW 9915   4.534  11.737   5.405
 3222SOL    HW1 9916   4.502  11.712   5.318
 3222SOL    HW2 9917   4.468  11.797   5.438
 3223SOL     OW 9918   4.821   5.831   0.564
 3223SOL    HW1 9919   4.837   5.918   0.601
 3223SOL    HW2 9920   4.804   5.775   0.639
 3224SOL     OW 9921   9.261   5.669   3.223
 3224SOL    HW1 9922   9.294   5.759   3.222
 3224SOL    HW2 9923   9.274   5.638   3.134
 3225SOL     OW 9924  10.982  12.851   5.423
 3225SOL    HW1 9925  10.970  12.778   5.362
 3225SOL    HW2 9926  10.900  12.854   5.473
 3226SOL     OW 9927   5.277   6.882   0.415
 3226SOL    HW1 9928   5.282   6.953   0.479
 3226SOL    HW2 9929   5.223   6.917   0.345
 3227SOL     OW 9930   5.347   8.617   1.774
 3227SOL    HW1 9931   5.438   8.590   1.768
 3227SOL    HW2 9932   5.305   8.575   1.699
 3228SOL     OW 9933   9.697   6.973   3.715
 3228SOL    HW1 9934   9.713   6.883   3.740
 3228SOL    HW2 9935   9.678   6.969   3.621
 3229SOL     OW 9936   5.145  12.927   5.954
 3229SOL    HW1 9937   5.066  12.880   5.983
 3229SOL    HW2 9938   5.121  12.962   5.868
 3230SOL     OW 9939   5.156   3.681   4.782
 3230SOL    HW1 9940   5.184   3.754   4.727
 3230SOL    HW2 9941   5.235   3.630   4.797
 3231SOL     OW 9942   8.866  13.799   5.914
 3231SOL    HW1 9943   8.918  13.861   5.964
 3231SOL    HW2 9944   8.844  13.730   5.976
 3232SOL     OW 9945  13.259  11.724   5.287
 3232SOL    HW1 9946  13.170  11.738   5.255
 3232SOL    HW2 9947  13.312  11.720   5.207
 3233SOL     OW 9948  12.679  10.942   5.922
 3233SOL    HW1 9949  12.657  11.009   5.986
 3233SOL    HW2 9950  12.690  10.989   5.840
 3234SOL     OW 9951   9.446   6.215   4.737
 3234SOL    HW1 9952   9.430   6.128   4.700
 3234SOL    HW2 9953   9.469   6.198   4.829
 3235SOL     OW 9954   7.107   8.472   0.939
 3235SOL    HW1 9955   7.140   8.502   0.855
 3235SOL    HW2 9956   7.118   8.377   0.937
 3236SOL     OW 9957   5.548  14.680   6.970
 3236SOL    HW1 9958   5.533  14.771   6.994
 3236SOL    HW2 9959   5.587  14.640   7.048
 3237SOL     OW 9960   1.603   5.597   0.766
 3237SOL    HW1 9961   1.686   5.644   0.755
 3237SOL    HW2 9962   1.536   5.661   0.741
 3238SOL     OW 9963   8.372   7.567   1.449
 3238SOL    HW1 9964   8.292   7.546   1.401
 3238SOL    HW2 9965   8.342   7.612   1.528
 3239SOL     OW 9966   3.012   5.731   0.476
 3239SOL    HW1 9967   3.013   5.740   0.572
 3239SOL    HW2 9968   2.927   5.693   0.456
 3240SOL     OW 9969  11.157  11.360   6.376
 3240SOL    HW1 9970  11.171  11.265   6.383
 3240SOL    HW2 9971  11.202  11.385   6.295
 3241SOL     OW 9972  15.536  11.591   7.176
 3241SOL    HW1 9973  15.589  11.665   7.206
 3241SOL    HW2 9974  15.449  11.606   7.214
 3242SOL     OW 9975   6.853   1.888   2.114
 3242SOL    HW1 9976   6.864   1.977   2.149
 3242SOL    HW2 9977   6.787   1.848   2.171
 3243SOL     OW 9978  12.978   5.044   6.471
 3243SOL    HW1 9979  12.893   5.004   6.490
 3243SOL    HW2 9980  12.993   5.026   6.379
 3244SOL     OW 9981   6.007  12.579   5.194
 3244SOL    HW1 9982   5.939  12.521   5.161
 3244SOL    HW2 9983   5.960  12.655   5.229
 3245SOL     OW 9984   6.226   8.134   2.071
 3245SOL    HW1 9985   6.260   8.127   1.982
 3245SOL    HW2 9986   6.188   8.048   2.089
 3246SOL     OW 9987   2.818   4.886   1.164
 3246SOL    HW1 9988   2.812   4.981   1.174
 3246SOL    HW2 9989   2.912   4.869   1.160
 3247SOL     OW 9990   3.946   4.253   3.003
 3247SOL    HW1 9991   3.918   4.343   2.987
 3247SOL    HW2 9992   3.927   4.238   3.096
 3248SOL     OW 9993   9.686  11.206   2.762
 3248SOL    HW1 9994   9.769  11.163   2.781
 3248SOL    HW2 9995   9.711  11.296   2.740
 3249SOL     OW 9996   6.729   3.934   5.002
 3249SOL    HW1 9997   6.641   3.899   5.019
 3249SOL    HW2 9998   6.721   4.028   5.019
 3250SOL     OW 9999   9.883   4.426   3.745
 3250SOL    HW110000   9.820   4.355   3.734
 3250SOL    HW210001   9.850   4.497   3.690
 3251SOL     OW10002   8.807   6.909   0.712
 3251SOL    HW110003   8.713   6.918   0.731
 3251SOL    HW210004   8.827   6.817   0.732
 3252SOL     OW10005  11.269   8.511   3.275
 3252SOL    HW110006  11.263   8.424   3.237
 3252SOL    HW210007  11.256   8.497   3.369
 3253SOL     OW10008   6.651   6.145   1.352
 3253SOL    HW110009   6.623   6.235   1.363
 3253SOL    HW210010   6.586   6.106   1.294
 3254SOL     OW10011   7.288  10.636   2.093
 3254SOL    HW110012   7.270  10.568   2.157
 3254SOL    HW210013   7.329  10.706   2.143
 3255SOL     OW10014  13.743  12.267   4.417
 3255SOL    HW110015  13.801  12.324   4.469
 3255SOL    HW210016  13.795  12.188   4.402
 3256SOL     OW10017  10.068   4.881   3.831
 3256SOL    HW110018  10.078   4.789   3.808
 3256SOL    HW210019  10.111   4.889   3.916
 3257SOL     OW10020  11.398   6.862   2.429
 3257SOL    HW110021  11.367   6.784   2.475
 3257SOL    HW210022  11.389   6.839   2.336
 3258SOL     OW10023  14.541   6.991   6.551
 3258SOL    HW110024  14.457   6.984   6.598
 3258SOL    HW210025  14.530   7.067   6.495
 3259SOL     OW10026  11.599  10.423   3.131
 3259SOL    HW110027  11.533  10.354   3.142
 3259SOL    HW210028  11.640  10.403   3.046
 3260SOL     OW10029  10.465   7.124   3.146
 3260SOL    HW110030  10.552   7.085   3.150
 3260SOL    HW210031  10.413   7.075   3.209
 3261SOL     OW10032  11.464  10.834   5.041
 3261SOL    HW110033  11.508  10.787   5.111
 3261SOL    HW210034  11.426  10.911   5.083
 3262SOL     OW10035  10.439   1.238   0.686
 3262SOL    HW110036  10.449   1.251   0.591
 3262SOL    HW210037  10.429   1.327   0.720
 3263SOL     OW10038   3.860   4.466   0.342
 3263SOL    HW110039   3.774   4.506   0.335
 3263SOL    HW210040   3.917   4.521   0.287
 3264SOL     OW10041   7.984   6.994   1.828
 3264SOL    HW110042   8.050   6.963   1.766
 3264SOL    HW210043   7.967   7.085   1.802
 3265SOL     OW10044   7.325   5.447   1.348
 3265SOL    HW110045   7.384   5.376   1.374
 3265SOL    HW210046   7.373   5.527   1.367
 3266SOL     OW10047   2.547   4.117   3.554
 3266SOL    HW110048   2.625   4.073   3.520
 3266SOL    HW210049   2.477   4.092   3.494
 3267SOL     OW10050   5.412   8.880   4.946
 3267SOL    HW110051   5.346   8.882   4.877
 3267SOL    HW210052   5.388   8.804   5.000
 3268SOL     OW10053   9.633  12.709   5.529
 3268SOL    HW110054   9.560  12.666   5.484
 3268SOL    HW210055   9.618  12.690   5.622
 3269SOL     OW10056   6.622   5.911   0.712
 3269SOL    HW110057   6.630   6.007   0.711
 3269SOL    HW210058   6.684   5.882   0.646
 3270SOL     OW10059   7.797   8.053   4.309
 3270SOL    HW110060   7.726   8.104   4.348
 3270SOL    HW210061   7.871   8.066   4.370
 3271SOL     OW10062   3.581   5.091   1.179
 3271SOL    HW110063   3.495   5.107   1.141
 3271SOL    HW210064   3.566   5.087   1.273
 3272SOL     OW10065   3.308   7.037   2.299
 3272SOL    HW110066   3.330   7.115   2.349
 3272SOL    HW210067   3.295   7.068   2.210
 3273SOL     OW10068   4.303   2.553   2.530
 3273SOL    HW110069   4.336   2.472   2.491
 3273SOL    HW210070   4.256   2.596   2.459
 3274SOL     OW10071   8.489   7.860   4.209
 3274SOL    HW110072   8.560   7.898   4.260
 3274SOL    HW210073   8.531   7.829   4.129
 3275SOL     OW10074   3.939  10.803   1.555
 3275SOL    HW110075   4.003  10.792   1.485
 3275SOL    HW210076   3.920  10.897   1.556
 3276SOL     OW10077   8.745   9.012   3.397
 3276SOL    HW110078   8.718   9.061   3.475
 3276SOL    HW210079   8.695   8.930   3.402
 3277SOL     OW10080   5.586  11.963   5.115
 3277SOL    HW110081   5.595  11.918   5.199
 3277SOL    HW210082   5.557  11.895   5.055
 3278SOL     OW10083  11.445   9.343   5.189
 3278SOL    HW110084  11.429   9.363   5.281
 3278SOL    HW210085  11.373   9.285   5.165
 3279SOL     OW10086   9.022  10.424   2.294
 3279SOL    HW110087   9.098  10.454   2.344
 3279SOL    HW210088   9.002  10.338   2.330
 3280SOL     OW10089  11.092   8.186   1.553
 3280SOL    HW110090  11.044   8.216   1.630
 3280SOL    HW210091  11.065   8.245   1.482
 3281SOL     OW10092   9.364   8.292   2.159
 3281SOL    HW110093   9.317   8.212   2.135
 3281SOL    HW210094   9.347   8.352   2.086
 3282SOL     OW10095   7.660  11.774   6.837
 3282SOL    HW110096   7.754  11.781   6.853
 3282SOL    HW210097   7.652  11.720   6.759
 3283SOL     OW10098   6.705   4.721   4.070
 3283SOL    HW110099   6.651   4.726   4.149
 3283SOL    HW210100   6.755   4.802   4.071
 3284SOL     OW10101   5.343   6.694   4.491
 3284SOL    HW110102   5.416   6.710   4.551
 3284SOL    HW210103   5.298   6.779   4.485
 3285SOL     OW10104  14.692  11.540   5.963
 3285SOL    HW110105  14.744  11.620   5.972
 3285SOL    HW210106  14.648  11.530   6.047
 3286SOL     OW10107   9.304   3.620   4.766
 3286SOL    HW110108   9.308   3.660   4.853
 3286SOL    HW210109   9.365   3.671   4.714
 3287SOL     OW10110   3.801   7.674   2.156
 3287SOL    HW110111   3.739   7.747   2.160
 3287SOL    HW210112   3.882   7.714   2.123
 3288SOL     OW10113   7.686   8.853   5.852
 3288SOL    HW110114   7.751   8.919   5.829
 3288SOL    HW210115   7.602   8.889   5.823
 3289SOL     OW10116   4.785   3.468   0.548
 3289SOL    HW110117   4.752   3.553   0.576
 3289SOL    HW210118   4.800   3.478   0.454
 3290SOL     OW10119   5.504   2.676   2.462
 3290SOL    HW110120   5.429   2.709   2.412
 3290SOL    HW210121   5.478   2.687   2.554
 3291SOL     OW10122   6.667   7.304   3.184
 3291SOL    HW110123   6.665   7.265   3.097
 3291SOL    HW210124   6.753   7.347   3.189
 3292SOL     OW10125   7.120  11.311   7.437
 3292SOL    HW110126   7.078  11.381   7.388
 3292SOL    HW210127   7.130  11.346   7.525
 3293SOL     OW10128   0.991   7.833   0.215
 3293SOL    HW110129   0.910   7.883   0.201
 3293SOL    HW210130   1.036   7.835   0.131
 3294SOL     OW10131  13.534   6.342   4.142
 3294SOL    HW110132  13.579   6.259   4.128
 3294SOL    HW210133  13.467   6.322   4.207
 3295SOL     OW10134   4.492  10.909   5.702
 3295SOL    HW110135   4.527  10.828   5.664
 3295SOL    HW210136   4.537  10.979   5.655
 3296SOL     OW10137   8.682  11.706   3.862
 3296SOL    HW110138   8.655  11.629   3.911
 3296SOL    HW210139   8.600  11.746   3.832
 3297SOL     OW10140  10.452  11.896   3.887
 3297SOL    HW110141  10.424  11.847   3.809
 3297SOL    HW210142  10.547  11.900   3.880
 3298SOL     OW10143   8.992  11.800   3.444
 3298SOL    HW110144   8.935  11.857   3.392
 3298SOL    HW210145   9.027  11.737   3.381
 3299SOL     OW10146   2.389   6.717   2.403
 3299SOL    HW110147   2.354   6.633   2.375
 3299SOL    HW210148   2.456   6.738   2.338
 3300SOL     OW10149   5.657   8.042   0.754
 3300SOL    HW110150   5.633   7.954   0.781
 3300SOL    HW210151   5.753   8.042   0.755
 3301SOL     OW10152   7.158   6.897   0.091
 3301SOL    HW110153   7.147   6.986   0.058
 3301SOL    HW210154   7.195   6.908   0.178
 3302SOL     OW10155   4.783   5.702   6.170
 3302SOL    HW110156   4.792   5.787   6.128
 3302SOL    HW210157   4.713   5.713   6.234
 3303SOL     OW10158   3.493  11.489   3.676
 3303SOL    HW110159   3.542  11.446   3.607
 3303SOL    HW210160   3.452  11.417   3.725
 3304SOL     OW10161  10.530   8.177   0.725
 3304SOL    HW110162  10.577   8.094   0.733
 3304SOL    HW210163  10.438   8.152   0.715
 3305SOL     OW10164   4.582   6.149   4.073
 3305SOL    HW110165   4.576   6.211   4.146
 3305SOL    HW210166   4.587   6.204   3.995
 3306SOL     OW10167   7.075   2.975   2.359
 3306SOL    HW110168   7.053   3.052   2.306
 3306SOL    HW210169   7.007   2.911   2.337
 3307SOL     OW10170  12.985   6.495   6.789
 3307SOL    HW110171  13.063   6.552   6.794
 3307SOL    HW210172  12.962   6.479   6.880
 3308SOL     OW10173  11.929   5.096   6.250
 3308SOL    HW110174  11.984   5.028   6.211
 3308SOL    HW210175  11.877   5.130   6.177
 3309SOL     OW10176   7.812   9.859   4.314
 3309SOL    HW110177   7.878   9.796   4.284
 3309SOL    HW210178   7.729   9.814   4.305
 3310SOL     OW10179  10.350  12.169   6.273
 3310SOL    HW110180  10.305  12.204   6.196
 3310SOL    HW210181  10.431  12.220   6.279
 3311SOL     OW10182   7.091   6.508   3.494
 3311SOL    HW110183   7.165   6.447   3.499
 3311SOL    HW210184   7.015   6.451   3.483
 3312SOL     OW10185   2.726   8.234   3.837
 3312SOL    HW110186  13.464   8.295   3.902
 3312SOL    HW210187  13.425   8.211   3.782
 3313SOL     OW10188   8.595   9.500   6.723
 3313SOL    HW110189   8.513   9.539   6.691
 3313SOL    HW210190   8.647   9.575   6.751
 3314SOL     OW10191   9.067   6.980   6.417
 3314SOL    HW110192   9.145   7.035   6.423
 3314SOL    HW210193   8.995   7.039   6.439
 3315SOL     OW10194   6.274   9.218   1.735
 3315SOL    HW110195   6.247   9.258   1.653
 3315SOL    HW210196   6.192   9.189   1.776
 3316SOL     OW10197   8.640   8.032   1.024
 3316SOL    HW110198   8.610   8.037   0.933
 3316SOL    HW210199   8.668   7.941   1.035
 3317SOL     OW10200   1.573   7.600   1.863
 3317SOL    HW110201   1.657   7.604   1.818
 3317SOL    HW210202   1.594   7.589   1.955
 3318SOL     OW10203   9.067   3.020   1.119
 3318SOL    HW110204   9.162   3.010   1.128
 3318SOL    HW210205   9.030   2.972   1.193
 3319SOL     OW10206   2.176   7.275   1.400
 3319SOL    HW110207   2.086   7.273   1.433
 3319SOL    HW210208   2.203   7.184   1.398
 3320SOL     OW10209   6.839   5.551   5.211
 3320SOL    HW110210   6.896   5.596   5.274
 3320SOL    HW210211   6.824   5.615   5.141
 3321SOL     OW10212  10.070   2.802   3.398
 3321SOL    HW110213  10.061   2.774   3.307
 3321SOL    HW210214  10.165   2.809   3.411
 3322SOL     OW10215   7.453   7.614   3.529
 3322SOL    HW110216   7.509   7.541   3.555
 3322SOL    HW210217   7.373   7.572   3.497
 3323SOL     OW10218   6.587  12.945   7.059
 3323SOL    HW110219   6.568  12.960   6.966
 3323SOL    HW210220   6.503  12.958   7.103
 3324SOL     OW10221  12.364   9.221   4.132
 3324SOL    HW110222  12.286   9.230   4.186
 3324SOL    HW210223  12.436   9.247   4.188
 3325SOL     OW10224  11.486  12.139   6.557
 3325SOL    HW110225  11.448  12.076   6.496
 3325SOL    HW210226  11.458  12.224   6.525
 3326SOL     OW10227  12.341  12.182   4.928
 3326SOL    HW110228  12.325  12.120   5.000
 3326SOL    HW210229  12.376  12.128   4.857
 3327SOL     OW10230   7.241   4.573   4.539
 3327SOL    HW110231   7.250   4.656   4.586
 3327SOL    HW210232   7.191   4.596   4.460
 3328SOL     OW10233  10.633   6.551   6.651
 3328SOL    HW110234  10.628   6.553   6.556
 3328SOL    HW210235  10.602   6.637   6.679
 3329SOL     OW10236  11.827  14.986   7.612
 3329SOL    HW110237  11.794  15.031   7.534
 3329SOL    HW210238   6.478   9.669   0.047
 3330SOL     OW10239   7.147  10.534   5.493
 3330SOL    HW110240   7.079  10.600   5.504
 3330SOL    HW210241   7.100  10.456   5.465
 3331SOL     OW10242   5.233   4.056   5.642
 3331SOL    HW110243   5.164   4.043   5.577
 3331SOL    HW210244   5.308   4.005   5.608
 3332SOL     OW10245   6.066   3.798   0.294
 3332SOL    HW110246   6.078   3.736   0.222
 3332SOL    HW210247   6.135   3.777   0.356
 3333SOL     OW10248   2.305   7.147   0.057
 3333SOL    HW110249   2.240   7.209   0.092
 3333SOL    HW210250   2.279   7.062   0.094
 3334SOL     OW10251   9.132   9.031   2.290
 3334SOL    HW110252   9.206   9.017   2.349
 3334SOL    HW210253   9.132   9.125   2.273
 3335SOL     OW10254   7.097  13.751   6.107
 3335SOL    HW110255   7.147  13.781   6.182
 3335SOL    HW210256   7.145  13.784   6.031
 3336SOL     OW10257   3.477  11.123   2.845
 3336SOL    HW110258   3.396  11.116   2.794
 3336SOL    HW210259   3.470  11.053   2.910
 3337SOL     OW10260  10.452   2.237   1.542
 3337SOL    HW110261  10.471   2.326   1.512
 3337SOL    HW210262  10.528   2.186   1.514
 3338SOL     OW10263   5.116  10.192   3.746
 3338SOL    HW110264   5.119  10.288   3.750
 3338SOL    HW210265   5.037  10.169   3.795
 3339SOL     OW10266   3.740   4.422   2.924
 3339SOL    HW110267   3.653   4.437   2.962
 3339SOL    HW210268   3.782   4.508   2.927
 3340SOL     OW10269  15.134  14.619   6.517
 3340SOL    HW110270  15.195  14.640   6.446
 3340SOL    HW210271  15.130  14.699   6.569
 3341SOL     OW10272   5.613   5.998   2.795
 3341SOL    HW110273   5.619   5.987   2.700
 3341SOL    HW210274   5.610   6.092   2.809
 3342SOL     OW10275  12.106   4.099   5.482
 3342SOL    HW110276  12.105   4.007   5.505
 3342SOL    HW210277  12.155   4.142   5.552
 3343SOL     OW10278   8.409   8.451   6.047
 3343SOL    HW110279   8.403   8.414   6.135
 3343SOL    HW210280   8.325   8.496   6.034
 3344SOL     OW10281  13.736   9.157   6.110
 3344SOL    HW110282  13.735   9.066   6.081
 3344SOL    HW210283  13.741   9.153   6.205
 3345SOL     OW10284   2.831   9.671   0.473
 3345SOL    HW110285   2.794   9.744   0.523
 3345SOL    HW210286   2.880   9.713   0.402
 3346SOL     OW10287   6.530  13.200   6.977
 3346SOL    HW110288   6.499  13.285   6.947
 3346SOL    HW210289   6.623  13.199   6.956
 3347SOL     OW10290   7.032   4.551   1.955
 3347SOL    HW110291   6.972   4.606   1.904
 3347SOL    HW210292   7.029   4.466   1.912
 3348SOL     OW10293  12.285   4.094   3.350
 3348SOL    HW110294  12.316   4.184   3.340
 3348SOL    HW210295  12.219   4.098   3.419
 3349SOL     OW10296  13.054  10.726   3.567
 3349SOL    HW110297  12.990  10.697   3.501
 3349SOL    HW210298  13.021  10.811   3.596
 3350SOL     OW10299   3.228   4.794   3.741
 3350SOL    HW110300   3.266   4.869   3.786
 3350SOL    HW210301   3.277   4.787   3.659
 3351SOL     OW10302  13.206  12.655   6.356
 3351SOL    HW110303  13.210  12.740   6.400
 3351SOL    HW210304  13.114  12.645   6.330
 3352SOL     OW10305  12.958  12.477   4.839
 3352SOL    HW110306  12.965  12.538   4.766
 3352SOL    HW210307  13.005  12.399   4.809
 3353SOL     OW10308   4.538   8.814   3.140
 3353SOL    HW110309   4.622   8.860   3.136
 3353SOL    HW210310   4.477   8.878   3.178
 3354SOL     OW10311  10.039   9.909   4.555
 3354SOL    HW110312  10.057   9.849   4.627
 3354SOL    HW210313   9.968   9.867   4.506
 3355SOL     OW10314   9.316  11.581   7.240
 3355SOL    HW110315   9.307  11.489   7.265
 3355SOL    HW210316   9.409  11.600   7.253
 3356SOL     OW10317  13.984  14.057   5.101
 3356SOL    HW110318  13.998  14.021   5.014
 3356SOL    HW210319  14.050  14.014   5.156
 3357SOL     OW10320  12.883   6.059   5.455
 3357SOL    HW110321  12.807   6.010   5.488
 3357SOL    HW210322  12.911   6.113   5.529
 3358SOL     OW10323  10.998   8.015   5.197
 3358SOL    HW110324  11.021   7.946   5.135
 3358SOL    HW210325  10.908   7.994   5.223
 3359SOL     OW10326   6.415   4.538   1.807
 3359SOL    HW110327   6.509   4.558   1.806
 3359SOL    HW210328   6.412   4.443   1.822
 3360SOL     OW10329   9.066   9.447   0.348
 3360SOL    HW110330   9.089   9.372   0.293
 3360SOL    HW210331   9.124   9.441   0.424
 3361SOL     OW10332  10.737   6.000   4.961
 3361SOL    HW110333  10.674   5.971   4.895
 3361SOL    HW210334  10.695   6.076   5.002
 3362SOL     OW10335   5.264   8.211   2.279
 3362SOL    HW110336   5.272   8.213   2.374
 3362SOL    HW210337   5.255   8.303   2.253
 3363SOL     OW10338   5.852   4.743   1.667
 3363SOL    HW110339   5.898   4.813   1.713
 3363SOL    HW210340   5.922   4.695   1.622
 3364SOL     OW10341   4.966  12.923   3.255
 3364SOL    HW110342   4.930  12.854   3.311
 3364SOL    HW210343   5.024  12.973   3.313
 3365SOL     OW10344   6.567   3.294   3.499
 3365SOL    HW110345   6.617   3.246   3.566
 3365SOL    HW210346   6.556   3.231   3.428
 3366SOL     OW10347   7.548  14.492   5.926
 3366SOL    HW110348   7.631  14.447   5.941
 3366SOL    HW210349   7.559  14.535   5.841
 3367SOL     OW10350   7.129   4.938   5.826
 3367SOL    HW110351   7.056   4.994   5.853
 3367SOL    HW210352   7.087   4.866   5.778
 3368SOL     OW10353   8.907   7.323   6.091
 3368SOL    HW110354   8.814   7.337   6.072
 3368SOL    HW210355   8.930   7.244   6.043
 3369SOL     OW10356   3.998   4.643   4.526
 3369SOL    HW110357   4.077   4.662   4.474
 3369SOL    HW210358   3.978   4.725   4.570
 3370SOL     OW10359   5.158  10.073   6.269
 3370SOL    HW110360   5.234  10.026   6.302
 3370SOL    HW210361   5.154  10.050   6.176
 3371SOL     OW10362  14.292   6.960   6.283
 3371SOL    HW110363  14.262   6.926   6.367
 3371SOL    HW210364  14.319   7.050   6.300
 3372SOL     OW10365  14.052   9.308   6.319
 3372SOL    HW110366  13.977   9.368   6.313
 3372SOL    HW210367  14.091   9.310   6.231
 3373SOL     OW10368  15.000   5.906   6.999
 3373SOL    HW110369  15.059   5.924   6.926
 3373SOL    HW210370  15.045   5.942   7.076
 3374SOL     OW10371  15.777  13.464   7.294
 3374SOL    HW110372  15.788  13.433   7.204
 3374SOL    HW210373  15.691  13.431   7.320
 3375SOL     OW10374   5.787   4.561   3.269
 3375SOL    HW110375   5.726   4.519   3.209
 3375SOL    HW210376   5.772   4.655   3.256
 3376SOL     OW10377   1.756   4.878   2.155
 3376SOL    HW110378   1.746   4.909   2.065
 3376SOL    HW210379   1.838   4.828   2.155
 3377SOL     OW10380  12.226  12.542   4.017
 3377SOL    HW110381  12.296  12.487   3.984
 3377SOL    HW210382  12.234  12.536   4.113
 3378SOL     OW10383  10.737  11.756   6.188
 3378SOL    HW110384  10.686  11.690   6.140
 3378SOL    HW210385  10.782  11.805   6.119
 3379SOL     OW10386  13.805  13.658   6.875
 3379SOL    HW110387  13.710  13.658   6.867
 3379SOL    HW210388  13.821  13.679   6.968
 3380SOL     OW10389   4.101  10.636   4.039
 3380SOL    HW110390   4.186  10.594   4.051
 3380SOL    HW210391   4.062  10.636   4.126
 3381SOL     OW10392   5.199   4.562   1.754
 3381SOL    HW110393   5.177   4.587   1.843
 3381SOL    HW210394   5.294   4.573   1.748
 3382SOL     OW10395   4.747   3.355   1.504
 3382SOL    HW110396   4.715   3.444   1.522
 3382SOL    HW210397   4.807   3.336   1.576
 3383SOL     OW10398   4.044  12.805   4.855
 3383SOL    HW110399   4.035  12.853   4.938
 3383SOL    HW210400   3.957  12.806   4.816
 3384SOL     OW10401   9.747  13.030   5.679
 3384SOL    HW110402   9.669  13.014   5.625
 3384SOL    HW210403   9.786  13.109   5.641
 3385SOL     OW10404  10.099  11.106   0.626
 3385SOL    HW110405  10.161  11.137   0.692
 3385SOL    HW210406  10.123  11.015   0.610
 3386SOL     OW10407   9.180  10.675   1.261
 3386SOL    HW110408   9.192  10.593   1.307
 3386SOL    HW210409   9.086  10.684   1.251
 3387SOL     OW10410  13.344  14.870   6.788
 3387SOL    HW110411  13.419  14.836   6.739
 3387SOL    HW210412  13.285  14.904   6.721
 3388SOL     OW10413   4.438   6.791   1.306
 3388SOL    HW110414   4.356   6.827   1.338
 3388SOL    HW210415   4.414   6.737   1.231
 3389SOL     OW10416  11.871   6.909   6.300
 3389SOL    HW110417  11.954   6.890   6.344
 3389SOL    HW210418  11.831   6.823   6.285
 3390SOL     OW10419  12.641   7.699   4.485
 3390SOL    HW110420  12.586   7.760   4.534
 3390SOL    HW210421  12.612   7.708   4.394
 3391SOL     OW10422   3.733   8.028   5.096
 3391SOL    HW110423   3.690   7.956   5.049
 3391SOL    HW210424   3.666   8.097   5.099
 3392SOL     OW10425  12.572  10.851   6.596
 3392SOL    HW110426  12.584  10.907   6.673
 3392SOL    HW210427  12.651  10.797   6.594
 3393SOL     OW10428   2.484   2.591   1.851
 3393SOL    HW110429   2.483   2.687   1.851
 3393SOL    HW210430   2.461   2.567   1.941
 3394SOL     OW10431  12.981  11.230   3.522
 3394SOL    HW110432  12.925  11.277   3.460
 3394SOL    HW210433  13.059  11.206   3.471
 3395SOL     OW10434   5.475   9.670   6.794
 3395SOL    HW110435   5.496   9.711   6.878
 3395SOL    HW210436   5.385   9.639   6.804
 3396SOL     OW10437  12.173  13.409   3.835
 3396SOL    HW110438  12.221  13.329   3.812
 3396SOL    HW210439  12.097  13.410   3.777
 3397SOL     OW10440  14.768   6.706   5.724
 3397SOL    HW110441  14.783   6.753   5.806
 3397SOL    HW210442   4.061   6.740   5.665
 3398SOL     OW10443   9.140   5.058   3.208
 3398SOL    HW110444   9.225   5.088   3.176
 3398SOL    HW210445   9.128   4.973   3.166
 3399SOL     OW10446  12.506   6.037   5.199
 3399SOL    HW110447  12.516   5.942   5.197
 3399SOL    HW210448  12.445   6.053   5.271
 3400SOL     OW10449   8.317   7.257   4.025
 3400SOL    HW110450   8.267   7.182   3.992
 3400SOL    HW210451   8.403   7.249   3.985
 3401SOL     OW10452   5.322   6.452   4.369
 3401SOL    HW110453   5.343   6.519   4.434
 3401SOL    HW210454   5.260   6.495   4.310
 3402SOL     OW10455   5.827   8.653   3.149
 3402SOL    HW110456   5.806   8.684   3.237
 3402SOL    HW210457   5.815   8.730   3.093
 3403SOL     OW10458   9.747   7.797   4.522
 3403SOL    HW110459   9.761   7.883   4.481
 3403SOL    HW210460   9.709   7.818   4.608
 3404SOL     OW10461   6.018   4.655   3.031
 3404SOL    HW110462   6.022   4.567   2.993
 3404SOL    HW210463   6.060   4.646   3.116
 3405SOL     OW10464  13.481   9.758   4.070
 3405SOL    HW110465  13.507   9.668   4.088
 3405SOL    HW210466  13.439   9.787   4.151
 3406SOL     OW10467   8.482  11.018   5.890
 3406SOL    HW110468   8.418  11.059   5.948
 3406SOL    HW210469   8.484  11.075   5.813
 3407SOL     OW10470   4.553   1.650   0.346
 3407SOL    HW110471   4.499   1.726   0.324
 3407SOL    HW210472   4.593   1.625   0.262
 3408SOL     OW10473   7.574   6.658   4.150
 3408SOL    HW110474   7.524   6.665   4.231
 3408SOL    HW210475   7.508   6.658   4.081
 3409SOL     OW10476   9.975   8.944   5.149
 3409SOL    HW110477  10.037   8.936   5.221
 3409SOL    HW210478   9.901   8.889   5.174
 3410SOL     OW10479   7.593  10.649   5.296
 3410SOL    HW110480   7.509  10.604   5.308
 3410SOL    HW210481   7.571  10.742   5.293
 3411SOL     OW10482  13.420   7.895   4.375
 3411SOL    HW110483  13.335   7.856   4.356
 3411SOL    HW210484  13.431   7.962   4.307
 3412SOL     OW10485   9.313  13.256   6.083
 3412SOL    HW110486   9.389  13.266   6.025
 3412SOL    HW210487   9.243  13.305   6.039
 3413SOL     OW10488   4.691   3.961   1.452
 3413SOL    HW110489   4.746   4.022   1.403
 3413SOL    HW210490   4.717   3.875   1.420
 3414SOL     OW10491  10.948   5.320   1.143
 3414SOL    HW110492  10.923   5.290   1.231
 3414SOL    HW210493  10.975   5.241   1.098
 3415SOL     OW10494   2.712   4.064   0.258
 3415SOL    HW110495   2.637   4.024   0.302
 3415SOL    HW210496   2.754   3.992   0.212
 3416SOL     OW10497   9.968  10.141   0.257
 3416SOL    HW110498   9.976  10.125   0.162
 3416SOL    HW210499   9.932  10.059   0.291
 3417SOL     OW10500   9.257   6.333   4.983
 3417SOL    HW110501   9.276   6.288   4.901
 3417SOL    HW210502   9.337   6.382   5.003
 3418SOL     OW10503   1.543   2.997   1.894
 3418SOL    HW110504   1.513   2.951   1.815
 3418SOL    HW210505   1.567   2.927   1.954
 3419SOL     OW10506   2.353   4.052   0.040
 3419SOL    HW110507   2.375   3.966   0.075
 3419SOL    HW210508   2.437   4.092   0.019
 3420SOL     OW10509  10.324   0.897   0.974
 3420SOL    HW110510  10.419   0.906   0.970
 3420SOL    HW210511  10.305   0.817   0.925
 3421SOL     OW10512   2.468   4.652   1.941
 3421SOL    HW110513   2.386   4.620   1.979
 3421SOL    HW210514   2.526   4.576   1.942
 3422SOL     OW10515   8.593   4.977   0.174
 3422SOL    HW110516   8.586   4.944   0.084
 3422SOL    HW210517   8.535   5.052   0.177
 3423SOL     OW10518   2.135   7.917   2.500
 3423SOL    HW110519   2.169   8.005   2.485
 3423SOL    HW210520   2.213   7.861   2.501
 3424SOL     OW10521  10.128   5.466   0.656
 3424SOL    HW110522  10.111   5.532   0.589
 3424SOL    HW210523  10.191   5.406   0.615
 3425SOL     OW10524   4.090  10.542   5.678
 3425SOL    HW110525   4.065  10.545   5.586
 3425SOL    HW210526   4.185  10.557   5.677
 3426SOL     OW10527   5.314   5.994   6.526
 3426SOL    HW110528   5.336   6.078   6.567
 3426SOL    HW210529   5.306   5.933   6.599
 3427SOL     OW10530  12.449   5.453   5.639
 3427SOL    HW110531  12.377   5.412   5.686
 3427SOL    HW210532  12.501   5.380   5.606
 3428SOL     OW10533   9.708   4.336   2.248
 3428SOL    HW110534   9.749   4.349   2.162
 3428SOL    HW210535   9.627   4.290   2.228
 3429SOL     OW10536  10.869   1.627   0.966
 3429SOL    HW110537  10.941   1.668   0.918
 3429SOL    HW210538  10.913   1.571   1.031
 3430SOL     OW10539  11.192  10.762   1.534
 3430SOL    HW110540  11.109  10.809   1.525
 3430SOL    HW210541  11.212  10.731   1.446
 3431SOL     OW10542   3.613   5.162   4.730
 3431SOL    HW110543   3.623   5.200   4.817
 3431SOL    HW210544   3.614   5.237   4.671
 3432SOL     OW10545   8.650   4.396   1.456
 3432SOL    HW110546   8.710   4.450   1.403
 3432SOL    HW210547   8.563   4.428   1.434
 3433SOL     OW10548   9.897   8.017   4.272
 3433SOL    HW110549   9.934   7.934   4.241
 3433SOL    HW210550   9.973   8.067   4.302
 3434SOL     OW10551   7.891   7.719   5.953
 3434SOL    HW110552   7.833   7.713   5.877
 3434SOL    HW210553   7.835   7.755   6.022
 3435SOL     OW10554  11.530   9.796   3.148
 3435SOL    HW110555  11.565   9.818   3.234
 3435SOL    HW210556  11.448   9.844   3.142
 3436SOL     OW10557  10.147  13.942   4.605
 3436SOL    HW110558  10.190  13.935   4.690
 3436SOL    HW210559  10.158   3.260   4.581
 3437SOL     OW10560   2.872  10.744   2.954
 3437SOL    HW110561   2.912  10.725   2.869
 3437SOL    HW210562   2.790  10.788   2.933
 3438SOL     OW10563   9.786   3.062   3.398
 3438SOL    HW110564   9.756   2.972   3.410
 3438SOL    HW210565   9.826   3.063   3.311
 3439SOL     OW10566   1.311   1.044   0.772
 3439SOL    HW110567   1.242   0.997   0.819
 3439SOL    HW210568   1.265   1.096   0.707
 3440SOL     OW10569  12.660   6.327   3.149
 3440SOL    HW110570  12.753   6.317   3.169
 3440SOL    HW210571  12.615   6.292   3.226
 3441SOL     OW10572   5.158   8.990   6.269
 3441SOL    HW110573   5.251   8.974   6.283
 3441SOL    HW210574   5.150   9.011   6.176
 3442SOL     OW10575   5.390   5.764   0.485
 3442SOL    HW110576   5.484   5.748   0.495
 3442SOL    HW210577   5.370   5.731   0.398
 3443SOL     OW10578   6.340   6.860   1.460
 3443SOL    HW110579   6.382   6.827   1.539
 3443SOL    HW210580   6.393   6.935   1.433
 3444SOL     OW10581   6.462   8.040   5.843
 3444SOL    HW110582   6.539   7.988   5.821
 3444SOL    HW210583   6.395   8.012   5.781
 3445SOL     OW10584   6.272   2.083   0.405
 3445SOL    HW110585   6.315   2.093   0.490
 3445SOL    HW210586   6.321   2.012   0.363
 3446SOL     OW10587   8.876  13.797   5.197
 3446SOL    HW110588   8.834  13.773   5.279
 3446SOL    HW210589   8.968  13.774   5.210
 3447SOL     OW10590  10.269   6.399   6.028
 3447SOL    HW110591  10.302   6.471   5.974
 3447SOL    HW210592  10.206   6.441   6.087
 3448SOL     OW10593   6.164   9.049   7.145
 3448SOL    HW110594   6.248   9.061   7.190
 3448SOL    HW210595   6.102   9.103   7.195
 3449SOL     OW10596   3.281  10.977   0.999
 3449SOL    HW110597   3.286  10.962   1.093
 3449SOL    HW210598   3.198  10.938   0.972
 3450SOL     OW10599  11.324   7.907   5.157
 3450SOL    HW110600  11.308   8.001   5.148
 3450SOL    HW210601  11.356   7.880   5.071
 3451SOL     OW10602  10.167  12.707   6.669
 3451SOL    HW110603  10.153  12.614   6.683
 3451SOL    HW210604  10.234  12.731   6.732
 3452SOL     OW10605   8.318   2.368   1.882
 3452SOL    HW110606   8.320   2.459   1.911
 3452SOL    HW210607   8.230   2.338   1.904
 3453SOL     OW10608   6.680   9.568   6.648
 3453SOL    HW110609   6.716   9.631   6.586
 3453SOL    HW210610   6.698   9.483   6.609
 3454SOL     OW10611   6.458  11.076   2.884
 3454SOL    HW110612   6.441  11.166   2.914
 3454SOL    HW210613   6.504  11.035   2.957
 3455SOL     OW10614   6.221   8.645   2.946
 3455SOL    HW110615   6.265   8.618   3.026
 3455SOL    HW210616   6.191   8.564   2.906
 3456SOL     OW10617   6.889   8.905   0.266
 3456SOL    HW110618   6.796   8.896   0.246
 3456SOL    HW210619   6.926   8.950   0.191
 3457SOL     OW10620   9.298  10.015   2.861
 3457SOL    HW110621   9.252   9.988   2.940
 3457SOL    HW210622   9.357   9.943   2.841
 3458SOL     OW10623   1.527   2.703   1.048
 3458SOL    HW110624   1.512   2.772   1.112
 3458SOL    HW210625   1.574   2.635   1.095
 3459SOL     OW10626   0.798   7.911   0.943
 3459SOL    HW110627   0.791   7.821   0.912
 3459SOL    HW210628   0.724   7.956   0.902
 3460SOL     OW10629  10.909   2.752   2.655
 3460SOL    HW110630  10.990   2.739   2.705
 3460SOL    HW210631  10.891   2.845   2.663
 3461SOL     OW10632   9.067   2.126   2.535
 3461SOL    HW110633   8.998   2.172   2.488
 3461SOL    HW210634   9.050   2.033   2.519
 3462SOL     OW10635  10.087   5.093   1.452
 3462SOL    HW110636  10.156   5.156   1.433
 3462SOL    HW210637  10.108   5.018   1.397
 3463SOL     OW10638   9.097  11.807   6.567
 3463SOL    HW110639   9.147  11.732   6.533
 3463SOL    HW210640   9.009  11.772   6.583
 3464SOL     OW10641  14.798  13.715   5.962
 3464SOL    HW110642  14.704  13.711   5.981
 3464SOL    HW210643  14.803  13.753   5.874
 3465SOL     OW10644  10.296   7.122   2.937
 3465SOL    HW110645  10.220   7.148   2.989
 3465SOL    HW210646  10.370   7.128   2.998
 3466SOL     OW10647   6.318   5.667   2.825
 3466SOL    HW110648   6.303   5.760   2.810
 3466SOL    HW210649   6.345   5.662   2.917
 3467SOL     OW10650   5.919  11.635   5.809
 3467SOL    HW110651   5.828  11.640   5.780
 3467SOL    HW210652   5.944  11.544   5.797
 3468SOL     OW10653   4.215   3.985   0.850
 3468SOL    HW110654   4.244   3.929   0.778
 3468SOL    HW210655   4.136   4.029   0.816
 3469SOL     OW10656   9.913   6.611   2.759
 3469SOL    HW110657   9.971   6.687   2.762
 3469SOL    HW210658   9.922   6.578   2.669
 3470SOL     OW10659   8.031   8.782   2.780
 3470SOL    HW110660   8.078   8.774   2.863
 3470SOL    HW210661   8.061   8.707   2.728
 3471SOL     OW10662  12.385  15.515   7.500
 3471SOL    HW110663  12.295  15.496   7.476
 3471SOL    HW210664  12.378  15.587   7.564
 3472SOL     OW10665   7.010   7.761   5.056
 3472SOL    HW110666   7.062   7.769   5.136
 3472SOL    HW210667   6.937   7.704   5.079
 3473SOL     OW10668   3.420   7.857   3.438
 3473SOL    HW110669   3.340   7.852   3.490
 3473SOL    HW210670   3.490   7.861   3.504
 3474SOL     OW10671   5.160   1.259   0.388
 3474SOL    HW110672   5.186   1.304   0.468
 3474SOL    HW210673   5.124   1.327   0.332
 3475SOL     OW10674  15.843   5.815   7.203
 3475SOL    HW110675  15.882   5.886   7.254
 3475SOL    HW210676  15.765   5.791   7.254
 3476SOL     OW10677   7.419   9.826   0.516
 3476SOL    HW110678   7.449   9.779   0.594
 3476SOL    HW210679   7.346   9.881   0.547
 3477SOL     OW10680  13.511   3.430   4.488
 3477SOL    HW110681  13.438   3.444   4.427
 3477SOL    HW210682  13.567   3.507   4.475
 3478SOL     OW10683   3.640  11.953   2.610
 3478SOL    HW110684   3.625  11.957   2.516
 3478SOL    HW210685   3.555  11.978   2.648
 3479SOL     OW10686   8.706   3.378   2.383
 3479SOL    HW110687   8.679   3.393   2.474
 3479SOL    HW210688   8.799   3.358   2.389
 3480SOL     OW10689   9.343   7.167   6.950
 3480SOL    HW110690   9.366   7.243   6.897
 3480SOL    HW210691   9.424   7.143   6.995
 3481SOL     OW10692  12.182   6.504   3.984
 3481SOL    HW110693  12.162   6.509   4.077
 3481SOL    HW210694  12.201   6.595   3.959
 3482SOL     OW10695   4.938  14.106   5.880
 3482SOL    HW110696   4.956  14.057   5.800
 3482SOL    HW210697   4.970  14.049   5.951
 3483SOL     OW10698   5.555   9.760   0.052
 3483SOL    HW110699   5.461   9.772   0.043
 3483SOL    HW210700   5.594   9.832   0.004
 3484SOL     OW10701   7.054   9.590   1.514
 3484SOL    HW110702   6.998   9.513   1.520
 3484SOL    HW210703   7.058   9.624   1.604
 3485SOL     OW10704   4.370   5.128   3.974
 3485SOL    HW110705   4.455   5.164   3.948
 3485SOL    HW210706   4.335   5.192   4.036
 3486SOL     OW10707   5.509   9.267   2.980
 3486SOL    HW110708   5.589   9.231   3.018
 3486SOL    HW210709   5.472   9.195   2.929
 3487SOL     OW10710   6.593   9.922   4.390
 3487SOL    HW110711   6.561  10.010   4.407
 3487SOL    HW210712   6.621   9.923   4.298
 3488SOL     OW10713   7.206  11.418   1.523
 3488SOL    HW110714   7.113  11.408   1.545
 3488SOL    HW210715   7.246  11.453   1.602
 3489SOL     OW10716   8.709   8.437   0.239
 3489SOL    HW110717   8.786   8.450   0.295
 3489SOL    HW210718   8.746   8.416   0.152
 3490SOL     OW10719   8.118  12.902   3.056
 3490SOL    HW110720   8.195   2.146   3.002
 3490SOL    HW210721   8.129  12.811   3.083
 3491SOL     OW10722   8.401   6.120   2.520
 3491SOL    HW110723   8.375   6.177   2.592
 3491SOL    HW210724   8.472   6.066   2.557
 3492SOL     OW10725   2.427   7.773   3.298
 3492SOL    HW110726   2.339   7.795   3.267
 3492SOL    HW210727   2.423   7.680   3.320
 3493SOL     OW10728   0.870   3.955   0.837
 3493SOL    HW110729   0.886   3.930   0.746
 3493SOL    HW210730   0.952   3.996   0.865
 3494SOL     OW10731   3.360   8.569   4.016
 3494SOL    HW110732   3.368   8.662   3.994
 3494SOL    HW210733   3.296   8.535   3.954
 3495SOL     OW10734   5.088   8.061   3.476
 3495SOL    HW110735   5.102   7.998   3.546
 3495SOL    HW210736   5.165   8.118   3.477
 3496SOL     OW10737  10.645   8.294   7.618
 3496SOL    HW110738  10.675   8.279   7.529
 3496SOL    HW210739   5.331   2.881   0.055
 3497SOL     OW10740   5.497   9.294   6.325
 3497SOL    HW110741   5.590   9.272   6.322
 3497SOL    HW210742   5.470   9.268   6.413
 3498SOL     OW10743  10.635   3.960   5.309
 3498SOL    HW110744  10.568   4.015   5.269
 3498SOL    HW210745  10.590   3.919   5.384
 3499SOL     OW10746   1.926   3.663   0.858
 3499SOL    HW110747   1.924   3.629   0.948
 3499SOL    HW210748   2.014   3.700   0.849
 3500SOL     OW10749   3.684   4.162   3.021
 3500SOL    HW110750   3.691   4.257   3.012
 3500SOL    HW210751   3.757   4.127   2.970
 3501SOL     OW10752  13.146  10.247   5.331
 3501SOL    HW110753  13.146  10.342   5.320
 3501SOL    HW210754  13.094  10.214   5.257
 3502SOL     OW10755  11.207   8.849   4.969
 3502SOL    HW110756  11.201   8.915   5.037
 3502SOL    HW210757  11.201   8.898   4.887
 3503SOL     OW10758   3.496   7.618   3.150
 3503SOL    HW110759   3.502   7.530   3.187
 3503SOL    HW210760   3.572   7.664   3.186
 3504SOL     OW10761  13.025   4.294   3.214
 3504SOL    HW110762  13.030   4.275   3.308
 3504SOL    HW210763  12.979   4.218   3.177
 3505SOL     OW10764  13.590   4.319   4.468
 3505SOL    HW110765  13.601   4.369   4.388
 3505SOL    HW210766  13.648   4.362   4.532
 3506SOL     OW10767  10.651   8.632   1.548
 3506SOL    HW110768  10.651   8.567   1.618
 3506SOL    HW210769  10.571   8.614   1.499
 3507SOL     OW10770  11.246  11.778   5.137
 3507SOL    HW110771  11.245  11.697   5.189
 3507SOL    HW210772  11.266  11.748   5.048
 3508SOL     OW10773   6.650  10.926   3.155
 3508SOL    HW110774   6.681  10.841   3.124
 3508SOL    HW210775   6.727  10.966   3.195
 3509SOL     OW10776   6.015   2.243   0.447
 3509SOL    HW110777   5.991   2.335   0.436
 3509SOL    HW210778   6.034   2.212   0.358
 3510SOL     OW10779   6.702   2.090   1.057
 3510SOL    HW110780   6.739   2.020   1.110
 3510SOL    HW210781   6.607   2.079   1.065
 3511SOL     OW10782   8.283   8.436   7.156
 3511SOL    HW110783   8.290   8.401   7.245
 3511SOL    HW210784   8.327   8.370   7.101
 3512SOL     OW10785   4.275   5.956   4.545
 3512SOL    HW110786   4.296   5.865   4.521
 3512SOL    HW210787   4.257   5.999   4.462
 3513SOL     OW10788  14.560  10.016   7.568
 3513SOL    HW110789  14.493  10.031   7.501
 3513SOL    HW210790   9.130   4.570   0.012
 3514SOL     OW10791   6.889   5.477   1.633
 3514SOL    HW110792   6.951   5.428   1.579
 3514SOL    HW210793   6.893   5.567   1.599
 3515SOL     OW10794   4.876   7.348   3.027
 3515SOL    HW110795   4.889   7.360   2.933
 3515SOL    HW210796   4.787   7.312   3.034
 3516SOL     OW10797   4.854   4.988   4.142
 3516SOL    HW110798   4.891   5.073   4.119
 3516SOL    HW210799   4.830   4.949   4.058
 3517SOL     OW10800  11.949   6.129   2.267
 3517SOL    HW110801  11.990   6.081   2.196
 3517SOL    HW210802  11.901   6.062   2.316
 3518SOL     OW10803   8.100   3.242   3.028
 3518SOL    HW110804   8.129   3.291   2.951
 3518SOL    HW210805   8.163   3.170   3.036
 3519SOL     OW10806   4.689   7.226   1.956
 3519SOL    HW110807   4.709   7.307   1.910
 3519SOL    HW210808   4.612   7.247   2.009
 3520SOL     OW10809  12.330  12.168   3.864
 3520SOL    HW110810  12.235  12.175   3.868
 3520SOL    HW210811  12.358  12.246   3.818
 3521SOL     OW10812   8.162  12.089   5.261
 3521SOL    HW110813   8.076  12.064   5.228
 3521SOL    HW210814   8.168  12.183   5.245
 3522SOL     OW10815   0.941   7.277   0.634
 3522SOL    HW110816   0.964   7.187   0.611
 3522SOL    HW210817   0.854   7.270   0.673
 3523SOL     OW10818   1.619   3.946   1.245
 3523SOL    HW110819   1.539   3.980   1.204
 3523SOL    HW210820   1.677   3.926   1.173
 3524SOL     OW10821  12.087   6.594   6.777
 3524SOL    HW110822  12.089   6.532   6.850
 3524SOL    HW210823  12.069   6.540   6.700
 3525SOL     OW10824   8.971   5.893   3.282
 3525SOL    HW110825   8.981   5.931   3.369
 3525SOL    HW210826   8.960   5.799   3.299
 3526SOL     OW10827   4.041   4.202   5.616
 3526SOL    HW110828   4.043   4.294   5.590
 3526SOL    HW210829   4.132   4.175   5.619
 3527SOL     OW10830   2.795   6.307   2.357
 3527SOL    HW110831   2.750   6.227   2.382
 3527SOL    HW210832   2.734   6.352   2.297
 3528SOL     OW10833  12.339   6.656   7.386
 3528SOL    HW110834  12.370   6.595   7.453
 3528SOL    HW210835  12.377   6.624   7.305
 3529SOL     OW10836   1.784   2.573   0.576
 3529SOL    HW110837   1.749   2.597   0.662
 3529SOL    HW210838   1.724   2.615   0.513
 3530SOL     OW10839   1.738   6.457   1.229
 3530SOL    HW110840   1.787   6.446   1.311
 3530SOL    HW210841   1.806   6.471   1.163
 3531SOL     OW10842  11.299   5.190   5.870
 3531SOL    HW110843  11.254   5.106   5.860
 3531SOL    HW210844  11.374   5.184   5.811
 3532SOL     OW10845   7.603   8.769   4.757
 3532SOL    HW110846   7.585   8.804   4.670
 3532SOL    HW210847   7.546   8.818   4.816
 3533SOL     OW10848  12.516  14.154   7.435
 3533SOL    HW110849  12.504  14.133   7.343
 3533SOL    HW210850  12.428  14.153   7.472
 3534SOL     OW10851  11.746   5.264   1.731
 3534SOL    HW110852  11.833   5.237   1.704
 3534SOL    HW210853  11.758   5.304   1.817
 3535SOL     OW10854  12.155   2.628   2.227
 3535SOL    HW110855  12.108   2.698   2.182
 3535SOL    HW210856  12.101   2.550   2.214
 3536SOL     OW10857   5.935   6.092   2.598
 3536SOL    HW110858   5.865   6.143   2.640
 3536SOL    HW210859   6.005   6.155   2.583
 3537SOL     OW10860   7.725   8.379   5.131
 3537SOL    HW110861   7.793   8.442   5.156
 3537SOL    HW210862   7.758   8.339   5.051
 3538SOL     OW10863  11.492   4.623   3.566
 3538SOL    HW110864  11.489   4.715   3.595
 3538SOL    HW210865  11.430   4.618   3.494
 3539SOL     OW10866   4.078   7.130   2.568
 3539SOL    HW110867   4.050   7.171   2.650
 3539SOL    HW210868   3.997   7.102   2.525
 3540SOL     OW10869   6.199  12.454   5.757
 3540SOL    HW110870   6.268  12.435   5.820
 3540SOL    HW210871   6.118  12.447   5.807
 3541SOL     OW10872  13.684  13.212   5.054
 3541SOL    HW110873  13.613  13.171   5.004
 3541SOL    HW210874  13.641  13.283   5.102
 3542SOL     OW10875   8.473  13.331   6.650
 3542SOL    HW110876   8.562  13.314   6.683
 3542SOL    HW210877   8.480  13.318   6.556
 3543SOL     OW10878   7.545   6.097   0.569
 3543SOL    HW110879   7.553   6.162   0.500
 3543SOL    HW210880   7.553   6.147   0.651
 3544SOL     OW10881  13.295  12.138   5.102
 3544SOL    HW110882  13.292  12.218   5.154
 3544SOL    HW210883  13.279  12.068   5.165
 3545SOL     OW10884   3.979   4.569   4.789
 3545SOL    HW110885   3.887   4.553   4.767
 3545SOL    HW210886   3.998   4.654   4.749
 3546SOL     OW10887   4.361   7.818   2.255
 3546SOL    HW110888   4.271   7.850   2.263
 3546SOL    HW210889   4.413   7.882   2.303
 3547SOL     OW10890   3.527   8.552   0.808
 3547SOL    HW110891   3.582   8.551   0.886
 3547SOL    HW210892   3.574   8.498   0.745
 3548SOL     OW10893  10.507   5.362   2.543
 3548SOL    HW110894  10.514   5.283   2.489
 3548SOL    HW210895  10.480   5.430   2.482
 3549SOL     OW10896   5.709   3.838   3.847
 3549SOL    HW110897   5.751   3.772   3.902
 3549SOL    HW210898   5.732   3.813   3.757
 3550SOL     OW10899   7.193   1.638   1.071
 3550SOL    HW110900   7.155   1.725   1.055
 3550SOL    HW210901   7.127   1.576   1.041
 3551SOL     OW10902  11.288   0.996   1.319
 3551SOL    HW110903  11.301   1.088   1.299
 3551SOL    HW210904  11.193   0.986   1.325
 3552SOL     OW10905  11.457   7.289   2.727
 3552SOL    HW110906  11.376   7.265   2.772
 3552SOL    HW210907  11.487   7.209   2.685
 3553SOL     OW10908   1.381   1.423   0.963
 3553SOL    HW110909   1.320   1.395   0.895
 3553SOL    HW210910   1.465   1.383   0.939
 3554SOL     OW10911   5.950   9.855   1.471
 3554SOL    HW110912   6.018   9.916   1.501
 3554SOL    HW210913   5.977   9.830   1.383
 3555SOL     OW10914  13.870   6.396   6.208
 3555SOL    HW110915  13.873   6.431   6.119
 3555SOL    HW210916  13.952   6.427   6.248
 3556SOL     OW10917   9.810   9.601   2.286
 3556SOL    HW110918   9.832   9.600   2.193
 3556SOL    HW210919   9.737   9.663   2.292
 3557SOL     OW10920   6.463   3.523   2.043
 3557SOL    HW110921   6.553   3.555   2.054
 3557SOL    HW210922   6.422   3.586   1.984
 3558SOL     OW10923   8.934  10.952   2.408
 3558SOL    HW110924   8.865  11.014   2.383
 3558SOL    HW210925   9.003  11.006   2.447
 3559SOL     OW10926   7.406  11.333   6.041
 3559SOL    HW110927   7.311  11.332   6.030
 3559SOL    HW210928   7.429  11.426   6.048
 3560SOL     OW10929   6.569   2.418   2.795
 3560SOL    HW110930   6.635   2.384   2.855
 3560SOL    HW210931   6.597   2.508   2.777
 3561SOL     OW10932   8.222   9.908   3.489
 3561SOL    HW110933   8.239   9.936   3.578
 3561SOL    HW210934   8.308   9.882   3.455
 3562SOL     OW10935  14.037  10.585   7.536
 3562SOL    HW110936  14.069  10.627   7.455
 3562SOL    HW210937  13.954  10.629   7.553
 3563SOL     OW10938   8.712   4.761   5.934
 3563SOL    HW110939   8.797   4.717   5.941
 3563SOL    HW210940   8.650   4.692   5.915
 3564SOL     OW10941   9.341   8.629   7.025
 3564SOL    HW110942   9.412   8.641   7.087
 3564SOL    HW210943   9.268   8.596   7.078
 3565SOL     OW10944   9.301   7.957   3.920
 3565SOL    HW110945   9.298   7.878   3.974
 3565SOL    HW210946   9.287   7.925   3.830
 3566SOL     OW10947  10.384   7.761   0.659
 3566SOL    HW110948  10.424   7.788   0.576
 3566SOL    HW210949  10.338   7.680   0.638
 3567SOL     OW10950   7.707   8.639   3.530
 3567SOL    HW110951   7.651   8.612   3.603
 3567SOL    HW210952   7.657   8.615   3.452
 3568SOL     OW10953   7.990   7.768   6.688
 3568SOL    HW110954   8.049   7.827   6.735
 3568SOL    HW210955   8.036   7.750   6.605
 3569SOL     OW10956   4.979   7.629   0.278
 3569SOL    HW110957   4.908   7.564   0.278
 3569SOL    HW210958   5.033   7.606   0.202
 3570SOL     OW10959   1.141   6.746   0.459
 3570SOL    HW110960   1.225   6.765   0.418
 3570SOL    HW210961   1.081   6.811   0.423
 3571SOL     OW10962  10.178  10.621   0.395
 3571SOL    HW110963  10.193  10.527   0.384
 3571SOL    HW210964  10.096  10.638   0.349
 3572SOL     OW10965  12.689   4.253   4.768
 3572SOL    HW110966  12.698   4.193   4.694
 3572SOL    HW210967  12.746   4.217   4.835
 3573SOL     OW10968   4.503   5.835   2.517
 3573SOL    HW110969   4.596   5.818   2.502
 3573SOL    HW210970   4.501   5.893   2.593
 3574SOL     OW10971   9.376  11.138   2.934
 3574SOL    HW110972   9.444  11.075   2.958
 3574SOL    HW210973   9.409  11.181   2.855
 3575SOL     OW10974   6.209  13.810   6.039
 3575SOL    HW110975   6.240  13.847   6.121
 3575SOL    HW210976   6.277  13.833   5.975
 3576SOL     OW10977   1.008   2.258   0.703
 3576SOL    HW110978   1.089   2.299   0.733
 3576SOL    HW210979   0.969   2.322   0.643
 3577SOL     OW10980  13.235  10.972   5.016
 3577SOL    HW110981  13.202  10.981   5.105
 3577SOL    HW210982  13.265  11.060   4.993
 3578SOL     OW10983   8.057   8.411   1.847
 3578SOL    HW110984   8.089   8.356   1.919
 3578SOL    HW210985   7.961   8.406   1.855
 3579SOL     OW10986   4.121   2.587   0.374
 3579SOL    HW110987   4.143   2.566   0.284
 3579SOL    HW210988   4.064   2.516   0.403
 3580SOL     OW10989  12.546  11.545   3.245
 3580SOL    HW110990  12.519  11.593   3.323
 3580SOL    HW210991  12.480  11.566   3.180
 3581SOL     OW10992   4.047  11.532   4.331
 3581SOL    HW110993   4.132  11.548   4.291
 3581SOL    HW210994   4.012  11.456   4.284
 3582SOL     OW10995   8.096  12.697   4.346
 3582SOL    HW110996   8.058  12.752   4.278
 3582SOL    HW210997   8.145  12.630   4.299
 3583SOL     OW10998  15.465  10.842   6.933
 3583SOL    HW110999  15.440  10.828   7.024
 3583SOL    HW211000  15.498  10.757   6.903
 3584SOL     OW11001  10.282  13.496   5.225
 3584SOL    HW111002  10.187  13.503   5.220
 3584SOL    HW211003  10.314  13.584   5.202
 3585SOL     OW11004  11.220   7.623   1.583
 3585SOL    HW111005  11.267   7.704   1.564
 3585SOL    HW211006  11.231   7.610   1.677
 3586SOL     OW11007   2.724   8.142   3.153
 3586SOL    HW111008   2.713   8.122   3.060
 3586SOL    HW211009   2.667   8.218   3.168
 3587SOL     OW11010  10.807   3.639   3.903
 3587SOL    HW111011  10.745   3.639   3.976
 3587SOL    HW211012  10.837   3.548   3.897
 3588SOL     OW11013   3.252   7.787   1.022
 3588SOL    HW111014   3.336   7.748   1.000
 3588SOL    HW211015   3.188   7.737   0.971
 3589SOL     OW11016   8.382   9.743   5.071
 3589SOL    HW111017   8.299   9.733   5.117
 3589SOL    HW211018   8.446   9.700   5.126
 3590SOL     OW11019   3.568   2.029   0.631
 3590SOL    HW111020   3.531   1.968   0.566
 3590SOL    HW211021   3.614   1.973   0.693
 3591SOL     OW11022   3.968  10.013   4.427
 3591SOL    HW111023   4.026  10.035   4.354
 3591SOL    HW211024   4.027   9.976   4.493
 3592SOL     OW11025   4.352   8.974   0.750
 3592SOL    HW111026   4.425   8.976   0.689
 3592SOL    HW211027   4.386   8.929   0.827
 3593SOL     OW11028  11.889   1.823   1.600
 3593SOL    HW111029  11.795   1.829   1.615
 3593SOL    HW211030  11.925   1.899   1.646
 3594SOL     OW11031  14.755  11.448   7.534
 3594SOL    HW111032  14.814  11.457   7.609
 3594SOL    HW211033  14.730  11.538   7.513
 3595SOL     OW11034   9.528   3.659   4.611
 3595SOL    HW111035   9.562   3.656   4.521
 3595SOL    HW211036   9.572   3.587   4.656
 3596SOL     OW11037  15.346  14.067   7.145
 3596SOL    HW111038  15.290  14.027   7.212
 3596SOL    HW211039  15.393  13.993   7.107
 3597SOL     OW11040   3.464   8.093   2.899
 3597SOL    HW111041   3.448   8.018   2.956
 3597SOL    HW211042   3.389   8.095   2.840
 3598SOL     OW11043   2.839   7.612   1.921
 3598SOL    HW111044   2.761   7.589   1.872
 3598SOL    HW211045   2.832   7.563   2.003
 3599SOL     OW11046  12.385  13.394   7.251
 3599SOL    HW111047  12.392  13.371   7.344
 3599SOL    HW211048  12.305  13.446   7.245
 3600SOL     OW11049   7.043  10.399   0.350
 3600SOL    HW111050   7.004  10.381   0.435
 3600SOL    HW211051   7.129  10.358   0.353
 3601SOL     OW11052  12.676   7.215   3.113
 3601SOL    HW111053  12.733   7.196   3.039
 3601SOL    HW211054  12.700   7.150   3.179
 3602SOL     OW11055   9.424   4.009   3.950
 3602SOL    HW111056   9.401   4.101   3.945
 3602SOL    HW211057   9.474   4.001   4.032
 3603SOL     OW11058   8.955   3.855   0.851
 3603SOL    HW111059   8.898   3.824   0.921
 3603SOL    HW211060   9.022   3.786   0.842
 3604SOL     OW11061   7.731   2.901   1.414
 3604SOL    HW111062   7.668   2.966   1.446
 3604SOL    HW211063   7.742   2.923   1.321
 3605SOL     OW11064   8.076  10.545   1.609
 3605SOL    HW111065   8.137  10.562   1.681
 3605SOL    HW211066   8.117  10.473   1.560
 3606SOL     OW11067   3.124  11.689   3.450
 3606SOL    HW111068   3.171  11.750   3.507
 3606SOL    HW211069   3.145  11.719   3.361
 3607SOL     OW11070   7.908  11.102   6.029
 3607SOL    HW111071   7.925  11.112   6.122
 3607SOL    HW211072   7.953  11.176   5.988
 3608SOL     OW11073  14.892  12.639   7.279
 3608SOL    HW111074  14.798  12.637   7.298
 3608SOL    HW211075  14.900  12.597   7.193
 3609SOL     OW11076  11.738   2.176   1.640
 3609SOL    HW111077  11.755   2.265   1.670
 3609SOL    HW211078  11.643   2.166   1.649
 3610SOL     OW11079   6.853   6.511   4.987
 3610SOL    HW111080   6.844   6.578   5.055
 3610SOL    HW211081   6.907   6.443   5.027
 3611SOL     OW11082   9.020   4.741   4.845
 3611SOL    HW111083   9.078   4.807   4.805
 3611SOL    HW211084   9.073   4.662   4.849
 3612SOL     OW11085   4.968   3.386   1.304
 3612SOL    HW111086   4.951   3.383   1.209
 3612SOL    HW211087   4.886   3.357   1.343
 3613SOL     OW11088  11.466   5.590   5.695
 3613SOL    HW111089  11.402   5.553   5.755
 3613SOL    HW211090  11.491   5.518   5.638
 3614SOL     OW11091   3.702   7.827   1.677
 3614SOL    HW111092   3.656   7.871   1.748
 3614SOL    HW211093   3.731   7.744   1.715
 3615SOL     OW11094   4.540   0.546   0.648
 3615SOL    HW111095   4.618   0.513   0.603
 3615SOL    HW211096   4.530  11.264   0.724
 3616SOL     OW11097  14.230  13.543   6.810
 3616SOL    HW111098  14.159  13.557   6.873
 3616SOL    HW211099  14.193  13.571   6.726
 3617SOL     OW11100   8.602  10.294   5.170
 3617SOL    HW111101   8.510  10.319   5.175
 3617SOL    HW211102   8.612  10.259   5.081
 3618SOL     OW11103   5.520   6.295   4.224
 3618SOL    HW111104   5.459   6.335   4.286
 3618SOL    HW211105   5.558   6.369   4.177
 3619SOL     OW11106   5.989  12.011   4.226
 3619SOL    HW111107   6.065  11.957   4.245
 3619SOL    HW211108   5.938  12.011   4.307
 3620SOL     OW11109   2.516   7.537   3.462
 3620SOL    HW111110  13.199   7.528   3.437
 3620SOL    HW211111   2.515   7.598   3.536
 3621SOL     OW11112  12.576  13.037   3.255
 3621SOL    HW111113  12.615  13.090   3.325
 3621SOL    HW211114  12.532   2.326   3.199
 3622SOL     OW11115  12.073   1.428   1.855
 3622SOL    HW111116  11.984   1.394   1.844
 3622SOL    HW211117   1.350   1.381   1.791
 3623SOL     OW11118   1.792   7.640   1.396
 3623SOL    HW111119   1.767   7.699   1.467
 3623SOL    HW211120   1.710   7.597   1.370
 3624SOL     OW11121   5.628   8.339   6.948
 3624SOL    HW111122   5.549   8.385   6.976
 3624SOL    HW211123   5.599   8.249   6.931
 3625SOL     OW11124   6.429  15.515   7.479
 3625SOL    HW111125   6.494  15.574   7.441
 3625SOL    HW211126   6.478  15.435   7.500
 3626SOL     OW11127   6.488   8.183   0.936
 3626SOL    HW111128   6.557   8.131   0.895
 3626SOL    HW211129   6.420   8.190   0.869
 3627SOL     OW11130   7.664   7.296   2.791
 3627SOL    HW111131   7.750   7.305   2.832
 3627SOL    HW211132   7.603   7.329   2.857
 3628SOL     OW11133   2.953  10.314   0.483
 3628SOL    HW111134   2.997  10.377   0.540
 3628SOL    HW211135   2.892  10.268   0.541
 3629SOL     OW11136  15.154  15.005   7.207
 3629SOL    HW111137  15.128  14.941   7.141
 3629SOL    HW211138  15.239  14.974   7.239
 3630SOL     OW11139   7.821  11.443   3.331
 3630SOL    HW111140   7.775  11.520   3.365
 3630SOL    HW211141   7.809  11.376   3.397
 3631SOL     OW11142  12.527  13.111   5.941
 3631SOL    HW111143  12.552  13.114   5.849
 3631SOL    HW211144  12.463  13.181   5.950
 3632SOL     OW11145  10.543   8.505   2.690
 3632SOL    HW111146  10.597   8.494   2.768
 3632SOL    HW211147  10.456   8.528   2.723
 3633SOL     OW11148   7.751  15.240   6.893
 3633SOL    HW111149   7.719  15.223   6.982
 3633SOL    HW211150   7.846  15.234   6.900
 3634SOL     OW11151  10.574   2.903   2.074
 3634SOL    HW111152  10.637   2.873   2.140
 3634SOL    HW211153  10.552   2.992   2.101
 3635SOL     OW11154   1.854   2.080   2.590
 3635SOL    HW111155   1.931   2.098   2.643
 3635SOL    HW211156   1.886   2.027   2.517
 3636SOL     OW11157  12.165   4.406   4.596
 3636SOL    HW111158  12.139   4.314   4.598
 3636SOL    HW211159  12.260   4.405   4.609
 3637SOL     OW11160   3.677   4.256   0.782
 3637SOL    HW111161   3.584   4.267   0.800
 3637SOL    HW211162   3.711   4.345   0.774
 3638SOL     OW11163   9.883  13.718   4.634
 3638SOL    HW111164   9.970  13.695   4.602
 3638SOL    HW211165   9.898  13.778   4.706
 3639SOL     OW11166  13.525  11.680   5.449
 3639SOL    HW111167  13.522  11.584   5.456
 3639SOL    HW211168  13.562  11.696   5.362
 3640SOL     OW11169   7.201   5.489   1.093
 3640SOL    HW111170   7.112   5.506   1.125
 3640SOL    HW211171   7.256   5.499   1.171
 3641SOL     OW11172   2.132   6.110   0.159
 3641SOL    HW111173   2.050   6.070   0.129
 3641SOL    HW211174   2.194   6.037   0.165
 3642SOL     OW11175   6.522  12.689   5.005
 3642SOL    HW111176   6.617  12.676   5.015
 3642SOL    HW211177   6.490  12.607   4.967
 3643SOL     OW11178  13.494   8.634   4.263
 3643SOL    HW111179  13.505   8.541   4.282
 3643SOL    HW211180  13.501   8.677   4.349
 3644SOL     OW11181   6.665   4.558   1.543
 3644SOL    HW111182   6.636   4.486   1.488
 3644SOL    HW211183   6.596   4.624   1.535
 3645SOL     OW11184   3.651   2.138   1.949
 3645SOL    HW111185   3.704   2.058   1.954
 3645SOL    HW211186   3.596   2.124   1.872
 3646SOL     OW11187   4.242   4.394   0.165
 3646SOL    HW111188   4.222   4.422   0.254
 3646SOL    HW211189   4.199   4.458   0.109
 3647SOL     OW11190  13.595  13.610   6.113
 3647SOL    HW111191  13.644  13.547   6.166
 3647SOL    HW211192  13.642  13.693   6.125
 3648SOL     OW11193  11.139  12.597   3.169
 3648SOL    HW111194  11.222  12.585   3.215
 3648SOL    HW211195  11.093  12.665   3.219
 3649SOL     OW11196   8.776   3.822   1.916
 3649SOL    HW111197   8.796   3.731   1.938
 3649SOL    HW211198   8.715   3.851   1.984
 3650SOL     OW11199   8.129   5.909   2.202
 3650SOL    HW111200   8.063   5.977   2.198
 3650SOL    HW211201   8.082   5.828   2.184
 3651SOL     OW11202  10.928   1.988   1.838
 3651SOL    HW111203  10.869   2.058   1.810
 3651SOL    HW211204  10.869   1.916   1.861
 3652SOL     OW11205  12.276   8.461   5.885
 3652SOL    HW111206  12.298   8.541   5.932
 3652SOL    HW211207  12.361   8.417   5.872
 3653SOL     OW11208   6.197   0.685   0.936
 3653SOL    HW111209   6.244  11.393   0.885
 3653SOL    HW211210   6.220  11.441   1.027
 3654SOL     OW11211   9.560  12.268   7.336
 3654SOL    HW111212   9.655  12.266   7.324
 3654SOL    HW211213   9.525  12.223   7.259
 3655SOL     OW11214   9.802  10.262   1.237
 3655SOL    HW111215   9.791  10.203   1.163
 3655SOL    HW211216   9.806  10.205   1.314
 3656SOL     OW11217  13.377  11.625   3.819
 3656SOL    HW111218  13.373  11.643   3.725
 3656SOL    HW211219  13.312  11.684   3.857
 3657SOL     OW11220  12.999   9.240   6.232
 3657SOL    HW111221  13.004   9.255   6.327
 3657SOL    HW211222  13.077   9.188   6.212
 3658SOL     OW11223   9.869   2.297   1.626
 3658SOL    HW111224   9.843   2.384   1.596
 3658SOL    HW211225   9.962   2.306   1.647
 3659SOL     OW11226   2.335  12.156   3.021
 3659SOL    HW111227   2.270  12.197   3.078
 3659SOL    HW211228   2.334  12.211   2.942
 3660SOL     OW11229   9.819   6.022   1.903
 3660SOL    HW111230   9.878   6.047   1.832
 3660SOL    HW211231   9.866   5.952   1.949
 3661SOL     OW11232   7.121   8.341   5.968
 3661SOL    HW111233   7.183   8.410   5.944
 3661SOL    HW211234   7.058   8.339   5.896
 3662SOL     OW11235   9.722   0.398   0.064
 3662SOL    HW111236   9.757   0.485   0.085
 3662SOL    HW211237   9.798   0.341   0.067
 3663SOL     OW11238   8.503   8.805   1.911
 3663SOL    HW111239   8.485   8.855   1.991
 3663SOL    HW211240   8.437   8.836   1.849
 3664SOL     OW11241   7.122   6.750   1.109
 3664SOL    HW111242   7.199   6.741   1.052
 3664SOL    HW211243   7.152   6.717   1.194
 3665SOL     OW11244   5.130   7.687   0.496
 3665SOL    HW111245   5.042   7.654   0.511
 3665SOL    HW211246   5.154   7.655   0.409
 3666SOL     OW11247   3.885  10.033   3.440
 3666SOL    HW111248   3.836   9.952   3.432
 3666SOL    HW211249   3.819  10.102   3.437
 3667SOL     OW11250  10.887  10.253   6.097
 3667SOL    HW111251  10.892  10.327   6.037
 3667SOL    HW211252  10.796  10.251   6.125
 3668SOL     OW11253  10.476  13.887   6.313
 3668SOL    HW111254  10.568  13.861   6.316
 3668SOL    HW211255  10.430  13.806   6.292
 3669SOL     OW11256  10.806   8.720   1.150
 3669SOL    HW111257  10.878   8.682   1.201
 3669SOL    HW211258  10.846   8.746   1.067
 3670SOL     OW11259   6.261  10.319   0.189
 3670SOL    HW111260   6.168  10.299   0.197
 3670SOL    HW211261   6.292  10.323   0.280
 3671SOL     OW11262  15.571   5.855   6.957
 3671SOL    HW111263  15.529   5.834   6.873
 3671SOL    HW211264  15.548   5.947   6.972
 3672SOL     OW11265   8.165   7.774   5.093
 3672SOL    HW111266   8.098   7.763   5.025
 3672SOL    HW211267   8.118   7.808   5.168
 3673SOL     OW11268   2.706   5.726   1.841
 3673SOL    HW111269   2.656   5.717   1.760
 3673SOL    HW211270   2.693   5.643   1.887
 3674SOL     OW11271  14.160   5.531   6.569
 3674SOL    HW111272  14.207   5.597   6.620
 3674SOL    HW211273  14.070   5.535   6.601
 3675SOL     OW11274   1.545  11.599   1.910
 3675SOL    HW111275   1.584  11.673   1.956
 3675SOL    HW211276   1.457  11.590   1.947
 3676SOL     OW11277   7.653   9.593   3.876
 3676SOL    HW111278   7.655   9.550   3.791
 3676SOL    HW211279   7.732   9.565   3.921
 3677SOL     OW11280   8.332   5.313   5.690
 3677SOL    HW111281   8.420   5.348   5.677
 3677SOL    HW211282   8.321   5.309   5.785
 3678SOL     OW11283   8.871  14.148   7.533
 3678SOL    HW111284   8.807  14.087   7.497
 3678SOL    HW211285   8.911  14.189   7.457
 3679SOL     OW11286   6.210  13.150   6.669
 3679SOL    HW111287   6.272  13.220   6.688
 3679SOL    HW211288   6.243  13.109   6.589
 3680SOL     OW11289  10.074  10.594   1.239
 3680SOL    HW111290  10.026  10.664   1.284
 3680SOL    HW211291  10.046  10.514   1.283
 3681SOL     OW11292   8.230  10.712   5.497
 3681SOL    HW111293   8.285  10.786   5.523
 3681SOL    HW211294   8.249  10.644   5.562
 3682SOL     OW11295   5.150   2.184   1.306
 3682SOL    HW111296   5.149   2.210   1.398
 3682SOL    HW211297   5.228   2.128   1.298
 3683SOL     OW11298   5.148   6.354   5.960
 3683SOL    HW111299   5.241   6.356   5.939
 3683SOL    HW211300   5.127   6.442   5.990
 3684SOL     OW11301   8.284   9.414   0.141
 3684SOL    HW111302   8.377   9.393   0.138
 3684SOL    HW211303   8.249   9.381   0.058
 3685SOL     OW11304   6.394   6.884   4.041
 3685SOL    HW111305   6.352   6.910   4.123
 3685SOL    HW211306   6.331   6.823   4.001
 3686SOL     OW11307   5.823  11.459   3.560
 3686SOL    HW111308   5.856  11.402   3.491
 3686SOL    HW211309   5.755  11.407   3.604
 3687SOL     OW11310   8.223  11.721   3.498
 3687SOL    HW111311   8.279  11.779   3.445
 3687SOL    HW211312   8.275  11.642   3.510
 3688SOL     OW11313   8.243  12.322   5.040
 3688SOL    HW111314   8.265  12.236   5.002
 3688SOL    HW211315   8.267  12.385   4.972
 3689SOL     OW11316   7.622   9.674   6.162
 3689SOL    HW111317   7.592   9.748   6.109
 3689SOL    HW211318   7.543   9.623   6.178
 3690SOL     OW11319  11.480   6.823   5.078
 3690SOL    HW111320  11.555   6.781   5.120
 3690SOL    HW211321  11.411   6.758   5.081
 3691SOL     OW11322  14.841   9.314   6.497
 3691SOL    HW111323  14.750   9.335   6.521
 3691SOL    HW211324  14.851   9.350   6.409
 3692SOL     OW11325   7.063   1.378   0.200
 3692SOL    HW111326   7.064   1.389   0.105
 3692SOL    HW211327   7.154   1.366   0.224
 3693SOL     OW11328   9.510   7.268   2.143
 3693SOL    HW111329   9.461   7.186   2.142
 3693SOL    HW211330   9.578   7.257   2.075
 3694SOL     OW11331   7.386   8.425   1.766
 3694SOL    HW111332   7.375   8.496   1.703
 3694SOL    HW211333   7.432   8.465   1.840
 3695SOL     OW11334  10.445   3.209   1.499
 3695SOL    HW111335  10.354   3.239   1.493
 3695SOL    HW211336  10.462   3.168   1.415
 3696SOL     OW11337  13.540   4.960   4.299
 3696SOL    HW111338  13.548   4.900   4.225
 3696SOL    HW211339  13.600   5.031   4.278
 3697SOL     OW11340  10.818   3.767   0.150
 3697SOL    HW111341  10.755   3.716   0.201
 3697SOL    HW211342   0.077   3.705   0.084
 3698SOL     OW11343   8.504   3.148   0.427
 3698SOL    HW111344   8.587   3.117   0.390
 3698SOL    HW211345   8.522   3.238   0.453
 3699SOL     OW11346   6.075   6.216   4.589
 3699SOL    HW111347   6.074   6.301   4.635
 3699SOL    HW211348   5.984   6.200   4.566
 3700SOL     OW11349   3.049   5.449   0.566
 3700SOL    HW111350   3.073   5.360   0.540
 3700SOL    HW211351   3.078   5.503   0.492
 3701SOL     OW11352   3.331   4.035   1.937
 3701SOL    HW111353   3.410   4.089   1.941
 3701SOL    HW211354   3.261   4.096   1.912
 3702SOL     OW11355  15.436   7.006   6.725
 3702SOL    HW111356  15.468   7.096   6.733
 3702SOL    HW211357   4.722   6.965   6.663
 3703SOL     OW11358   8.498  12.649   3.387
 3703SOL    HW111359   8.576  12.640   3.442
 3703SOL    HW211360   8.529  12.631   3.298
 3704SOL     OW11361   9.590   2.311   0.888
 3704SOL    HW111362   9.624   2.291   0.976
 3704SOL    HW211363   9.664   2.292   0.830
 3705SOL     OW11364   8.446   0.373   0.414
 3705SOL    HW111365   8.524   0.399   0.364
 3705SOL    HW211366   8.390   0.329   0.351
 3706SOL     OW11367   8.744   7.346   4.076
 3706SOL    HW111368   8.839   7.349   4.087
 3706SOL    HW211369   8.722   7.430   4.036
 3707SOL     OW11370   8.947   8.457   0.439
 3707SOL    HW111371   8.968   8.482   0.529
 3707SOL    HW211372   8.893   8.378   0.448
 3708SOL     OW11373   7.874   2.636   3.054
 3708SOL    HW111374   7.915   2.721   3.070
 3708SOL    HW211375   7.947   2.576   3.043
 3709SOL     OW11376   9.602  10.346   1.814
 3709SOL    HW111377   9.557  10.296   1.746
 3709SOL    HW211378   9.695  10.336   1.794
 3710SOL     OW11379   5.391   5.860   3.402
 3710SOL    HW111380   5.420   5.800   3.471
 3710SOL    HW211381   5.337   5.806   3.344
 3711SOL     OW11382  10.880  15.761   7.300
 3711SOL    HW111383  10.873  15.851   7.269
 3711SOL    HW211384  10.969  15.753   7.334
 3712SOL     OW11385   5.884   6.295   2.030
 3712SOL    HW111386   5.815   6.286   1.964
 3712SOL    HW211387   5.853   6.364   2.089
 3713SOL     OW11388  14.747  12.253   7.471
 3713SOL    HW111389  14.768  12.162   7.449
 3713SOL    HW211390  14.832  12.294   7.485
 3714SOL     OW11391   9.644   7.566   5.662
 3714SOL    HW111392   9.632   7.627   5.735
 3714SOL    HW211393   9.630   7.618   5.584
 3715SOL     OW11394   9.849   0.899   0.130
 3715SOL    HW111395   9.834   0.931   0.219
 3715SOL    HW211396   9.768   0.919   0.083
 3716SOL     OW11397  11.773   8.631   7.423
 3716SOL    HW111398  11.735   8.690   7.487
 3716SOL    HW211399  11.855   8.601   7.462
 3717SOL     OW11400   4.480   1.949   1.905
 3717SOL    HW111401   4.479   1.854   1.898
 3717SOL    HW211402   4.435   1.967   1.988
 3718SOL     OW11403   6.705  11.958   5.980
 3718SOL    HW111404   6.720  11.981   6.072
 3718SOL    HW211405   6.618  11.993   5.961
 3719SOL     OW11406  10.340  11.944   5.260
 3719SOL    HW111407  10.249  11.921   5.279
 3719SOL    HW211408  10.378  11.963   5.346
 3720SOL     OW11409   5.823   2.146   0.632
 3720SOL    HW111410   5.901   2.196   0.606
 3720SOL    HW211411   5.778   2.127   0.550
 3721SOL     OW11412   1.152   2.861   1.084
 3721SOL    HW111413   1.057   2.868   1.090
 3721SOL    HW211414   1.172   2.892   0.996
 3722SOL     OW11415   9.771   8.443   4.055
 3722SOL    HW111416   9.860   8.406   4.046
 3722SOL    HW211417   9.758   8.452   4.149
 3723SOL     OW11418   2.655   3.346   0.893
 3723SOL    HW111419   2.605   3.368   0.815
 3723SOL    HW211420   2.725   3.411   0.897
 3724SOL     OW11421  12.942  13.767   7.066
 3724SOL    HW111422  12.967  13.856   7.091
 3724SOL    HW211423  12.926  13.723   7.149
 3725SOL     OW11424   3.845   5.343   1.255
 3725SOL    HW111425   3.774   5.388   1.300
 3725SOL    HW211426   3.813   5.332   1.166
 3726SOL     OW11427  12.152   6.945   2.327
 3726SOL    HW111428  12.124   6.873   2.383
 3726SOL    HW211429  12.169   7.017   2.387
 3727SOL     OW11430  10.829  13.451   6.007
 3727SOL    HW111431  10.835  13.450   5.911
 3727SOL    HW211432  10.906  13.403   6.037
 3728SOL     OW11433   6.849  13.308   3.636
 3728SOL    HW111434   6.881  13.368   3.703
 3728SOL    HW211435   6.916   2.536   3.567
 3729SOL     OW11436   4.351   1.454   1.007
 3729SOL    HW111437   4.272   1.497   0.974
 3729SOL    HW211438   4.344   1.462   1.103
 3730SOL     OW11439  10.360  13.567   4.544
 3730SOL    HW111440  10.301  13.507   4.591
 3730SOL    HW211441  10.317  13.652   4.548
 3731SOL     OW11442   6.610   5.583   0.733
 3731SOL    HW111443   6.525   5.606   0.694
 3731SOL    HW211444   6.668   5.654   0.706
 3732SOL     OW11445   7.828   8.804   6.820
 3732SOL    HW111446   7.794   8.769   6.902
 3732SOL    HW211447   7.773   8.880   6.802
 3733SOL     OW11448   6.862   1.455   0.694
 3733SOL    HW111449   6.945   1.474   0.739
 3733SOL    HW211450   6.796   1.454   0.763
 3734SOL     OW11451  15.259   5.132   6.418
 3734SOL    HW111452   4.580   5.139   6.411
 3734SOL    HW211453  15.231   5.216   6.453
 3735SOL     OW11454   8.152   2.168   0.045
 3735SOL    HW111455   8.088   2.097   0.045
 3735SOL    HW211456   8.235   2.126   0.022
 3736SOL     OW11457   8.782   4.310   5.823
 3736SOL    HW111458   8.713   4.376   5.817
 3736SOL    HW211459   8.779   4.264   5.740
 3737SOL     OW11460   4.592  12.592   3.128
 3737SOL    HW111461   4.590  12.497   3.137
 3737SOL    HW211462   4.684  12.615   3.138
 3738SOL     OW11463   2.925   9.420   2.131
 3738SOL    HW111464   2.975   9.463   2.200
 3738SOL    HW211465   2.851   9.478   2.114
 3739SOL     OW11466  11.099   8.273   0.991
 3739SOL    HW111467  11.143   8.288   0.908
 3739SOL    HW211468  11.057   8.187   0.981
 3740SOL     OW11469   6.996   7.147   1.141
 3740SOL    HW111470   7.024   7.238   1.143
 3740SOL    HW211471   6.901   7.152   1.130
 3741SOL     OW11472  11.438  10.880   1.261
 3741SOL    HW111473  11.502  10.893   1.331
 3741SOL    HW211474  11.491  10.863   1.183
 3742SOL     OW11475   7.495   9.966   5.134
 3742SOL    HW111476   7.558   9.894   5.141
 3742SOL    HW211477   7.465   9.963   5.043
 3743SOL     OW11478  14.279   4.768   5.260
 3743SOL    HW111479  14.198   4.810   5.230
 3743SOL    HW211480  14.347   4.832   5.242
 3744SOL     OW11481   6.238  10.662   1.196
 3744SOL    HW111482   6.175  10.680   1.127
 3744SOL    HW211483   6.292  10.741   1.201
 3745SOL     OW11484   3.806   6.797   4.162
 3745SOL    HW111485   3.787   6.813   4.069
 3745SOL    HW211486   3.899   6.774   4.164
 3746SOL     OW11487   3.913  12.714   3.574
 3746SOL    HW111488   3.819  12.733   3.579
 3746SOL    HW211489   3.923  12.667   3.491
 3747SOL     OW11490   4.250   6.420   0.202
 3747SOL    HW111491   4.198   6.352   0.244
 3747SOL    HW211492   4.304   6.455   0.273
 3748SOL     OW11493   7.359   7.700   2.664
 3748SOL    HW111494   7.396   7.763   2.727
 3748SOL    HW211495   7.416   7.624   2.669
 3749SOL     OW11496   9.090  14.390   6.983
 3749SOL    HW111497   9.143  14.427   6.912
 3749SOL    HW211498   9.003  14.426   6.969
 3750SOL     OW11499   8.024   7.993   0.245
 3750SOL    HW111500   8.058   7.980   0.334
 3750SOL    HW211501   8.096   7.965   0.188
 3751SOL     OW11502   6.478   6.503   6.537
 3751SOL    HW111503   6.538   6.557   6.589
 3751SOL    HW211504   6.391   6.542   6.553
 3752SOL     OW11505   6.662   9.375   3.371
 3752SOL    HW111506   6.722   9.338   3.436
 3752SOL    HW211507   6.603   9.430   3.422
 3753SOL     OW11508   2.601   4.138   2.627
 3753SOL    HW111509   2.674   4.197   2.610
 3753SOL    HW211510   2.635   4.051   2.607
 3754SOL     OW11511  10.268   8.573   1.641
 3754SOL    HW111512  10.311   8.572   1.555
 3754SOL    HW211513  10.266   8.665   1.666
 3755SOL     OW11514   5.214   2.614   2.210
 3755SOL    HW111515   5.224   2.708   2.198
 3755SOL    HW211516   5.287   2.576   2.161
 3756SOL     OW11517  14.500   4.563   5.635
 3756SOL    HW111518  14.424   4.598   5.587
 3756SOL    HW211519  14.479   4.470   5.647
 3757SOL     OW11520  10.674  12.583   6.243
 3757SOL    HW111521  10.767  12.577   6.263
 3757SOL    HW211522  10.645  12.664   6.285
 3758SOL     OW11523   6.088   8.682   0.976
 3758SOL    HW111524   6.072   8.705   1.067
 3758SOL    HW211525   6.183   8.692   0.965
 3759SOL     OW11526  14.319  13.330   6.425
 3759SOL    HW111527  14.281  13.399   6.371
 3759SOL    HW211528  14.311  13.362   6.514
 3760SOL     OW11529   3.789   9.889   1.418
 3760SOL    HW111530   3.783   9.867   1.511
 3760SOL    HW211531   3.874   9.933   1.408
 3761SOL     OW11532  14.548  13.116   5.796
 3761SOL    HW111533  14.532  13.158   5.712
 3761SOL    HW211534  14.474  13.057   5.808
 3762SOL     OW11535  10.122   9.239   6.889
 3762SOL    HW111536  10.210   9.229   6.852
 3762SOL    HW211537  10.067   9.265   6.815
 3763SOL     OW11538   7.897   9.835   7.050
 3763SOL    HW111539   7.872   9.890   6.976
 3763SOL    HW211540   7.843   9.756   7.041
 3764SOL     OW11541  13.444  11.082   7.046
 3764SOL    HW111542  13.393  11.096   7.126
 3764SOL    HW211543  13.393  11.020   6.996
 3765SOL     OW11544   2.340   2.252   1.923
 3765SOL    HW111545   2.335   2.183   1.857
 3765SOL    HW211546   2.427   2.240   1.963
 3766SOL     OW11547   6.679   5.075   1.103
 3766SOL    HW111548   6.626   5.140   1.056
 3766SOL    HW211549   6.625   4.997   1.104
 3767SOL     OW11550  10.291   7.679   6.269
 3767SOL    HW111551  10.324   7.617   6.335
 3767SOL    HW211552  10.199   7.691   6.291
 3768SOL     OW11553  13.250  10.528   7.019
 3768SOL    HW111554  13.220  10.513   6.929
 3768SOL    HW211555  13.281  10.443   7.048
 3769SOL     OW11556   6.006   0.910   0.918
 3769SOL    HW111557   6.073   0.855   0.958
 3769SOL    HW211558   6.052   0.960   0.850
 3770SOL     OW11559  11.612   9.421   3.463
 3770SOL    HW111560  11.522   9.389   3.468
 3770SOL    HW211561  11.651   9.373   3.390
 3771SOL     OW11562   9.552   8.161   2.327
 3771SOL    HW111563   9.526   8.196   2.413
 3771SOL    HW211564   9.497   8.209   2.265
 3772SOL     OW11565   7.479   8.618   5.093
 3772SOL    HW111566   7.561   8.573   5.114
 3772SOL    HW211567   7.505   8.687   5.032
 3773SOL     OW11568  12.893  13.815   6.099
 3773SOL    HW111569  12.830  13.835   6.168
 3773SOL    HW211570  12.978  13.824   6.141
 3774SOL     OW11571   3.630  13.500   3.918
 3774SOL    HW111572   3.676   2.725   3.834
 3774SOL    HW211573   3.630  13.408   3.946
 3775SOL     OW11574   7.801  13.819   4.796
 3775SOL    HW111575   7.753  13.869   4.863
 3775SOL    HW211576   7.831  13.885   4.734
 3776SOL     OW11577  11.994   6.633   3.528
 3776SOL    HW111578  11.977   6.566   3.462
 3776SOL    HW211579  11.925   6.698   3.515
 3777SOL     OW11580   6.950   5.906   2.867
 3777SOL    HW111581   7.044   5.923   2.862
 3777SOL    HW211582   6.943   5.814   2.891
 3778SOL     OW11583   3.547   4.714   1.659
 3778SOL    HW111584   3.528   4.664   1.739
 3778SOL    HW211585   3.616   4.775   1.684
 3779SOL     OW11586   5.065   6.420   2.854
 3779SOL    HW111587   5.157   6.395   2.853
 3779SOL    HW211588   5.052   6.458   2.941
 3780SOL     OW11589  10.220  11.208   1.143
 3780SOL    HW111590  10.297  11.265   1.140
 3780SOL    HW211591  10.253  11.123   1.174
 3781SOL     OW11592   6.550   8.333   4.367
 3781SOL    HW111593   6.605   8.406   4.394
 3781SOL    HW211594   6.542   8.280   4.447
 3782SOL     OW11595   3.768   6.382   1.440
 3782SOL    HW111596   3.834   6.435   1.396
 3782SOL    HW211597   3.817   6.328   1.502
 3783SOL     OW11598   4.910   7.107   4.997
 3783SOL    HW111599   5.004   7.114   5.013
 3783SOL    HW211600   4.904   7.075   4.907
 3784SOL     OW11601  10.618  12.460   4.035
 3784SOL    HW111602  10.647  12.371   4.054
 3784SOL    HW211603  10.535  12.448   3.987
 3785SOL     OW11604  12.307  13.600   5.413
 3785SOL    HW111605  12.397  13.607   5.380
 3785SOL    HW211606  12.317  13.595   5.508
 3786SOL     OW11607   7.300   5.719   6.357
 3786SOL    HW111608   7.336   5.778   6.423
 3786SOL    HW211609   7.256   5.650   6.407
 3787SOL     OW11610   7.971   2.235   0.562
 3787SOL    HW111611   8.066   2.219   0.561
 3787SOL    HW211612   7.944   2.213   0.651
 3788SOL     OW11613   1.551   7.789   2.090
 3788SOL    HW111614   1.470   7.756   2.052
 3788SOL    HW211615   1.523   7.861   2.147
 3789SOL     OW11616  10.331  12.316   6.669
 3789SOL    HW111617  10.391  12.385   6.639
 3789SOL    HW211618  10.350  12.242   6.612
 3790SOL     OW11619   6.366   2.950   1.943
 3790SOL    HW111620   6.439   2.995   1.901
 3790SOL    HW211621   6.382   2.959   2.037
 3791SOL     OW11622   3.821   2.199   1.372
 3791SOL    HW111623   3.761   2.258   1.326
 3791SOL    HW211624   3.765   2.149   1.430
 3792SOL     OW11625   4.990   6.625   4.606
 3792SOL    HW111626   5.053   6.668   4.549
 3792SOL    HW211627   5.041   6.558   4.653
 3793SOL     OW11628  12.239  14.246   7.469
 3793SOL    HW111629  12.249  14.163   7.421
 3793SOL    HW211630  12.189  14.222   7.547
 3794SOL     OW11631   8.147   5.654   1.421
 3794SOL    HW111632   8.198   5.609   1.488
 3794SOL    HW211633   8.171   5.747   1.430
 3795SOL     OW11634  14.253  14.361   6.471
 3795SOL    HW111635  14.331  14.352   6.525
 3795SOL    HW211636  14.182  14.377   6.533
 3796SOL     OW11637   9.257   9.544   1.729
 3796SOL    HW111638   9.343   9.584   1.715
 3796SOL    HW211639   9.216   9.547   1.642
 3797SOL     OW11640  10.591  12.153   3.530
 3797SOL    HW111641  10.660  12.193   3.478
 3797SOL    HW211642  10.627  12.149   3.619
 3798SOL     OW11643  12.264   7.073   4.954
 3798SOL    HW111644  12.301   7.010   5.017
 3798SOL    HW211645  12.283   7.034   4.868
 3799SOL     OW11646   6.577  11.403   4.682
 3799SOL    HW111647   6.602  11.464   4.752
 3799SOL    HW211648   6.647  11.409   4.618
 3800SOL     OW11649   5.690   7.472   5.174
 3800SOL    HW111650   5.780   7.491   5.147
 3800SOL    HW211651   5.685   7.377   5.178
 3801SOL     OW11652  10.629  12.904   7.375
 3801SOL    HW111653  10.623  12.999   7.375
 3801SOL    HW211654  10.712  12.884   7.419
 3802SOL     OW11655   5.640   4.907   6.895
 3802SOL    HW111656   5.608   4.912   6.805
 3802SOL    HW211657   5.656  15.588   6.910
 3803SOL     OW11658   9.618   4.341   0.782
 3803SOL    HW111659   9.569   4.260   0.769
 3803SOL    HW211660   9.641   4.369   0.693
 3804SOL     OW11661  11.486   4.868   5.504
 3804SOL    HW111662  11.433   4.943   5.529
 3804SOL    HW211663  11.557   4.905   5.451
 3805SOL     OW11664   7.617   8.145   0.747
 3805SOL    HW111665   7.524   8.152   0.769
 3805SOL    HW211666   7.654   8.089   0.816
 3806SOL     OW11667   5.462   5.066   3.813
 3806SOL    HW111668   5.418   5.147   3.839
 3806SOL    HW211669   5.551   5.094   3.790
 3807SOL     OW11670   9.649   7.282   2.514
 3807SOL    HW111671   9.691   7.296   2.429
 3807SOL    HW211672   9.720   7.251   2.570
 3808SOL     OW11673   4.982   9.045   1.115
 3808SOL    HW111674   5.052   9.075   1.174
 3808SOL    HW211675   5.028   9.000   1.045
 3809SOL     OW11676   7.658  10.140   4.655
 3809SOL    HW111677   7.669  10.227   4.694
 3809SOL    HW211678   7.566  10.138   4.628
 3810SOL     OW11679   5.701   9.184   1.742
 3810SOL    HW111680   5.774   9.230   1.700
 3810SOL    HW211681   5.629   9.190   1.679
 3811SOL     OW11682   4.008   1.072   1.284
 3811SOL    HW111683   4.029   1.117   1.366
 3811SOL    HW211684   3.924   1.031   1.300
 3812SOL     OW11685   8.490   7.382   1.851
 3812SOL    HW111686   8.519   7.292   1.867
 3812SOL    HW211687   8.458   7.381   1.761
 3813SOL     OW11688  14.410  12.603   5.525
 3813SOL    HW111689  14.420  12.510   5.503
 3813SOL    HW211690  14.361  12.640   5.451
 3814SOL     OW11691   2.956   5.582   2.527
 3814SOL    HW111692   2.929   5.668   2.495
 3814SOL    HW211693   2.901   5.520   2.480
 3815SOL     OW11694  13.655  13.966   6.934
 3815SOL    HW111695  13.747  13.941   6.942
 3815SOL    HW211696  13.657  14.058   6.909
 3816SOL     OW11697  11.281  14.082   6.129
 3816SOL    HW111698  11.288  14.054   6.220
 3816SOL    HW211699  11.197  14.048   6.099
 3817SOL     OW11700  13.178   8.720   6.434
 3817SOL    HW111701  13.259   8.670   6.421
 3817SOL    HW211702  13.208   8.804   6.468
 3818SOL     OW11703  11.253  11.159   1.228
 3818SOL    HW111704  11.181  11.221   1.221
 3818SOL    HW211705  11.317  11.189   1.164
 3819SOL     OW11706   8.414   2.498   1.181
 3819SOL    HW111707   8.351   2.487   1.251
 3819SOL    HW211708   8.464   2.576   1.204
 3820SOL     OW11709   5.513  12.884   4.022
 3820SOL    HW111710   5.431  12.873   3.974
 3820SOL    HW211711   5.571  12.928   3.960
 3821SOL     OW11712   8.163  11.211   1.593
 3821SOL    HW111713   8.213  11.131   1.575
 3821SOL    HW211714   8.226  11.270   1.633
 3822SOL     OW11715  10.371  10.139   2.232
 3822SOL    HW111716  10.401  10.072   2.170
 3822SOL    HW211717  10.440  10.205   2.231
 3823SOL     OW11718  14.643  11.744   6.287
 3823SOL    HW111719  14.618  11.787   6.369
 3823SOL    HW211720  14.560  11.730   6.241
 3824SOL     OW11721   9.331   3.559   1.199
 3824SOL    HW111722   9.411   3.609   1.216
 3824SOL    HW211723   9.354   3.469   1.218
 3825SOL     OW11724   3.974   5.493   0.412
 3825SOL    HW111725   3.930   5.448   0.339
 3825SOL    HW211726   4.057   5.446   0.422
 3826SOL     OW11727  11.772  10.350   6.262
 3826SOL    HW111728  11.695  10.303   6.294
 3826SOL    HW211729  11.809  10.392   6.340
 3827SOL     OW11730   1.991   9.082   0.935
 3827SOL    HW111731   1.963   9.097   0.845
 3827SOL    HW211732   2.057   9.150   0.951
 3828SOL     OW11733   5.444   4.784   1.298
 3828SOL    HW111734   5.475   4.738   1.221
 3828SOL    HW211735   5.376   4.726   1.334
 3829SOL     OW11736   5.294   6.320   2.622
 3829SOL    HW111737   5.340   6.287   2.545
 3829SOL    HW211738   5.324   6.410   2.632
 3830SOL     OW11739   7.611   2.592   2.370
 3830SOL    HW111740   7.633   2.683   2.350
 3830SOL    HW211741   7.515   2.589   2.364
 3831SOL     OW11742   6.708   4.530   5.781
 3831SOL    HW111743   6.719   4.473   5.705
 3831SOL    HW211744   6.743   4.615   5.753
 3832SOL     OW11745   5.560   1.926   1.505
 3832SOL    HW111746   5.599   2.008   1.474
 3832SOL    HW211747   5.590   1.918   1.595
 3833SOL     OW11748   5.612  10.181   3.917
 3833SOL    HW111749   5.579  10.093   3.936
 3833SOL    HW211750   5.542  10.240   3.947
 3834SOL     OW11751   5.530   7.811   0.636
 3834SOL    HW111752   5.463   7.849   0.579
 3834SOL    HW211753   5.530   7.718   0.613
 3835SOL     OW11754   1.597   5.892   0.730
 3835SOL    HW111755   1.673   5.910   0.673
 3835SOL    HW211756   1.529   5.863   0.669
 3836SOL     OW11757   6.798   8.557   0.387
 3836SOL    HW111758   6.723   8.604   0.423
 3836SOL    HW211759   6.759   8.485   0.337
 3837SOL     OW11760  12.259   5.576   5.468
 3837SOL    HW111761  12.320   5.551   5.538
 3837SOL    HW211762  12.218   5.657   5.499
 3838SOL     OW11763   5.582  10.782   3.325
 3838SOL    HW111764   5.498  10.804   3.363
 3838SOL    HW211765   5.597  10.848   3.258
 3839SOL     OW11766   2.593   8.899   2.138
 3839SOL    HW111767   2.551   8.984   2.152
 3839SOL    HW211768   2.687   8.916   2.150
 3840SOL     OW11769   3.837   3.508   0.901
 3840SOL    HW111770   3.860   3.488   0.992
 3840SOL    HW211771   3.913   3.553   0.867
 3841SOL     OW11772   7.652   4.833   1.782
 3841SOL    HW111773   7.729   4.841   1.726
 3841SOL    HW211774   7.615   4.922   1.784
 3842SOL     OW11775   6.569   7.226   5.798
 3842SOL    HW111776   6.632   7.280   5.844
 3842SOL    HW211777   6.557   7.269   5.713
 3843SOL     OW11778   7.691  12.155   4.015
 3843SOL    HW111779   7.626  12.094   3.981
 3843SOL    HW211780   7.647  12.241   4.011
 3844SOL     OW11781   4.950  11.580   5.170
 3844SOL    HW111782   4.980  11.652   5.225
 3844SOL    HW211783   4.856  11.593   5.163
 3845SOL     OW11784   5.162   3.885   5.051
 3845SOL    HW111785   5.198   3.958   5.102
 3845SOL    HW211786   5.143   3.924   4.966
 3846SOL     OW11787   8.825   7.370   4.420
 3846SOL    HW111788   8.920   7.378   4.412
 3846SOL    HW211789   8.811   7.286   4.463
 3847SOL     OW11790   3.797  10.438   3.265
 3847SOL    HW111791   3.748  10.505   3.312
 3847SOL    HW211792   3.850  10.487   3.203
 3848SOL     OW11793   8.437   5.703   2.849
 3848SOL    HW111794   8.519   5.664   2.879
 3848SOL    HW211795   8.369   5.660   2.901
 3849SOL     OW11796  10.887   9.457   4.836
 3849SOL    HW111797  10.954   9.388   4.834
 3849SOL    HW211798  10.864   9.470   4.744
 3850SOL     OW11799   6.903  13.436   4.928
 3850SOL    HW111800   6.933  13.473   5.011
 3850SOL    HW211801   6.861  13.354   4.953
 3851SOL     OW11802   3.605   5.056   3.452
 3851SOL    HW111803   3.586   5.096   3.537
 3851SOL    HW211804   3.583   5.124   3.388
 3852SOL     OW11805   5.770   8.728   3.394
 3852SOL    HW111806   5.812   8.809   3.421
 3852SOL    HW211807   5.812   8.660   3.445
 3853SOL     OW11808  10.437   8.130   2.815
 3853SOL    HW111809  10.345   8.134   2.840
 3853SOL    HW211810  10.477   8.203   2.862
 3854SOL     OW11811   8.189   6.621   7.520
 3854SOL    HW111812   8.226   6.599   7.435
 3854SOL    HW211813   8.127   6.551   7.538
 3855SOL     OW11814   5.469   0.898   0.689
 3855SOL    HW111815   5.386   0.871   0.648
 3855SOL    HW211816   5.523   0.929   0.616
 3856SOL     OW11817   3.354   3.965   0.750
 3856SOL    HW111818   3.443   3.950   0.718
 3856SOL    HW211819   3.306   3.884   0.728
 3857SOL     OW11820   3.823   7.310   4.487
 3857SOL    HW111821   3.807   7.245   4.419
 3857SOL    HW211822   3.913   7.339   4.472
 3858SOL     OW11823  13.235  14.465   6.547
 3858SOL    HW111824  13.170  14.396   6.562
 3858SOL    HW211825  13.195  14.521   6.481
 3859SOL     OW11826  14.565  11.465   5.398
 3859SOL    HW111827  14.582  11.433   5.486
 3859SOL    HW211828  14.481  11.427   5.374
 3860SOL     OW11829   8.394   9.460   5.546
 3860SOL    HW111830   8.405   9.454   5.641
 3860SOL    HW211831   8.423   9.548   5.523
 3861SOL     OW11832   4.992  11.772   2.648
 3861SOL    HW111833   4.929  11.747   2.580
 3861SOL    HW211834   4.953  11.847   2.692
 3862SOL     OW11835  15.083  14.835   7.567
 3862SOL    HW111836  15.046  14.873   7.488
 3862SOL    HW211837   9.720   9.522   0.003
 3863SOL     OW11838   4.389   3.480   3.039
 3863SOL    HW111839   4.404   3.475   3.134
 3863SOL    HW211840   4.466   3.527   3.006
 3864SOL     OW11841   6.081  13.018   5.681
 3864SOL    HW111842   6.031  13.035   5.760
 3864SOL    HW211843   6.054  12.931   5.654
 3865SOL     OW11844   2.467   6.743   0.233
 3865SOL    HW111845   2.562   6.748   0.245
 3865SOL    HW211846   2.451   6.800   0.158
 3866SOL     OW11847   6.360   4.341   3.377
 3866SOL    HW111848   6.376   4.247   3.385
 3866SOL    HW211849   6.385   4.362   3.287
 3867SOL     OW11850   2.728   2.337   1.400
 3867SOL    HW111851   2.662   2.406   1.403
 3867SOL    HW211852   2.683   2.260   1.435
 3868SOL     OW11853  13.785  12.389   6.251
 3868SOL    HW111854  13.703  12.432   6.224
 3868SOL    HW211855  13.853  12.438   6.205
 3869SOL     OW11856  15.324  11.131   6.477
 3869SOL    HW111857   4.554  11.187   6.400
 3869SOL    HW211858  15.301  11.044   6.443
 3870SOL     OW11859  10.622  10.777   0.937
 3870SOL    HW111860  10.616  10.747   1.027
 3870SOL    HW211861  10.695  10.839   0.937
 3871SOL     OW11862   5.004   5.547   6.253
 3871SOL    HW111863   5.024   5.455   6.272
 3871SOL    HW211864   4.925   5.545   6.200
 3872SOL     OW11865   7.811   7.039   2.623
 3872SOL    HW111866   7.740   7.102   2.612
 3872SOL    HW211867   7.781   6.961   2.575
 3873SOL     OW11868   4.077   4.318   3.550
 3873SOL    HW111869   4.024   4.386   3.592
 3873SOL    HW211870   4.166   4.352   3.553
 3874SOL     OW11871   3.918   8.314   2.256
 3874SOL    HW111872   3.836   8.272   2.283
 3874SOL    HW211873   3.905   8.332   2.163
 3875SOL     OW11874   9.668  12.171   4.859
 3875SOL    HW111875   9.731  12.232   4.896
 3875SOL    HW211876   9.584  12.196   4.898
 3876SOL     OW11877   6.836  12.382   5.751
 3876SOL    HW111878   6.818  12.421   5.837
 3876SOL    HW211879   6.755  12.394   5.702
 3877SOL     OW11880   1.040  10.408   1.389
 3877SOL    HW111881   1.110  10.450   1.439
 3877SOL    HW211882  11.735  10.428   1.439
 3878SOL     OW11883   5.372   6.982   5.842
 3878SOL    HW111884   5.439   6.987   5.910
 3878SOL    HW211885   5.319   7.061   5.854
 3879SOL     OW11886  10.680   8.759   4.081
 3879SOL    HW111887  10.765   8.716   4.076
 3879SOL    HW211888  10.689   8.825   4.149
 3880SOL     OW11889   9.136  14.754   6.783
 3880SOL    HW111890   9.149  14.663   6.757
 3880SOL    HW211891   9.224  14.787   6.801
 3881SOL     OW11892  12.582  10.254   7.151
 3881SOL    HW111893  12.632  10.333   7.169
 3881SOL    HW211894  12.640  10.199   7.098
 3882SOL     OW11895   7.532  11.107   6.084
 3882SOL    HW111896   7.484  11.184   6.115
 3882SOL    HW211897   7.546  11.123   5.991
 3883SOL     OW11898   5.238   6.780   3.972
 3883SOL    HW111899   5.218   6.868   4.003
 3883SOL    HW211900   5.316   6.791   3.917
 3884SOL     OW11901   2.925  10.847   3.252
 3884SOL    HW111902   2.855  10.785   3.275
 3884SOL    HW211903   2.981  10.849   3.329
 3885SOL     OW11904   2.090  10.598   0.235
 3885SOL    HW111905   2.122  10.610   0.325
 3885SOL    HW211906   2.140  10.661   0.184
 3886SOL     OW11907  13.577   6.166   4.441
 3886SOL    HW111908  13.561   6.086   4.491
 3886SOL    HW211909  13.490   6.199   4.419
 3887SOL     OW11910   9.222  12.522   5.339
 3887SOL    HW111911   9.234  12.428   5.353
 3887SOL    HW211912   9.250  12.538   5.249
 3888SOL     OW11913  12.124  14.162   7.193
 3888SOL    HW111914  12.192  14.105   7.158
 3888SOL    HW211915  12.162  14.250   7.188
 3889SOL     OW11916  13.529  14.406   5.975
 3889SOL    HW111917  13.450  14.358   5.949
 3889SOL    HW211918  13.601  14.349   5.950
 3890SOL     OW11919  11.097   3.675   4.397
 3890SOL    HW111920  11.073   3.728   4.321
 3890SOL    HW211921  11.021   3.620   4.413
 3891SOL     OW11922   7.135   9.292   4.730
 3891SOL    HW111923   7.059   9.348   4.715
 3891SOL    HW211924   7.174   9.281   4.643
 3892SOL     OW11925   2.699   7.096   3.697
 3892SOL    HW111926   2.697   7.139   3.783
 3892SOL    HW211927   2.725   7.166   3.636
 3893SOL     OW11928   5.080  10.224   2.380
 3893SOL    HW111929   5.040  10.274   2.452
 3893SOL    HW211930   5.157  10.184   2.420
 3894SOL     OW11931   5.060  11.882   4.051
 3894SOL    HW111932   5.150  11.850   4.063
 3894SOL    HW211933   5.047  11.945   4.122
 3895SOL     OW11934   5.932  12.132   6.695
 3895SOL    HW111935   5.954  12.147   6.603
 3895SOL    HW211936   6.006  12.082   6.730
 3896SOL     OW11937   4.895  11.624   2.398
 3896SOL    HW111938   4.861  11.714   2.401
 3896SOL    HW211939   4.832  11.578   2.342
 3897SOL     OW11940   7.137   9.342   4.032
 3897SOL    HW111941   7.207   9.291   4.073
 3897SOL    HW211942   7.100   9.284   3.966
 3898SOL     OW11943  11.823  11.436   1.998
 3898SOL    HW111944  11.810  11.495   2.072
 3898SOL    HW211945  11.738  11.394   1.986
 3899SOL     OW11946   9.961  12.182   4.933
 3899SOL    HW111947  10.011  12.262   4.953
 3899SOL    HW211948  10.010  12.140   4.862
 3900SOL     OW11949  13.336  10.531   6.777
 3900SOL    HW111950  13.241  10.521   6.772
 3900SOL    HW211951  13.367  10.501   6.692
 3901SOL     OW11952   7.640  11.844   6.542
 3901SOL    HW111953   7.665  11.856   6.450
 3901SOL    HW211954   7.710  11.886   6.592
 3902SOL     OW11955  10.584   6.817   7.596
 3902SOL    HW111956  10.585   6.912   7.599
 3902SOL    HW211957   5.274   1.403   0.028
 3903SOL     OW11958   6.884  11.692   5.613
 3903SOL    HW111959   6.899  11.693   5.518
 3903SOL    HW211960   6.972  11.685   5.650
 3904SOL     OW11961   2.489   9.668   1.987
 3904SOL    HW111962   2.547   9.620   1.927
 3904SOL    HW211963   2.400   9.645   1.957
 3905SOL     OW11964   6.873   9.415   6.497
 3905SOL    HW111965   6.918   9.338   6.532
 3905SOL    HW211966   6.937   9.485   6.505
 3906SOL     OW11967   3.809   7.809   2.785
 3906SOL    HW111968   3.894   7.769   2.769
 3906SOL    HW211969   3.767   7.752   2.849
 3907SOL     OW11970  11.038  10.902   5.081
 3907SOL    HW111971  11.019  10.995   5.097
 3907SOL    HW211972  10.955  10.857   5.096
 3908SOL     OW11973   3.886   5.248   1.847
 3908SOL    HW111974   3.840   5.251   1.763
 3908SOL    HW211975   3.939   5.168   1.841
 3909SOL     OW11976   3.649   5.605   4.336
 3909SOL    HW111977   3.604   5.658   4.400
 3909SOL    HW211978   3.607   5.626   4.253
 3910SOL     OW11979   5.347   4.620   1.042
 3910SOL    HW111980   5.331   4.714   1.036
 3910SOL    HW211981   5.260   4.581   1.045
 3911SOL     OW11982   5.010   7.413   4.861
 3911SOL    HW111983   5.104   7.411   4.841
 3911SOL    HW211984   4.998   7.344   4.927
 3912SOL     OW11985   8.017   9.548   6.294
 3912SOL    HW111986   7.974   9.518   6.214
 3912SOL    HW211987   8.091   9.489   6.306
 3913SOL     OW11988   3.008  10.433   2.830
 3913SOL    HW111989   2.964  10.398   2.907
 3913SOL    HW211990   3.100  10.407   2.842
 3914SOL     OW11991   9.420   6.115   4.287
 3914SOL    HW111992   9.495   6.153   4.333
 3914SOL    HW211993   9.346   6.170   4.313
 3915SOL     OW11994   6.761   9.210   0.827
 3915SOL    HW111995   6.811   9.133   0.802
 3915SOL    HW211996   6.738   9.252   0.744
 3916SOL     OW11997   8.257   4.209   5.040
 3916SOL    HW111998   8.261   4.147   5.112
 3916SOL    HW211999   8.182   4.180   4.988
 3917SOL     OW12000   1.466   9.313   0.507
 3917SOL    HW112001   1.451   9.346   0.596
 3917SOL    HW212002   1.401   9.357   0.454
 3918SOL     OW12003  13.689  14.240   7.532
 3918SOL    HW112004  13.741  14.193   7.466
 3918SOL    HW212005  13.694  14.184   7.609
 3919SOL     OW12006   3.293   4.626   4.195
 3919SOL    HW112007   3.206   4.602   4.226
 3919SOL    HW212008   3.288   4.720   4.179
 3920SOL     OW12009   5.439   9.467   6.117
 3920SOL    HW112010   5.465   9.423   6.198
 3920SOL    HW212011   5.344   9.456   6.114
 3921SOL     OW12012   4.467  12.495   3.552
 3921SOL    HW112013   4.435  12.466   3.467
 3921SOL    HW212014   4.405  12.562   3.580
 3922SOL     OW12015  10.726   2.171   1.759
 3922SOL    HW112016  10.731   2.127   1.674
 3922SOL    HW212017  10.765   2.257   1.744
 3923SOL     OW12018   4.736   5.903   2.386
 3923SOL    HW112019   4.682   5.980   2.405
 3923SOL    HW212020   4.824   5.939   2.373
 3924SOL     OW12021   8.406  10.659   4.917
 3924SOL    HW112022   8.371  10.747   4.907
 3924SOL    HW212023   8.492  10.661   4.875
 3925SOL     OW12024   6.306  11.668   6.721
 3925SOL    HW112025   6.283  11.612   6.795
 3925SOL    HW212026   6.235  11.656   6.659
 3926SOL     OW12027   8.110   8.936   6.294
 3926SOL    HW112028   8.116   8.941   6.389
 3926SOL    HW212029   8.162   8.859   6.271
 3927SOL     OW12030   6.982   7.544   1.848
 3927SOL    HW112031   7.075   7.534   1.829
 3927SOL    HW212032   6.970   7.498   1.931
 3928SOL     OW12033   8.109   5.529   4.189
 3928SOL    HW112034   8.080   5.590   4.257
 3928SOL    HW212035   8.169   5.581   4.134
 3929SOL     OW12036  12.487   5.769   6.993
 3929SOL    HW112037  12.398   5.804   6.997
 3929SOL    HW212038  12.517   5.789   6.905
 3930SOL     OW12039   4.464   6.513   5.250
 3930SOL    HW112040   4.424   6.429   5.273
 3930SOL    HW212041   4.463   6.515   5.155
 3931SOL     OW12042   6.926  13.399   5.537
 3931SOL    HW112043   6.871  13.403   5.458
 3931SOL    HW212044   6.871  13.435   5.606
 3932SOL     OW12045   9.597  11.967   5.327
 3932SOL    HW112046   9.592  12.054   5.288
 3932SOL    HW212047   9.527  11.917   5.284
 3933SOL     OW12048  15.015  10.212   7.543
 3933SOL    HW112049  14.990  10.120   7.535
 3933SOL    HW212050  14.975  10.254   7.467
 3934SOL     OW12051   7.784   8.271   3.546
 3934SOL    HW112052   7.744   8.280   3.460
 3934SOL    HW212053   7.761   8.183   3.574
 3935SOL     OW12054   7.806  15.383   7.560
 3935SOL    HW112055   7.884  15.435   7.581
 3935SOL    HW212056   2.371   9.991   0.024
 3936SOL     OW12057  10.022   8.979   6.825
 3936SOL    HW112058  10.085   9.012   6.761
 3936SOL    HW212059   9.977   9.057   6.857
 3937SOL     OW12060   9.436  15.426   6.965
 3937SOL    HW112061   9.423  15.361   7.035
 3937SOL    HW212062   9.474  15.502   7.010
 3938SOL     OW12063   8.701   4.562   6.338
 3938SOL    HW112064   8.764  15.289   6.393
 3938SOL    HW212065   8.689   4.646   6.382
 3939SOL     OW12066   4.749   5.159   3.547
 3939SOL    HW112067   4.743   5.202   3.632
 3939SOL    HW212068   4.724   5.227   3.484
 3940SOL     OW12069   4.014   2.163   1.763
 3940SOL    HW112070   3.979   2.164   1.852
 3940SOL    HW212071   4.108   2.148   1.774
 3941SOL     OW12072  11.957   6.780   5.782
 3941SOL    HW112073  11.897   6.854   5.770
 3941SOL    HW212074  12.007   6.802   5.860
 3942SOL     OW12075   3.986   7.741   2.597
 3942SOL    HW112076   4.078   7.748   2.573
 3942SOL    HW212077   3.961   7.652   2.572
 3943SOL     OW12078  10.788  10.864   2.565
 3943SOL    HW112079  10.868  10.843   2.516
 3943SOL    HW212080  10.732  10.787   2.553
 3944SOL     OW12081  12.437   8.583   6.789
 3944SOL    HW112082  12.362   8.583   6.849
 3944SOL    HW212083  12.415   8.649   6.723
 3945SOL     OW12084  10.773  15.112   7.072
 3945SOL    HW112085  10.830  15.189   7.073
 3945SOL    HW212086  10.694  15.141   7.118
 3946SOL     OW12087  11.431   7.816   1.649
 3946SOL    HW112088  11.457   7.802   1.740
 3946SOL    HW212089  11.475   7.897   1.623
 3947SOL     OW12090   3.853  11.028   3.455
 3947SOL    HW112091   3.922  11.014   3.520
 3947SOL    HW212092   3.785  10.966   3.478
 3948SOL     OW12093  11.439   6.850   5.496
 3948SOL    HW112094  11.364   6.794   5.477
 3948SOL    HW212095  11.486   6.806   5.567
 3949SOL     OW12096   4.854  14.398   6.850
 3949SOL    HW112097  15.542  14.381   6.885
 3949SOL    HW212098   4.880  14.317   6.808
 3950SOL     OW12099   9.692  13.499   7.322
 3950SOL    HW112100   9.606  13.483   7.360
 3950SOL    HW212101   9.688  13.457   7.236
 3951SOL     OW12102   8.284   6.291   6.319
 3951SOL    HW112103   8.251   6.375   6.287
 3951SOL    HW212104   8.373   6.285   6.284
 3952SOL     OW12105   2.500  10.265   0.871
 3952SOL    HW112106   2.478  10.264   0.778
 3952SOL    HW212107   2.421  10.296   0.915
 3953SOL     OW12108  10.729   6.458   0.894
 3953SOL    HW112109  10.750   6.398   0.965
 3953SOL    HW212110  10.725   6.403   0.815
 3954SOL     OW12111   7.269   9.996   5.590
 3954SOL    HW112112   7.206   9.978   5.520
 3954SOL    HW212113   7.288  10.089   5.582
 3955SOL     OW12114  15.101   7.055   7.433
 3955SOL    HW112115  15.135   7.038   7.521
 3955SOL    HW212116  15.167   7.017   7.374
 3956SOL     OW12117  11.687   5.394   2.471
 3956SOL    HW112118  11.619   5.449   2.432
 3956SOL    HW212119  11.705   5.328   2.404
 3957SOL     OW12120   8.749   9.667   4.618
 3957SOL    HW112121   8.723   9.689   4.707
 3957SOL    HW212122   8.767   9.752   4.577
 3958SOL     OW12123  11.625  10.487   1.574
 3958SOL    HW112124  11.697  10.538   1.611
 3958SOL    HW212125  11.553  10.499   1.636
 3959SOL     OW12126   4.390   7.487   2.392
 3959SOL    HW112127   4.361   7.399   2.366
 3959SOL    HW212128   4.476   7.497   2.352
 3960SOL     OW12129   4.234   6.759   5.567
 3960SOL    HW112130   4.274   6.778   5.482
 3960SOL    HW212131   4.307   6.734   5.623
 3961SOL     OW12132   9.793   4.451   0.965
 3961SOL    HW112133   9.868   4.475   0.910
 3961SOL    HW212134   9.719   4.446   0.904
 3962SOL     OW12135  13.251   9.072   3.753
 3962SOL    HW112136  13.259   9.127   3.675
 3962SOL    HW212137  13.157   9.056   3.761
 3963SOL     OW12138  11.499   1.816   2.206
 3963SOL    HW112139  11.417   1.820   2.255
 3963SOL    HW212140  11.489   1.881   2.136
 3964SOL     OW12141  15.479  12.733   6.941
 3964SOL    HW112142  15.528  12.672   6.886
 3964SOL    HW212143  15.484  12.696   7.029
 3965SOL     OW12144   3.009   3.494   3.023
 3965SOL    HW112145   3.091   3.513   3.069
 3965SOL    HW212146   2.964   3.579   3.018
 3966SOL     OW12147   7.211   3.950   3.030
 3966SOL    HW112148   7.270   4.024   3.017
 3966SOL    HW212149   7.265   3.873   3.016
 3967SOL     OW12150  10.489   4.431   5.280
 3967SOL    HW112151  10.526   4.392   5.359
 3967SOL    HW212152  10.510   4.369   5.210
 3968SOL     OW12153  10.115   7.818   4.402
 3968SOL    HW112154  10.074   7.817   4.316
 3968SOL    HW212155  10.205   7.789   4.387
 3969SOL     OW12156   4.222  11.096   5.295
 3969SOL    HW112157   4.156  11.151   5.335
 3969SOL    HW212158   4.305  11.137   5.319
 3970SOL     OW12159   2.526   9.126   3.286
 3970SOL    HW112160   2.561   9.043   3.317
 3970SOL    HW212161   2.519   9.180   3.365
 3971SOL     OW12162   7.611  13.855   5.995
 3971SOL    HW112163   7.593  13.814   6.079
 3971SOL    HW212164   7.527  13.893   5.969
 3972SOL     OW12165   4.727  11.721   2.182
 3972SOL    HW112166   4.781  11.778   2.236
 3972SOL    HW212167   4.638  11.733   2.215
 3973SOL     OW12168   9.309   7.424   0.605
 3973SOL    HW112169   9.296   7.518   0.617
 3973SOL    HW212170   9.251   7.383   0.669
 3974SOL     OW12171   4.484   5.047   5.638
 3974SOL    HW112172   4.450   5.028   5.551
 3974SOL    HW212173   4.530   5.130   5.628
 3975SOL     OW12174   7.785   5.376   5.185
 3975SOL    HW112175   7.777   5.290   5.225
 3975SOL    HW212176   7.847   5.364   5.113
 3976SOL     OW12177   8.003   3.652   0.120
 3976SOL    HW112178   7.940   3.580   0.128
 3976SOL    HW212179   7.981   3.712   0.191
 3977SOL     OW12180   7.576   9.912   7.492
 3977SOL    HW112181   7.656   9.956   7.465
 3977SOL    HW212182   7.521   9.982   7.527
 3978SOL     OW12183   8.140   7.705   2.677
 3978SOL    HW112184   8.190   7.730   2.600
 3978SOL    HW212185   8.192   7.637   2.720
 3979SOL     OW12186   6.030  11.488   1.941
 3979SOL    HW112187   6.021  11.508   1.847
 3979SOL    HW212188   5.943  11.505   1.977
 3980SOL     OW12189   6.068   5.348   5.266
 3980SOL    HW112190   6.118   5.292   5.325
 3980SOL    HW212191   6.009   5.288   5.220
 3981SOL     OW12192  10.094   2.889   0.821
 3981SOL    HW112193  10.095   2.859   0.730
 3981SOL    HW212194  10.103   2.984   0.815
 3982SOL     OW12195   3.054   2.163   1.335
 3982SOL    HW112196   3.141   2.198   1.354
 3982SOL    HW212197   3.061   2.070   1.354
 3983SOL     OW12198   6.956   2.547   2.512
 3983SOL    HW112199   6.880   2.572   2.459
 3983SOL    HW212200   7.017   2.620   2.501
 3984SOL     OW12201  10.049   8.453   2.244
 3984SOL    HW112202   9.994   8.473   2.168
 3984SOL    HW212203  10.130   8.420   2.206
 3985SOL     OW12204   8.693  10.042   7.360
 3985SOL    HW112205   8.614  10.011   7.403
 3985SOL    HW212206   8.723  10.115   7.413
 3986SOL     OW12207   6.367   6.442   4.316
 3986SOL    HW112208   6.377   6.509   4.384
 3986SOL    HW212209   6.358   6.360   4.363
 3987SOL     OW12210   5.342   7.305   0.133
 3987SOL    HW112211   5.260   7.283   0.088
 3987SOL    HW212212   5.405   7.241   0.100
 3988SOL     OW12213   4.050  11.421   3.689
 3988SOL    HW112214   3.974  11.405   3.632
 3988SOL    HW212215   4.049  11.516   3.703
 3989SOL     OW12216  14.779   5.045   6.498
 3989SOL    HW112217  14.839   4.990   6.548
 3989SOL    HW212218  14.708   5.065   6.560
 3990SOL     OW12219  11.513  12.907   4.618
 3990SOL    HW112220  11.578  12.918   4.549
 3990SOL    HW212221  11.544  12.961   4.690
 3991SOL     OW12222   8.306  10.190   5.697
 3991SOL    HW112223   8.356  10.198   5.616
 3991SOL    HW212224   8.269  10.102   5.693
 3992SOL     OW12225  10.293   4.493   1.268
 3992SOL    HW112226  10.280   4.418   1.326
 3992SOL    HW212227  10.253   4.466   1.185
 3993SOL     OW12228  13.932  13.722   5.131
 3993SOL    HW112229  13.946  13.665   5.207
 3993SOL    HW212230  13.837  13.720   5.117
 3994SOL     OW12231   6.976   7.591   7.023
 3994SOL    HW112232   6.888   7.582   7.060
 3994SOL    HW212233   7.011   7.670   7.063
 3995SOL     OW12234   2.729   7.388   3.361
 3995SOL    HW112235   2.658   7.439   3.399
 3995SOL    HW212236   2.784   7.453   3.317
 3996SOL     OW12237   1.046   2.574   0.792
 3996SOL    HW112238   1.100   2.530   0.858
 3996SOL    HW212239   1.109   2.627   0.742
 3997SOL     OW12240  10.025  15.198   6.464
 3997SOL    HW112241  10.046  15.156   6.548
 3997SOL    HW212242  10.084  15.273   6.461
 3998SOL     OW12243   4.150   4.698   1.261
 3998SOL    HW112244   4.120   4.613   1.293
 3998SOL    HW212245   4.071   4.744   1.235
 3999SOL     OW12246   7.083   7.949   3.874
 3999SOL    HW112247   7.098   7.942   3.968
 3999SOL    HW212248   7.057   7.860   3.847
 4000SOL     OW12249  12.021  12.974   5.608
 4000SOL    HW112250  11.982  13.062   5.608
 4000SOL    HW212251  12.061  12.966   5.695
 4001SOL     OW12252   8.543   4.319   2.879
 4001SOL    HW112253   8.532   4.290   2.969
 4001SOL    HW212254   8.563   4.239   2.830
 4002SOL     OW12255   6.297   9.294   6.395
 4002SOL    HW112256   6.288   9.356   6.322
 4002SOL    HW212257   6.351   9.340   6.459
 4003SOL     OW12258   8.081  13.362   4.248
 4003SOL    HW112259   8.071  13.273   4.213
 4003SOL    HW212260   8.101  13.349   4.341
 4004SOL     OW12261   9.355  12.722   6.146
 4004SOL    HW112262   9.326  12.722   6.055
 4004SOL    HW212263   9.299  12.659   6.190
 4005SOL     OW12264  10.291  12.381   4.352
 4005SOL    HW112265  10.349  12.428   4.411
 4005SOL    HW212266  10.204  12.415   4.372
 4006SOL     OW12267   8.895   3.913   5.304
 4006SOL    HW112268   8.846   3.926   5.385
 4006SOL    HW212269   8.945   3.994   5.293
 4007SOL     OW12270   6.128   4.036   0.017
 4007SOL    HW112271   6.070   4.074   0.082
 4007SOL    HW212272   6.216   4.051   0.052
 4008SOL     OW12273   8.591  13.056   6.015
 4008SOL    HW112274   8.603  12.980   6.072
 4008SOL    HW212275   8.655  13.120   6.046
 4009SOL     OW12276   8.188   3.873   3.277
 4009SOL    HW112277   8.237   3.878   3.195
 4009SOL    HW212278   8.216   3.790   3.316
 4010SOL     OW12279   5.306  10.968   6.872
 4010SOL    HW112280   5.284  10.989   6.963
 4010SOL    HW212281   5.235  11.008   6.821
 4011SOL     OW12282   9.056  10.794   0.999
 4011SOL    HW112283   9.103  10.874   1.026
 4011SOL    HW212284   9.113  10.752   0.935
 4012SOL     OW12285   7.449  11.998   1.790
 4012SOL    HW112286   7.395  11.920   1.777
 4012SOL    HW212287   7.389   1.297   1.773
 4013SOL     OW12288  12.728  12.612   4.104
 4013SOL    HW112289  12.728  12.636   4.011
 4013SOL    HW212290  12.782  12.533   4.108
 4014SOL     OW12291   5.412   4.218   4.972
 4014SOL    HW112292   5.339   4.278   4.984
 4014SOL    HW212293   5.438   4.195   5.061
 4015SOL     OW12294  11.951   5.778   2.558
 4015SOL    HW112295  12.042   5.753   2.574
 4015SOL    HW212296  11.942   5.864   2.599
 4016SOL     OW12297   6.621   5.297   0.686
 4016SOL    HW112298   6.691   5.272   0.626
 4016SOL    HW212299   6.617   5.393   0.680
 4017SOL     OW12300   8.802  14.000   6.396
 4017SOL    HW112301   8.839  13.976   6.481
 4017SOL    HW212302   8.728  13.940   6.384
 4018SOL     OW12303   8.830   6.936   1.806
 4018SOL    HW112304   8.894   6.998   1.770
 4018SOL    HW212305   8.874   6.851   1.803
 4019SOL     OW12306   7.250   9.936   0.715
 4019SOL    HW112307   7.344   9.954   0.710
 4019SOL    HW212308   7.212  10.016   0.753
 4020SOL     OW12309   7.397   5.060   2.589
 4020SOL    HW112310   7.477   5.026   2.549
 4020SOL    HW212311   7.346   4.981   2.612
 4021SOL     OW12312   8.585   9.325   4.620
 4021SOL    HW112313   8.551   9.271   4.691
 4021SOL    HW212314   8.536   9.407   4.627
 4022SOL     OW12315   8.241   1.185   1.554
 4022SOL    HW112316   8.162   1.231   1.582
 4022SOL    HW212317   8.209   1.103   1.515
 4023SOL     OW12318   1.442   2.355   1.299
 4023SOL    HW112319   1.498   2.342   1.223
 4023SOL    HW212320   1.500   2.397   1.364
 4024SOL     OW12321   6.646   1.349   1.779
 4024SOL    HW112322   6.636   1.328   1.872
 4024SOL    HW212323   6.731   1.312   1.754
 4025SOL     OW12324   8.192   7.586   0.566
 4025SOL    HW112325   8.160   7.539   0.490
 4025SOL    HW212326   8.205   7.676   0.536
 4026SOL     OW12327   7.698  11.538   2.108
 4026SOL    HW112328   7.603  11.545   2.117
 4026SOL    HW212329   7.714  11.549   2.014
 4027SOL     OW12330  15.325   9.877   6.877
 4027SOL    HW112331  15.286   9.866   6.964
 4027SOL    HW212332  15.366   9.792   6.859
 4028SOL     OW12333   4.248   1.983   1.705
 4028SOL    HW112334   4.331   1.976   1.658
 4028SOL    HW212335   4.262   2.054   1.767
 4029SOL     OW12336   5.933   6.974   3.131
 4029SOL    HW112337   5.895   6.946   3.047
 4029SOL    HW212338   5.885   7.054   3.153
 4030SOL     OW12339   5.187   2.826   3.214
 4030SOL    HW112340   5.165   2.858   3.301
 4030SOL    HW212341   5.133   2.748   3.202
 4031SOL     OW12342   4.232   5.996   1.682
 4031SOL    HW112343   4.234   6.068   1.746
 4031SOL    HW212344   4.202   6.037   1.601
 4032SOL     OW12345   6.977   7.719   3.731
 4032SOL    HW112346   6.941   7.788   3.675
 4032SOL    HW212347   6.935   7.639   3.700
 4033SOL     OW12348   8.253   2.432   1.567
 4033SOL    HW112349   8.262   2.379   1.646
 4033SOL    HW212350   8.160   2.425   1.545
 4034SOL     OW12351  11.102   6.882   1.718
 4034SOL    HW112352  11.016   6.850   1.745
 4034SOL    HW212353  11.148   6.899   1.801
 4035SOL     OW12354  11.216  10.912   4.003
 4035SOL    HW112355  11.262  10.937   4.084
 4035SOL    HW212356  11.278  10.933   3.933
 4036SOL     OW12357   2.310   4.075   1.369
 4036SOL    HW112358   2.284   4.075   1.461
 4036SOL    HW212359   2.402   4.102   1.369
 4037SOL     OW12360   9.212   9.876   0.074
 4037SOL    HW112361   9.290   9.917   0.039
 4037SOL    HW212362   9.203   9.794   0.025
 4038SOL     OW12363  10.220   5.856   2.893
 4038SOL    HW112364  10.193   5.860   2.984
 4038SOL    HW212365  10.300   5.804   2.894
 4039SOL     OW12366  15.904   9.713   7.607
 4039SOL    HW112367  10.552   4.331   0.077
 4039SOL    HW212368  15.929   9.796   7.566
 4040SOL     OW12369  13.048   7.154   4.991
 4040SOL    HW112370  12.973   7.173   5.048
 4040SOL    HW212371  13.069   7.062   5.010
 4041SOL     OW12372  10.479  11.241   5.437
 4041SOL    HW112373  10.485  11.331   5.405
 4041SOL    HW212374  10.530  11.241   5.518
 4042SOL     OW12375   4.493  11.807   3.212
 4042SOL    HW112376   4.561  11.758   3.166
 4042SOL    HW212377   4.534  11.833   3.295
 4043SOL     OW12378   6.776  11.293   0.810
 4043SOL    HW112379   6.803  11.376   0.851
 4043SOL    HW212380   6.796   0.531   0.717
 4044SOL     OW12381   9.738   4.835   3.365
 4044SOL    HW112382   9.663   4.843   3.306
 4044SOL    HW212383   9.796   4.907   3.341
 4045SOL     OW12384   5.770   7.421   4.316
 4045SOL    HW112385   5.695   7.421   4.376
 4045SOL    HW212386   5.833   7.480   4.356
 4046SOL     OW12387  10.045   8.497   5.119
 4046SOL    HW112388  10.039   8.559   5.046
 4046SOL    HW212389  10.120   8.442   5.097
 4047SOL     OW12390   8.113   5.359   6.806
 4047SOL    HW112391   8.076   5.315   6.882
 4047SOL    HW212392   8.055   5.433   6.790
 4048SOL     OW12393   8.337   6.295   1.952
 4048SOL    HW112394   8.383   6.282   2.035
 4048SOL    HW212395   8.399   6.342   1.897
 4049SOL     OW12396   2.822   8.980   2.634
 4049SOL    HW112397   2.870   9.061   2.655
 4049SOL    HW212398   2.883   8.910   2.657
 4050SOL     OW12399  11.877  10.326   5.584
 4050SOL    HW112400  11.903  10.410   5.621
 4050SOL    HW212401  11.959  10.284   5.559
 4051SOL     OW12402   5.334  12.398   6.756
 4051SOL    HW112403   5.343  12.473   6.815
 4051SOL    HW212404   5.349  12.434   6.669
 4052SOL     OW12405   5.820   4.599   3.693
 4052SOL    HW112406   5.915   4.597   3.680
 4052SOL    HW212407   5.806   4.664   3.761
 4053SOL     OW12408  11.447  12.969   7.016
 4053SOL    HW112409  11.518  13.012   7.063
 4053SOL    HW212410  11.389  13.040   6.989
 4054SOL     OW12411  14.319   4.379   5.980
 4054SOL    HW112412  14.259   4.412   5.913
 4054SOL    HW212413  14.351   4.457   6.024
 4055SOL     OW12414   9.209  16.080   7.505
 4055SOL    HW112415   9.122  16.046   7.525
 4055SOL    HW212416   9.214   5.388   7.554
 4056SOL     OW12417   1.646   8.178   0.719
 4056SOL    HW112418   1.637   8.090   0.756
 4056SOL    HW212419   1.720   8.171   0.659
 4057SOL     OW12420  12.559   5.547   6.075
 4057SOL    HW112421  12.627   5.484   6.099
 4057SOL    HW212422  12.500   5.548   6.151
 4058SOL     OW12423   6.092  15.010   6.823
 4058SOL    HW112424   6.002  15.033   6.850
 4058SOL    HW212425   6.089  15.009   6.728
 4059SOL     OW12426   5.667   7.526   0.706
 4059SOL    HW112427   5.750   7.509   0.751
 4059SOL    HW212428   5.673   7.475   0.625
 4060SOL     OW12429  13.698   9.763   4.937
 4060SOL    HW112430  13.745   9.738   4.858
 4060SOL    HW212431  13.621   9.706   4.938
 4061SOL     OW12432   9.407  13.813   5.387
 4061SOL    HW112433   9.403  13.735   5.442
 4061SOL    HW212434   9.459  13.786   5.311
 4062SOL     OW12435   4.052   8.988   3.885
 4062SOL    HW112436   4.039   8.924   3.955
 4062SOL    HW212437   4.108   8.943   3.822
 4063SOL     OW12438   5.988   1.929   0.469
 4063SOL    HW112439   6.030   1.933   0.384
 4063SOL    HW212440   6.056   1.898   0.529
 4064SOL     OW12441  13.893  11.267   6.727
 4064SOL    HW112442  13.821  11.312   6.682
 4064SOL    HW212443  13.915  11.325   6.800
 4065SOL     OW12444  12.566  10.541   3.563
 4065SOL    HW112445  12.494  10.599   3.542
 4065SOL    HW212446  12.545  10.507   3.650
 4066SOL     OW12447   6.835  10.383   7.072
 4066SOL    HW112448   6.809  10.337   7.152
 4066SOL    HW212449   6.900  10.447   7.101
 4067SOL     OW12450   9.705   6.127   5.632
 4067SOL    HW112451   9.640   6.061   5.656
 4067SOL    HW212452   9.655   6.208   5.624
 4068SOL     OW12453   5.400  11.442   1.523
 4068SOL    HW112454   5.434  11.510   1.466
 4068SOL    HW212455   5.320  11.480   1.561
 4069SOL     OW12456   4.449   9.591   2.757
 4069SOL    HW112457   4.438   9.499   2.781
 4069SOL    HW212458   4.527   9.591   2.701
 4070SOL     OW12459   9.220  13.366   4.461
 4070SOL    HW112460   9.239  13.451   4.423
 4070SOL    HW212461   9.254  13.303   4.397
 4071SOL     OW12462   9.024   6.919   3.352
 4071SOL    HW112463   9.069   6.880   3.277
 4071SOL    HW212464   9.043   6.860   3.425
 4072SOL     OW12465  13.731  10.355   5.240
 4072SOL    HW112466  13.750  10.359   5.334
 4072SOL    HW212467  13.718  10.446   5.215
 4073SOL     OW12468  12.145   6.291   2.308
 4073SOL    HW112469  12.063   6.246   2.286
 4073SOL    HW212470  12.190   6.230   2.366
 4074SOL     OW12471   5.517   3.332   3.310
 4074SOL    HW112472   5.507   3.379   3.393
 4074SOL    HW212473   5.428   3.325   3.275
 4075SOL     OW12474   7.179   7.455   2.940
 4075SOL    HW112475   7.124   7.379   2.922
 4075SOL    HW212476   7.154   7.519   2.873
 4076SOL     OW12477   6.682  14.162   7.614
 4076SOL    HW112478   1.269   8.732   0.077
 4076SOL    HW212479   6.658  14.099   7.545
 4077SOL     OW12480  13.233   8.518   4.154
 4077SOL    HW112481  13.223   8.502   4.247
 4077SOL    HW212482  13.147   8.551   4.126
 4078SOL     OW12483   8.878   3.579   0.038
 4078SOL    HW112484  14.248   9.051   7.616
 4078SOL    HW212485   8.825   3.580   0.118
 4079SOL     OW12486   6.570   6.203   3.008
 4079SOL    HW112487   6.563   6.217   3.102
 4079SOL    HW212488   6.583   6.109   2.998
 4080SOL     OW12489  10.372  13.178   6.068
 4080SOL    HW112490  10.467  13.191   6.063
 4080SOL    HW212491  10.350  13.191   6.160
 4081SOL     OW12492  10.141   4.068   4.028
 4081SOL    HW112493  10.064   4.024   4.065
 4081SOL    HW212494  10.105   4.143   3.980
 4082SOL     OW12495  13.939  11.418   6.959
 4082SOL    HW112496  13.938  11.333   7.002
 4082SOL    HW212497  13.851  11.453   6.974
 4083SOL     OW12498   4.105   3.503   0.240
 4083SOL    HW112499   4.116   3.598   0.234
 4083SOL    HW212500   4.181   3.473   0.290
 4084SOL     OW12501   2.835   3.742   3.035
 4084SOL    HW112502   2.874   3.792   2.964
 4084SOL    HW212503   2.741   3.741   3.015
 4085SOL     OW12504   7.951  11.433   6.797
 4085SOL    HW112505   8.022  11.483   6.836
 4085SOL    HW212506   7.993  11.356   6.761
 4086SOL     OW12507   4.836   1.251   1.600
 4086SOL    HW112508   4.786   1.315   1.652
 4086SOL    HW212509   4.815   1.274   1.509
 4087SOL     OW12510   7.996   6.318   3.186
 4087SOL    HW112511   7.995   6.227   3.216
 4087SOL    HW212512   7.933   6.320   3.114
 4088SOL     OW12513  10.716  11.629   3.843
 4088SOL    HW112514  10.705  11.654   3.751
 4088SOL    HW212515  10.753  11.540   3.839
 4089SOL     OW12516   9.858  12.862   5.458
 4089SOL    HW112517   9.821  12.774   5.457
 4089SOL    HW212518   9.797  12.913   5.513
 4090SOL     OW12519   6.778   3.479   3.893
 4090SOL    HW112520   6.782   3.574   3.892
 4090SOL    HW212521   6.778   3.454   3.801
 4091SOL     OW12522   7.323  11.443   4.324
 4091SOL    HW112523   7.280  11.522   4.357
 4091SOL    HW212524   7.296  11.374   4.384
 4092SOL     OW12525   9.099   1.069   0.979
 4092SOL    HW112526   9.176   1.064   0.922
 4092SOL    HW212527   9.029   1.104   0.923
 4093SOL     OW12528  12.970  12.701   6.772
 4093SOL    HW112529  13.040  12.685   6.709
 4093SOL    HW212530  12.912  12.763   6.727
 4094SOL     OW12531  11.945   9.213   3.580
 4094SOL    HW112532  12.030   9.254   3.597
 4094SOL    HW212533  11.909   9.261   3.506
 4095SOL     OW12534   1.389  11.183   1.913
 4095SOL    HW112535  12.121  11.097   1.911
 4095SOL    HW212536  12.124  11.227   1.989
 4096SOL     OW12537  12.039   8.864   2.398
 4096SOL    HW112538  12.025   8.906   2.313
 4096SOL    HW212539  12.023   8.933   2.462
 4097SOL     OW12540   8.218   9.776   7.575
 4097SOL    HW112541   8.267   9.781   7.493
 4097SOL    HW212542   2.887   4.336   0.014
 4098SOL     OW12543   8.950  10.658   6.198
 4098SOL    HW112544   8.931  10.696   6.112
 4098SOL    HW212545   8.996  10.728   6.245
 4099SOL     OW12546   4.594  10.901   0.359
 4099SOL    HW112547   4.511  10.949   0.358
 4099SOL    HW212548   4.570  10.811   0.338
 4100SOL     OW12549   6.252   9.832   4.882
 4100SOL    HW112550   6.183   9.870   4.827
 4100SOL    HW212551   6.267   9.745   4.845
 4101SOL     OW12552  13.851   5.281   6.443
 4101SOL    HW112553  13.758   5.299   6.435
 4101SOL    HW212554  13.891   5.331   6.372
 4102SOL     OW12555  12.813  14.116   5.671
 4102SOL    HW112556  12.779  14.147   5.756
 4102SOL    HW212557  12.752  14.047   5.645
 4103SOL     OW12558  10.658   6.198   1.493
 4103SOL    HW112559  10.693   6.113   1.466
 4103SOL    HW212560  10.578   6.176   1.542
 4104SOL     OW12561   8.607   7.166   3.941
 4104SOL    HW112562   8.669   7.227   3.980
 4104SOL    HW212563   8.597   7.195   3.851
 4105SOL     OW12564   5.808   6.992   7.501
 4105SOL    HW112565   5.748   7.062   7.473
 4105SOL    HW212566   5.754   6.933   7.553
 4106SOL     OW12567   9.438  12.216   6.327
 4106SOL    HW112568   9.448  12.174   6.242
 4106SOL    HW212569   9.393  12.151   6.381
 4107SOL     OW12570   5.831   0.706   0.706
 4107SOL    HW112571   5.817   0.791   0.747
 4107SOL    HW212572   5.914   0.715   0.659
 4108SOL     OW12573   9.906   9.441   7.606
 4108SOL    HW112574   9.891   9.346   7.606
 4108SOL    HW212575   4.502   4.081   0.077
 4109SOL     OW12576  11.278  12.263   4.241
 4109SOL    HW112577  11.263  12.255   4.335
 4109SOL    HW212578  11.202  12.222   4.200
 4110SOL     OW12579   6.188   1.920   1.164
 4110SOL    HW112580   6.170   1.827   1.177
 4110SOL    HW212581   6.127   1.947   1.095
 4111SOL     OW12582  10.586   4.425   4.043
 4111SOL    HW112583  10.554   4.481   4.114
 4111SOL    HW212584  10.528   4.349   4.046
 4112SOL     OW12585   7.073   6.101   2.372
 4112SOL    HW112586   7.106   6.184   2.406
 4112SOL    HW212587   7.113   6.034   2.427
 4113SOL     OW12588   7.092   5.303   7.078
 4113SOL    HW112589   7.179   5.336   7.098
 4113SOL    HW212590   7.050   5.292   7.163
 4114SOL     OW12591  10.963   6.909   5.987
 4114SOL    HW112592  11.057   6.904   5.975
 4114SOL    HW212593  10.952   6.935   6.079
 4115SOL     OW12594   8.757   7.068   6.491
 4115SOL    HW112595   8.755   7.005   6.564
 4115SOL    HW212596   8.669   7.105   6.489
 4116SOL     OW12597   2.124   9.866   2.254
 4116SOL    HW112598   2.215   9.891   2.239
 4116SOL    HW212599   2.074   9.919   2.192
 4117SOL     OW12600  14.619  12.550   7.412
 4117SOL    HW112601  14.640  12.505   7.494
 4117SOL    HW212602  14.562  12.622   7.439
 4118SOL     OW12603  14.224   8.757   5.436
 4118SOL    HW112604  14.255   8.768   5.345
 4118SOL    HW212605  14.131   8.778   5.432
 4119SOL     OW12606   6.112   7.275   4.622
 4119SOL    HW112607   6.041   7.289   4.685
 4119SOL    HW212608   6.170   7.350   4.634
 4120SOL     OW12609   2.969  11.220   3.693
 4120SOL    HW112610   3.051  11.264   3.714
 4120SOL    HW212611   2.902  11.271   3.738
 4121SOL     OW12612   4.229   6.701   1.042
 4121SOL    HW112613   4.234   6.642   1.117
 4121SOL    HW212614   4.319   6.704   1.009
 4122SOL     OW12615   9.188   7.445   3.185
 4122SOL    HW112616   9.207   7.393   3.107
 4122SOL    HW212617   9.098   7.475   3.173
 4123SOL     OW12618  10.343   4.248   0.430
 4123SOL    HW112619  10.433   4.240   0.398
 4123SOL    HW212620  10.338   4.185   0.502
 4124SOL     OW12621  13.784  10.881   7.251
 4124SOL    HW112622  13.778  10.817   7.321
 4124SOL    HW212623  13.774  10.830   7.171
 4125SOL     OW12624   5.992  11.822   1.531
 4125SOL    HW112625   5.998  11.853   1.621
 4125SOL    HW212626   5.904  11.784   1.524
 4126SOL     OW12627   5.350   7.967   6.977
 4126SOL    HW112628   5.382   7.878   6.958
 4126SOL    HW212629   5.256   7.962   6.962
 4127SOL     OW12630   8.017   8.975   1.792
 4127SOL    HW112631   7.993   8.888   1.761
 4127SOL    HW212632   7.972   8.984   1.876
 4128SOL     OW12633   1.405   8.588   0.608
 4128SOL    HW112634   1.313   8.571   0.629
 4128SOL    HW212635   1.403   8.639   0.527
 4129SOL     OW12636  13.899   5.590   7.417
 4129SOL    HW112637  13.917   5.562   7.327
 4129SOL    HW212638  13.986   5.598   7.457
 4130SOL     OW12639   4.881  13.175   5.601
 4130SOL    HW112640   4.821  13.100   5.592
 4130SOL    HW212641   4.961  13.137   5.636
 4131SOL     OW12642   7.834   6.079   6.114
 4131SOL    HW112643   7.914   6.044   6.074
 4131SOL    HW212644   7.865   6.151   6.169
 4132SOL     OW12645  11.501  12.298   5.153
 4132SOL    HW112646  11.565  12.274   5.220
 4132SOL    HW212647  11.441  12.224   5.148
 4133SOL     OW12648   4.339   8.106   3.300
 4133SOL    HW112649   4.312   8.141   3.384
 4133SOL    HW212650   4.290   8.024   3.291
 4134SOL     OW12651  12.917  13.419   5.869
 4134SOL    HW112652  12.893  13.402   5.960
 4134SOL    HW212653  12.833  13.431   5.824
 4135SOL     OW12654  10.760   8.839   6.245
 4135SOL    HW112655  10.744   8.790   6.164
 4135SOL    HW212656  10.806   8.918   6.218
 4136SOL     OW12657   7.223   7.937   2.550
 4136SOL    HW112658   7.311   7.963   2.579
 4136SOL    HW212659   7.230   7.935   2.454
 4137SOL     OW12660   3.206   4.200   2.258
 4137SOL    HW112661   3.122   4.171   2.293
 4137SOL    HW212662   3.271   4.145   2.300
 4138SOL     OW12663   7.504  11.399   0.981
 4138SOL    HW112664   7.453  11.333   1.028
 4138SOL    HW212665   7.442   0.664   0.920
 4139SOL     OW12666   6.972   4.775   0.185
 4139SOL    HW112667   7.015   4.697   0.222
 4139SOL    HW212668   7.044   4.831   0.156
 4140SOL     OW12669  10.302   8.422   5.005
 4140SOL    HW112670  10.299   8.344   4.950
 4140SOL    HW212671  10.373   8.406   5.067
 4141SOL     OW12672   8.883   1.260   0.147
 4141SOL    HW112673   8.826   1.188   0.174
 4141SOL    HW212674   8.873   1.265   0.052
 4142SOL     OW12675  12.671  11.108   3.620
 4142SOL    HW112676  12.744  11.098   3.558
 4142SOL    HW212677  12.679  11.198   3.651
 4143SOL     OW12678  11.887   2.966   2.221
 4143SOL    HW112679  11.849   3.041   2.176
 4143SOL    HW212680  11.812   2.919   2.257
 4144SOL     OW12681   6.751  11.883   3.782
 4144SOL    HW112682   6.749  11.912   3.691
 4144SOL    HW212683   6.791  11.956   3.829
 4145SOL     OW12684  13.377  13.633   5.641
 4145SOL    HW112685  13.353  13.697   5.574
 4145SOL    HW212686  13.297  13.619   5.692
 4146SOL     OW12687   9.223   7.672   6.921
 4146SOL    HW112688   9.189   7.585   6.941
 4146SOL    HW212689   9.259   7.664   6.833
 4147SOL     OW12690   9.070   4.801   4.269
 4147SOL    HW112691   9.040   4.890   4.287
 4147SOL    HW212692   9.020   4.746   4.330
 4148SOL     OW12693   8.122   3.817   0.875
 4148SOL    HW112694   8.208   3.799   0.837
 4148SOL    HW212695   8.105   3.741   0.931
 4149SOL     OW12696   7.563   3.770   0.962
 4149SOL    HW112697   7.560   3.790   0.868
 4149SOL    HW212698   7.550   3.675   0.967
 4150SOL     OW12699  11.017   4.321   3.817
 4150SOL    HW112700  11.026   4.227   3.830
 4150SOL    HW212701  11.095   4.345   3.767
 4151SOL     OW12702   4.685   9.548   2.614
 4151SOL    HW112703   4.646   9.490   2.548
 4151SOL    HW212704   4.762   9.501   2.645
 4152SOL     OW12705  13.449   6.965   4.527
 4152SOL    HW112706  13.413   7.019   4.598
 4152SOL    HW212707  13.408   6.879   4.540
 4153SOL     OW12708  10.324   8.729   5.547
 4153SOL    HW112709  10.298   8.678   5.624
 4153SOL    HW212710  10.368   8.806   5.583
 4154SOL     OW12711   8.386   3.929   0.685
 4154SOL    HW112712   8.336   4.009   0.701
 4154SOL    HW212713   8.460   3.958   0.632
 4155SOL     OW12714   9.621   8.546   4.457
 4155SOL    HW112715   9.681   8.473   4.474
 4155SOL    HW212716   9.552   8.507   4.404
 4156SOL     OW12717  12.971   6.192   6.691
 4156SOL    HW112718  13.016   6.130   6.748
 4156SOL    HW212719  12.987   6.278   6.730
 4157SOL     OW12720   2.634   1.396   1.792
 4157SOL    HW112721   2.685   1.394   1.873
 4157SOL    HW212722   2.649   1.310   1.752
 4158SOL     OW12723   6.208   3.467   4.114
 4158SOL    HW112724   6.281   3.513   4.073
 4158SOL    HW212725   6.238   3.450   4.203
 4159SOL     OW12726   6.394  14.147   6.638
 4159SOL    HW112727   6.453  14.222   6.648
 4159SOL    HW212728   6.308  14.186   6.620
 4160SOL     OW12729   5.702  12.183   3.361
 4160SOL    HW112730   5.794  12.205   3.378
 4160SOL    HW212731   5.697  12.089   3.375
 4161SOL     OW12732   1.364   4.321   0.966
 4161SOL    HW112733   1.302   4.368   0.910
 4161SOL    HW212734   1.410   4.262   0.907
 4162SOL     OW12735  12.052  10.381   1.935
 4162SOL    HW112736  11.972  10.367   1.987
 4162SOL    HW212737  12.117  10.325   1.977
 4163SOL     OW12738   7.836   2.376   0.051
 4163SOL    HW112739   7.833   2.322   0.130
 4163SOL    HW212740  13.278   7.715   7.609
 4164SOL     OW12741  12.941   6.437   7.041
 4164SOL    HW112742  12.914   6.460   7.130
 4164SOL    HW212743  12.952   6.342   7.042
 4165SOL     OW12744   8.160   6.461   4.241
 4165SOL    HW112745   8.123   6.383   4.282
 4165SOL    HW212746   8.255   6.449   4.249
 4166SOL     OW12747   5.334   4.572   0.376
 4166SOL    HW112748   5.340   4.664   0.351
 4166SOL    HW212749   5.415   4.556   0.425
 4167SOL     OW12750   7.007   9.637   2.302
 4167SOL    HW112751   7.098   9.609   2.306
 4167SOL    HW212752   7.003   9.695   2.226
 4168SOL     OW12753   4.407  12.914   3.280
 4168SOL    HW112754   4.499  12.887   3.273
 4168SOL    HW212755   4.410  12.996   3.329
 4169SOL     OW12756  10.128   0.687   0.242
 4169SOL    HW112757  10.076   0.688   0.162
 4169SOL    HW212758  10.094   0.759   0.295
 4170SOL     OW12759   9.408   6.642   1.253
 4170SOL    HW112760   9.472   6.617   1.186
 4170SOL    HW212761   9.335   6.582   1.241
 4171SOL     OW12762   4.850  10.962   4.465
 4171SOL    HW112763   4.888  10.932   4.547
 4171SOL    HW212764   4.789  11.031   4.491
 4172SOL     OW12765   9.227  11.665   7.477
 4172SOL    HW112766   9.252  11.652   7.385
 4172SOL    HW212767   9.260  11.588   7.522
 4173SOL     OW12768   5.832  13.354   4.903
 4173SOL    HW112769   5.789  13.428   4.860
 4173SOL    HW212770   5.790  13.276   4.865
 4174SOL     OW12771  10.934   4.295   2.590
 4174SOL    HW112772  10.857   4.290   2.534
 4174SOL    HW212773  10.966   4.205   2.596
 4175SOL     OW12774   9.714   6.248   0.705
 4175SOL    HW112775   9.701   6.332   0.749
 4175SOL    HW212776   9.809   6.236   0.705
 4176SOL     OW12777   8.959  11.041   3.561
 4176SOL    HW112778   8.889  10.986   3.526
 4176SOL    HW212779   8.914  11.118   3.596
 4177SOL     OW12780  11.012  11.927   7.103
 4177SOL    HW112781  10.989  12.002   7.157
 4177SOL    HW212782  10.968  11.853   7.145
 4178SOL     OW12783   2.068  12.279   2.489
 4178SOL    HW112784   2.047  12.252   2.578
 4178SOL    HW212785   2.156  12.245   2.473
 4179SOL     OW12786   2.993   6.311   0.118
 4179SOL    HW112787   3.029   6.399   0.112
 4179SOL    HW212788   3.037   6.273   0.194
 4180SOL     OW12789   2.634   8.278   1.100
 4180SOL    HW112790   2.594   8.226   1.030
 4180SOL    HW212791   2.640   8.366   1.063
 4181SOL     OW12792  12.830   8.506   4.277
 4181SOL    HW112793  12.909   8.459   4.250
 4181SOL    HW212794  12.843   8.596   4.247
 4182SOL     OW12795   5.812   4.358   2.689
 4182SOL    HW112796   5.873   4.308   2.744
 4182SOL    HW212797   5.867   4.396   2.620
 4183SOL     OW12798   4.451  12.939   4.983
 4183SOL    HW112799   4.478  12.918   4.894
 4183SOL    HW212800   4.465  12.858   5.032
 4184SOL     OW12801  11.558  12.787   3.729
 4184SOL    HW112802  11.492  12.838   3.683
 4184SOL    HW212803  11.524  12.698   3.730
 4185SOL     OW12804  10.497   3.646   0.720
 4185SOL    HW112805  10.427   3.709   0.702
 4185SOL    HW212806  10.563   3.664   0.653
 4186SOL     OW12807   4.729  13.077   4.150
 4186SOL    HW112808   4.660  13.027   4.194
 4186SOL    HW212809   4.810  13.031   4.172
 4187SOL     OW12810  12.279   9.299   6.513
 4187SOL    HW112811  12.372   9.279   6.526
 4187SOL    HW212812  12.243   9.307   6.602
 4188SOL     OW12813   6.550  10.212   7.227
 4188SOL    HW112814   6.577  10.153   7.297
 4188SOL    HW212815   6.529  10.294   7.271
 4189SOL     OW12816   4.952   5.979   0.777
 4189SOL    HW112817   5.043   5.985   0.749
 4189SOL    HW212818   4.954   6.004   0.869
 4190SOL     OW12819   9.544   8.488   4.900
 4190SOL    HW112820   9.530   8.455   4.811
 4190SOL    HW212821   9.547   8.583   4.891
 4191SOL     OW12822  12.283   8.009   7.215
 4191SOL    HW112823  12.228   8.031   7.140
 4191SOL    HW212824  12.364   7.977   7.177
 4192SOL     OW12825  11.428   4.639   5.054
 4192SOL    HW112826  11.488   4.565   5.069
 4192SOL    HW212827  11.343   4.597   5.040
 4193SOL     OW12828   2.919   1.652   0.114
 4193SOL    HW112829   2.945   1.724   0.056
 4193SOL    HW212830   2.826   1.667   0.131
 4194SOL     OW12831  12.945   8.317   4.088
 4194SOL    HW112832  12.856   8.350   4.081
 4194SOL    HW212833  12.938   8.224   4.065
 4195SOL     OW12834   5.284  12.137   6.860
 4195SOL    HW112835   5.305  12.229   6.876
 4195SOL    HW212836   5.270  12.100   6.948
 4196SOL     OW12837   7.852   3.232   3.468
 4196SOL    HW112838   7.917   3.259   3.534
 4196SOL    HW212839   7.904   3.194   3.398
 4197SOL     OW12840   5.347   9.613   5.188
 4197SOL    HW112841   5.305   9.531   5.215
 4197SOL    HW212842   5.293   9.645   5.116
 4198SOL     OW12843   8.088  12.928   6.603
 4198SOL    HW112844   8.057  12.929   6.693
 4198SOL    HW212845   8.086  13.021   6.576
 4199SOL     OW12846   4.473   2.349   0.327
 4199SOL    HW112847   4.506   2.412   0.263
 4199SOL    HW212848   4.525   2.365   0.406
 4200SOL     OW12849   6.288   6.981   4.297
 4200SOL    HW112850   6.195   6.967   4.311
 4200SOL    HW212851   6.331   6.908   4.342
 4201SOL     OW12852  14.212  12.703   6.064
 4201SOL    HW112853  14.230  12.784   6.112
 4201SOL    HW212854  14.298  12.665   6.048
 4202SOL     OW12855   6.668   5.057   5.213
 4202SOL    HW112856   6.729   4.992   5.249
 4202SOL    HW212857   6.656   5.120   5.285
 4203SOL     OW12858   5.667   3.177   2.165
 4203SOL    HW112859   5.752   3.171   2.121
 4203SOL    HW212860   5.676   3.250   2.225
 4204SOL     OW12861   8.207   9.810   0.953
 4204SOL    HW112862   8.295   9.829   0.919
 4204SOL    HW212863   8.218   9.808   1.048
 4205SOL     OW12864   6.352   9.902   1.541
 4205SOL    HW112865   6.312   9.818   1.517
 4205SOL    HW212866   6.430   9.908   1.486
 4206SOL     OW12867   3.835   7.128   1.466
 4206SOL    HW112868   3.853   7.192   1.535
 4206SOL    HW212869   3.809   7.181   1.390
 4207SOL     OW12870  14.563   5.608   5.761
 4207SOL    HW112871  14.563   5.661   5.841
 4207SOL    HW212872  14.529   5.667   5.693
 4208SOL     OW12873   5.295  13.437   4.603
 4208SOL    HW112874   5.217  13.449   4.657
 4208SOL    HW212875   5.262  13.429   4.514
 4209SOL     OW12876  12.420  10.401   7.568
 4209SOL    HW112877  12.448  10.364   7.484
 4209SOL    HW212878  12.342  10.350   7.591
 4210SOL     OW12879   9.418  11.319   4.214
 4210SOL    HW112880   9.335  11.305   4.260
 4210SOL    HW212881   9.394  11.318   4.121
 4211SOL     OW12882   8.459   8.327   6.711
 4211SOL    HW112883   8.496   8.262   6.651
 4211SOL    HW212884   8.493   8.302   6.797
 4212SOL     OW12885   6.342   5.476   3.827
 4212SOL    HW112886   6.350   5.433   3.741
 4212SOL    HW212887   6.278   5.422   3.874
 4213SOL     OW12888   6.177   5.051   3.999
 4213SOL    HW112889   6.193   4.979   4.060
 4213SOL    HW212890   6.082   5.058   3.994
 4214SOL     OW12891   1.663   5.289   1.845
 4214SOL    HW112892   1.664   5.330   1.931
 4214SOL    HW212893   1.620   5.352   1.788
 4215SOL     OW12894  13.528  12.113   6.599
 4215SOL    HW112895  13.512  12.203   6.625
 4215SOL    HW212896  13.590  12.080   6.664
 4216SOL     OW12897   4.478   6.589   3.650
 4216SOL    HW112898   4.464   6.503   3.691
 4216SOL    HW212899   4.562   6.618   3.683
 4217SOL     OW12900   5.849  10.500   0.298
 4217SOL    HW112901   5.933  10.459   0.276
 4217SOL    HW212902   5.864  10.593   0.283
 4218SOL     OW12903   7.497   5.713   5.190
 4218SOL    HW112904   7.558   5.779   5.221
 4218SOL    HW212905   7.510   5.638   5.248
 4219SOL     OW12906  10.298   2.406   2.638
 4219SOL    HW112907  10.366   2.350   2.676
 4219SOL    HW212908  10.219   2.383   2.686
 4220SOL     OW12909   9.807  10.145   6.897
 4220SOL    HW112910   9.885  10.181   6.940
 4220SOL    HW212911   9.734  10.176   6.951
 4221SOL     OW12912  10.367   8.995   6.874
 4221SOL    HW112913  10.416   9.007   6.793
 4221SOL    HW212914  10.407   9.057   6.935
 4222SOL     OW12915   4.966   8.092   4.883
 4222SOL    HW112916   4.902   8.155   4.850
 4222SOL    HW212917   5.025   8.077   4.809
 4223SOL     OW12918   8.917   9.225   3.616
 4223SOL    HW112919   8.884   9.314   3.599
 4223SOL    HW212920   8.846   9.182   3.662
 4224SOL     OW12921   8.209  11.099   5.977
 4224SOL    HW112922   8.162  11.034   6.028
 4224SOL    HW212923   8.174  11.090   5.888
 4225SOL     OW12924   8.247   9.509   5.860
 4225SOL    HW112925   8.341   9.524   5.860
 4225SOL    HW212926   8.209   9.590   5.894
 4226SOL     OW12927   4.207   8.618   3.531
 4226SOL    HW112928   4.290   8.665   3.527
 4226SOL    HW212929   4.181   8.607   3.440
 4227SOL     OW12930  12.089  13.176   4.042
 4227SOL    HW112931  12.182  13.156   4.053
 4227SOL    HW212932  12.070  13.153   3.951
 4228SOL     OW12933   6.757   5.399   3.173
 4228SOL    HW112934   6.852   5.407   3.165
 4228SOL    HW212935   6.731   5.341   3.102
 4229SOL     OW12936  10.420   7.475   6.414
 4229SOL    HW112937  10.450   7.396   6.459
 4229SOL    HW212938  10.412   7.449   6.322
 4230SOL     OW12939   4.916  10.362   3.657
 4230SOL    HW112940   4.833  10.347   3.610
 4230SOL    HW212941   4.899  10.439   3.712
 4231SOL     OW12942   4.743  13.755   5.673
 4231SOL    HW112943   4.665  13.755   5.617
 4231SOL    HW212944   4.803  13.693   5.631
 4232SOL     OW12945  10.915  10.245   6.777
 4232SOL    HW112946  10.938  10.217   6.865
 4232SOL    HW212947  10.842  10.306   6.789
 4233SOL     OW12948  14.095   4.235   5.026
 4233SOL    HW112949  14.181   4.251   5.064
 4233SOL    HW212950  14.093   4.141   5.010
 4234SOL     OW12951   7.538  13.530   5.976
 4234SOL    HW112952   7.607  13.556   6.038
 4234SOL    HW212953   7.582  13.528   5.891
 4235SOL     OW12954   2.691   6.229   3.469
 4235SOL    HW112955   2.680   6.255   3.378
 4235SOL    HW212956   2.689   6.311   3.518
 4236SOL     OW12957   9.941  13.054   6.381
 4236SOL    HW112958   9.861  13.020   6.339
 4236SOL    HW212959   9.977  13.116   6.318
 4237SOL     OW12960   9.306   9.050   4.791
 4237SOL    HW112961   9.248   9.126   4.800
 4237SOL    HW212962   9.247   8.978   4.767
 4238SOL     OW12963   9.270   5.858   2.407
 4238SOL    HW112964   9.262   5.904   2.491
 4238SOL    HW212965   9.288   5.927   2.344
 4239SOL     OW12966  10.463  13.313   5.521
 4239SOL    HW112967  10.535  13.356   5.476
 4239SOL    HW212968  10.506  13.253   5.583
 4240SOL     OW12969  11.561  10.203   4.825
 4240SOL    HW112970  11.524  10.183   4.911
 4240SOL    HW212971  11.543  10.124   4.773
 4241SOL     OW12972  10.582   9.845   0.215
 4241SOL    HW112973  10.544   9.813   0.296
 4241SOL    HW212974  10.676   9.834   0.226
 4242SOL     OW12975  10.170   1.510   1.469
 4242SOL    HW112976  10.113   1.566   1.522
 4242SOL    HW212977  10.256   1.518   1.510
 4243SOL     OW12978   7.949   6.095   7.216
 4243SOL    HW112979   7.970   6.147   7.293
 4243SOL    HW212980   7.906   6.156   7.156
 4244SOL     OW12981   9.440   8.701   4.649
 4244SOL    HW112982   9.476   8.757   4.718
 4244SOL    HW212983   9.515   8.679   4.594
 4245SOL     OW12984   8.862   7.440   3.667
 4245SOL    HW112985   8.814   7.521   3.649
 4245SOL    HW212986   8.795   7.375   3.685
 4246SOL     OW12987   8.204   1.971   0.401
 4246SOL    HW112988   8.184   2.055   0.360
 4246SOL    HW212989   8.239   1.994   0.487
 4247SOL     OW12990  10.637   6.550   3.616
 4247SOL    HW112991  10.708   6.487   3.628
 4247SOL    HW212992  10.609   6.572   3.705
 4248SOL     OW12993   7.318  10.979   5.746
 4248SOL    HW112994   7.280  10.983   5.834
 4248SOL    HW212995   7.411  10.962   5.761
 4249SOL     OW12996   9.062   9.610   6.219
 4249SOL    HW112997   9.054   9.703   6.243
 4249SOL    HW212998   9.019   9.604   6.134
 4250SOL     OW12999   7.787   9.569   1.336
 4250SOL    HW113000   7.783   9.618   1.419
 4250SOL    HW213001   7.869   9.599   1.296
 4251SOL     OW13002   6.173   2.064   2.457
 4251SOL    HW113003   6.171   2.141   2.401
 4251SOL    HW213004   6.174   1.990   2.396
 4252SOL     OW13005   3.173   3.830   2.925
 4252SOL    HW113006   3.133   3.869   3.003
 4252SOL    HW213007   3.100   3.793   2.877
 4253SOL     OW13008   2.388   7.090   1.692
 4253SOL    HW113009   2.465   7.034   1.705
 4253SOL    HW213010   2.313   7.034   1.711
 4254SOL     OW13011   7.850   4.931   5.882
 4254SOL    HW113012   7.765   4.949   5.842
 4254SOL    HW213013   7.897   5.014   5.877
 4255SOL     OW13014   7.672   8.685   2.266
 4255SOL    HW113015   7.611   8.633   2.319
 4255SOL    HW213016   7.693   8.760   2.322
 4256SOL     OW13017   3.962  11.196   0.687
 4256SOL    HW113018   3.889  11.191   0.749
 4256SOL    HW213019   3.921  11.186   0.601
 4257SOL     OW13020   7.209   5.538   2.992
 4257SOL    HW113021   7.300   5.513   3.012
 4257SOL    HW213022   7.218   5.616   2.937
 4258SOL     OW13023  14.355   9.145   7.428
 4258SOL    HW113024  14.358   9.223   7.373
 4258SOL    HW213025  14.340   9.179   7.517
 4259SOL     OW13026   4.010   9.917   5.609
 4259SOL    HW113027   3.995   9.827   5.579
 4259SOL    HW213028  14.700   9.960   5.602
 4260SOL     OW13029  11.565  11.887   6.776
 4260SOL    HW113030  11.639  11.945   6.759
 4260SOL    HW213031  11.553  11.839   6.694
 4261SOL     OW13032   9.365  14.356   7.473
 4261SOL    HW113033   9.334  14.300   7.402
 4261SOL    HW213034   9.433  14.305   7.516
 4262SOL     OW13035   8.201   2.711   2.416
 4262SOL    HW113036   8.188   2.722   2.510
 4262SOL    HW213037   8.287   2.669   2.408
 4263SOL     OW13038  12.709   8.970   4.087
 4263SOL    HW113039  12.801   8.996   4.078
 4263SOL    HW213040  12.673   8.981   3.999
 4264SOL     OW13041   6.557   5.552   1.960
 4264SOL    HW113042   6.489   5.590   2.015
 4264SOL    HW213043   6.614   5.505   2.020
 4265SOL     OW13044   9.122   6.998   0.600
 4265SOL    HW113045   9.026   7.005   0.598
 4265SOL    HW213046   9.142   6.965   0.688
 4266SOL     OW13047   6.442   5.537   4.096
 4266SOL    HW113048   6.476   5.552   4.007
 4266SOL    HW213049   6.385   5.461   4.087
 4267SOL     OW13050   7.831  10.626   6.616
 4267SOL    HW113051   7.845  10.535   6.588
 4267SOL    HW213052   7.742  10.646   6.588
 4268SOL     OW13053   8.761  10.912   6.862
 4268SOL    HW113054   8.827  10.980   6.875
 4268SOL    HW213055   8.755  10.868   6.947
 4269SOL     OW13056   9.433   2.276   1.163
 4269SOL    HW113057   9.373   2.349   1.180
 4269SOL    HW213058   9.518   2.308   1.192
 4270SOL     OW13059  12.834  11.418   4.136
 4270SOL    HW113060  12.926  11.393   4.140
 4270SOL    HW213061  12.827  11.469   4.055
 4271SOL     OW13062  14.444  10.707   7.416
 4271SOL    HW113063  14.392  10.783   7.442
 4271SOL    HW213064  14.534  10.733   7.430
 4272SOL     OW13065   4.270   4.560   2.561
 4272SOL    HW113066   4.272   4.628   2.628
 4272SOL    HW213067   4.196   4.584   2.505
 4273SOL     OW13068   5.216   9.524   1.004
 4273SOL    HW113069   5.241   9.615   0.989
 4273SOL    HW213070   5.219   9.514   1.099
 4274SOL     OW13071  11.129  13.090   6.204
 4274SOL    HW113072  11.174  13.120   6.283
 4274SOL    HW213073  11.045  13.136   6.206
 4275SOL     OW13074   2.594   2.586   0.758
 4275SOL    HW113075   2.543   2.581   0.677
 4275SOL    HW213076   2.643   2.503   0.760
 4276SOL     OW13077  15.208   5.916   7.423
 4276SOL    HW113078  15.129   5.873   7.455
 4276SOL    HW213079  15.257   5.940   7.502
 4277SOL     OW13080  13.841   8.050   6.959
 4277SOL    HW113081  13.831   7.978   6.897
 4277SOL    HW213082  13.838   8.129   6.905
 4278SOL     OW13083   5.122  13.953   5.654
 4278SOL    HW113084   5.120  14.016   5.582
 4278SOL    HW213085   5.177  13.881   5.622
 4279SOL     OW13086  10.446   2.759   2.255
 4279SOL    HW113087  10.467   2.731   2.166
 4279SOL    HW213088  10.530   2.781   2.294
 4280SOL     OW13089  15.399   7.476   6.761
 4280SOL    HW113090  15.423   7.384   6.753
 4280SOL    HW213091  15.413   7.497   6.854
 4281SOL     OW13092  11.185   7.021   1.042
 4281SOL    HW113093  11.121   6.949   1.038
 4281SOL    HW213094  11.134   7.096   1.071
 4282SOL     OW13095   7.238   6.472   5.080
 4282SOL    HW113096   7.199   6.493   4.995
 4282SOL    HW213097   7.280   6.553   5.108
 4283SOL     OW13098   7.258  12.160   5.793
 4283SOL    HW113099   7.289  12.225   5.856
 4283SOL    HW213100   7.213  12.094   5.846
 4284SOL     OW13101   4.391  12.593   4.466
 4284SOL    HW113102   4.321  12.656   4.487
 4284SOL    HW213103   4.469  12.629   4.509
 4285SOL     OW13104   9.089  14.786   5.821
 4285SOL    HW113105   9.170  14.736   5.835
 4285SOL    HW213106   9.118  14.877   5.818
 4286SOL     OW13107   7.430   9.816   2.920
 4286SOL    HW113108   7.464   9.752   2.982
 4286SOL    HW213109   7.504   9.874   2.903
 4287SOL     OW13110   3.634   5.966   0.988
 4287SOL    HW113111   3.704   6.030   0.972
 4287SOL    HW213112   3.603   5.985   1.076
 4288SOL     OW13113   6.096   6.772   0.119
 4288SOL    HW113114   6.012   6.779   0.164
 4288SOL    HW213115   6.160   6.800   0.184
 4289SOL     OW13116   5.442   2.424   1.624
 4289SOL    HW113117   5.494   2.347   1.646
 4289SOL    HW213118   5.501   2.498   1.640
 4290SOL     OW13119   1.100   1.323   1.466
 4290SOL    HW113120   1.044   1.261   1.418
 4290SOL    HW213121   1.081   1.408   1.426
 4291SOL     OW13122   5.550  11.294   1.687
 4291SOL    HW113123   5.508  11.209   1.674
 4291SOL    HW213124   5.481  11.358   1.673
 4292SOL     OW13125  10.943   1.437   2.026
 4292SOL    HW113126  10.850   1.459   2.021
 4292SOL    HW213127  10.987   1.521   2.027
 4293SOL     OW13128   5.863   6.157   1.402
 4293SOL    HW113129   5.920   6.098   1.450
 4293SOL    HW213130   5.874   6.132   1.310
 4294SOL     OW13131  12.857   4.132   5.121
 4294SOL    HW113132  12.888   4.044   5.143
 4294SOL    HW213133  12.937   4.185   5.120
 4295SOL     OW13134  11.407  14.162   5.530
 4295SOL    HW113135  11.412  14.257   5.520
 4295SOL    HW213136  11.483  14.141   5.585
 4296SOL     OW13137   8.164   3.996   0.510
 4296SOL    HW113138   8.136   4.082   0.478
 4296SOL    HW213139   8.163   4.005   0.606
 4297SOL     OW13140  11.455  12.036   5.467
 4297SOL    HW113141  11.488  12.005   5.551
 4297SOL    HW213142  11.516  12.105   5.441
 4298SOL     OW13143   0.823   4.954   0.366
 4298SOL    HW113144   0.806   5.045   0.391
 4298SOL    HW213145   0.913   4.953   0.334
 4299SOL     OW13146  10.709  12.146   2.969
 4299SOL    HW113147  10.763  12.179   3.040
 4299SOL    HW213148  10.627  12.120   3.011
 4300SOL     OW13149   6.872   8.845   1.207
 4300SOL    HW113150   6.787   8.804   1.191
 4300SOL    HW213151   6.880   8.912   1.139
 4301SOL     OW13152   6.425   6.460   3.648
 4301SOL    HW113153   6.449   6.552   3.636
 4301SOL    HW213154   6.485   6.428   3.715
 4302SOL     OW13155   9.118   3.827   4.567
 4302SOL    HW113156   9.045   3.871   4.522
 4302SOL    HW213157   9.098   3.734   4.558
 4303SOL     OW13158   3.179   7.868   3.682
 4303SOL    HW113159   3.201   7.792   3.737
 4303SOL    HW213160   3.194   7.944   3.739
 4304SOL     OW13161   4.452  12.715   5.139
 4304SOL    HW113162   4.502  12.646   5.096
 4304SOL    HW213163   4.364  12.707   5.102
 4305SOL     OW13164   7.839   5.312   0.093
 4305SOL    HW113165   7.911   5.270   0.139
 4305SOL    HW213166   7.769   5.318   0.159
 4306SOL     OW13167  14.428  14.127   6.529
 4306SOL    HW113168  14.449  14.100   6.439
 4306SOL    HW213169  14.475  14.209   6.541
 4307SOL     OW13170  14.069  11.326   6.506
 4307SOL    HW113171  14.007  11.282   6.564
 4307SOL    HW213172  14.023  11.334   6.422
 4308SOL     OW13173  12.423   8.157   3.729
 4308SOL    HW113174  12.407   8.139   3.637
 4308SOL    HW213175  12.361   8.100   3.776
 4309SOL     OW13176   8.646   7.585   4.305
 4309SOL    HW113177   8.721   7.539   4.343
 4309SOL    HW213178   8.669   7.597   4.213
 4310SOL     OW13179  11.023   7.863   5.707
 4310SOL    HW113180  11.006   7.910   5.625
 4310SOL    HW213181  11.117   7.844   5.704
 4311SOL     OW13182   3.556   2.890   0.770
 4311SOL    HW113183   3.544   2.876   0.864
 4311SOL    HW213184   3.558   2.802   0.733
 4312SOL     OW13185  12.016   2.692   3.616
 4312SOL    HW113186  12.042   2.669   3.526
 4312SOL    HW213187  11.925   2.664   3.623
 4313SOL     OW13188  13.410   7.206   6.954
 4313SOL    HW113189  13.496   7.167   6.971
 4313SOL    HW213190  13.404   7.278   7.017
 4314SOL     OW13191   3.651  11.242   3.059
 4314SOL    HW113192   3.590  11.252   3.132
 4314SOL    HW213193   3.595  11.219   2.985
 4315SOL     OW13194  11.649  12.148   4.253
 4315SOL    HW113195  11.603  12.226   4.223
 4315SOL    HW213196  11.645  12.088   4.179
 4316SOL     OW13197   7.559   4.237   0.513
 4316SOL    HW113198   7.538   4.293   0.439
 4316SOL    HW213199   7.475   4.199   0.539
 4317SOL     OW13200  11.209   8.045   6.059
 4317SOL    HW113201  11.188   8.107   5.988
 4317SOL    HW213202  11.172   7.962   6.029
 4318SOL     OW13203   6.214  11.465   1.194
 4318SOL    HW113204   6.155  11.541   1.201
 4318SOL    HW213205   6.165  11.393   1.233
 4319SOL     OW13206   7.024   2.442   0.247
 4319SOL    HW113207   6.985   2.454   0.334
 4319SOL    HW213208   7.090   2.512   0.241
 4320SOL     OW13209  11.940   8.047   4.068
 4320SOL    HW113210  11.999   8.117   4.096
 4320SOL    HW213211  11.912   8.005   4.150
 4321SOL     OW13212  14.399   5.652   7.507
 4321SOL    HW113213  14.380   5.558   7.510
 4321SOL    HW213214  14.462   5.666   7.577
 4322SOL     OW13215   9.908   4.630   1.501
 4322SOL    HW113216   9.996   4.665   1.489
 4322SOL    HW213217   9.851   4.707   1.498
 4323SOL     OW13218  10.895   9.128   4.955
 4323SOL    HW113219  10.905   9.135   4.860
 4323SOL    HW213220  10.800   9.131   4.969
 4324SOL     OW13221   3.138   6.291   0.680
 4324SOL    HW113222   3.230   6.282   0.655
 4324SOL    HW213223   3.127   6.228   0.752
 4325SOL     OW13224  12.092  15.296   6.772
 4325SOL    HW113225  12.150  15.258   6.706
 4325SOL    HW213226  12.090  15.390   6.751
 4326SOL     OW13227   8.992  11.313   4.643
 4326SOL    HW113228   9.031  11.396   4.671
 4326SOL    HW213229   8.900  11.333   4.626
 4327SOL     OW13230   9.889   5.985   4.882
 4327SOL    HW113231   9.919   5.909   4.933
 4327SOL    HW213232   9.830   5.949   4.816
 4328SOL     OW13233  11.445  14.332   7.512
 4328SOL    HW113234  11.459  14.309   7.420
 4328SOL    HW213235  11.353  14.357   7.517
 4329SOL     OW13236   7.989   3.870   3.647
 4329SOL    HW113237   7.900   3.897   3.628
 4329SOL    HW213238   8.000   3.788   3.598
 4330SOL     OW13239  11.999   5.744   4.470
 4330SOL    HW113240  12.036   5.658   4.451
 4330SOL    HW213241  12.058   5.806   4.427
 4331SOL     OW13242   8.017   4.629   5.111
 4331SOL    HW113243   8.083   4.694   5.085
 4331SOL    HW213244   8.066   4.564   5.161
 4332SOL     OW13245   3.903  10.155   2.414
 4332SOL    HW113246   3.833  10.170   2.478
 4332SOL    HW213247   3.861  10.172   2.329
 4333SOL     OW13248   9.798   7.846   2.660
 4333SOL    HW113249   9.727   7.807   2.609
 4333SOL    HW213250   9.806   7.791   2.737
 4334SOL     OW13251   7.277   6.049   1.184
 4334SOL    HW113252   7.355   6.073   1.235
 4334SOL    HW213253   7.291   5.957   1.163
 4335SOL     OW13254   4.653   3.675   3.531
 4335SOL    HW113255   4.643   3.653   3.624
 4335SOL    HW213256   4.685   3.765   3.532
 4336SOL     OW13257   6.426   9.989   5.625
 4336SOL    HW113258   6.353   9.944   5.668
 4336SOL    HW213259   6.393  10.008   5.537
 4337SOL     OW13260   5.783   8.445   2.021
 4337SOL    HW113261   5.694   8.425   2.050
 4337SOL    HW213262   5.840   8.403   2.086
 4338SOL     OW13263   9.544   4.537   1.827
 4338SOL    HW113264   9.551   4.443   1.839
 4338SOL    HW213265   9.514   4.547   1.737
 4339SOL     OW13266   5.575   9.691   4.789
 4339SOL    HW113267   5.575   9.719   4.881
 4339SOL    HW213268   5.566   9.596   4.793
 4340SOL     OW13269   2.047   3.885   2.843
 4340SOL    HW113270   2.128   3.836   2.854
 4340SOL    HW213271   2.067   3.973   2.876
 4341SOL     OW13272  10.855   4.450   5.005
 4341SOL    HW113273  10.845   4.369   5.056
 4341SOL    HW213274  10.891   4.421   4.922
 4342SOL     OW13275   9.083  14.440   5.240
 4342SOL    HW113276   9.175  14.449   5.215
 4342SOL    HW213277   9.040  14.407   5.161
 4343SOL     OW13278   8.939   5.296   3.210
 4343SOL    HW113279   8.902   5.253   3.133
 4343SOL    HW213280   9.025   5.254   3.221
 4344SOL     OW13281  12.412  14.171   5.764
 4344SOL    HW113282  12.506  14.168   5.784
 4344SOL    HW213283  12.404  14.241   5.700
 4345SOL     OW13284   8.179  10.837   3.044
 4345SOL    HW113285   8.237  10.762   3.057
 4345SOL    HW213286   8.186  10.887   3.125
 4346SOL     OW13287   6.945   0.335   0.223
 4346SOL    HW113288   7.018   0.276   0.204
 4346SOL    HW213289   6.920   0.372   0.138
 4347SOL     OW13290   6.858   7.292   7.270
 4347SOL    HW113291   6.826   7.368   7.318
 4347SOL    HW213292   6.779   7.254   7.231
 4348SOL     OW13293  12.401   5.324   3.410
 4348SOL    HW113294  12.418   5.391   3.343
 4348SOL    HW213295  12.483   5.318   3.459
 4349SOL     OW13296  10.486   9.024   5.287
 4349SOL    HW113297  10.499   9.119   5.285
 4349SOL    HW213298  10.391   9.012   5.286
 4350SOL     OW13299  10.299   8.738   1.124
 4350SOL    HW113300  10.363   8.730   1.053
 4350SOL    HW213301  10.353   8.746   1.203
 4351SOL     OW13302   4.450   7.428   1.419
 4351SOL    HW113303   4.493   7.466   1.343
 4351SOL    HW213304   4.389   7.364   1.383
 4352SOL     OW13305   4.923   1.007   0.668
 4352SOL    HW113306   4.940   1.040   0.579
 4352SOL    HW213307   4.969   1.068   0.725
 4353SOL     OW13308   3.338  11.067   1.993
 4353SOL    HW113309   3.375  11.119   1.921
 4353SOL    HW213310   3.345  10.976   1.962
 4354SOL     OW13311  12.495   9.221   2.501
 4354SOL    HW113312  12.454   9.193   2.419
 4354SOL    HW213313   1.770   9.300   2.477
 4355SOL     OW13314  10.092   9.663   3.942
 4355SOL    HW113315  10.093   9.720   3.865
 4355SOL    HW213316  10.074   9.721   4.015
 4356SOL     OW13317   8.875   6.455   4.028
 4356SOL    HW113318   8.911   6.381   4.076
 4356SOL    HW213319   8.939   6.525   4.039
 4357SOL     OW13320   8.483   5.732   0.982
 4357SOL    HW113321   8.501   5.652   0.933
 4357SOL    HW213322   8.438   5.788   0.920
 4358SOL     OW13323   3.244   6.479   0.122
 4358SOL    HW113324   3.313   6.447   0.180
 4358SOL    HW213325   3.194   6.540   0.177
 4359SOL     OW13326   5.671  14.713   6.167
 4359SOL    HW113327   5.713  14.638   6.209
 4359SOL    HW213328   5.737  14.783   6.171
 4360SOL     OW13329   9.369  12.069   2.482
 4360SOL    HW113330   9.286  12.057   2.436
 4360SOL    HW213331   9.435  12.065   2.413
 4361SOL     OW13332  11.794   6.561   6.864
 4361SOL    HW113333  11.701   6.580   6.853
 4361SOL    HW213334  11.797   6.496   6.935
 4362SOL     OW13335   8.620   6.860   0.095
 4362SOL    HW113336   8.635   6.954   0.097
 4362SOL    HW213337   8.541   6.849   0.043
 4363SOL     OW13338  12.492  11.828   2.481
 4363SOL    HW113339  12.489  11.794   2.570
 4363SOL    HW213340   1.777  11.770   2.434
 4364SOL     OW13341   6.726   7.594   7.036
 4364SOL    HW113342   6.681   7.651   7.099
 4364SOL    HW213343   6.662   7.527   7.014
 4365SOL     OW13344   5.664  12.681   5.212
 4365SOL    HW113345   5.687  12.652   5.124
 4365SOL    HW213346   5.604  12.754   5.198
 4366SOL     OW13347   6.124   6.975   0.691
 4366SOL    HW113348   6.190   7.036   0.727
 4366SOL    HW213349   6.135   6.896   0.744
 4367SOL     OW13350  10.653  10.719   0.659
 4367SOL    HW113351  10.573  10.707   0.710
 4367SOL    HW213352  10.641  10.804   0.616
 4368SOL     OW13353   7.743  13.002   6.546
 4368SOL    HW113354   7.802  13.039   6.480
 4368SOL    HW213355   7.663  13.054   6.539
 4369SOL     OW13356  12.252   5.724   3.292
 4369SOL    HW113357  12.341   5.759   3.303
 4369SOL    HW213358  12.195   5.790   3.332
 4370SOL     OW13359   7.419  10.677   3.326
 4370SOL    HW113360   7.393  10.586   3.312
 4370SOL    HW213361   7.358  10.729   3.273
 4371SOL     OW13362  13.218  11.012   5.309
 4371SOL    HW113363  13.313  11.019   5.304
 4371SOL    HW213364  13.190  11.097   5.345
 4372SOL     OW13365   1.093  10.080   0.658
 4372SOL    HW113366   0.999  10.075   0.646
 4372SOL    HW213367   1.127  10.101   0.571
 4373SOL     OW13368  12.524   6.852   3.800
 4373SOL    HW113369  12.529   6.829   3.893
 4373SOL    HW213370  12.493   6.772   3.758
 4374SOL     OW13371   8.154   9.947   4.793
 4374SOL    HW113372   8.120   9.864   4.758
 4374SOL    HW213373   8.245   9.950   4.763
 4375SOL     OW13374   5.367   4.566   4.359
 4375SOL    HW113375   5.337   4.656   4.348
 4375SOL    HW213376   5.374   4.554   4.453
 4376SOL     OW13377   8.129   9.247   3.898
 4376SOL    HW113378   8.206   9.191   3.884
 4376SOL    HW213379   8.124   9.301   3.819
 4377SOL     OW13380  10.251   6.399   6.655
 4377SOL    HW113381  10.283   6.316   6.621
 4377SOL    HW213382  10.307   6.465   6.613
 4378SOL     OW13383  10.254   6.169   5.559
 4378SOL    HW113384  10.195   6.164   5.635
 4378SOL    HW213385  10.219   6.105   5.497
 4379SOL     OW13386   7.721  10.645   5.892
 4379SOL    HW113387   7.719  10.730   5.847
 4379SOL    HW213388   7.769  10.662   5.973
 4380SOL     OW13389  13.830   9.758   5.219
 4380SOL    HW113390  13.799   9.808   5.143
 4380SOL    HW213391  13.794   9.804   5.295
 4381SOL     OW13392   7.776  10.038   0.744
 4381SOL    HW113393   7.793  10.021   0.837
 4381SOL    HW213394   7.860  10.023   0.701
 4382SOL     OW13395   7.607   7.362   1.269
 4382SOL    HW113396   7.610   7.303   1.193
 4382SOL    HW213397   7.589   7.448   1.232
 4383SOL     OW13398   8.029   8.292   3.349
 4383SOL    HW113399   8.064   8.215   3.395
 4383SOL    HW213400   7.966   8.256   3.286
 4384SOL     OW13401   8.358   5.111   4.993
 4384SOL    HW113402   8.300   5.186   4.986
 4384SOL    HW213403   8.430   5.141   5.049
 4385SOL     OW13404   4.951   7.684   4.794
 4385SOL    HW113405   4.963   7.591   4.808
 4385SOL    HW213406   4.892   7.712   4.865
 4386SOL     OW13407  12.722   4.362   5.278
 4386SOL    HW113408  12.781   4.345   5.351
 4386SOL    HW213409  12.771   4.333   5.201
 4387SOL     OW13410   9.973  12.121   5.688
 4387SOL    HW113411  10.063  12.139   5.661
 4387SOL    HW213412   9.981  12.089   5.778
 4388SOL     OW13413   7.748   7.068   1.143
 4388SOL    HW113414   7.766   7.003   1.075
 4388SOL    HW213415   7.656   7.053   1.166
 4389SOL     OW13416  10.130  11.848   5.617
 4389SOL    HW113417  10.176  11.770   5.587
 4389SOL    HW213418  10.117  11.900   5.539
 4390SOL     OW13419   3.723   8.312   3.646
 4390SOL    HW113420   3.677   8.236   3.612
 4390SOL    HW213421   3.814   8.285   3.652
 4391SOL     OW13422   4.741  13.489   4.772
 4391SOL    HW113423   4.710  13.568   4.728
 4391SOL    HW213424   4.697  13.490   4.857
 4392SOL     OW13425  11.614  12.498   5.316
 4392SOL    HW113426  11.607  12.587   5.352
 4392SOL    HW213427  11.575  12.503   5.229
 4393SOL     OW13428   8.004  12.499   6.358
 4393SOL    HW113429   7.960  12.541   6.284
 4393SOL    HW213430   8.060  12.568   6.395
 4394SOL     OW13431  12.690   4.179   4.473
 4394SOL    HW113432  12.749   4.254   4.465
 4394SOL    HW213433  12.608   4.209   4.432
 4395SOL     OW13434   1.830   1.706   1.836
 4395SOL    HW113435   1.887   1.745   1.902
 4395SOL    HW213436   1.757   1.669   1.885
 4396SOL     OW13437   6.487   9.753   2.614
 4396SOL    HW113438   6.479   9.807   2.693
 4396SOL    HW213439   6.475   9.814   2.542
 4397SOL     OW13440   5.887  13.539   5.939
 4397SOL    HW113441   5.802  13.508   5.909
 4397SOL    HW213442   5.872  13.629   5.965
 4398SOL     OW13443   9.476   9.514   0.437
 4398SOL    HW113444   9.515   9.435   0.476
 4398SOL    HW213445   9.533   9.534   0.363
 4399SOL     OW13446   3.081  10.566   1.984
 4399SOL    HW113447   3.070  10.573   1.889
 4399SOL    HW213448   3.068  10.655   2.016
 4400SOL     OW13449  12.995   8.191   5.351
 4400SOL    HW113450  12.901   8.208   5.346
 4400SOL    HW213451  13.033   8.274   5.379
 4401SOL     OW13452   8.300   4.520   5.883
 4401SOL    HW113453   8.291   4.431   5.848
 4401SOL    HW213454   8.394   4.531   5.896
 4402SOL     OW13455   9.579  13.298   5.973
 4402SOL    HW113456   9.532  13.325   5.894
 4402SOL    HW213457   9.653  13.246   5.940
 4403SOL     OW13458  10.879   8.787   3.038
 4403SOL    HW113459  10.908   8.847   3.107
 4403SOL    HW213460  10.918   8.703   3.061
 4404SOL     OW13461  11.960  11.930   4.717
 4404SOL    HW113462  11.879  11.951   4.764
 4404SOL    HW213463  11.976  11.838   4.737
 4405SOL     OW13464  10.443   6.525   4.591
 4405SOL    HW113465  10.495   6.507   4.513
 4405SOL    HW213466  10.390   6.446   4.603
 4406SOL     OW13467  12.133  12.685   5.172
 4406SOL    HW113468  12.153  12.692   5.079
 4406SOL    HW213469  12.135  12.775   5.204
 4407SOL     OW13470  10.776   8.748   3.446
 4407SOL    HW113471  10.802   8.827   3.398
 4407SOL    HW213472  10.852   8.728   3.501
 4408SOL     OW13473   9.324   1.364   1.885
 4408SOL    HW113474   9.418   1.350   1.899
 4408SOL    HW213475   9.318   1.400   1.796
 4409SOL     OW13476   4.078   9.686   3.948
 4409SOL    HW113477   4.091   9.623   4.019
 4409SOL    HW213478   4.002   9.737   3.976
 4410SOL     OW13479   3.986   4.991   3.015
 4410SOL    HW113480   4.079   4.980   3.031
 4410SOL    HW213481   3.964   5.076   3.055
 4411SOL     OW13482   3.019   9.714   2.573
 4411SOL    HW113483   3.077   9.696   2.647
 4411SOL    HW213484   2.931   9.713   2.610
 4412SOL     OW13485  12.001   7.404   2.065
 4412SOL    HW113486  11.916   7.438   2.094
 4412SOL    HW213487  12.022   7.335   2.128
 4413SOL     OW13488   5.788  11.090   2.303
 4413SOL    HW113489   5.856  11.023   2.307
 4413SOL    HW213490   5.720  11.059   2.363
 4414SOL     OW13491   3.677   6.479   4.875
 4414SOL    HW113492   3.637   6.476   4.788
 4414SOL    HW213493   3.713   6.567   4.882
 4415SOL     OW13494   8.595   9.089   7.307
 4415SOL    HW113495   8.651   9.039   7.367
 4415SOL    HW213496   8.635   9.176   7.303
 4416SOL     OW13497  11.337  12.764   6.824
 4416SOL    HW113498  11.256  12.732   6.864
 4416SOL    HW213499  11.359  12.843   6.873
 4417SOL     OW13500   4.489   3.779   0.012
 4417SOL    HW113501   9.918   9.160   7.545
 4417SOL    HW213502   4.503   3.694   0.052
 4418SOL     OW13503   2.655   2.686   1.496
 4418SOL    HW113504   2.626   2.629   1.424
 4418SOL    HW213505   2.574   2.707   1.544
 4419SOL     OW13506   4.929   3.966   0.104
 4419SOL    HW113507   4.951   3.874   0.115
 4419SOL    HW213508   4.908   3.997   0.192
 4420SOL     OW13509   3.460   2.732   3.246
 4420SOL    HW113510   3.381   2.695   3.206
 4420SOL    HW213511   3.517   2.752   3.172
 4421SOL     OW13512   8.667  11.353   0.880
 4421SOL    HW113513   8.675   0.649   0.815
 4421SOL    HW213514   8.630  11.280   0.831
 4422SOL     OW13515   4.976   5.654   0.203
 4422SOL    HW113516   4.901   5.707   0.176
 4422SOL    HW213517   5.033   5.652   0.127
 4423SOL     OW13518   6.416   4.247   0.299
 4423SOL    HW113519   6.491   4.252   0.357
 4423SOL    HW213520   6.450   4.271   0.213
 4424SOL     OW13521   7.506   7.939   0.258
 4424SOL    HW113522   7.449   7.977   0.325
 4424SOL    HW213523   7.587   7.990   0.264
 4425SOL     OW13524  10.909   3.330   1.313
 4425SOL    HW113525  10.853   3.258   1.282
 4425SOL    HW213526  10.990   3.287   1.341
 4426SOL     OW13527   9.347  11.384   5.759
 4426SOL    HW113528   9.359  11.304   5.809
 4426SOL    HW213529   9.319  11.449   5.824
 4427SOL     OW13530   9.129   6.803   3.120
 4427SOL    HW113531   9.120   6.885   3.072
 4427SOL    HW213532   9.220   6.777   3.107
 4428SOL     OW13533  11.320  10.477   1.033
 4428SOL    HW113534  11.377  10.459   0.958
 4428SOL    HW213535  11.234  10.494   0.994
 4429SOL     OW13536   9.163   2.513   2.974
 4429SOL    HW113537   9.203   2.559   2.901
 4429SOL    HW213538   9.201   2.553   3.052
 4430SOL     OW13539   7.518   8.344   4.690
 4430SOL    HW113540   7.522   8.430   4.649
 4430SOL    HW213541   7.424   8.329   4.704
 4431SOL     OW13542   9.267  10.719   4.483
 4431SOL    HW113543   9.224  10.789   4.532
 4431SOL    HW213544   9.228  10.638   4.517
 4432SOL     OW13545   7.398   4.781   6.139
 4432SOL    HW113546   7.494   4.786   6.145
 4432SOL    HW213547   7.367   4.816   6.222
 4433SOL     OW13548  14.729   6.622   6.543
 4433SOL    HW113549  14.747   6.713   6.564
 4433SOL    HW213550  14.637   6.622   6.514
 4434SOL     OW13551   4.127   6.784   1.450
 4434SOL    HW113552   4.104   6.840   1.376
 4434SOL    HW213553   4.212   6.816   1.479
 4435SOL     OW13554   2.133   1.869   0.002
 4435SOL    HW113555   2.149   1.804   0.069
 4435SOL    HW213556   7.538   7.211   7.538
 4436SOL     OW13557   5.442  11.753   6.539
 4436SOL    HW113558   5.391  11.738   6.460
 4436SOL    HW213559   5.529  11.777   6.507
 4437SOL     OW13560  13.161  10.472   5.840
 4437SOL    HW113561  13.115  10.521   5.908
 4437SOL    HW213562  13.251  10.463   5.873
 4438SOL     OW13563  11.385   3.251   3.886
 4438SOL    HW113564  11.410   3.233   3.976
 4438SOL    HW213565  11.294   3.222   3.879
 4439SOL     OW13566   3.713   7.898   3.955
 4439SOL    HW113567   3.709   7.992   3.937
 4439SOL    HW213568   3.686   7.857   3.872
 4440SOL     OW13569   8.898  11.053   4.898
 4440SOL    HW113570   8.826  11.091   4.849
 4440SOL    HW213571   8.940  10.993   4.836
 4441SOL     OW13572   6.780   4.244   2.161
 4441SOL    HW113573   6.727   4.316   2.125
 4441SOL    HW213574   6.732   4.165   2.137
 4442SOL     OW13575   9.812   8.099   5.564
 4442SOL    HW113576   9.892   8.052   5.589
 4442SOL    HW213577   9.799   8.077   5.472
 4443SOL     OW13578   5.499   1.843   1.057
 4443SOL    HW113579   5.583   1.799   1.061
 4443SOL    HW213580   5.516   1.923   1.008
 4444SOL     OW13581   7.696  14.877   6.438
 4444SOL    HW113582   7.715  14.890   6.531
 4444SOL    HW213583   7.624  14.937   6.419
 4445SOL     OW13584   2.701   3.587   0.411
 4445SOL    HW113585   2.751   3.525   0.463
 4445SOL    HW213586   2.666   3.536   0.338
 4446SOL     OW13587   7.853  14.587   5.626
 4446SOL    HW113588   7.810  14.507   5.596
 4446SOL    HW213589   7.781  14.647   5.646
 4447SOL     OW13590   8.785   2.188   1.127
 4447SOL    HW113591   8.744   2.103   1.113
 4447SOL    HW213592   8.717   2.240   1.170
 4448SOL     OW13593  14.496   9.997   5.450
 4448SOL    HW113594  14.526   9.944   5.524
 4448SOL    HW213595  14.511   9.941   5.374
 4449SOL     OW13596  11.663   8.735   4.775
 4449SOL    HW113597  11.621   8.713   4.858
 4449SOL    HW213598  11.754   8.754   4.799
 4450SOL     OW13599   7.137   4.906   1.827
 4450SOL    HW113600   7.111   4.976   1.766
 4450SOL    HW213601   7.076   4.913   1.900
 4451SOL     OW13602  10.121   4.340   4.496
 4451SOL    HW113603  10.147   4.431   4.508
 4451SOL    HW213604  10.064   4.321   4.571
 4452SOL     OW13605   7.710  12.903   5.138
 4452SOL    HW113606   7.791  12.871   5.097
 4452SOL    HW213607   7.678  12.829   5.188
 4453SOL     OW13608   8.540   1.284   0.065
 4453SOL    HW113609  13.878   6.714   7.613
 4453SOL    HW213610   8.552   1.194   0.034
 4454SOL     OW13611   8.946   4.306   1.653
 4454SOL    HW113612   8.944   4.383   1.711
 4454SOL    HW213613   8.922   4.233   1.709
 4455SOL     OW13614   4.925   7.251   1.112
 4455SOL    HW113615   4.844   7.293   1.140
 4455SOL    HW213616   4.897   7.182   1.053
 4456SOL     OW13617   6.212   8.571   2.420
 4456SOL    HW113618   6.291   8.570   2.366
 4456SOL    HW213619   6.167   8.489   2.399
 4457SOL     OW13620   6.678   3.448   0.010
 4457SOL    HW113621  12.047   8.787   7.548
 4457SOL    HW213622  12.049   8.927   7.607
 4458SOL     OW13623   9.462  11.767   1.980
 4458SOL    HW113624   9.470  11.672   1.992
 4458SOL    HW213625   9.544  11.803   2.015
 4459SOL     OW13626  11.353   6.061   2.784
 4459SOL    HW113627  11.407   6.052   2.706
 4459SOL    HW213628  11.305   6.142   2.771
 4460SOL     OW13629   5.429   6.530   1.765
 4460SOL    HW113630   5.491   6.591   1.804
 4460SOL    HW213631   5.457   6.520   1.675
 4461SOL     OW13632  10.438   9.577   4.831
 4461SOL    HW113633  10.502   9.545   4.895
 4461SOL    HW213634  10.355   9.540   4.859
 4462SOL     OW13635   4.411   7.695   0.350
 4462SOL    HW113636   4.329   7.740   0.333
 4462SOL    HW213637   4.476   7.744   0.299
 4463SOL     OW13638   5.883  13.878   5.233
 4463SOL    HW113639   5.880  13.784   5.214
 4463SOL    HW213640   5.944  13.886   5.307
 4464SOL     OW13641   8.950  10.148   4.281
 4464SOL    HW113642   8.950  10.113   4.370
 4464SOL    HW213643   8.964  10.072   4.225
 4465SOL     OW13644   6.640   7.615   1.471
 4465SOL    HW113645   6.554   7.575   1.456
 4465SOL    HW213646   6.688   7.550   1.523
 4466SOL     OW13647   9.065   2.337   0.396
 4466SOL    HW113648   9.017   2.361   0.317
 4466SOL    HW213649   9.041   2.246   0.412
 4467SOL     OW13650   5.334   9.830   2.647
 4467SOL    HW113651   5.386   9.751   2.634
 4467SOL    HW213652   5.261   9.803   2.701
 4468SOL     OW13653   6.338  15.812   7.353
 4468SOL    HW113654   6.336  15.827   7.258
 4468SOL    HW213655   6.340  15.717   7.362
 4469SOL     OW13656   4.044   9.951   0.678
 4469SOL    HW113657   4.061  10.034   0.723
 4469SOL    HW213658   3.999   9.976   0.598
 4470SOL     OW13659  12.518   9.778   3.757
 4470SOL    HW113660  12.464   9.857   3.767
 4470SOL    HW213661  12.455   9.709   3.735
 4471SOL     OW13662  10.226   9.811   6.065
 4471SOL    HW113663  10.227   9.901   6.096
 4471SOL    HW213664  10.134   9.795   6.042
 4472SOL     OW13665   6.122   3.028   3.408
 4472SOL    HW113666   6.077   2.945   3.397
 4472SOL    HW213667   6.065   3.078   3.468
 4473SOL     OW13668  13.891   8.708   6.520
 4473SOL    HW113669  13.942   8.632   6.494
 4473SOL    HW213670  13.875   8.756   6.438
 4474SOL     OW13671  14.428   6.002   5.933
 4474SOL    HW113672  14.472   5.983   6.016
 4474SOL    HW213673  14.421   5.916   5.890
 4475SOL     OW13674  13.392  12.151   7.186
 4475SOL    HW113675  13.428  12.239   7.201
 4475SOL    HW213676  13.467  12.100   7.157
 4476SOL     OW13677  11.480   7.521   2.531
 4476SOL    HW113678  11.524   7.582   2.473
 4476SOL    HW213679  11.499   7.435   2.495
 4477SOL     OW13680   5.597   3.998   5.132
 4477SOL    HW113681   5.509   4.034   5.133
 4477SOL    HW213682   5.616   3.986   5.039
 4478SOL     OW13683  12.735   9.554   6.339
 4478SOL    HW113684  12.714   9.564   6.246
 4478SOL    HW213685  12.653   9.526   6.379
 4479SOL     OW13686  10.639   3.853   4.749
 4479SOL    HW113687  10.686   3.845   4.665
 4479SOL    HW213688  10.669   3.778   4.800
 4480SOL     OW13689  14.405  13.228   7.572
 4480SOL    HW113690  14.402  13.216   7.478
 4480SOL    HW213691  14.314  13.242   7.598
 4481SOL     OW13692   4.147   7.522   1.167
 4481SOL    HW113693   4.123   7.484   1.251
 4481SOL    HW213694   4.069   7.569   1.138
 4482SOL     OW13695   8.208   7.204   1.253
 4482SOL    HW113696   8.261   7.126   1.269
 4482SOL    HW213697   8.122   7.181   1.289
 4483SOL     OW13698  10.889   6.633   1.370
 4483SOL    HW113699  10.969   6.589   1.344
 4483SOL    HW213700  10.823   6.563   1.375
 4484SOL     OW13701  12.985   9.064   3.717
 4484SOL    HW113702  13.025   9.075   3.631
 4484SOL    HW213703  12.963   8.971   3.722
 4485SOL     OW13704   3.881   1.806   2.118
 4485SOL    HW113705   3.937   1.870   2.163
 4485SOL    HW213706   3.817   1.781   2.184
 4486SOL     OW13707  12.290   6.437   5.156
 4486SOL    HW113708  12.200   6.424   5.125
 4486SOL    HW213709  12.343   6.384   5.097
 4487SOL     OW13710   2.687   8.528   2.491
 4487SOL    HW113711   2.697   8.495   2.401
 4487SOL    HW213712   2.712   8.620   2.485
 4488SOL     OW13713   6.565   5.192   1.918
 4488SOL    HW113714   6.604   5.223   2.000
 4488SOL    HW213715   6.485   5.146   1.945
 4489SOL     OW13716   7.899   5.890   1.898
 4489SOL    HW113717   7.930   5.981   1.905
 4489SOL    HW213718   7.979   5.838   1.889
 4490SOL     OW13719  10.550  10.407   2.137
 4490SOL    HW113720  10.617  10.424   2.071
 4490SOL    HW213721  10.485  10.476   2.123
 4491SOL     OW13722   5.138   2.065   0.266
 4491SOL    HW113723   5.226   2.040   0.293
 4491SOL    HW213724   5.139   2.161   0.268
 4492SOL     OW13725  10.404  11.101   3.717
 4492SOL    HW113726  10.378  11.180   3.764
 4492SOL    HW213727  10.322  11.062   3.688
 4493SOL     OW13728  11.822  10.116   7.551
 4493SOL    HW113729  11.768  10.076   7.483
 4493SOL    HW213730  11.911  10.085   7.533
 4494SOL     OW13731  13.086   6.644   3.773
 4494SOL    HW113732  13.073   6.734   3.743
 4494SOL    HW213733  13.033   6.638   3.853
 4495SOL     OW13734   6.031   6.055   3.545
 4495SOL    HW113735   5.967   5.992   3.512
 4495SOL    HW213736   6.050   6.026   3.634
 4496SOL     OW13737   4.902   8.487   2.120
 4496SOL    HW113738   4.859   8.569   2.144
 4496SOL    HW213739   4.838   8.420   2.141
 4497SOL     OW13740   4.795   6.711   3.027
 4497SOL    HW113741   4.838   6.793   3.005
 4497SOL    HW213742   4.761   6.679   2.943
 4498SOL     OW13743   5.150   6.599   1.758
 4498SOL    HW113744   5.123   6.509   1.777
 4498SOL    HW213745   5.244   6.592   1.738
 4499SOL     OW13746   6.479   3.789   3.670
 4499SOL    HW113747   6.433   3.869   3.643
 4499SOL    HW213748   6.437   3.719   3.620
 4500SOL     OW13749   2.058   6.011   1.134
 4500SOL    HW113750   2.052   6.089   1.188
 4500SOL    HW213751   1.975   5.965   1.148
 4501SOL     OW13752   9.616  11.627   3.353
 4501SOL    HW113753   9.525  11.655   3.341
 4501SOL    HW213754   9.619  11.591   3.441
 4502SOL     OW13755  10.501   8.472   6.663
 4502SOL    HW113756  10.420   8.480   6.712
 4502SOL    HW213757  10.473   8.465   6.571
 4503SOL     OW13758  10.297   5.921   6.479
 4503SOL    HW113759  10.362   5.856   6.454
 4503SOL    HW213760  10.243   5.932   6.400
 4504SOL     OW13761   9.141  10.391   5.883
 4504SOL    HW113762   9.233  10.389   5.906
 4504SOL    HW213763   9.095  10.376   5.965
 4505SOL     OW13764   5.282   3.792   3.851
 4505SOL    HW113765   5.275   3.746   3.934
 4505SOL    HW213766   5.191   3.812   3.827
 4506SOL     OW13767  11.833   9.582   6.137
 4506SOL    HW113768  11.774   9.583   6.212
 4506SOL    HW213769  11.876   9.667   6.138
 4507SOL     OW13770   5.344   3.141   1.467
 4507SOL    HW113771   5.308   3.225   1.493
 4507SOL    HW213772   5.335   3.086   1.545
 4508SOL     OW13773   7.027  10.572   0.867
 4508SOL    HW113774   7.018  10.616   0.783
 4508SOL    HW213775   7.057  10.640   0.927
 4509SOL     OW13776   2.447  11.327   1.586
 4509SOL    HW113777   2.412  11.380   1.657
 4509SOL    HW213778   2.507  11.386   1.539
 4510SOL     OW13779  13.261   5.271   3.781
 4510SOL    HW113780  13.328   5.329   3.817
 4510SOL    HW213781  13.212   5.326   3.720
 4511SOL     OW13782   7.294  10.903   6.005
 4511SOL    HW113783   7.296  10.815   5.966
 4511SOL    HW213784   7.212  10.905   6.054
 4512SOL     OW13785   6.533   9.787   1.355
 4512SOL    HW113786   6.548   9.711   1.299
 4512SOL    HW213787   6.618   9.802   1.398
 4513SOL     OW13788   7.775  10.652   7.333
 4513SOL    HW113789   7.711  10.658   7.263
 4513SOL    HW213790   7.832  10.580   7.308
 4514SOL     OW13791  13.756   8.479   4.354
 4514SOL    HW113792  13.674   8.478   4.404
 4514SOL    HW213793  13.805   8.404   4.388
 4515SOL     OW13794   3.015   6.730   3.998
 4515SOL    HW113795   2.993   6.651   4.047
 4515SOL    HW213796   2.953   6.731   3.925
 4516SOL     OW13797  11.668   2.718   1.602
 4516SOL    HW113798  11.575   2.737   1.586
 4516SOL    HW213799  11.669   2.657   1.675
 4517SOL     OW13800  14.958  12.406   6.704
 4517SOL    HW113801  15.017  12.444   6.638
 4517SOL    HW213802  15.006  12.332   6.740
 4518SOL     OW13803   4.678   5.764   1.930
 4518SOL    HW113804   4.603   5.708   1.947
 4518SOL    HW213805   4.666   5.794   1.840
 4519SOL     OW13806  14.347   8.110   5.701
 4519SOL    HW113807  14.272   8.120   5.760
 4519SOL    HW213808  14.309   8.115   5.614
 4520SOL     OW13809   3.918   0.930   1.010
 4520SOL    HW113810   3.989   0.874   0.977
 4520SOL    HW213811   3.962   0.995   1.064
 4521SOL     OW13812  15.261   9.711   6.583
 4521SOL    HW113813  15.252   9.801   6.553
 4521SOL    HW213814  15.298   9.664   6.508
 4522SOL     OW13815   7.790   6.866   4.704
 4522SOL    HW113816   7.861   6.801   4.693
 4522SOL    HW213817   7.806   6.930   4.635
 4523SOL     OW13818   7.726   8.034   2.458
 4523SOL    HW113819   7.663   8.063   2.393
 4523SOL    HW213820   7.726   7.938   2.451
 4524SOL     OW13821  14.343   9.462   6.036
 4524SOL    HW113822  14.383   9.531   6.089
 4524SOL    HW213823  14.375   9.381   6.075
 4525SOL     OW13824   8.676  10.716   7.316
 4525SOL    HW113825   8.720  10.705   7.232
 4525SOL    HW213826   8.747  10.728   7.379
 4526SOL     OW13827  11.607   6.989   1.419
 4526SOL    HW113828  11.596   7.082   1.436
 4526SOL    HW213829  11.549   6.971   1.345
 4527SOL     OW13830   8.902   6.878   0.124
 4527SOL    HW113831   8.813   6.853   0.098
 4527SOL    HW213832   8.900   6.880   0.219
 4528SOL     OW13833   6.330  10.103   7.430
 4528SOL    HW113834   6.362  10.030   7.483
 4528SOL    HW213835   6.374  10.092   7.346
 4529SOL     OW13836   7.817   2.566   2.659
 4529SOL    HW113837   7.907   2.534   2.660
 4529SOL    HW213838   7.795   2.574   2.566
 4530SOL     OW13839   6.298   6.471   0.807
 4530SOL    HW113840   6.202   6.471   0.814
 4530SOL    HW213841   6.317   6.412   0.734
 4531SOL     OW13842   3.822  13.637   5.338
 4531SOL    HW113843  14.586  13.699   5.410
 4531SOL    HW213844  14.509  13.632   5.298
 4532SOL     OW13845   7.601  10.738   6.523
 4532SOL    HW113846   7.508  10.741   6.502
 4532SOL    HW213847   7.629  10.830   6.524
 4533SOL     OW13848   5.568   5.332   5.752
 4533SOL    HW113849   5.525   5.299   5.831
 4533SOL    HW213850   5.573   5.257   5.693
 4534SOL     OW13851  12.800  12.424   3.728
 4534SOL    HW113852  12.738  12.430   3.655
 4534SOL    HW213853  12.821  12.331   3.735
 4535SOL     OW13854   7.623  12.054   3.672
 4535SOL    HW113855   7.546  12.057   3.730
 4535SOL    HW213856   7.623  12.140   3.629
 4536SOL     OW13857   3.046  10.009   3.920
 4536SOL    HW113858   3.092  10.055   3.850
 4536SOL    HW213859   2.976  10.070   3.946
 4537SOL     OW13860   5.296   8.957   5.524
 4537SOL    HW113861   5.294   9.048   5.553
 4537SOL    HW213862   5.387   8.943   5.497
 4538SOL     OW13863   6.664   8.604   4.838
 4538SOL    HW113864   6.570   8.606   4.820
 4538SOL    HW213865   6.674   8.656   4.919
 4539SOL     OW13866  12.047  14.525   6.634
 4539SOL    HW113867  12.141  14.513   6.627
 4539SOL    HW213868  12.015  14.522   6.544
 4540SOL     OW13869  14.872  13.131   6.917
 4540SOL    HW113870  14.959  13.094   6.900
 4540SOL    HW213871  14.830  13.135   6.831
 4541SOL     OW13872  13.681   3.805   5.030
 4541SOL    HW113873  13.760   3.754   5.048
 4541SOL    HW213874  13.609   3.744   5.047
 4542SOL     OW13875   5.084   7.943   5.095
 4542SOL    HW113876   5.034   7.964   5.016
 4542SOL    HW213877   5.155   7.888   5.064
 4543SOL     OW13878  11.237  13.241   6.408
 4543SOL    HW113879  11.309  13.212   6.464
 4543SOL    HW213880  11.261  13.330   6.382
 4544SOL     OW13881   4.397   9.024   0.252
 4544SOL    HW113882   4.327   9.042   0.315
 4544SOL    HW213883   4.365   8.950   0.201
 4545SOL     OW13884  12.207   3.730   4.394
 4545SOL    HW113885  12.162   3.647   4.407
 4545SOL    HW213886  12.231   3.759   4.482
 4546SOL     OW13887  11.937   7.415   3.657
 4546SOL    HW113888  11.971   7.417   3.747
 4546SOL    HW213889  11.843   7.430   3.666
 4547SOL     OW13890   5.040  11.260   7.042
 4547SOL    HW113891   5.107  11.214   6.992
 4547SOL    HW213892  15.748  11.194   7.061
 4548SOL     OW13893  10.267  15.184   6.996
 4548SOL    HW113894  10.217  15.250   7.043
 4548SOL    HW213895  10.326  15.234   6.940
 4549SOL     OW13896   5.946  12.160   2.579
 4549SOL    HW113897   5.859  12.129   2.554
 4549SOL    HW213898   5.943  12.166   2.674
 4550SOL     OW13899  12.235  11.109   5.757
 4550SOL    HW113900  12.213  11.171   5.826
 4550SOL    HW213901  12.264  11.164   5.684
 4551SOL     OW13902  10.845   0.875   0.868
 4551SOL    HW113903  10.755   0.902   0.851
 4551SOL    HW213904  10.888   0.954   0.901
 4552SOL     OW13905   6.676  13.583   6.601
 4552SOL    HW113906   6.756  13.623   6.634
 4552SOL    HW213907   6.690  13.574   6.507
 4553SOL     OW13908   8.567  13.633   5.229
 4553SOL    HW113909   8.655  13.612   5.199
 4553SOL    HW213910   8.514  13.558   5.203
 4554SOL     OW13911   3.896   5.497   3.935
 4554SOL    HW113912   3.809   5.538   3.936
 4554SOL    HW213913   3.955   5.567   3.962
 4555SOL     OW13914  11.994  15.798   7.279
 4555SOL    HW113915  11.904  15.791   7.248
 4555SOL    HW213916  12.012  15.892   7.282
 4556SOL     OW13917  11.353   7.539   1.362
 4556SOL    HW113918  11.292   7.598   1.406
 4556SOL    HW213919  11.320   7.452   1.381
 4557SOL     OW13920   9.675   2.043   1.084
 4557SOL    HW113921   9.749   2.020   1.028
 4557SOL    HW213922   9.625   1.962   1.093
 4558SOL     OW13923   4.838  10.357   2.732
 4558SOL    HW113924   4.769  10.410   2.773
 4558SOL    HW213925   4.849  10.396   2.646
 4559SOL     OW13926   6.135   6.151   2.383
 4559SOL    HW113927   6.154   6.232   2.429
 4559SOL    HW213928   6.146   6.172   2.290
 4560SOL     OW13929   8.485   9.092   2.284
 4560SOL    HW113930   8.464   9.054   2.199
 4560SOL    HW213931   8.402   9.124   2.318
 4561SOL     OW13932   5.707  11.871   4.655
 4561SOL    HW113933   5.615  11.899   4.653
 4561SOL    HW213934   5.715  11.821   4.736
 4562SOL     OW13935   4.811   0.295   0.353
 4562SOL    HW113936   4.766  10.985   0.362
 4562SOL    HW213937   4.740   0.358   0.341
 4563SOL     OW13938   4.895  10.490   5.370
 4563SOL    HW113939   4.887  10.433   5.294
 4563SOL    HW213940   4.835  10.452   5.435
 4564SOL     OW13941   6.267  10.405   4.942
 4564SOL    HW113942   6.350  10.451   4.928
 4564SOL    HW213943   6.238  10.434   5.029
 4565SOL     OW13944   8.438   4.535   3.393
 4565SOL    HW113945   8.478   4.471   3.452
 4565SOL    HW213946   8.490   4.615   3.406
 4566SOL     OW13947  12.979   7.458   7.119
 4566SOL    HW113948  12.983   7.519   7.046
 4566SOL    HW213949  13.026   7.380   7.089
 4567SOL     OW13950   8.321  15.852   7.603
 4567SOL    HW113951   8.336  15.778   7.543
 4567SOL    HW213952   8.226  15.862   7.605
 4568SOL     OW13953  11.084   9.696   5.290
 4568SOL    HW113954  11.096   9.747   5.209
 4568SOL    HW213955  11.167   9.706   5.337
 4569SOL     OW13956   3.943  12.101   3.343
 4569SOL    HW113957   3.856  12.067   3.365
 4569SOL    HW213958   4.001  12.059   3.407
 4570SOL     OW13959  10.084  13.232   5.048
 4570SOL    HW113960  10.071  13.149   5.095
 4570SOL    HW213961  10.009  13.286   5.073
 4571SOL     OW13962   3.158   1.534   1.584
 4571SOL    HW113963   3.150   1.441   1.606
 4571SOL    HW213964   3.171   1.535   1.489
 4572SOL     OW13965   9.139   3.437   0.040
 4572SOL    HW113966  14.595   8.818   7.593
 4572SOL    HW213967   9.083   3.508   0.009
 4573SOL     OW13968  11.658  11.685   2.838
 4573SOL    HW113969  11.742  11.679   2.792
 4573SOL    HW213970  11.654  11.604   2.889
 4574SOL     OW13971   2.710   8.216   2.875
 4574SOL    HW113972   2.786   8.251   2.922
 4574SOL    HW213973   2.693   8.280   2.806
 4575SOL     OW13974   5.525   5.378   3.738
 4575SOL    HW113975   5.541   5.403   3.829
 4575SOL    HW213976   5.499   5.459   3.695
 4576SOL     OW13977   6.018   7.338   0.831
 4576SOL    HW113978   5.946   7.286   0.794
 4576SOL    HW213979   5.993   7.351   0.923
 4577SOL     OW13980  11.552   9.058   2.267
 4577SOL    HW113981  11.471   9.106   2.283
 4577SOL    HW213982  11.594   9.052   2.353
 4578SOL     OW13983  11.880   5.553   1.693
 4578SOL    HW113984  11.785   5.548   1.700
 4578SOL    HW213985  11.896   5.639   1.652
 4579SOL     OW13986  11.986   4.424   2.027
 4579SOL    HW113987  11.927   4.453   2.097
 4579SOL    HW213988  12.061   4.387   2.073
 4580SOL     OW13989   7.832   2.025   2.732
 4580SOL    HW113990   7.896   2.027   2.661
 4580SOL    HW213991   7.764   2.087   2.705
 4581SOL     OW13992   5.778   2.951   0.009
 4581SOL    HW113993   5.873   2.942   0.012
 4581SOL    HW213994  11.137   8.277   7.560
 4582SOL     OW13995  10.236   7.041   1.928
 4582SOL    HW113996  10.182   7.014   1.854
 4582SOL    HW213997  10.177   7.095   1.982
 4583SOL     OW13998   4.708   3.618   1.680
 4583SOL    HW113999   4.789   3.611   1.731
 4583SOL    HW214000   4.698   3.712   1.664
 4584SOL     OW14001   1.979  11.957   2.736
 4584SOL    HW114002   1.930  11.880   2.707
 4584SOL    HW214003   2.070  11.928   2.737
 4585SOL     OW14004  10.672  14.910   7.344
 4585SOL    HW114005  10.616  14.896   7.268
 4585SOL    HW214006  10.629  14.980   7.394
 4586SOL     OW14007   3.878   6.567   2.856
 4586SOL    HW114008   3.838   6.649   2.827
 4586SOL    HW214009   3.920   6.589   2.939
 4587SOL     OW14010   6.458   5.185   2.515
 4587SOL    HW114011   6.426   5.265   2.556
 4587SOL    HW214012   6.465   5.207   2.422
 4588SOL     OW14013   6.793   7.963   4.911
 4588SOL    HW114014   6.853   7.890   4.926
 4588SOL    HW214015   6.849   8.033   4.877
 4589SOL     OW14016   8.647  15.421   7.241
 4589SOL    HW114017   8.613  15.452   7.157
 4589SOL    HW214018   8.719  15.481   7.262
 4590SOL     OW14019   2.487   3.592   3.499
 4590SOL    HW114020   2.557   3.645   3.462
 4590SOL    HW214021   2.495   3.507   3.455
 4591SOL     OW14022  12.388   9.424   5.023
 4591SOL    HW114023  12.322   9.429   5.092
 4591SOL    HW214024  12.454   9.489   5.048
 4592SOL     OW14025   8.698  12.338   5.553
 4592SOL    HW114026   8.644  12.265   5.522
 4592SOL    HW214027   8.693  12.332   5.648
 4593SOL     OW14028   6.954   4.910   4.039
 4593SOL    HW114029   6.885   4.971   4.015
 4593SOL    HW214030   6.984   4.940   4.125
 4594SOL     OW14031  10.816   4.807   2.269
 4594SOL    HW114032  10.891   4.781   2.215
 4594SOL    HW214033  10.847   4.798   2.359
 4595SOL     OW14034  11.595   8.534   4.069
 4595SOL    HW114035  11.671   8.481   4.048
 4595SOL    HW214036  11.628   8.603   4.126
 4596SOL     OW14037  14.080  10.996   5.389
 4596SOL    HW114038  14.138  11.067   5.416
 4596SOL    HW214039  14.040  10.965   5.470
 4597SOL     OW14040   2.289   9.362   2.334
 4597SOL    HW114041   2.219   9.347   2.271
 4597SOL    HW214042   2.263   9.311   2.411
 4598SOL     OW14043   4.605   7.119   1.248
 4598SOL    HW114044   4.531   7.154   1.297
 4598SOL    HW214045   4.578   7.121   1.157
 4599SOL     OW14046   8.886  10.288   4.568
 4599SOL    HW114047   8.795  10.257   4.573
 4599SOL    HW214048   8.933  10.236   4.633
 4600SOL     OW14049  12.277  10.120   5.019
 4600SOL    HW114050  12.193  10.119   5.066
 4600SOL    HW214051  12.323  10.196   5.055
 4601SOL     OW14052   4.704   3.286   0.118
 4601SOL    HW114053   4.630   3.239   0.081
 4601SOL    HW214054   4.703   3.265   0.211
 4602SOL     OW14055   4.302  12.084   2.532
 4602SOL    HW114056   4.328  12.149   2.467
 4602SOL    HW214057   4.222  12.119   2.571
 4603SOL     OW14058  13.235   8.200   7.121
 4603SOL    HW114059  13.271   8.193   7.032
 4603SOL    HW214060  13.283   8.273   7.160
 4604SOL     OW14061   8.491   9.296   4.001
 4604SOL    HW114062   8.475   9.377   4.049
 4604SOL    HW214063   8.405   9.259   3.985
 4605SOL     OW14064  11.082   9.578   3.669
 4605SOL    HW114065  11.063   9.652   3.610
 4605SOL    HW214066  11.169   9.598   3.703
 4606SOL     OW14067   5.669   7.712   5.585
 4606SOL    HW114068   5.675   7.807   5.596
 4606SOL    HW214069   5.583   7.689   5.620
 4607SOL     OW14070   3.415   4.080   1.312
 4607SOL    HW114071   3.483   4.119   1.257
 4607SOL    HW214072   3.389   4.001   1.266
 4608SOL     OW14073   7.793   7.787   1.745
 4608SOL    HW114074   7.805   7.692   1.740
 4608SOL    HW214075   7.781   7.805   1.838
 4609SOL     OW14076   9.032   4.598   2.726
 4609SOL    HW114077   8.999   4.519   2.769
 4609SOL    HW214078   9.117   4.572   2.690
 4610SOL     OW14079   4.176   9.734   4.378
 4610SOL    HW114080   4.149   9.725   4.470
 4610SOL    HW214081   4.249   9.672   4.369
 4611SOL     OW14082   8.039  10.860   4.257
 4611SOL    HW114083   8.091  10.784   4.230
 4611SOL    HW214084   8.099  10.934   4.250
 4612SOL     OW14085   4.883   1.699   0.730
 4612SOL    HW114086   4.874   1.633   0.799
 4612SOL    HW214087   4.795   1.709   0.695
 4613SOL     OW14088  11.498   9.510   4.032
 4613SOL    HW114089  11.502   9.472   3.944
 4613SOL    HW214090  11.499   9.604   4.018
 4614SOL     OW14091  11.857  13.530   5.751
 4614SOL    HW114092  11.927  13.566   5.696
 4614SOL    HW214093  11.776  13.548   5.703
 4615SOL     OW14094  13.791  12.063   6.354
 4615SOL    HW114095  13.806  12.111   6.435
 4615SOL    HW214096  13.875  12.066   6.308
 4616SOL     OW14097   7.738   5.732   2.708
 4616SOL    HW114098   7.804   5.663   2.706
 4616SOL    HW214099   7.655   5.686   2.708
 4617SOL     OW14100   9.306  10.790   0.356
 4617SOL    HW114101   9.234  10.730   0.370
 4617SOL    HW214102   9.319  10.833   0.440
 4618SOL     OW14103   5.261   6.464   3.268
 4618SOL    HW114104   5.219   6.382   3.294
 4618SOL    HW214105   5.188   6.520   3.242
 4619SOL     OW14106   1.802   1.197   0.523
 4619SOL    HW114107   1.753   1.140   0.464
 4619SOL    HW214108   1.819   1.143   0.600
 4620SOL     OW14109   7.188  10.513   4.380
 4620SOL    HW114110   7.124  10.505   4.309
 4620SOL    HW214111   7.249  10.441   4.365
 4621SOL     OW14112   8.614   8.339   4.541
 4621SOL    HW114113   8.584   8.418   4.587
 4621SOL    HW214114   8.553   8.271   4.570
 4622SOL     OW14115   2.614  10.148   3.114
 4622SOL    HW114116   2.618  10.056   3.141
 4622SOL    HW214117   2.561  10.148   3.035
 4623SOL     OW14118   6.223   6.175   0.252
 4623SOL    HW114119   6.183   6.157   0.167
 4623SOL    HW214120   6.155   6.154   0.315
 4624SOL     OW14121  10.019   8.300   7.558
 4624SOL    HW114122  10.018   8.234   7.488
 4624SOL    HW214123   9.928   8.303   7.589
 4625SOL     OW14124  10.445  10.189   0.353
 4625SOL    HW114125  10.477  10.249   0.421
 4625SOL    HW214126  10.515  10.185   0.289
 4626SOL     OW14127   8.358   8.743   4.770
 4626SOL    HW114128   8.280   8.762   4.821
 4626SOL    HW214129   8.383   8.828   4.732
 4627SOL     OW14130   6.789   8.342   0.231
 4627SOL    HW114131   6.751   8.403   0.168
 4627SOL    HW214132   6.821   8.269   0.179
 4628SOL     OW14133   3.012   9.376   0.242
 4628SOL    HW114134   2.919   9.355   0.246
 4628SOL    HW214135   3.055   9.300   0.281
 4629SOL     OW14136   7.379   6.768   6.816
 4629SOL    HW114137   7.466   6.807   6.809
 4629SOL    HW214138   7.362   6.730   6.730
 4630SOL     OW14139  14.074  12.226   5.874
 4630SOL    HW114140  14.043  12.147   5.920
 4630SOL    HW214141  14.157  12.248   5.917
 4631SOL     OW14142   8.263  12.661   2.723
 4631SOL    HW114143   8.212  12.595   2.770
 4631SOL    HW214144   8.343  12.671   2.775
 4632SOL     OW14145   5.121   3.156   0.428
 4632SOL    HW114146   5.183   3.099   0.474
 4632SOL    HW214147   5.073   3.200   0.498
 4633SOL     OW14148  12.393  12.168   7.312
 4633SOL    HW114149  12.435  12.249   7.283
 4633SOL    HW214150  12.373  12.120   7.232
 4634SOL     OW14151   3.026   9.096   1.652
 4634SOL    HW114152   3.054   9.088   1.743
 4634SOL    HW214153   3.102   9.132   1.607
 4635SOL     OW14154   4.689   9.947   1.745
 4635SOL    HW114155   4.618   9.926   1.685
 4635SOL    HW214156   4.758   9.884   1.724
 4636SOL     OW14157  13.105  11.242   6.495
 4636SOL    HW114158  13.029  11.238   6.553
 4636SOL    HW214159  13.129  11.150   6.481
 4637SOL     OW14160  12.305   7.242   7.562
 4637SOL    HW114161  12.292   7.329   7.600
 4637SOL    HW214162   6.965   1.806   0.011
 4638SOL     OW14163   3.143   7.646   3.462
 4638SOL    HW114164   3.083   7.666   3.534
 4638SOL    HW214165   3.207   7.586   3.500
 4639SOL     OW14166   7.247   8.585   2.317
 4639SOL    HW114167   7.280   8.621   2.399
 4639SOL    HW214168   7.325   8.573   2.263
 4640SOL     OW14169   3.170   9.432   2.614
 4640SOL    HW114170   3.234   9.407   2.547
 4640SOL    HW214171   3.103   9.481   2.565
 4641SOL     OW14172   5.178   3.247   2.526
 4641SOL    HW114173   5.209   3.332   2.558
 4641SOL    HW214174   5.214   3.241   2.437
 4642SOL     OW14175  11.385   4.531   3.901
 4642SOL    HW114176  11.384   4.572   3.814
 4642SOL    HW214177  11.337   4.593   3.956
 4643SOL     OW14178   7.254   5.868   2.025
 4643SOL    HW114179   7.195   5.943   2.036
 4643SOL    HW214180   7.222   5.803   2.089
 4644SOL     OW14181  12.981  13.064   3.923
 4644SOL    HW114182  12.960  13.076   3.830
 4644SOL    HW214183  13.014  13.150   3.951
 4645SOL     OW14184   9.972  12.559   7.586
 4645SOL    HW114185  10.046  12.616   7.605
 4645SOL    HW214186   9.922  12.606   7.519
 4646SOL     OW14187   7.529  11.837   5.670
 4646SOL    HW114188   7.495  11.822   5.582
 4646SOL    HW214189   7.513  11.930   5.687
 4647SOL     OW14190   7.470  10.418   1.584
 4647SOL    HW114191   7.462  10.513   1.575
 4647SOL    HW214192   7.466  10.385   1.494
 4648SOL     OW14193  11.166   9.232   5.774
 4648SOL    HW114194  11.223   9.302   5.806
 4648SOL    HW214195  11.189   9.156   5.827
 4649SOL     OW14196  11.899   4.011   4.818
 4649SOL    HW114197  11.883   4.102   4.843
 4649SOL    HW214198  11.817   3.966   4.837
 4650SOL     OW14199  11.498   3.744   3.986
 4650SOL    HW114200  11.534   3.656   3.995
 4650SOL    HW214201  11.544   3.781   3.910
 4651SOL     OW14202  12.325  10.741   4.957
 4651SOL    HW114203  12.412  10.752   4.995
 4651SOL    HW214204  12.338  10.683   4.883
 4652SOL     OW14205   2.988   2.212   2.422
 4652SOL    HW114206   2.939   2.271   2.365
 4652SOL    HW214207   2.999   2.132   2.370
 4653SOL     OW14208   4.684  12.124   6.250
 4653SOL    HW114209   4.718  12.045   6.293
 4653SOL    HW214210   4.595  12.101   6.224
 4654SOL     OW14211   5.932   8.173   4.743
 4654SOL    HW114212   5.939   8.077   4.742
 4654SOL    HW214213   5.867   8.191   4.811
 4655SOL     OW14214   5.691   8.110   0.482
 4655SOL    HW114215   5.669   8.113   0.575
 4655SOL    HW214216   5.700   8.202   0.457
 4656SOL     OW14217  10.394  12.826   5.252
 4656SOL    HW114218  10.450  12.822   5.330
 4656SOL    HW214219  10.305  12.838   5.287
 4657SOL     OW14220  13.566  12.307   5.333
 4657SOL    HW114221  13.546  12.292   5.241
 4657SOL    HW214222  13.603  12.225   5.364
 4658SOL     OW14223  10.736  10.035   6.697
 4658SOL    HW114224  10.767  10.096   6.764
 4658SOL    HW214225  10.671   9.982   6.742
 4659SOL     OW14226   6.856   9.402   2.275
 4659SOL    HW114227   6.795   9.416   2.203
 4659SOL    HW214228   6.877   9.490   2.306
 4660SOL     OW14229   5.359   6.212   4.744
 4660SOL    HW114230   5.393   6.255   4.822
 4660SOL    HW214231   5.279   6.261   4.722
 4661SOL     OW14232  10.500  11.091   2.979
 4661SOL    HW114233  10.594  11.097   2.994
 4661SOL    HW214234  10.471  11.016   3.032
 4662SOL     OW14235   1.657   5.386   2.090
 4662SOL    HW114236   1.619   5.306   2.127
 4662SOL    HW214237   1.727   5.409   2.151
 4663SOL     OW14238   2.329   4.851   1.582
 4663SOL    HW114239   2.379   4.914   1.632
 4663SOL    HW214240   2.244   4.846   1.627
 4664SOL     OW14241   6.538   4.072   2.024
 4664SOL    HW114242   6.592   4.114   1.958
 4664SOL    HW214243   6.469   4.028   1.975
 4665SOL     OW14244   9.956  10.658   4.675
 4665SOL    HW114245   9.976  10.751   4.663
 4665SOL    HW214246  10.040  10.619   4.700
 4666SOL     OW14247   3.585   4.315   0.071
 4666SOL    HW114248   3.652   4.378   0.099
 4666SOL    HW214249   3.635   4.245   0.028
 4667SOL     OW14250   8.589   3.937   3.604
 4667SOL    HW114251   8.568   3.864   3.663
 4667SOL    HW214252   8.672   3.971   3.637
 4668SOL     OW14253   9.806  14.006   6.328
 4668SOL    HW114254   9.711  13.994   6.332
 4668SOL    HW214255   9.828  14.050   6.410
 4669SOL     OW14256   1.872   2.896   1.708
 4669SOL    HW114257   1.886   2.847   1.789
 4669SOL    HW214258   1.931   2.972   1.715
 4670SOL     OW14259   0.649   7.690   0.896
 4670SOL    HW114260   0.683   7.629   0.831
 4670SOL    HW214261  11.354   7.642   0.941
 4671SOL     OW14262   7.042  10.223   5.703
 4671SOL    HW114263   6.958  10.183   5.683
 4671SOL    HW214264   7.079  10.168   5.773
 4672SOL     OW14265   2.290   2.245   2.751
 4672SOL    HW114266   2.382   2.219   2.741
 4672SOL    HW214267   2.269   2.292   2.671
 4673SOL     OW14268  10.576   9.093   3.917
 4673SOL    HW114269  10.543   9.024   3.975
 4673SOL    HW214270  10.499   9.147   3.898
 4674SOL     OW14271   7.486  12.174   3.422
 4674SOL    HW114272   7.463  12.267   3.415
 4674SOL    HW214273   7.487  12.156   3.516
 4675SOL     OW14274   3.951  13.355   4.479
 4675SOL    HW114275   3.915  13.331   4.394
 4675SOL    HW214276   3.917  13.444   4.495
 4676SOL     OW14277   9.444  10.476   5.616
 4676SOL    HW114278   9.394  10.553   5.643
 4676SOL    HW214279   9.507  10.463   5.686
 4677SOL     OW14280   9.915  11.207   4.846
 4677SOL    HW114281   9.872  11.177   4.926
 4677SOL    HW214282   9.864  11.170   4.775
 4678SOL     OW14283  12.536   9.825   6.004
 4678SOL    HW114284  12.522   9.752   6.063
 4678SOL    HW214285  12.585   9.789   5.931
 4679SOL     OW14286   6.119   9.311   0.837
 4679SOL    HW114287   6.095   9.222   0.811
 4679SOL    HW214288   6.135   9.357   0.755
 4680SOL     OW14289  15.358  10.729   7.558
 4680SOL    HW114290   9.904   5.317   0.003
 4680SOL    HW214291  15.430  10.764   7.610
 4681SOL     OW14292   2.738   1.783   2.285
 4681SOL    HW114293   2.672   1.842   2.248
 4681SOL    HW214294   2.737   1.800   2.379
 4682SOL     OW14295   5.505  10.669   5.223
 4682SOL    HW114296   5.519  10.620   5.142
 4682SOL    HW214297   5.410  10.676   5.231
 4683SOL     OW14298  10.468   8.980   1.275
 4683SOL    HW114299  10.378   9.008   1.297
 4683SOL    HW214300  10.523   9.024   1.340
 4684SOL     OW14301   2.032  10.347   1.952
 4684SOL    HW114302   2.052  10.363   1.860
 4684SOL    HW214303   2.001  10.257   1.955
 4685SOL     OW14304  10.597   6.621   6.958
 4685SOL    HW114305  10.597   6.696   6.898
 4685SOL    HW214306  10.677   6.573   6.935
 4686SOL     OW14307  11.728   5.804   3.566
 4686SOL    HW114308  11.769   5.888   3.587
 4686SOL    HW214309  11.785   5.739   3.607
 4687SOL     OW14310   5.931  10.751   5.701
 4687SOL    HW114311   5.894  10.705   5.775
 4687SOL    HW214312   6.021  10.718   5.694
 4688SOL     OW14313   9.882   9.164   4.643
 4688SOL    HW114314   9.886   9.088   4.584
 4688SOL    HW214315   9.881   9.126   4.731
 4689SOL     OW14316  11.165  15.038   6.264
 4689SOL    HW114317  11.211  15.112   6.305
 4689SOL    HW214318  11.188  14.963   6.318
 4690SOL     OW14319  11.191  11.419   1.159
 4690SOL    HW114320  11.119  11.482   1.164
 4690SOL    HW214321  11.231  11.435   1.073
 4691SOL     OW14322   9.354   8.040   6.149
 4691SOL    HW114323   9.387   8.090   6.223
 4691SOL    HW214324   9.413   8.062   6.077
 4692SOL     OW14325  10.661  11.610   5.539
 4692SOL    HW114326  10.598  11.548   5.504
 4692SOL    HW214327  10.654  11.686   5.482
 4693SOL     OW14328  15.020  12.983   7.520
 4693SOL    HW114329  14.962  12.920   7.476
 4693SOL    HW214330  15.036  12.945   7.606
 4694SOL     OW14331   2.647   3.019   3.231
 4694SOL    HW114332   2.658   2.948   3.168
 4694SOL    HW214333   2.733   3.026   3.273
 4695SOL     OW14334   9.017  12.301   4.441
 4695SOL    HW114335   9.110  12.279   4.446
 4695SOL    HW214336   9.016  12.395   4.423
 4696SOL     OW14337   7.858  12.674   7.465
 4696SOL    HW114338   7.827  12.734   7.532
 4696SOL    HW214339   7.788  12.609   7.456
 4697SOL     OW14340   8.998  12.003   4.231
 4697SOL    HW114341   9.041  11.971   4.310
 4697SOL    HW214342   8.908  12.020   4.258
 4698SOL     OW14343   6.103   8.281   7.170
 4698SOL    HW114344   6.179   8.230   7.141
 4698SOL    HW214345   6.033   8.255   7.110
 4699SOL     OW14346   2.327  12.268   2.171
 4699SOL    HW114347   2.422  12.283   2.168
 4699SOL    HW214348   2.305  12.234   2.084
 4700SOL     OW14349   9.876   7.932   2.218
 4700SOL    HW114350   9.930   7.891   2.149
 4700SOL    HW214351   9.903   8.024   2.218
 4701SOL     OW14352  13.978   5.811   5.290
 4701SOL    HW114353  13.896   5.854   5.265
 4701SOL    HW214354  14.026   5.801   5.207
 4702SOL     OW14355   6.827  12.344   4.060
 4702SOL    HW114356   6.812  12.434   4.089
 4702SOL    HW214357   6.866  12.300   4.136
 4703SOL     OW14358  10.928   7.867   3.567
 4703SOL    HW114359  10.868   7.793   3.579
 4703SOL    HW214360  11.014   7.827   3.562
 4704SOL     OW14361   2.326  11.068   2.279
 4704SOL    HW114362   2.374  11.055   2.198
 4704SOL    HW214363   2.355  10.997   2.336
 4705SOL     OW14364   6.270   6.691   3.879
 4705SOL    HW114365   6.325   6.667   3.804
 4705SOL    HW214366   6.277   6.615   3.938
 4706SOL     OW14367  11.450   3.145   3.628
 4706SOL    HW114368  11.428   3.151   3.721
 4706SOL    HW214369  11.504   3.222   3.610
 4707SOL     OW14370  14.004  10.467   6.257
 4707SOL    HW114371  14.029  10.550   6.218
 4707SOL    HW214372  13.909  10.467   6.255
 4708SOL     OW14373   5.790   7.803   6.454
 4708SOL    HW114374   5.862   7.768   6.507
 4708SOL    HW214375   5.774   7.890   6.490
 4709SOL     OW14376   5.703   6.220   2.676
 4709SOL    HW114377   5.729   6.283   2.743
 4709SOL    HW214378   5.675   6.274   2.602
 4710SOL     OW14379   6.455   5.408   6.093
 4710SOL    HW114380   6.473   5.347   6.165
 4710SOL    HW214381   6.540   5.422   6.052
 4711SOL     OW14382  13.117   7.654   5.426
 4711SOL    HW114383  13.168   7.731   5.451
 4711SOL    HW214384  13.153   7.583   5.481
 4712SOL     OW14385   9.599   7.887   4.095
 4712SOL    HW114386   9.656   7.813   4.074
 4712SOL    HW214387   9.639   7.927   4.172
 4713SOL     OW14388   9.169   2.924   1.966
 4713SOL    HW114389   9.248   2.921   1.913
 4713SOL    HW214390   9.101   2.885   1.909
 4714SOL     OW14391  12.054   7.257   4.198
 4714SOL    HW114392  12.098   7.319   4.139
 4714SOL    HW214393  12.054   7.174   4.150
 4715SOL     OW14394   8.212   5.052   5.613
 4715SOL    HW114395   8.273   4.988   5.650
 4715SOL    HW214396   8.251   5.137   5.632
 4716SOL     OW14397   3.893   3.363   2.633
 4716SOL    HW114398   3.855   3.277   2.649
 4716SOL    HW214399   3.830   3.408   2.577
 4717SOL     OW14400  11.181   9.875   1.474
 4717SOL    HW114401  11.162   9.953   1.422
 4717SOL    HW214402  11.275   9.862   1.464
 4718SOL     OW14403   7.874   8.131   6.119
 4718SOL    HW114404   7.930   8.175   6.183
 4718SOL    HW214405   7.927   8.126   6.039
 4719SOL     OW14406   1.707   7.810   1.067
 4719SOL    HW114407   1.659   7.754   1.006
 4719SOL    HW214408   1.644   7.832   1.136
 4720SOL     OW14409  10.370   9.355   4.082
 4720SOL    HW114410  10.283   9.378   4.052
 4720SOL    HW214411  10.376   9.390   4.171
 4721SOL     OW14412   9.259   3.387   0.701
 4721SOL    HW114413   9.195   3.401   0.771
 4721SOL    HW214414   9.248   3.462   0.643
 4722SOL     OW14415   4.350  12.176   6.039
 4722SOL    HW114416   4.397  12.095   6.059
 4722SOL    HW214417  15.076  12.196   6.119
 4723SOL     OW14418  10.750   9.638   7.086
 4723SOL    HW114419  10.813   9.639   7.158
 4723SOL    HW214420  10.669   9.605   7.126
 4724SOL     OW14421   5.487   8.432   3.002
 4724SOL    HW114422   5.413   8.396   3.052
 4724SOL    HW214423   5.554   8.450   3.069
 4725SOL     OW14424   7.442   7.775   7.513
 4725SOL    HW114425   7.348   7.786   7.508
 4725SOL    HW214426   7.470   7.764   7.422
 4726SOL     OW14427   5.573   7.405   6.088
 4726SOL    HW114428   5.553   7.497   6.067
 4726SOL    HW214429   5.669   7.404   6.099
 4727SOL     OW14430  12.562   5.734   5.310
 4727SOL    HW114431  12.566   5.640   5.288
 4727SOL    HW214432  12.469   5.756   5.305
 4728SOL     OW14433   7.481  11.030   6.623
 4728SOL    HW114434   7.407  11.037   6.563
 4728SOL    HW214435   7.558  11.041   6.567
 4729SOL     OW14436   4.515   8.051   2.350
 4729SOL    HW114437   4.574   8.085   2.283
 4729SOL    HW214438   4.461   8.126   2.376
 4730SOL     OW14439  10.381   8.378   1.078
 4730SOL    HW114440  10.375   8.471   1.102
 4730SOL    HW214441  10.296   8.341   1.104
 4731SOL     OW14442  14.141   7.427   6.567
 4731SOL    HW114443  14.154   7.455   6.657
 4731SOL    HW214444  14.158   7.506   6.515
 4732SOL     OW14445  12.440   3.682   4.174
 4732SOL    HW114446  12.360   3.717   4.136
 4732SOL    HW214447  12.410   3.627   4.247
 4733SOL     OW14448   1.869  12.470   2.476
 4733SOL    HW114449   1.805  12.426   2.421
 4733SOL    HW214450   1.945  12.411   2.476
 4734SOL     OW14451  11.043  13.236   4.218
 4734SOL    HW114452  11.090  13.193   4.147
 4734SOL    HW214453  11.064  13.329   4.208
 4735SOL     OW14454  12.655   7.295   3.963
 4735SOL    HW114455  12.655   7.381   4.003
 4735SOL    HW214456  12.562   7.274   3.950
 4736SOL     OW14457   9.889   6.990   7.445
 4736SOL    HW114458   9.931   7.027   7.367
 4736SOL    HW214459   9.901   6.896   7.436
 4737SOL     OW14460  12.956   5.609   6.026
 4737SOL    HW114461  13.031   5.613   5.967
 4737SOL    HW214462  12.973   5.679   6.090
 4738SOL     OW14463  12.830   9.242   4.257
 4738SOL    HW114464  12.762   9.300   4.223
 4738SOL    HW214465  12.812   9.236   4.351
 4739SOL     OW14466   8.938   6.409   3.581
 4739SOL    HW114467   8.893   6.328   3.558
 4739SOL    HW214468   8.882   6.450   3.648
 4740SOL     OW14469   6.686   8.919   6.737
 4740SOL    HW114470   6.756   8.870   6.693
 4740SOL    HW214471   6.651   8.977   6.670
 4741SOL     OW14472  11.200   8.797   4.462
 4741SOL    HW114473  11.260   8.729   4.494
 4741SOL    HW214474  11.113   8.758   4.473
 4742SOL     OW14475  12.259   6.092   2.491
 4742SOL    HW114476  12.228   6.062   2.576
 4742SOL    HW214477  12.299   6.177   2.509
 4743SOL     OW14478  12.343  15.375   7.265
 4743SOL    HW114479  12.285  15.436   7.311
 4743SOL    HW214480  12.324  15.389   7.173
 4744SOL     OW14481   9.390   2.714   0.565
 4744SOL    HW114482   9.348   2.774   0.627
 4744SOL    HW214483   9.327   2.704   0.494
 4745SOL     OW14484   2.371   4.692   2.874
 4745SOL    HW114485   2.446   4.665   2.927
 4745SOL    HW214486   2.305   4.719   2.937
 4746SOL     OW14487   9.482  13.833   6.853
 4746SOL    HW114488   9.490  13.759   6.913
 4746SOL    HW214489   9.527  13.805   6.773
 4747SOL     OW14490  11.641  10.176   4.434
 4747SOL    HW114491  11.659  10.241   4.502
 4747SOL    HW214492  11.724  10.131   4.420
 4748SOL     OW14493  11.804   6.317   1.622
 4748SOL    HW114494  11.718   6.274   1.624
 4748SOL    HW214495  11.822   6.339   1.713
 4749SOL     OW14496   5.727  14.565   7.145
 4749SOL    HW114497   5.784  14.492   7.168
 4749SOL    HW214498   5.769  14.641   7.186
 4750SOL     OW14499   6.080  10.880   3.895
 4750SOL    HW114500   6.158  10.921   3.859
 4750SOL    HW214501   6.059  10.810   3.834
 4751SOL     OW14502  13.919  10.475   4.989
 4751SOL    HW114503  13.995  10.466   5.047
 4751SOL    HW214504  13.846  10.440   5.041
 4752SOL     OW14505   8.095   7.944   4.125
 4752SOL    HW114506   8.036   7.868   4.119
 4752SOL    HW214507   8.056   7.998   4.193
 4753SOL     OW14508   9.861   6.374   1.717
 4753SOL    HW114509   9.905   6.421   1.788
 4753SOL    HW214510   9.899   6.410   1.637
 4754SOL     OW14511   6.568   6.158   1.875
 4754SOL    HW114512   6.641   6.114   1.832
 4754SOL    HW214513   6.610   6.227   1.927
 4755SOL     OW14514   7.406   9.516   1.520
 4755SOL    HW114515   7.321   9.507   1.564
 4755SOL    HW214516   7.442   9.597   1.556
 4756SOL     OW14517   8.766  13.842   4.720
 4756SOL    HW114518   8.692  13.810   4.669
 4756SOL    HW214519   8.752  13.936   4.727
 4757SOL     OW14520   6.996   7.460   0.593
 4757SOL    HW114521   6.966   7.387   0.648
 4757SOL    HW214522   6.924   7.476   0.533
 4758SOL     OW14523  11.606  13.079   6.054
 4758SOL    HW114524  11.700  13.098   6.047
 4758SOL    HW214525  11.601  12.985   6.070
 4759SOL     OW14526   6.012   4.565   4.750
 4759SOL    HW114527   6.062   4.642   4.724
 4759SOL    HW214528   6.064   4.524   4.818
 4760SOL     OW14529  13.092   8.504   7.296
 4760SOL    HW114530  13.092   8.585   7.348
 4760SOL    HW214531  13.131   8.529   7.212
 4761SOL     OW14532   2.483   3.713   0.612
 4761SOL    HW114533   2.526   3.631   0.637
 4761SOL    HW214534   2.407   3.685   0.560
 4762SOL     OW14535   9.492  10.084   5.637
 4762SOL    HW114536   9.413  10.138   5.634
 4762SOL    HW214537   9.562  10.143   5.608
 4763SOL     OW14538   1.299   3.173   1.139
 4763SOL    HW114539   1.362   3.168   1.068
 4763SOL    HW214540   1.336   3.237   1.200
 4764SOL     OW14541   6.500  14.853   6.766
 4764SOL    HW114542   6.445  14.817   6.696
 4764SOL    HW214543   6.538  14.932   6.729
 4765SOL     OW14544  13.156   5.685   7.512
 4765SOL    HW114545  13.143   5.766   7.463
 4765SOL    HW214546  13.182   5.714   7.599
 4766SOL     OW14547  11.042  15.436   7.329
 4766SOL    HW114548  11.049  15.343   7.311
 4766SOL    HW214549  10.958  15.446   7.375
 4767SOL     OW14550   7.490   5.549   3.266
 4767SOL    HW114551   7.561   5.581   3.211
 4767SOL    HW214552   7.523   5.556   3.355
 4768SOL     OW14553   6.095  12.598   6.301
 4768SOL    HW114554   6.118  12.530   6.365
 4768SOL    HW214555   6.105  12.680   6.349
 4769SOL     OW14556   5.651   2.498   0.214
 4769SOL    HW114557   5.606   2.481   0.297
 4769SOL    HW214558   5.623   2.587   0.190
 4770SOL     OW14559  10.281   7.503   1.687
 4770SOL    HW114560  10.234   7.582   1.661
 4770SOL    HW214561  10.212   7.439   1.705
 4771SOL     OW14562   2.869  12.547   2.600
 4771SOL    HW114563   2.852  12.468   2.652
 4771SOL    HW214564   2.964  12.559   2.605
 4772SOL     OW14565  12.789   6.489   3.740
 4772SOL    HW114566  12.841   6.420   3.698
 4772SOL    HW214567  12.734   6.443   3.803
 4773SOL     OW14568  13.198   7.026   6.347
 4773SOL    HW114569  13.147   7.093   6.301
 4773SOL    HW214570  13.286   7.064   6.355
 4774SOL     OW14571   5.965  11.047   2.590
 4774SOL    HW114572   5.991  10.968   2.637
 4774SOL    HW214573   6.032  11.112   2.613
 4775SOL     OW14574   7.849   1.786   0.523
 4775SOL    HW114575   7.899   1.776   0.604
 4775SOL    HW214576   7.769   1.832   0.550
 4776SOL     OW14577   9.634   6.256   2.322
 4776SOL    HW114578   9.656   6.349   2.325
 4776SOL    HW214579   9.643   6.233   2.229
 4777SOL     OW14580   6.181   5.618   6.828
 4777SOL    HW114581   6.225   5.607   6.743
 4777SOL    HW214582   6.102   5.563   6.821
 4778SOL     OW14583   4.638   7.765   2.970
 4778SOL    HW114584   4.606   7.790   3.057
 4778SOL    HW214585   4.559   7.759   2.916
 4779SOL     OW14586   6.741   9.397   0.297
 4779SOL    HW114587   6.674   9.349   0.247
 4779SOL    HW214588   6.697   9.478   0.322
 4780SOL     OW14589  12.444   9.404   2.732
 4780SOL    HW114590  12.509   9.392   2.663
 4780SOL    HW214591  12.496   9.418   2.812
 4781SOL     OW14592  11.134   5.029   5.086
 4781SOL    HW114593  11.185   5.104   5.118
 4781SOL    HW214594  11.199   4.961   5.069
 4782SOL     OW14595  10.238  10.386   1.925
 4782SOL    HW114596  10.288  10.462   1.895
 4782SOL    HW214597  10.298  10.312   1.914
 4783SOL     OW14598   1.959   9.987   0.646
 4783SOL    HW114599   1.919  10.073   0.662
 4783SOL    HW214600   1.972   9.950   0.734
 4784SOL     OW14601  14.014   4.738   5.102
 4784SOL    HW114602  14.045   4.724   5.013
 4784SOL    HW214603  13.967   4.822   5.098
 4785SOL     OW14604   3.296   6.499   0.831
 4785SOL    HW114605   3.314   6.590   0.853
 4785SOL    HW214606   3.203   6.497   0.808
 4786SOL     OW14607   7.549  11.100   5.811
 4786SOL    HW114608   7.511  11.115   5.724
 4786SOL    HW214609   7.637  11.136   5.805
 4787SOL     OW14610  15.521  10.917   7.403
 4787SOL    HW114611  15.466  10.982   7.445
 4787SOL    HW214612  15.513  10.839   7.458
 4788SOL     OW14613   6.809   6.424   0.079
 4788SOL    HW114614   6.829   6.436   0.172
 4788SOL    HW214615   6.798   6.329   0.070
 4789SOL     OW14616  15.155   5.395   6.518
 4789SOL    HW114617  15.076   5.424   6.472
 4789SOL    HW214618  15.126   5.381   6.608
 4790SOL     OW14619  11.117   6.750   5.309
 4790SOL    HW114620  11.074   6.783   5.229
 4790SOL    HW214621  11.146   6.829   5.354
 4791SOL     OW14622   6.966   9.349   0.178
 4791SOL    HW114623   6.889   9.360   0.233
 4791SOL    HW214624   6.958   9.418   0.112
 4792SOL     OW14625  10.894  12.536   4.898
 4792SOL    HW114626  10.962  12.561   4.835
 4792SOL    HW214627  10.943  12.517   4.978
 4793SOL     OW14628   6.672   9.880   4.764
 4793SOL    HW114629   6.730   9.936   4.712
 4793SOL    HW214630   6.726   9.803   4.785
 4794SOL     OW14631   8.119   7.729   1.205
 4794SOL    HW114632   8.123   7.825   1.215
 4794SOL    HW214633   8.179   7.710   1.133
 4795SOL     OW14634   3.175   7.483   3.239
 4795SOL    HW114635   3.110   7.507   3.172
 4795SOL    HW214636   3.149   7.532   3.317
 4796SOL     OW14637   1.891   5.399   1.571
 4796SOL    HW114638   1.911   5.488   1.542
 4796SOL    HW214639   1.796   5.393   1.567
 4797SOL     OW14640   3.980  10.667   3.050
 4797SOL    HW114641   4.046  10.606   3.082
 4797SOL    HW214642   4.023  10.752   3.049
 4798SOL     OW14643  10.423  11.904   6.031
 4798SOL    HW114644  10.369  11.983   6.035
 4798SOL    HW214645  10.399  11.854   6.109
 4799SOL     OW14646   5.365   1.935   1.305
 4799SOL    HW114647   5.417   1.952   1.384
 4799SOL    HW214648   5.429   1.901   1.242
 4800SOL     OW14649   8.714   3.883   0.596
 4800SOL    HW114650   8.730   3.801   0.643
 4800SOL    HW214651   8.785   3.941   0.623
 4801SOL     OW14652  12.295  12.457   4.978
 4801SOL    HW114653  12.337  12.373   4.961
 4801SOL    HW214654  12.271  12.455   5.070
 4802SOL     OW14655  10.044  12.005   5.352
 4802SOL    HW114656   9.982  12.072   5.379
 4802SOL    HW214657  10.043  12.007   5.257
 4803SOL     OW14658   4.324   6.370   4.429
 4803SOL    HW114659   4.248   6.312   4.422
 4803SOL    HW214660   4.397   6.319   4.395
 4804SOL     OW14661   6.402   3.330   3.748
 4804SOL    HW114662   6.442   3.250   3.783
 4804SOL    HW214663   6.453   3.349   3.670
 4805SOL     OW14664   7.177   6.966   7.266
 4805SOL    HW114665   7.135   7.051   7.251
 4805SOL    HW214666   7.192   6.963   7.361
 4806SOL     OW14667   4.193   8.897   3.240
 4806SOL    HW114668   4.138   8.848   3.302
 4806SOL    HW214669   4.162   8.987   3.246
 4807SOL     OW14670   9.437  15.061   6.761
 4807SOL    HW114671   9.521  15.103   6.778
 4807SOL    HW214672   9.409  15.098   6.677
 4808SOL     OW14673  11.397   9.485   6.039
 4808SOL    HW114674  11.383   9.487   5.944
 4808SOL    HW214675  11.309   9.473   6.076
 4809SOL     OW14676   7.140   8.109   6.344
 4809SOL    HW114677   7.050   8.095   6.313
 4809SOL    HW214678   7.164   8.026   6.385
 4810SOL     OW14679   2.482   2.530   2.546
 4810SOL    HW114680   2.409   2.544   2.606
 4810SOL    HW214681   2.449   2.467   2.483
 4811SOL     OW14682   4.323   5.333   4.138
 4811SOL    HW114683   4.242   5.336   4.088
 4811SOL    HW214684   4.386   5.380   4.084
 4812SOL     OW14685   9.866   3.331   1.406
 4812SOL    HW114686   9.920   3.333   1.327
 4812SOL    HW214687   9.782   3.370   1.380
 4813SOL     OW14688  13.475   7.810   6.681
 4813SOL    HW114689  13.541   7.872   6.713
 4813SOL    HW214690  13.478   7.738   6.743
 4814SOL     OW14691   4.860   3.895   3.523
 4814SOL    HW114692   4.921   3.890   3.449
 4814SOL    HW214693   4.903   3.953   3.585
 4815SOL     OW14694   8.588   5.179   7.154
 4815SOL    HW114695   8.582   5.089   7.124
 4815SOL    HW214696   8.642   5.174   7.233
 4816SOL     OW14697   4.402  10.335   0.693
 4816SOL    HW114698   4.390  10.403   0.759
 4816SOL    HW214699   4.314  10.315   0.662
 4817SOL     OW14700   1.621   7.445   0.738
 4817SOL    HW114701   1.610   7.447   0.643
 4817SOL    HW214702   1.585   7.361   0.765
 4818SOL     OW14703   6.941   3.914   1.465
 4818SOL    HW114704   6.923   3.961   1.547
 4818SOL    HW214705   7.011   3.853   1.488
 4819SOL     OW14706  14.055  11.412   7.342
 4819SOL    HW114707  14.067  11.482   7.406
 4819SOL    HW214708  13.962  11.415   7.321
 4820SOL     OW14709   9.948  12.548   3.702
 4820SOL    HW114710   9.973  12.583   3.616
 4820SOL    HW214711  10.031  12.541   3.749
 4821SOL     OW14712   6.824   8.974   2.985
 4821SOL    HW114713   6.902   8.946   3.033
 4821SOL    HW214714   6.784   8.892   2.954
 4822SOL     OW14715   7.719   3.195   4.488
 4822SOL    HW114716   7.784   3.229   4.548
 4822SOL    HW214717   7.647   3.258   4.491
 4823SOL     OW14718  14.602   6.746   7.079
 4823SOL    HW114719  14.684   6.698   7.075
 4823SOL    HW214720  14.534   6.679   7.076
 4824SOL     OW14721  10.311   6.205   2.267
 4824SOL    HW114722  10.315   6.299   2.248
 4824SOL    HW214723  10.258   6.169   2.196
 4825SOL     OW14724   7.521   1.566   1.325
 4825SOL    HW114725   7.581   1.546   1.396
 4825SOL    HW214726   7.475   1.645   1.355
 4826SOL     OW14727  15.805  13.853   7.472
 4826SOL    HW114728  15.787  13.759   7.464
 4826SOL    HW214729  15.737  13.895   7.420
 4827SOL     OW14730  10.000   7.299   7.597
 4827SOL    HW114731   4.585   1.827   0.013
 4827SOL    HW214732   4.697   1.928   0.020
 4828SOL     OW14733   5.836  14.525   6.832
 4828SOL    HW114734   5.860  14.607   6.874
 4828SOL    HW214735   5.740  14.529   6.824
 4829SOL     OW14736   8.579   7.506   0.220
 4829SOL    HW114737   8.498   7.544   0.254
 4829SOL    HW214738   8.587   7.421   0.263
 4830SOL     OW14739   9.192   4.169   2.929
 4830SOL    HW114740   9.099   4.164   2.906
 4830SOL    HW214741   9.195   4.232   3.001
 4831SOL     OW14742  11.036  11.448   5.541
 4831SOL    HW114743  11.104  11.498   5.585
 4831SOL    HW214744  10.954  11.484   5.576
 4832SOL     OW14745   1.603   6.644   1.509
 4832SOL    HW114746   1.563   6.651   1.422
 4832SOL    HW214747   1.585   6.729   1.550
 4833SOL     OW14748   8.642   6.908   2.722
 4833SOL    HW114749   8.557   6.915   2.767
 4833SOL    HW214750   8.620   6.905   2.629
 4834SOL     OW14751   7.414   9.448   2.954
 4834SOL    HW114752   7.392   9.444   2.861
 4834SOL    HW214753   7.507   9.472   2.955
 4835SOL     OW14754  12.656   9.480   3.090
 4835SOL    HW114755  12.641   9.407   3.151
 4835SOL    HW214756  12.716   9.538   3.136
 4836SOL     OW14757   5.367   8.889   1.645
 4836SOL    HW114758   5.323   8.811   1.681
 4836SOL    HW214759   5.332   8.962   1.697
 4837SOL     OW14760   8.538  10.311   2.057
 4837SOL    HW114761   8.483  10.234   2.047
 4837SOL    HW214762   8.529  10.359   1.975
 4838SOL     OW14763   8.806   6.567   5.388
 4838SOL    HW114764   8.862   6.527   5.454
 4838SOL    HW214765   8.762   6.494   5.346
 4839SOL     OW14766  10.383   8.910   6.618
 4839SOL    HW114767  10.354   8.880   6.704
 4839SOL    HW214768  10.302   8.931   6.571
 4840SOL     OW14769   9.656   4.337   0.096
 4840SOL    HW114770   9.601   4.326   0.173
 4840SOL    HW214771   9.622   4.274   0.032
 4841SOL     OW14772   7.954  10.431   2.804
 4841SOL    HW114773   7.886  10.477   2.853
 4841SOL    HW214774   7.982  10.494   2.737
 4842SOL     OW14775   6.388   7.094   5.151
 4842SOL    HW114776   6.323   7.153   5.189
 4842SOL    HW214777   6.412   7.036   5.223
 4843SOL     OW14778   3.877   8.846   5.346
 4843SOL    HW114779   3.931   8.921   5.320
 4843SOL    HW214780   3.844   8.811   5.264
 4844SOL     OW14781  12.482  11.596   7.612
 4844SOL    HW114782   7.013   6.243   0.028
 4844SOL    HW214783   7.163   6.257   0.040
 4845SOL     OW14784   2.899   1.757   1.024
 4845SOL    HW114785   2.934   1.845   1.015
 4845SOL    HW214786   2.832   1.751   0.956
 4846SOL     OW14787  10.284  10.247   7.128
 4846SOL    HW114788  10.293  10.232   7.034
 4846SOL    HW214789  10.277  10.342   7.137
 4847SOL     OW14790  14.600  13.835   6.982
 4847SOL    HW114791  14.630  13.817   7.071
 4847SOL    HW214792  14.572  13.749   6.949
 4848SOL     OW14793   9.351   8.413   5.091
 4848SOL    HW114794   9.429   8.420   5.036
 4848SOL    HW214795   9.342   8.500   5.131
 4849SOL     OW14796   2.408   7.555   3.020
 4849SOL    HW114797   2.427   7.468   2.983
 4849SOL    HW214798   2.456   7.556   3.102
 4850SOL     OW14799   4.694  14.027   4.765
 4850SOL    HW114800   4.639  14.103   4.779
 4850SOL    HW214801   4.784  14.060   4.773
 4851SOL     OW14802  10.596   7.600   7.577
 4851SOL    HW114803  10.541   7.673   7.548
 4851SOL    HW214804   5.265   2.250   0.026
 4852SOL     OW14805   3.980   9.098   2.387
 4852SOL    HW114806   3.955   9.184   2.354
 4852SOL    HW214807   3.978   9.108   2.483
 4853SOL     OW14808   3.560   1.931   0.113
 4853SOL    HW114809   3.639   1.880   0.131
 4853SOL    HW214810   3.588   2.022   0.123
 4854SOL     OW14811   8.225  11.498   2.927
 4854SOL    HW114812   8.150  11.460   2.882
 4854SOL    HW214813   8.228  11.451   3.011
 4855SOL     OW14814   8.312  13.351   4.009
 4855SOL    HW114815   8.354  13.292   3.946
 4855SOL    HW214816   8.360  13.433   4.002
 4856SOL     OW14817  12.522   9.881   5.719
 4856SOL    HW114818  12.490   9.948   5.779
 4856SOL    HW214819  12.597   9.922   5.675
 4857SOL     OW14820   1.000   3.642   0.291
 4857SOL    HW114821   1.048   3.632   0.208
 4857SOL    HW214822   0.910   3.659   0.264
 4858SOL     OW14823   8.966   6.378   4.963
 4858SOL    HW114824   9.061   6.370   4.977
 4858SOL    HW214825   8.929   6.368   5.050
 4859SOL     OW14826  14.375  13.179   5.261
 4859SOL    HW114827  14.383  13.151   5.352
 4859SOL    HW214828  14.324  13.260   5.266
 4860SOL     OW14829   6.740   6.699   4.252
 4860SOL    HW114830   6.738   6.604   4.248
 4860SOL    HW214831   6.684   6.727   4.179
 4861SOL     OW14832  10.063  11.976   4.291
 4861SOL    HW114833  10.088  11.935   4.207
 4861SOL    HW214834  10.131  12.041   4.306
 4862SOL     OW14835  11.504  11.140   4.621
 4862SOL    HW114836  11.479  11.139   4.528
 4862SOL    HW214837  11.482  11.053   4.653
 4863SOL     OW14838   4.568   5.582   6.453
 4863SOL    HW114839   4.619   5.537   6.520
 4863SOL    HW214840  15.268   5.524   6.436
 4864SOL     OW14841   9.082  11.031   4.027
 4864SOL    HW114842   9.058  11.032   3.935
 4864SOL    HW214843   9.055  10.944   4.058
 4865SOL     OW14844  10.972  11.526   4.983
 4865SOL    HW114845  10.978  11.504   5.076
 4865SOL    HW214846  11.055  11.496   4.946
 4866SOL     OW14847   9.406   8.925   6.657
 4866SOL    HW114848   9.384   8.878   6.738
 4866SOL    HW214849   9.476   8.984   6.683
 4867SOL     OW14850   7.438  10.066   1.059
 4867SOL    HW114851   7.409  10.156   1.075
 4867SOL    HW214852   7.404  10.045   0.972
 4868SOL     OW14853  13.032   6.844   4.795
 4868SOL    HW114854  13.100   6.901   4.831
 4868SOL    HW214855  12.976   6.903   4.744
 4869SOL     OW14856   9.929  11.095   2.882
 4869SOL    HW114857  10.020  11.092   2.910
 4869SOL    HW214858   9.879  11.083   2.962
 4870SOL     OW14859   4.200   9.665   2.593
 4870SOL    HW114860   4.143   9.716   2.650
 4870SOL    HW214861   4.284   9.664   2.638
 4871SOL     OW14862   5.868   2.352   1.026
 4871SOL    HW114863   5.820   2.350   1.108
 4871SOL    HW214864   5.927   2.427   1.035
 4872SOL     OW14865  13.428  14.290   5.339
 4872SOL    HW114866  13.477  14.372   5.341
 4872SOL    HW214867  13.455  14.244   5.418
 4873SOL     OW14868   9.143  14.482   6.032
 4873SOL    HW114869   9.162  14.532   6.111
 4873SOL    HW214870   9.056  14.512   6.005
 4874SOL     OW14871  10.263   8.000   6.417
 4874SOL    HW114872  10.233   7.910   6.424
 4874SOL    HW214873  10.244   8.025   6.326
 4875SOL     OW14874   2.245   9.045   1.604
 4875SOL    HW114875   2.340   9.053   1.603
 4875SOL    HW214876   2.215   9.124   1.650
 4876SOL     OW14877   3.248   1.929   1.076
 4876SOL    HW114878   3.156   1.956   1.081
 4876SOL    HW214879   3.263   1.913   0.983
 4877SOL     OW14880   5.401   9.342   2.090
 4877SOL    HW114881   5.369   9.254   2.112
 4877SOL    HW214882   5.496   9.337   2.103
 4878SOL     OW14883  14.770   8.232   6.203
 4878SOL    HW114884  14.812   8.251   6.119
 4878SOL    HW214885  14.843   8.214   6.262
 4879SOL     OW14886   1.531   7.137   1.850
 4879SOL    HW114887   1.466   7.104   1.912
 4879SOL    HW214888   1.610   7.150   1.902
 4880SOL     OW14889   3.908   2.389   0.435
 4880SOL    HW114890   3.905   2.351   0.523
 4880SOL    HW214891   3.851   2.333   0.383
 4881SOL     OW14892  12.712   6.270   5.788
 4881SOL    HW114893  12.766   6.247   5.713
 4881SOL    HW214894  12.639   6.320   5.750
 4882SOL     OW14895  12.718   7.805   3.957
 4882SOL    HW114896  12.810   7.831   3.963
 4882SOL    HW214897  12.701   7.760   4.040
 4883SOL     OW14898   8.180   8.993   1.325
 4883SOL    HW114899   8.128   9.038   1.391
 4883SOL    HW214900   8.142   8.906   1.319
 4884SOL     OW14901   5.040  13.425   6.677
 4884SOL    HW114902   5.073  13.341   6.706
 4884SOL    HW214903   5.118  13.480   6.668
 4885SOL     OW14904   5.118  12.834   6.760
 4885SOL    HW114905   5.207  12.843   6.728
 4885SOL    HW214906   5.123  12.769   6.829
 4886SOL     OW14907   9.773   7.375   1.999
 4886SOL    HW114908   9.774   7.466   2.028
 4886SOL    HW214909   9.865   7.352   1.986
 4887SOL     OW14910   9.825   6.758   2.404
 4887SOL    HW114911   9.891   6.814   2.446
 4887SOL    HW214912   9.876   6.688   2.364
 4888SOL     OW14913  12.539  13.038   4.868
 4888SOL    HW114914  12.618  13.024   4.816
 4888SOL    HW214915  12.467  13.036   4.804
 4889SOL     OW14916   1.216   4.444   0.759
 4889SOL    HW114917   1.149   4.466   0.693
 4889SOL    HW214918   1.277   4.518   0.756
 4890SOL     OW14919   0.879   8.300   0.529
 4890SOL    HW114920   0.967   8.298   0.494
 4890SOL    HW214921   0.861   8.393   0.545
 4891SOL     OW14922  14.582   8.338   5.625
 4891SOL    HW114923  14.560   8.331   5.718
 4891SOL    HW214924  14.588   8.248   5.595
 4892SOL     OW14925   5.467   7.664   2.072
 4892SOL    HW114926   5.532   7.719   2.027
 4892SOL    HW214927   5.415   7.726   2.123
 4893SOL     OW14928   8.659   3.744   3.131
 4893SOL    HW114929   8.635   3.654   3.110
 4893SOL    HW214930   8.626   3.757   3.220
 4894SOL     OW14931   5.607   3.343   3.702
 4894SOL    HW114932   5.538   3.376   3.759
 4894SOL    HW214933   5.618   3.412   3.636
 4895SOL     OW14934   8.230   1.416   0.126
 4895SOL    HW114935   8.193   1.472   0.194
 4895SOL    HW214936   8.316   1.391   0.159
 4896SOL     OW14937   0.902   1.565   0.873
 4896SOL    HW114938   0.868   1.483   0.836
 4896SOL    HW214939   0.915   1.546   0.966
 4897SOL     OW14940  13.799  15.009   6.103
 4897SOL    HW114941  13.883  15.011   6.057
 4897SOL    HW214942  13.820  15.039   6.192
 4898SOL     OW14943   6.316   7.990   1.571
 4898SOL    HW114944   6.377   8.043   1.520
 4898SOL    HW214945   6.237   7.986   1.516
 4899SOL     OW14946  12.384  12.068   2.705
 4899SOL    HW114947  12.386  12.163   2.719
 4899SOL    HW214948  12.443  12.053   2.631
 4900SOL     OW14949   4.565  11.037   1.919
 4900SOL    HW114950   4.628  10.968   1.896
 4900SOL    HW214951   4.620  11.112   1.943
 4901SOL     OW14952  11.292  10.034   7.476
 4901SOL    HW114953  11.228   9.965   7.496
 4901SOL    HW214954  11.244  10.096   7.421
 4902SOL     OW14955   9.051   5.538   1.416
 4902SOL    HW114956   9.113   5.470   1.391
 4902SOL    HW214957   9.035   5.587   1.335
 4903SOL     OW14958   8.990   8.935   6.277
 4903SOL    HW114959   8.936   9.012   6.261
 4903SOL    HW214960   9.080   8.967   6.270
 4904SOL     OW14961  11.711  13.196   6.536
 4904SOL    HW114962  11.648  13.169   6.602
 4904SOL    HW214963  11.796  13.185   6.578
 4905SOL     OW14964  11.799   4.178   3.280
 4905SOL    HW114965  11.780   4.111   3.214
 4905SOL    HW214966  11.724   4.175   3.339
 4906SOL     OW14967   6.464   7.439   4.845
 4906SOL    HW114968   6.533   7.500   4.872
 4906SOL    HW214969   6.457   7.378   4.919
 4907SOL     OW14970  11.766   5.806   2.383
 4907SOL    HW114971  11.820   5.766   2.451
 4907SOL    HW214972  11.768   5.743   2.311
 4908SOL     OW14973   9.504   5.935   0.461
 4908SOL    HW114974   9.479   6.003   0.398
 4908SOL    HW214975   9.453   5.955   0.539
 4909SOL     OW14976   6.929   8.756   2.752
 4909SOL    HW114977   6.947   8.802   2.670
 4909SOL    HW214978   6.986   8.679   2.749
 4910SOL     OW14979  11.204   6.108   4.615
 4910SOL    HW114980  11.141   6.140   4.679
 4910SOL    HW214981  11.193   6.165   4.539
 4911SOL     OW14982   5.945   7.687   6.637
 4911SOL    HW114983   6.039   7.694   6.621
 4911SOL    HW214984   5.939   7.654   6.727
 4912SOL     OW14985  14.301  10.086   5.243
 4912SOL    HW114986  14.237  10.049   5.304
 4912SOL    HW214987  14.248  10.118   5.169
 4913SOL     OW14988  14.095  13.147   6.388
 4913SOL    HW114989  14.168  13.210   6.389
 4913SOL    HW214990  14.087  13.122   6.296
 4914SOL     OW14991   7.048   8.803   0.892
 4914SOL    HW114992   7.051   8.793   0.987
 4914SOL    HW214993   7.134   8.774   0.862
 4915SOL     OW14994   9.572   3.130   3.087
 4915SOL    HW114995   9.565   3.202   3.024
 4915SOL    HW214996   9.613   3.059   3.038
 4916SOL     OW14997   5.400  11.817   2.135
 4916SOL    HW114998   5.438  11.888   2.083
 4916SOL    HW214999   5.366  11.860   2.213
 4917SOL     OW15000  12.040   4.790   4.192
 4917SOL    HW115001  12.121   4.738   4.190
 4917SOL    HW215002  11.974   4.732   4.155
 4918SOL     OW15003  11.365   9.992   2.131
 4918SOL    HW115004  11.327  10.056   2.191
 4918SOL    HW215005  11.339  10.022   2.044
 4919SOL     OW15006   3.220   7.465   0.907
 4919SOL    HW115007   3.231   7.471   0.812
 4919SOL    HW215008   3.155   7.396   0.919
 4920SOL     OW15009   2.608   5.893   1.078
 4920SOL    HW115010   2.617   5.888   1.174
 4920SOL    HW215011   2.514   5.887   1.063
 4921SOL     OW15012  13.269   5.726   4.972
 4921SOL    HW115013  13.357   5.756   4.948
 4921SOL    HW215014  13.240   5.673   4.898
 4922SOL     OW15015   6.627   3.003   3.773
 4922SOL    HW115016   6.692   3.058   3.731
 4922SOL    HW215017   6.588   3.058   3.841
 4923SOL     OW15018   8.034   9.171   3.403
 4923SOL    HW115019   7.950   9.215   3.414
 4923SOL    HW215020   8.092   9.217   3.464
 4924SOL     OW15021  10.911   5.107   6.485
 4924SOL    HW115022  10.821   5.137   6.501
 4924SOL    HW215023  10.905   5.012   6.487
 4925SOL     OW15024  14.460   8.063   5.933
 4925SOL    HW115025  14.423   8.085   5.847
 4925SOL    HW215026  14.503   8.144   5.961
 4926SOL     OW15027   8.277   3.484   1.702
 4926SOL    HW115028   8.217   3.505   1.630
 4926SOL    HW215029   8.358   3.531   1.681
 4927SOL     OW15030   4.585  14.290   5.499
 4927SOL    HW115031   4.650  14.306   5.568
 4927SOL    HW215032   4.600  14.360   5.435
 4928SOL     OW15033  11.429  12.126   3.508
 4928SOL    HW115034  11.435  12.105   3.415
 4928SOL    HW215035  11.369  12.201   3.512
 4929SOL     OW15036   3.180   4.848   2.756
 4929SOL    HW115037   3.214   4.881   2.673
 4929SOL    HW215038   3.175   4.753   2.745
 4930SOL     OW15039   4.688   8.344   1.474
 4930SOL    HW115040   4.630   8.377   1.542
 4930SOL    HW215041   4.632   8.290   1.418
 4931SOL     OW15042   2.301  12.190   2.714
 4931SOL    HW115043   2.334  12.116   2.664
 4931SOL    HW215044   2.212  12.165   2.738
 4932SOL     OW15045   6.226  10.108   2.959
 4932SOL    HW115046   6.207  10.170   3.029
 4932SOL    HW215047   6.147  10.056   2.951
 4933SOL     OW15048   6.355   9.632   6.269
 4933SOL    HW115049   6.446   9.637   6.240
 4933SOL    HW215050   6.358   9.586   6.352
 4934SOL     OW15051   8.347  11.333   1.736
 4934SOL    HW115052   8.436  11.344   1.767
 4934SOL    HW215053   8.292  11.356   1.810
 4935SOL     OW15054   6.819   8.511   4.350
 4935SOL    HW115055   6.725   8.523   4.365
 4935SOL    HW215056   6.830   8.528   4.257
 4936SOL     OW15057  10.763   8.103   3.820
 4936SOL    HW115058  10.717   8.113   3.903
 4936SOL    HW215059  10.695   8.114   3.753
 4937SOL     OW15060   2.869  10.979   1.674
 4937SOL    HW115061   2.913  11.021   1.748
 4937SOL    HW215062   2.809  11.047   1.641
 4938SOL     OW15063  11.873   9.594   1.850
 4938SOL    HW115064  11.801   9.615   1.791
 4938SOL    HW215065  11.896   9.504   1.829
 4939SOL     OW15066   7.771   6.830   5.936
 4939SOL    HW115067   7.835   6.898   5.914
 4939SOL    HW215068   7.688   6.877   5.945
 4940SOL     OW15069   6.381  11.614   3.613
 4940SOL    HW115070   6.462  11.573   3.583
 4940SOL    HW215071   6.394  11.627   3.707
 4941SOL     OW15072  10.303   9.816   4.455
 4941SOL    HW115073  10.258   9.738   4.488
 4941SOL    HW215074  10.245   9.849   4.387
 4942SOL     OW15075   3.205   4.228   2.663
 4942SOL    HW115076   3.138   4.218   2.730
 4942SOL    HW215077   3.286   4.241   2.713
 4943SOL     OW15078   2.920   3.309   2.207
 4943SOL    HW115079   2.992   3.371   2.209
 4943SOL    HW215080   2.943   3.247   2.138
 4944SOL     OW15081   5.369   1.777   0.821
 4944SOL    HW115082   5.383   1.801   0.912
 4944SOL    HW215083   5.275   1.792   0.806
 4945SOL     OW15084   2.565   4.787   0.344
 4945SOL    HW115085   2.529   4.698   0.333
 4945SOL    HW215086   2.569   4.800   0.438
 4946SOL     OW15087   5.029  11.009   5.225
 4946SOL    HW115088   5.008  10.926   5.268
 4946SOL    HW215089   4.986  11.076   5.278
 4947SOL     OW15090   8.681  12.205   6.358
 4947SOL    HW115091   8.724  12.281   6.397
 4947SOL    HW215092   8.614  12.180   6.422
 4948SOL     OW15093  14.591   8.303   7.418
 4948SOL    HW115094  14.532   8.249   7.366
 4948SOL    HW215095  14.672   8.305   7.367
 4949SOL     OW15096  10.627   9.327   0.354
 4949SOL    HW115097  10.598   9.273   0.281
 4949SOL    HW215098  10.596   9.282   0.432
 4950SOL     OW15099   8.588   9.951   5.251
 4950SOL    HW115100   8.651   9.973   5.320
 4950SOL    HW215101   8.577  10.032   5.201
 4951SOL     OW15102   8.960  11.251   1.729
 4951SOL    HW115103   8.933  11.341   1.748
 4951SOL    HW215104   9.034  11.261   1.668
 4952SOL     OW15105   6.923   8.312   2.247
 4952SOL    HW115106   6.963   8.252   2.311
 4952SOL    HW215107   6.988   8.381   2.236
 4953SOL     OW15108  13.906   6.908   6.626
 4953SOL    HW115109  13.839   6.896   6.693
 4953SOL    HW215110  13.868   6.971   6.564
 4954SOL     OW15111   7.332   9.574   0.854
 4954SOL    HW115112   7.338   9.556   0.760
 4954SOL    HW215113   7.324   9.487   0.894
 4955SOL     OW15114   9.714   8.794   1.580
 4955SOL    HW115115   9.620   8.789   1.598
 4955SOL    HW215116   9.742   8.875   1.624
 4956SOL     OW15117  12.448  12.503   6.327
 4956SOL    HW115118  12.412  12.544   6.249
 4956SOL    HW215119  12.372  12.472   6.376
 4957SOL     OW15120   9.830   6.577   5.606
 4957SOL    HW115121   9.770   6.636   5.653
 4957SOL    HW215122   9.894   6.636   5.566
 4958SOL     OW15123   2.092  11.450   1.433
 4958SOL    HW115124   2.179  11.437   1.471
 4958SOL    HW215125   2.067  11.538   1.462
 4959SOL     OW15126   9.554   8.574   5.253
 4959SOL    HW115127   9.552   8.653   5.199
 4959SOL    HW215128   9.623   8.520   5.214
 4960SOL     OW15129   5.202   6.033   2.137
 4960SOL    HW115130   5.193   6.125   2.110
 4960SOL    HW215131   5.297   6.018   2.141
 4961SOL     OW15132  10.633  13.386   7.246
 4961SOL    HW115133  10.581  13.447   7.298
 4961SOL    HW215134  10.672  13.440   7.177
 4962SOL     OW15135   1.063   8.018   0.425
 4962SOL    HW115136   1.048   7.928   0.395
 4962SOL    HW215137   1.077   8.010   0.519
 4963SOL     OW15138   4.338  10.434   4.058
 4963SOL    HW115139   4.410  10.374   4.038
 4963SOL    HW215140   4.376  10.500   4.116
 4964SOL     OW15141   6.169  15.179   6.501
 4964SOL    HW115142   6.130  15.093   6.483
 4964SOL    HW215143   6.095  15.240   6.497
 4965SOL     OW15144   2.902   7.774   1.388
 4965SOL    HW115145   2.897   7.847   1.449
 4965SOL    HW215146   2.984   7.729   1.411
 4966SOL     OW15147   5.646  15.752   7.581
 4966SOL    HW115148   0.316  10.431   0.001
 4966SOL    HW215149   5.568  15.800   7.554
 4967SOL     OW15150   4.480   9.251   4.899
 4967SOL    HW115151   4.496   9.303   4.821
 4967SOL    HW215152   4.567   9.221   4.926
 4968SOL     OW15153   7.385   8.489   5.881
 4968SOL    HW115154   7.390   8.398   5.907
 4968SOL    HW215155   7.475   8.521   5.883
 4969SOL     OW15156  13.514   7.702   7.062
 4969SOL    HW115157  13.440   7.761   7.075
 4969SOL    HW215158  13.592   7.757   7.074
 4970SOL     OW15159   7.477   4.588   4.352
 4970SOL    HW115160   7.412   4.604   4.283
 4970SOL    HW215161   7.437   4.524   4.409
 4971SOL     OW15162  14.809   6.578   7.482
 4971SOL    HW115163  14.737   6.637   7.461
 4971SOL    HW215164  14.766   6.497   7.510
 4972SOL     OW15165   1.785   5.030   0.912
 4972SOL    HW115166   1.696   5.014   0.942
 4972SOL    HW215167   1.797   4.972   0.837
 4973SOL     OW15168   8.238   9.563   7.366
 4973SOL    HW115169   8.285   9.534   7.444
 4973SOL    HW215170   8.271   9.652   7.350
 4974SOL     OW15171   9.611  10.657   4.763
 4974SOL    HW115172   9.617  10.749   4.736
 4974SOL    HW215173   9.587  10.610   4.683
 4975SOL     OW15174  13.244   6.944   4.977
 4975SOL    HW115175  13.321   6.888   4.966
 4975SOL    HW215176  13.215   6.927   5.067
 4976SOL     OW15177  10.406  14.451   5.326
 4976SOL    HW115178  10.466  14.496   5.267
 4976SOL    HW215179  10.324  14.499   5.318
 4977SOL     OW15180  10.094  11.318   7.364
 4977SOL    HW115181  10.189  11.307   7.364
 4977SOL    HW215182  10.081  11.412   7.353
 4978SOL     OW15183   7.745   5.370   6.105
 4978SOL    HW115184   7.811   5.315   6.146
 4978SOL    HW215185   7.748   5.346   6.012
 4979SOL     OW15186  13.436   5.326   6.201
 4979SOL    HW115187  13.425   5.389   6.272
 4979SOL    HW215188  13.446   5.380   6.122
 4980SOL     OW15189  13.315   6.154   4.672
 4980SOL    HW115190  13.234   6.107   4.654
 4980SOL    HW215191  13.383   6.101   4.630
 4981SOL     OW15192   2.647   4.441   2.134
 4981SOL    HW115193   2.669   4.404   2.049
 4981SOL    HW215194   2.677   4.375   2.197
 4982SOL     OW15195   9.427  13.944   5.686
 4982SOL    HW115196   9.390  14.030   5.667
 4982SOL    HW215197   9.404  13.891   5.610
 4983SOL     OW15198   8.380   7.210   2.922
 4983SOL    HW115199   8.316   7.180   2.986
 4983SOL    HW215200   8.390   7.136   2.862
 4984SOL     OW15201   4.889   2.264   2.283
 4984SOL    HW115202   4.953   2.286   2.215
 4984SOL    HW215203   4.825   2.336   2.280
 4985SOL     OW15204  10.340   4.574   1.647
 4985SOL    HW115205  10.265   4.548   1.593
 4985SOL    HW215206  10.308   4.649   1.697
 4986SOL     OW15207  10.627  10.759   2.934
 4986SOL    HW115208  10.635  10.853   2.917
 4986SOL    HW215209  10.693  10.741   3.001
 4987SOL     OW15210  14.130   5.188   6.363
 4987SOL    HW115211  14.069   5.114   6.358
 4987SOL    HW215212  14.202   5.163   6.304
 4988SOL     OW15213   7.779  11.897   7.616
 4988SOL    HW115214   7.794  11.812   7.574
 4988SOL    HW215215   7.842  11.956   7.574
 4989SOL     OW15216   2.910  10.503   0.241
 4989SOL    HW115217   2.898  10.414   0.276
 4989SOL    HW215218   2.908  10.492   0.146
 4990SOL     OW15219   8.552   5.075   6.586
 4990SOL    HW115220   8.605   5.144   6.626
 4990SOL    HW215221   8.464   5.088   6.623
 4991SOL     OW15222   6.093  11.403   5.863
 4991SOL    HW115223   6.101  11.389   5.769
 4991SOL    HW215224   6.146  11.333   5.902
 4992SOL     OW15225  10.422  10.738   3.725
 4992SOL    HW115226  10.475  10.809   3.689
 4992SOL    HW215227  10.429  10.748   3.820
 4993SOL     OW15228  11.289  12.395   2.622
 4993SOL    HW115229  11.203  12.436   2.612
 4993SOL    HW215230  11.274  12.303   2.602
 4994SOL     OW15231   9.768   9.647   3.199
 4994SOL    HW115232   9.730   9.678   3.281
 4994SOL    HW215233   9.745   9.554   3.195
 4995SOL     OW15234  11.886  13.299   4.182
 4995SOL    HW115235  11.834  13.219   4.169
 4995SOL    HW215236  11.962  13.288   4.125
 4996SOL     OW15237  13.067   8.152   5.079
 4996SOL    HW115238  13.096   8.066   5.049
 4996SOL    HW215239  13.088   8.153   5.172
 4997SOL     OW15240   1.888  11.961   1.779
 4997SOL    HW115241   1.942  11.914   1.843
 4997SOL    HW215242   1.907   1.279   1.796
 4998SOL     OW15243   5.995   9.832   0.320
 4998SOL    HW115244   5.932   9.766   0.291
 4998SOL    HW215245   6.076   9.810   0.273
 4999SOL     OW15246   6.187   4.696   1.498
 4999SOL    HW115247   6.257   4.666   1.556
 4999SOL    HW215248   6.188   4.791   1.506
 5000SOL     OW15249   3.182  12.077   4.434
 5000SOL    HW115250   3.265  12.103   4.473
 5000SOL    HW215251   3.204  12.049   4.345
 5001SOL     OW15252   8.729   3.624   1.273
 5001SOL    HW115253   8.722   3.719   1.285
 5001SOL    HW215254   8.644   3.597   1.239
 5002SOL     OW15255   8.833   8.755   5.821
 5002SOL    HW115256   8.904   8.727   5.763
 5002SOL    HW215257   8.871   8.751   5.908
 5003SOL     OW15258  12.230  10.570   3.912
 5003SOL    HW115259  12.260  10.655   3.881
 5003SOL    HW215260  12.199  10.525   3.833
 5004SOL     OW15261  10.016   3.413   4.769
 5004SOL    HW115262  10.093   3.428   4.824
 5004SOL    HW215263  10.051   3.393   4.683
 5005SOL     OW15264   4.697   4.280   1.998
 5005SOL    HW115265   4.659   4.208   2.048
 5005SOL    HW215266   4.640   4.355   2.016
 5006SOL     OW15267   2.388   7.072   0.761
 5006SOL    HW115268   2.345   7.146   0.805
 5006SOL    HW215269   2.473   7.064   0.805
 5007SOL     OW15270   2.949   5.802   4.084
 5007SOL    HW115271   2.999   5.861   4.028
 5007SOL    HW215272   2.995   5.719   4.079
 5008SOL     OW15273  10.169   7.919   0.521
 5008SOL    HW115274  10.094   7.912   0.580
 5008SOL    HW215275  10.154   7.852   0.454
 5009SOL     OW15276   4.849   3.106   0.359
 5009SOL    HW115277   4.807   3.025   0.331
 5009SOL    HW215278   4.937   3.102   0.322
 5010SOL     OW15279  11.238   8.908   6.460
 5010SOL    HW115280  11.155   8.945   6.491
 5010SOL    HW215281  11.233   8.916   6.365
 5011SOL     OW15282   5.181   8.532   7.165
 5011SOL    HW115283   5.099   8.501   7.205
 5011SOL    HW215284   5.243   8.462   7.181
 5012SOL     OW15285   5.439  11.468   2.348
 5012SOL    HW115286   5.505  11.401   2.331
 5012SOL    HW215287   5.485  11.535   2.399
 5013SOL     OW15288  12.111   7.177   2.472
 5013SOL    HW115289  12.022   7.161   2.441
 5013SOL    HW215290  12.117   7.272   2.481
 5014SOL     OW15291   2.559   5.503   0.969
 5014SOL    HW115292   2.537   5.592   0.939
 5014SOL    HW215293   2.598   5.516   1.055
 5015SOL     OW15294   5.078   1.810   1.934
 5015SOL    HW115295   5.054   1.848   1.850
 5015SOL    HW215296   5.045   1.720   1.931
 5016SOL     OW15297   9.448  11.970   6.854
 5016SOL    HW115298   9.372  12.006   6.900
 5016SOL    HW215299   9.475  11.895   6.906
 5017SOL     OW15300  13.318  14.164   7.120
 5017SOL    HW115301  13.341  14.075   7.148
 5017SOL    HW215302  13.282  14.205   7.199
 5018SOL     OW15303  13.293  14.445   7.563
 5018SOL    HW115304  13.229  14.379   7.591
 5018SOL    HW215305  13.241  14.522   7.540
 5019SOL     OW15306   7.601  12.143   6.102
 5019SOL    HW115307   7.511  12.177   6.109
 5019SOL    HW215308   7.655  12.221   6.093
 5020SOL     OW15309  13.337   7.914   7.036
 5020SOL    HW115310  13.342   8.007   7.057
 5020SOL    HW215311  13.347   7.911   6.941
 5021SOL     OW15312   7.802   5.658   0.963
 5021SOL    HW115313   7.734   5.713   1.002
 5021SOL    HW215314   7.753   5.594   0.911
 5022SOL     OW15315   9.528  10.562   2.027
 5022SOL    HW115316   9.606  10.609   2.056
 5022SOL    HW215317   9.558  10.507   1.955
 5023SOL     OW15318   7.878   9.181   4.009
 5023SOL    HW115319   7.921   9.212   3.929
 5023SOL    HW215320   7.948   9.175   4.073
 5024SOL     OW15321   9.612   9.217   5.742
 5024SOL    HW115322   9.665   9.226   5.822
 5024SOL    HW215323   9.660   9.267   5.676
 5025SOL     OW15324   7.876   4.637   1.742
 5025SOL    HW115325   7.857   4.592   1.659
 5025SOL    HW215326   7.811   4.603   1.803
 5026SOL     OW15327  13.966   8.136   7.226
 5026SOL    HW115328  14.023   8.088   7.286
 5026SOL    HW215329  13.972   8.087   7.144
 5027SOL     OW15330   3.381   0.714   0.679
 5027SOL    HW115331   3.360   0.705   0.772
 5027SOL    HW215332   3.429   0.796   0.673
 5028SOL     OW15333  13.629  11.794   4.177
 5028SOL    HW115334  13.690  11.794   4.251
 5028SOL    HW215335  13.585  11.709   4.182
 5029SOL     OW15336  12.491   3.391   3.290
 5029SOL    HW115337  12.517   3.411   3.200
 5029SOL    HW215338  12.546   3.317   3.316
 5030SOL     OW15339  14.523  14.983   7.142
 5030SOL    HW115340  14.602  15.037   7.145
 5030SOL    HW215341  14.502  14.978   7.048
 5031SOL     OW15342   8.174   7.973   1.296
 5031SOL    HW115343   8.194   8.051   1.245
 5031SOL    HW215344   8.154   8.006   1.384
 5032SOL     OW15345  14.460   7.075   6.981
 5032SOL    HW115346  14.380   7.112   6.944
 5032SOL    HW215347  14.528   7.095   6.918
 5033SOL     OW15348   8.159  11.426   6.279
 5033SOL    HW115349   8.216  11.503   6.275
 5033SOL    HW215350   8.075  11.460   6.309
 5034SOL     OW15351   5.698   5.579   0.198
 5034SOL    HW115352   5.780   5.625   0.216
 5034SOL    HW215353   5.709   5.542   0.111
 5035SOL     OW15354   8.054  10.675   4.955
 5035SOL    HW115355   8.072  10.601   4.897
 5035SOL    HW215356   8.015  10.741   4.899
 5036SOL     OW15357   4.164   7.404   3.243
 5036SOL    HW115358   4.134   7.488   3.211
 5036SOL    HW215359   4.090   7.368   3.291
 5037SOL     OW15360  13.445  10.131   4.584
 5037SOL    HW115361  13.403  10.212   4.612
 5037SOL    HW215362  13.531  10.133   4.626
 5038SOL     OW15363   3.074   0.323   0.370
 5038SOL    HW115364   3.140   0.366   0.424
 5038SOL    HW215365   2.998   0.381   0.374
 5039SOL     OW15366   4.665  11.889   3.635
 5039SOL    HW115367   4.724  11.886   3.710
 5039SOL    HW215368   4.581  11.859   3.669
 5040SOL     OW15369   9.009   8.268   2.383
 5040SOL    HW115370   8.948   8.285   2.311
 5040SOL    HW215371   8.998   8.174   2.401
 5041SOL     OW15372   8.694  10.545   0.927
 5041SOL    HW115373   8.635  10.605   0.881
 5041SOL    HW215374   8.727  10.595   1.002
 5042SOL     OW15375   2.080  10.146   1.615
 5042SOL    HW115376   2.026  10.077   1.577
 5042SOL    HW215377   2.166  10.106   1.625
 5043SOL     OW15378   9.412   4.080   1.378
 5043SOL    HW115379   9.442   4.119   1.461
 5043SOL    HW215380   9.344   4.140   1.347
 5044SOL     OW15381  12.201  10.934   3.900
 5044SOL    HW115382  12.258  10.996   3.946
 5044SOL    HW215383  12.123  10.927   3.956
 5045SOL     OW15384   6.805   3.892   3.478
 5045SOL    HW115385   6.803   3.813   3.424
 5045SOL    HW215386   6.899   3.909   3.491
 5046SOL     OW15387   4.562  10.162   2.293
 5046SOL    HW115388   4.500  10.234   2.283
 5046SOL    HW215389   4.517  10.087   2.255
 5047SOL     OW15390  13.102  14.490   5.541
 5047SOL    HW115391  13.175  14.454   5.591
 5047SOL    HW215392  13.056  14.546   5.603
 5048SOL     OW15393  11.029   8.784   2.032
 5048SOL    HW115394  11.021   8.842   1.957
 5048SOL    HW215395  10.943   8.786   2.074
 5049SOL     OW15396   7.241   9.626   7.214
 5049SOL    HW115397   7.289   9.547   7.190
 5049SOL    HW215398   7.309   9.688   7.241
 5050SOL     OW15399  14.468   7.858   7.413
 5050SOL    HW115400  14.562   7.861   7.428
 5050SOL    HW215401  14.459   7.854   7.318
 5051SOL     OW15402   8.887  14.645   6.219
 5051SOL    HW115403   8.884  14.677   6.129
 5051SOL    HW215404   8.842  14.560   6.216
 5052SOL     OW15405   3.405   1.702   0.051
 5052SOL    HW115406   3.444   1.630   0.001
 5052SOL    HW215407   3.465   1.775   0.036
 5053SOL     OW15408  11.232  14.669   6.692
 5053SOL    HW115409  11.138  14.682   6.709
 5053SOL    HW215410  11.235  14.592   6.635
 5054SOL     OW15411  15.058  14.627   7.302
 5054SOL    HW115412  14.965  14.630   7.279
 5054SOL    HW215413  15.068  14.547   7.353
 5055SOL     OW15414   5.841  11.808   7.091
 5055SOL    HW115415   5.862  11.879   7.152
 5055SOL    HW215416   5.792  11.745   7.144
 5056SOL     OW15417   2.556   5.829   1.358
 5056SOL    HW115418   2.460   5.834   1.362
 5056SOL    HW215419   2.584   5.832   1.450
 5057SOL     OW15420  12.114  13.042   4.303
 5057SOL    HW115421  12.136  13.129   4.337
 5057SOL    HW215422  12.066  13.059   4.222
 5058SOL     OW15423  10.882  11.119   5.141
 5058SOL    HW115424  10.820  11.084   5.205
 5058SOL    HW215425  10.856  11.211   5.131
 5059SOL     OW15426   1.336   5.648   1.404
 5059SOL    HW115427   1.360   5.714   1.470
 5059SOL    HW215428   1.358   5.565   1.446
 5060SOL     OW15429   9.615  14.149   4.941
 5060SOL    HW115430   9.626  14.093   5.017
 5060SOL    HW215431   9.650  14.098   4.868
 5061SOL     OW15432  10.915  12.829   4.627
 5061SOL    HW115433  11.001  12.789   4.639
 5061SOL    HW215434  10.931  12.923   4.629
 5062SOL     OW15435   7.586   5.478   6.723
 5062SOL    HW115436   7.611   5.560   6.766
 5062SOL    HW215437   7.493   5.488   6.705
 5063SOL     OW15438  11.342   1.484   1.338
 5063SOL    HW115439  11.363   1.404   1.291
 5063SOL    HW215440  11.274   1.458   1.400
 5064SOL     OW15441   4.390   9.159   1.982
 5064SOL    HW115442   4.314   9.196   1.936
 5064SOL    HW215443   4.355   9.125   2.064
 5065SOL     OW15444   9.638   6.479   5.258
 5065SOL    HW115445   9.687   6.415   5.309
 5065SOL    HW215446   9.698   6.553   5.247
 5066SOL     OW15447  12.394   6.768   3.518
 5066SOL    HW115448  12.331   6.713   3.472
 5066SOL    HW215449  12.348   6.793   3.599
 5067SOL     OW15450   4.003  11.432   1.726
 5067SOL    HW115451   3.976  11.371   1.795
 5067SOL    HW215452   4.093  11.407   1.705
 5068SOL     OW15453  11.469   3.407   1.466
 5068SOL    HW115454  11.428   3.361   1.539
 5068SOL    HW215455  11.557   3.426   1.496
 5069SOL     OW15456   9.426  10.309   5.907
 5069SOL    HW115457   9.397  10.218   5.900
 5069SOL    HW215458   9.458  10.317   5.997
 5070SOL     OW15459   7.669   1.003   1.156
 5070SOL    HW115460   7.597   0.998   1.219
 5070SOL    HW215461   7.627   1.029   1.074
 5071SOL     OW15462  10.213   9.074   4.077
 5071SOL    HW115463  10.229   9.166   4.057
 5071SOL    HW215464  10.254   9.026   4.004
 5072SOL     OW15465  12.465   9.845   3.428
 5072SOL    HW115466  12.514   9.911   3.476
 5072SOL    HW215467  12.522   9.768   3.426
 5073SOL     OW15468   9.965   6.168   0.694
 5073SOL    HW115469  10.007   6.107   0.634
 5073SOL    HW215470  10.037   6.221   0.729
 5074SOL     OW15471  13.470  12.747   4.754
 5074SOL    HW115472  13.446  12.787   4.838
 5074SOL    HW215473  13.558  12.711   4.770
 5075SOL     OW15474   7.126  12.212   3.410
 5075SOL    HW115475   7.198  12.230   3.350
 5075SOL    HW215476   7.047  12.233   3.359
 5076SOL     OW15477  13.187   8.125   4.347
 5076SOL    HW115478  13.112   8.167   4.304
 5076SOL    HW215479  13.251   8.113   4.276
 5077SOL     OW15480  10.050   1.834   0.671
 5077SOL    HW115481  10.081   1.760   0.724
 5077SOL    HW215482  10.075   1.809   0.581
 5078SOL     OW15483   9.201   8.731   4.544
 5078SOL    HW115484   9.277   8.729   4.602
 5078SOL    HW215485   9.146   8.658   4.573
 5079SOL     OW15486  13.876  13.586   5.875
 5079SOL    HW115487  13.840  13.665   5.834
 5079SOL    HW215488  13.873  13.519   5.807
 5080SOL     OW15489   7.047  11.999   5.631
 5080SOL    HW115490   7.024  11.920   5.581
 5080SOL    HW215491   6.967  12.021   5.679
 5081SOL     OW15492   6.467   7.842   6.646
 5081SOL    HW115493   6.488   7.856   6.553
 5081SOL    HW215494   6.386   7.790   6.645
 5082SOL     OW15495   8.020   8.416   6.996
 5082SOL    HW115496   8.111   8.440   7.011
 5082SOL    HW215497   8.021   8.320   6.993
 5083SOL     OW15498  10.947   3.332   3.510
 5083SOL    HW115499  10.988   3.414   3.482
 5083SOL    HW215500  10.854   3.344   3.489
 5084SOL     OW15501  10.596   8.936   0.054
 5084SOL    HW115502  10.638   8.851   0.043
 5084SOL    HW215503  15.984  14.362   7.585
 5085SOL     OW15504   8.770   5.120   2.122
 5085SOL    HW115505   8.757   5.083   2.034
 5085SOL    HW215506   8.850   5.079   2.154
 5086SOL     OW15507   9.428   9.904   2.193
 5086SOL    HW115508   9.372   9.829   2.172
 5086SOL    HW215509   9.509   9.887   2.144
 5087SOL     OW15510  10.236   5.620   6.856
 5087SOL    HW115511  10.248   5.715   6.859
 5087SOL    HW215512  10.245   5.598   6.763
 5088SOL     OW15513   6.305   5.590   0.486
 5088SOL    HW115514   6.368   5.654   0.454
 5088SOL    HW215515   6.229   5.641   0.512
 5089SOL     OW15516   3.424   3.979   0.088
 5089SOL    HW115517   3.442   3.941   0.173
 5089SOL    HW215518   3.370   4.056   0.107
 5090SOL     OW15519  11.740   6.758   1.737
 5090SOL    HW115520  11.798   6.833   1.754
 5090SOL    HW215521  11.763   6.694   1.805
 5091SOL     OW15522   9.165   9.558   1.461
 5091SOL    HW115523   9.179   9.600   1.377
 5091SOL    HW215524   9.103   9.487   1.442
 5092SOL     OW15525   7.561  10.891   3.869
 5092SOL    HW115526   7.504  10.950   3.919
 5092SOL    HW215527   7.601  10.947   3.802
 5093SOL     OW15528   6.474  11.165   4.180
 5093SOL    HW115529   6.525  11.184   4.102
 5093SOL    HW215530   6.501  11.077   4.206
 5094SOL     OW15531   7.535   1.621   1.883
 5094SOL    HW115532   7.464   1.656   1.829
 5094SOL    HW215533   7.500   1.624   1.972
 5095SOL     OW15534   6.876   9.516   5.241
 5095SOL    HW115535   6.890   9.548   5.330
 5095SOL    HW215536   6.834   9.432   5.252
 5096SOL     OW15537   9.129   8.405   4.197
 5096SOL    HW115538   9.077   8.446   4.266
 5096SOL    HW215539   9.157   8.477   4.141
 5097SOL     OW15540  12.352  11.040   6.374
 5097SOL    HW115541  12.382  11.114   6.320
 5097SOL    HW215542  12.433  11.002   6.409
 5098SOL     OW15543   5.637   7.378   3.796
 5098SOL    HW115544   5.550   7.417   3.798
 5098SOL    HW215545   5.657   7.360   3.888
 5099SOL     OW15546   7.939   8.519   7.332
 5099SOL    HW115547   8.021   8.567   7.346
 5099SOL    HW215548   7.883   8.580   7.284
 5100SOL     OW15549  14.748  14.777   6.064
 5100SOL    HW115550  14.796  14.837   6.120
 5100SOL    HW215551  14.673  14.827   6.033
 5101SOL     OW15552   9.564   3.196   4.177
 5101SOL    HW115553   9.521   3.123   4.223
 5101SOL    HW215554   9.506   3.215   4.104
 5102SOL     OW15555   5.378   6.862   1.926
 5102SOL    HW115556   5.386   6.777   1.969
 5102SOL    HW215557   5.286   6.885   1.934
 5103SOL     OW15558   1.804   4.071   0.463
 5103SOL    HW115559   1.746   4.030   0.399
 5103SOL    HW215560   1.892   4.044   0.437
 5104SOL     OW15561   8.321   4.892   6.814
 5104SOL    HW115562   8.247   4.855   6.764
 5104SOL    HW215563   8.312   4.987   6.802
 5105SOL     OW15564  11.275   8.893   6.187
 5105SOL    HW115565  11.349   8.881   6.127
 5105SOL    HW215566  11.205   8.839   6.150
 5106SOL     OW15567   3.971   9.933   2.264
 5106SOL    HW115568   4.066   9.924   2.255
 5106SOL    HW215569   3.959   9.990   2.340
 5107SOL     OW15570  13.300   9.694   7.287
 5107SOL    HW115571  13.314   9.600   7.272
 5107SOL    HW215572  13.376   9.722   7.339
 5108SOL     OW15573   5.569  10.457   4.540
 5108SOL    HW115574   5.579  10.392   4.471
 5108SOL    HW215575   5.504  10.518   4.505
 5109SOL     OW15576  11.270  12.951   7.238
 5109SOL    HW115577  11.333  12.950   7.167
 5109SOL    HW215578  11.277  12.865   7.278
 5110SOL     OW15579  12.328  12.708   7.408
 5110SOL    HW115580  12.339  12.798   7.436
 5110SOL    HW215581  12.400  12.693   7.346
 5111SOL     OW15582   7.002   0.921   0.408
 5111SOL    HW115583   7.034   0.876   0.486
 5111SOL    HW215584   6.985   1.011   0.437
 5112SOL     OW15585   6.047   5.694   0.591
 5112SOL    HW115586   6.035   5.702   0.686
 5112SOL    HW215587   6.035   5.783   0.558
 5113SOL     OW15588  13.713   6.748   5.563
 5113SOL    HW115589  13.761   6.701   5.632
 5113SOL    HW215590  13.782   6.789   5.510
 5114SOL     OW15591   3.831   3.303   4.156
 5114SOL    HW115592   3.891   3.229   4.153
 5114SOL    HW215593   3.748   3.265   4.185
 5115SOL     OW15594  10.839   9.646   5.601
 5115SOL    HW115595  10.866   9.730   5.563
 5115SOL    HW215596  10.911   9.622   5.659
 5116SOL     OW15597  11.415   2.604   3.430
 5116SOL    HW115598  11.462   2.680   3.396
 5116SOL    HW215599  11.371   2.637   3.508
 5117SOL     OW15600   6.075   6.904   4.549
 5117SOL    HW115601   6.049   6.822   4.507
 5117SOL    HW215602   6.169   6.896   4.562
 5118SOL     OW15603   2.282   7.734   2.017
 5118SOL    HW115604   2.284   7.680   2.096
 5118SOL    HW215605   2.368   7.721   1.977
 5119SOL     OW15606  10.281   7.224   0.897
 5119SOL    HW115607  10.186   7.230   0.887
 5119SOL    HW215608  10.293   7.160   0.968
 5120SOL     OW15609   7.930  13.082   4.415
 5120SOL    HW115610   7.889  13.105   4.331
 5120SOL    HW215611   8.011  13.037   4.391
 5121SOL     OW15612   8.799   9.912   0.752
 5121SOL    HW115613   8.824   9.883   0.840
 5121SOL    HW215614   8.762   9.999   0.765
 5122SOL     OW15615   7.574  11.303   6.460
 5122SOL    HW115616   7.489  11.264   6.439
 5122SOL    HW215617   7.583  11.375   6.398
 5123SOL     OW15618   3.434  10.123   2.599
 5123SOL    HW115619   3.390  10.184   2.541
 5123SOL    HW215620   3.389  10.132   2.683
 5124SOL     OW15621   9.878   7.117   6.091
 5124SOL    HW115622   9.931   7.119   6.012
 5124SOL    HW215623   9.941   7.126   6.162
 5125SOL     OW15624   9.618   7.438   1.044
 5125SOL    HW115625   9.706   7.453   1.076
 5125SOL    HW215626   9.585   7.365   1.096
 5126SOL     OW15627   9.276   8.095   2.422
 5126SOL    HW115628   9.297   8.015   2.470
 5126SOL    HW215629   9.194   8.075   2.376
 5127SOL     OW15630   7.647   7.768   3.089
 5127SOL    HW115631   7.724   7.733   3.134
 5127SOL    HW215632   7.621   7.843   3.141
 5128SOL     OW15633   2.522  10.644   1.107
 5128SOL    HW115634   2.579  10.688   1.045
 5128SOL    HW215635   2.551  10.676   1.193
 5129SOL     OW15636  14.659   5.437   7.368
 5129SOL    HW115637  14.685   5.507   7.308
 5129SOL    HW215638  14.585   5.395   7.323
 5130SOL     OW15639   4.759  10.911   1.404
 5130SOL    HW115640   4.716  10.961   1.473
 5130SOL    HW215641   4.846  10.892   1.438
 5131SOL     OW15642   3.798   8.944   4.801
 5131SOL    HW115643   3.893   8.934   4.812
 5131SOL    HW215644   3.764   8.856   4.817
 5132SOL     OW15645   5.787   8.924   4.765
 5132SOL    HW115646   5.757   8.834   4.776
 5132SOL    HW215647   5.707   8.976   4.771
 5133SOL     OW15648   3.080   6.903   0.034
 5133SOL    HW115649   3.159   6.958   0.034
 5133SOL    HW215650   8.492  12.213   7.603
 5134SOL     OW15651   4.800  10.365   5.133
 5134SOL    HW115652   4.721  10.413   5.108
 5134SOL    HW215653   4.769  10.277   5.153
 5135SOL     OW15654   9.406   6.872   2.035
 5135SOL    HW115655   9.477   6.920   1.992
 5135SOL    HW215656   9.412   6.783   2.000
 5136SOL     OW15657   9.299   4.783   1.559
 5136SOL    HW115658   9.237   4.798   1.488
 5136SOL    HW215659   9.250   4.803   1.639
 5137SOL     OW15660   1.935   4.722   0.414
 5137SOL    HW115661   2.005   4.660   0.395
 5137SOL    HW215662   1.945   4.742   0.508
 5138SOL     OW15663   6.665   3.737   2.105
 5138SOL    HW115664   6.634   3.726   2.015
 5138SOL    HW215665   6.710   3.822   2.104
 5139SOL     OW15666   7.289   2.271   1.994
 5139SOL    HW115667   7.216   2.289   2.053
 5139SOL    HW215668   7.341   2.205   2.039
 5140SOL     OW15669   2.346   2.701   0.288
 5140SOL    HW115670   2.335   2.606   0.280
 5140SOL    HW215671   2.388   2.726   0.206
 5141SOL     OW15672   4.047   7.517   3.860
 5141SOL    HW115673   4.001   7.547   3.781
 5141SOL    HW215674   4.016   7.576   3.929
 5142SOL     OW15675  11.592   7.359   4.808
 5142SOL    HW115676  11.591   7.412   4.888
 5142SOL    HW215677  11.620   7.272   4.838
 5143SOL     OW15678   4.195   5.288   1.526
 5143SOL    HW115679   4.136   5.330   1.464
 5143SOL    HW215680   4.282   5.321   1.503
 5144SOL     OW15681   6.707   7.303   4.177
 5144SOL    HW115682   6.682   7.366   4.244
 5144SOL    HW215683   6.778   7.253   4.216
 5145SOL     OW15684   1.670   6.006   1.056
 5145SOL    HW115685   1.611   6.073   1.092
 5145SOL    HW215686   1.674   6.026   0.962
 5146SOL     OW15687   5.528  10.966   6.718
 5146SOL    HW115688   5.601  11.016   6.757
 5146SOL    HW215689   5.455  10.979   6.779
 5147SOL     OW15690   8.186  12.175   5.630
 5147SOL    HW115691   8.250  12.174   5.701
 5147SOL    HW215692   8.207  12.097   5.579
 5148SOL     OW15693  12.158   9.319   7.274
 5148SOL    HW115694  12.146   9.330   7.369
 5148SOL    HW215695  12.092   9.255   7.248
 5149SOL     OW15696   8.988   8.224   3.827
 5149SOL    HW115697   9.040   8.196   3.752
 5149SOL    HW215698   8.981   8.147   3.883
 5150SOL     OW15699   7.020   4.896   3.580
 5150SOL    HW115700   7.008   4.807   3.612
 5150SOL    HW215701   7.034   4.885   3.486
 5151SOL     OW15702   5.556   8.471   1.055
 5151SOL    HW115703   5.599   8.388   1.035
 5151SOL    HW215704   5.464   8.448   1.068
 5152SOL     OW15705  11.841   9.962   5.581
 5152SOL    HW115706  11.908  10.030   5.589
 5152SOL    HW215707  11.829   9.951   5.486
 5153SOL     OW15708   3.930   4.716   5.485
 5153SOL    HW115709  14.619   4.672   5.481
 5153SOL    HW215710   3.910   4.809   5.474
 5154SOL     OW15711   7.706  10.122   4.287
 5154SOL    HW115712   7.662  10.083   4.211
 5154SOL    HW215713   7.775  10.061   4.309
 5155SOL     OW15714   3.053   5.465   1.016
 5155SOL    HW115715   3.142   5.487   0.989
 5155SOL    HW215716   3.007   5.445   0.934
 5156SOL     OW15717  11.050  10.897   6.897
 5156SOL    HW115718  10.974  10.907   6.955
 5156SOL    HW215719  11.124  10.929   6.949
 5157SOL     OW15720   9.256   1.912   2.338
 5157SOL    HW115721   9.298   1.998   2.347
 5157SOL    HW215722   9.277   1.867   2.420
 5158SOL     OW15723   6.683  12.795   4.594
 5158SOL    HW115724   6.739  12.750   4.657
 5158SOL    HW215725   6.668  12.731   4.524
 5159SOL     OW15726  14.293  12.114   4.999
 5159SOL    HW115727   3.562  12.136   4.916
 5159SOL    HW215728  14.237  12.189   5.016
 5160SOL     OW15729  10.581  10.282   5.027
 5160SOL    HW115730  10.593  10.222   4.954
 5160SOL    HW215731  10.610  10.233   5.104
 5161SOL     OW15732   2.383   3.994   0.762
 5161SOL    HW115733   2.412   4.041   0.840
 5161SOL    HW215734   2.445   4.019   0.694
 5162SOL     OW15735   8.679   1.886   1.896
 5162SOL    HW115736   8.730   1.821   1.944
 5162SOL    HW215737   8.699   1.969   1.940
 5163SOL     OW15738  11.139   7.208   6.936
 5163SOL    HW115739  11.183   7.152   7.000
 5163SOL    HW215740  11.095   7.275   6.989
 5164SOL     OW15741  10.467   2.095   2.771
 5164SOL    HW115742  10.466   2.000   2.775
 5164SOL    HW215743  10.450   2.124   2.860
 5165SOL     OW15744   5.200   8.325   1.889
 5165SOL    HW115745   5.268   8.281   1.838
 5165SOL    HW215746   5.118   8.297   1.849
 5166SOL     OW15747  10.349   8.914   3.860
 5166SOL    HW115748  10.300   8.847   3.812
 5166SOL    HW215749  10.412   8.949   3.797
 5167SOL     OW15750   4.230  10.047   5.528
 5167SOL    HW115751   4.222  10.016   5.438
 5167SOL    HW215752   4.149  10.018   5.571
 5168SOL     OW15753   8.027   5.712   3.417
 5168SOL    HW115754   8.001   5.794   3.459
 5168SOL    HW215755   8.117   5.696   3.447
 5169SOL     OW15756  10.611   6.501   4.364
 5169SOL    HW115757  10.544   6.528   4.300
 5169SOL    HW215758  10.630   6.410   4.341
 5170SOL     OW15759  10.203  10.609   2.764
 5170SOL    HW115760  10.166  10.585   2.849
 5170SOL    HW215761  10.296  10.626   2.782
 5171SOL     OW15762   4.486   9.217   3.133
 5171SOL    HW115763   4.418   9.153   3.154
 5171SOL    HW215764   4.538   9.174   3.065
 5172SOL     OW15765   4.597  10.173   1.205
 5172SOL    HW115766   4.590  10.268   1.210
 5172SOL    HW215767   4.691  10.156   1.209
 5173SOL     OW15768  10.187   5.557   4.597
 5173SOL    HW115769  10.244   5.523   4.666
 5173SOL    HW215770  10.170   5.648   4.623
 5174SOL     OW15771  13.873   8.657   4.940
 5174SOL    HW115772  13.825   8.628   5.017
 5174SOL    HW215773  13.807   8.698   4.885
 5175SOL     OW15774   8.118   5.961   4.702
 5175SOL    HW115775   8.130   5.904   4.626
 5175SOL    HW215776   8.027   5.990   4.695
 5176SOL     OW15777  12.794  12.237   4.397
 5176SOL    HW115778  12.804  12.282   4.313
 5176SOL    HW215779  12.848  12.288   4.457
 5177SOL     OW15780  11.298  13.597   5.175
 5177SOL    HW115781  11.203  13.596   5.170
 5177SOL    HW215782  11.319  13.528   5.238
 5178SOL     OW15783   5.588  10.811   1.758
 5178SOL    HW115784   5.625  10.731   1.721
 5178SOL    HW215785   5.603  10.878   1.691
 5179SOL     OW15786   4.422   7.786   3.593
 5179SOL    HW115787   4.336   7.784   3.634
 5179SOL    HW215788   4.483   7.770   3.665
 5180SOL     OW15789   8.517   5.401   2.805
 5180SOL    HW115790   8.612   5.393   2.814
 5180SOL    HW215791   8.496   5.348   2.727
 5181SOL     OW15792   6.771   4.995   3.651
 5181SOL    HW115793   6.741   5.054   3.582
 5181SOL    HW215794   6.864   4.984   3.633
 5182SOL     OW15795  10.033  13.487   5.301
 5182SOL    HW115796  10.104  13.439   5.344
 5182SOL    HW215797  10.018  13.563   5.356
 5183SOL     OW15798   7.061   7.525   1.082
 5183SOL    HW115799   7.107   7.548   1.001
 5183SOL    HW215800   7.118   7.556   1.152
 5184SOL     OW15801   3.503   7.907   1.231
 5184SOL    HW115802   3.576   7.958   1.195
 5184SOL    HW215803   3.545   7.829   1.267
 5185SOL     OW15804   1.307   4.872   0.800
 5185SOL    HW115805   1.302   4.828   0.716
 5185SOL    HW215806   1.331   4.803   0.862
 5186SOL     OW15807  13.931   6.810   4.595
 5186SOL    HW115808  13.903   6.815   4.503
 5186SOL    HW215809  14.001   6.875   4.602
 5187SOL     OW15810   8.017   8.319   3.813
 5187SOL    HW115811   8.109   8.291   3.822
 5187SOL    HW215812   8.020   8.392   3.752
 5188SOL     OW15813  10.772   9.195   5.658
 5188SOL    HW115814  10.677   9.184   5.665
 5188SOL    HW215815  10.794   9.162   5.571
 5189SOL     OW15816   6.830  12.508   6.938
 5189SOL    HW115817   6.831  12.535   6.846
 5189SOL    HW215818   6.766  12.437   6.942
 5190SOL     OW15819   6.046  10.211   3.814
 5190SOL    HW115820   6.109  10.198   3.743
 5190SOL    HW215821   5.979  10.144   3.799
 5191SOL     OW15822   4.918  10.599   3.271
 5191SOL    HW115823   4.924  10.559   3.183
 5191SOL    HW215824   4.832  10.571   3.303
 5192SOL     OW15825   9.443   4.158   4.908
 5192SOL    HW115826   9.525   4.199   4.884
 5192SOL    HW215827   9.377   4.202   4.855
 5193SOL     OW15828   4.369  13.256   4.850
 5193SOL    HW115829   4.308  13.198   4.803
 5193SOL    HW215830   4.424  13.293   4.782
 5194SOL     OW15831  10.870  11.187   1.833
 5194SOL    HW115832  10.905  11.271   1.864
 5194SOL    HW215833  10.867  11.131   1.911
 5195SOL     OW15834   3.303   1.796   0.559
 5195SOL    HW115835   3.220   1.787   0.605
 5195SOL    HW215836   3.289   1.755   0.474
 5196SOL     OW15837   1.513   9.556   2.004
 5196SOL    HW115838   1.519   9.465   1.975
 5196SOL    HW215839   1.529   9.552   2.098
 5197SOL     OW15840   7.976  10.011   1.472
 5197SOL    HW115841   8.047  10.062   1.512
 5197SOL    HW215842   8.020   9.933   1.438
 5198SOL     OW15843   0.624   6.099   0.127
 5198SOL    HW115844   0.695   6.035   0.131
 5198SOL    HW215845   0.619   6.135   0.215
 5199SOL     OW15846   3.042   6.294   1.655
 5199SOL    HW115847   3.105   6.288   1.583
 5199SOL    HW215848   3.066   6.374   1.701
 5200SOL     OW15849  14.503  14.454   7.293
 5200SOL    HW115850  14.481  14.435   7.202
 5200SOL    HW215851  14.421  14.447   7.341
 5201SOL     OW15852   8.043   3.125   2.118
 5201SOL    HW115853   7.987   3.052   2.144
 5201SOL    HW215854   8.047   3.181   2.196
 5202SOL     OW15855  10.923   6.029   4.733
 5202SOL    HW115856  10.897   6.099   4.674
 5202SOL    HW215857  10.907   6.063   4.821
 5203SOL     OW15858   9.166   2.808   0.453
 5203SOL    HW115859   9.227   2.855   0.396
 5203SOL    HW215860   9.096   2.779   0.395
 5204SOL     OW15861   9.595   4.025   2.339
 5204SOL    HW115862   9.528   3.974   2.384
 5204SOL    HW215863   9.549   4.103   2.307
 5205SOL     OW15864   4.546   4.154   0.237
 5205SOL    HW115865   4.580   4.088   0.298
 5205SOL    HW215866   4.452   4.156   0.254
 5206SOL     OW15867  10.218   9.101   4.665
 5206SOL    HW115868  10.212   9.193   4.642
 5206SOL    HW215869  10.148   9.086   4.728
 5207SOL     OW15870   6.592   7.093   1.171
 5207SOL    HW115871   6.594   7.101   1.266
 5207SOL    HW215872   6.525   7.154   1.142
 5208SOL     OW15873  11.330   7.614   4.562
 5208SOL    HW115874  11.307   7.707   4.558
 5208SOL    HW215875  11.425   7.613   4.561
 5209SOL     OW15876   9.542   9.049   7.045
 5209SOL    HW115877   9.481   9.098   7.100
 5209SOL    HW215878   9.503   8.961   7.040
 5210SOL     OW15879  13.240   4.659   3.572
 5210SOL    HW115880  13.313   4.688   3.627
 5210SOL    HW215881  13.176   4.624   3.634
 5211SOL     OW15882  11.239  11.326   6.721
 5211SOL    HW115883  11.189  11.263   6.773
 5211SOL    HW215884  11.309  11.273   6.681
 5212SOL     OW15885   5.674  12.375   2.752
 5212SOL    HW115886   5.631  12.338   2.829
 5212SOL    HW215887   5.707  12.460   2.781
 5213SOL     OW15888   8.951  12.057   4.918
 5213SOL    HW115889   9.028  12.089   4.871
 5213SOL    HW215890   8.967  11.963   4.929
 5214SOL     OW15891  11.588  13.143   5.157
 5214SOL    HW115892  11.581  13.234   5.185
 5214SOL    HW215893  11.641  13.101   5.224
 5215SOL     OW15894   6.546  10.158   4.037
 5215SOL    HW115895   6.469  10.215   4.036
 5215SOL    HW215896   6.559  10.137   4.129
 5216SOL     OW15897   7.491  10.632   3.853
 5216SOL    HW115898   7.477  10.645   3.947
 5216SOL    HW215899   7.524  10.716   3.821
 5217SOL     OW15900  13.089  12.881   4.252
 5217SOL    HW115901  13.045  12.909   4.332
 5217SOL    HW215902  13.123  12.961   4.213
 5218SOL     OW15903   2.238   9.975   0.764
 5218SOL    HW115904   2.197   9.890   0.750
 5218SOL    HW215905   2.318   9.971   0.711
 5219SOL     OW15906   3.535   4.585   0.170
 5219SOL    HW115907   3.448   4.547   0.173
 5219SOL    HW215908   3.540   4.641   0.248
 5220SOL     OW15909  12.924   8.243   4.388
 5220SOL    HW115910  12.950   8.193   4.465
 5220SOL    HW215911  12.922   8.334   4.418
 5221SOL     OW15912   0.686   7.308   0.411
 5221SOL    HW115913   0.755   7.337   0.352
 5221SOL    HW215914   0.623   7.380   0.412
 5222SOL     OW15915   5.562  12.200   2.940
 5222SOL    HW115916   5.549  12.252   3.020
 5222SOL    HW215917   5.481  12.150   2.931
 5223SOL     OW15918   2.555  11.712   3.162
 5223SOL    HW115919   2.528  11.804   3.162
 5223SOL    HW215920   2.579  11.694   3.253
 5224SOL     OW15921   7.037   6.312   1.677
 5224SOL    HW115922   7.104   6.249   1.651
 5224SOL    HW215923   6.971   6.259   1.722
 5225SOL     OW15924  13.250  10.701   3.781
 5225SOL    HW115925  13.189  10.700   3.708
 5225SOL    HW215926  13.289  10.789   3.778
 5226SOL     OW15927   7.773   4.886   5.188
 5226SOL    HW115928   7.800   4.844   5.107
 5226SOL    HW215929   7.696   4.835   5.217
 5227SOL     OW15930   7.623  12.403   3.977
 5227SOL    HW115931   7.620  12.496   3.998
 5227SOL    HW215932   7.560  12.392   3.906
 5228SOL     OW15933  10.980  14.036   5.588
 5228SOL    HW115934  10.906  13.977   5.573
 5228SOL    HW215935  11.051  14.000   5.534
 5229SOL     OW15936   6.720   4.192   3.480
 5229SOL    HW115937   6.726   4.097   3.489
 5229SOL    HW215938   6.760   4.212   3.396
 5230SOL     OW15939  14.799   7.248   6.228
 5230SOL    HW115940  14.893   7.252   6.240
 5230SOL    HW215941  14.786   7.270   6.136
 5231SOL     OW15942   5.408  10.219   1.481
 5231SOL    HW115943   5.417  10.258   1.568
 5231SOL    HW215944   5.410  10.125   1.497
 5232SOL     OW15945  11.170   5.320   7.115
 5232SOL    HW115946  11.231   5.335   7.043
 5232SOL    HW215947  11.216   5.260   7.173
 5233SOL     OW15948  12.402  13.258   3.687
 5233SOL    HW115949  12.437  13.190   3.631
 5233SOL    HW215950  12.469  13.271   3.754
 5234SOL     OW15951   4.080   8.143   5.415
 5234SOL    HW115952   4.026   8.123   5.491
 5234SOL    HW215953   4.061   8.235   5.396
 5235SOL     OW15954   4.136   9.775   1.619
 5235SOL    HW115955   4.080   9.769   1.541
 5235SOL    HW215956   4.095   9.715   1.682
 5236SOL     OW15957   2.592   5.451   0.647
 5236SOL    HW115958   2.588   5.541   0.680
 5236SOL    HW215959   2.549   5.455   0.562
 5237SOL     OW15960   2.302   1.145   0.891
 5237SOL    HW115961   2.366   1.121   0.959
 5237SOL    HW215962   2.318   1.083   0.820
 5238SOL     OW15963   9.287   2.485   0.291
 5238SOL    HW115964   9.237   2.426   0.347
 5238SOL    HW215965   9.221   2.526   0.235
 5239SOL     OW15966   2.557  10.395   0.381
 5239SOL    HW115967   2.567  10.372   0.289
 5239SOL    HW215968   2.476  10.446   0.385
 5240SOL     OW15969   6.091   8.735   6.762
 5240SOL    HW115970   6.007   8.744   6.807
 5240SOL    HW215971   6.068   8.713   6.672
 5241SOL     OW15972   5.256  12.326   3.396
 5241SOL    HW115973   5.274  12.321   3.490
 5241SOL    HW215974   5.295  12.409   3.368
 5242SOL     OW15975  11.360   6.543   4.965
 5242SOL    HW115976  11.305   6.487   4.911
 5242SOL    HW215977  11.409   6.596   4.902
 5243SOL     OW15978  13.662  14.259   6.213
 5243SOL    HW115979  13.609  14.182   6.195
 5243SOL    HW215980  13.613  14.332   6.176
 5244SOL     OW15981   7.691   9.087   5.218
 5244SOL    HW115982   7.742   9.073   5.298
 5244SOL    HW215983   7.600   9.089   5.248
 5245SOL     OW15984   1.391   8.428   0.900
 5245SOL    HW115985   1.304   8.389   0.911
 5245SOL    HW215986   1.452   8.355   0.912
 5246SOL     OW15987  12.250  10.067   5.751
 5246SOL    HW115988  12.186  10.064   5.822
 5246SOL    HW215989  12.254   9.978   5.718
 5247SOL     OW15990   7.071   4.157   0.173
 5247SOL    HW115991   7.051   4.081   0.227
 5247SOL    HW215992   7.052   4.233   0.229
 5248SOL     OW15993   3.656   8.989   2.962
 5248SOL    HW115994   3.738   8.968   3.007
 5248SOL    HW215995   3.614   8.904   2.947
 5249SOL     OW15996   7.723   7.272   5.457
 5249SOL    HW115997   7.661   7.263   5.385
 5249SOL    HW215998   7.806   7.292   5.413
 5250SOL     OW15999   4.279  11.942   5.035
 5250SOL    HW116000   4.359  11.969   5.079
 5250SOL    HW216001   4.213  11.939   5.104
 5251SOL     OW16002   6.923   8.112   5.917
 5251SOL    HW116003   6.928   8.055   5.841
 5251SOL    HW216004   7.007   8.101   5.962
 5252SOL     OW16005  10.853   4.284   1.443
 5252SOL    HW116006  10.832   4.376   1.454
 5252SOL    HW216007  10.908   4.281   1.365
 5253SOL     OW16008  12.817   5.226   4.487
 5253SOL    HW116009  12.828   5.291   4.418
 5253SOL    HW216010  12.903   5.183   4.493
 5254SOL     OW16011   3.448  11.427   2.821
 5254SOL    HW116012   3.462  11.492   2.752
 5254SOL    HW216013   3.473  11.344   2.780
 5255SOL     OW16014   6.508   3.342   2.347
 5255SOL    HW116015   6.528   3.259   2.391
 5255SOL    HW216016   6.530   3.326   2.255
 5256SOL     OW16017   9.318   8.580   0.101
 5256SOL    HW116018   9.293   8.501   0.054
 5256SOL    HW216019   9.404   8.560   0.138
 5257SOL     OW16020   1.411  11.572   1.652
 5257SOL    HW116021   1.432  11.591   1.743
 5257SOL    HW216022   1.411  11.657   1.609
 5258SOL     OW16023   8.668   4.800   1.351
 5258SOL    HW116024   8.664   4.750   1.433
 5258SOL    HW216025   8.690   4.734   1.285
 5259SOL     OW16026   8.045  10.560   0.117
 5259SOL    HW116027   7.993  10.600   0.187
 5259SOL    HW216028   8.097  10.632   0.081
 5260SOL     OW16029   7.203  10.777   2.567
 5260SOL    HW116030   7.195  10.786   2.662
 5260SOL    HW216031   7.145  10.845   2.531
 5261SOL     OW16032   7.158  11.046   7.472
 5261SOL    HW116033   7.221  11.022   7.540
 5261SOL    HW216034   7.166  11.141   7.463
 5262SOL     OW16035  13.128  13.362   4.748
 5262SOL    HW116036  13.066  13.309   4.799
 5262SOL    HW216037  13.127  13.322   4.661
 5263SOL     OW16038   1.834   5.448   0.454
 5263SOL    HW116039   1.885   5.524   0.482
 5263SOL    HW216040   1.772   5.483   0.390
 5264SOL     OW16041  11.335   7.680   4.269
 5264SOL    HW116042  11.382   7.684   4.352
 5264SOL    HW216043  11.255   7.630   4.289
 5265SOL     OW16044   4.986  10.358   3.097
 5265SOL    HW116045   4.929  10.283   3.104
 5265SOL    HW216046   5.059  10.339   3.155
 5266SOL     OW16047   7.400   6.119   1.439
 5266SOL    HW116048   7.377   6.210   1.457
 5266SOL    HW216049   7.395   6.075   1.524
 5267SOL     OW16050   2.872   8.797   1.451
 5267SOL    HW116051   2.965   8.788   1.431
 5267SOL    HW216052   2.828   8.776   1.369
 5268SOL     OW16053   9.233  13.295   6.590
 5268SOL    HW116054   9.244  13.351   6.666
 5268SOL    HW216055   9.272  13.345   6.518
 5269SOL     OW16056   9.233   5.117   0.780
 5269SOL    HW116057   9.217   5.083   0.869
 5269SOL    HW216058   9.300   5.184   0.792
 5270SOL     OW16059   4.911   9.491   3.965
 5270SOL    HW116060   4.887   9.445   3.885
 5270SOL    HW216061   4.957   9.569   3.936
 5271SOL     OW16062  11.349   9.116   3.294
 5271SOL    HW116063  11.371   9.182   3.360
 5271SOL    HW216064  11.333   9.168   3.214
 5272SOL     OW16065   6.050  11.701   2.673
 5272SOL    HW116066   6.021  11.676   2.760
 5272SOL    HW216067   6.105  11.777   2.687
 5273SOL     OW16068   5.630  12.630   7.350
 5273SOL    HW116069   5.553  12.636   7.407
 5273SOL    HW216070   5.598  12.585   7.272
 5274SOL     OW16071   8.353  10.119   5.134
 5274SOL    HW116072   8.285  10.178   5.102
 5274SOL    HW216073   8.330  10.034   5.098
 5275SOL     OW16074   3.697   2.915   1.542
 5275SOL    HW116075   3.780   2.944   1.578
 5275SOL    HW216076   3.692   2.822   1.566
 5276SOL     OW16077  11.242   4.368   4.996
 5276SOL    HW116078  11.163   4.417   5.018
 5276SOL    HW216079  11.246   4.372   4.900
 5277SOL     OW16080   3.563   9.517   1.367
 5277SOL    HW116081   3.523   9.525   1.280
 5277SOL    HW216082   3.495   9.545   1.428
 5278SOL     OW16083   3.670   5.697   3.226
 5278SOL    HW116084   3.749   5.675   3.275
 5278SOL    HW216085   3.643   5.782   3.261
 5279SOL     OW16086   8.242   3.147   1.319
 5279SOL    HW116087   8.253   3.052   1.314
 5279SOL    HW216088   8.269   3.179   1.233
 5280SOL     OW16089   6.783  10.362   4.364
 5280SOL    HW116090   6.838  10.285   4.359
 5280SOL    HW216091   6.762  10.384   4.273
 5281SOL     OW16092   7.397   7.830   5.549
 5281SOL    HW116093   7.475   7.784   5.518
 5281SOL    HW216094   7.399   7.914   5.504
 5282SOL     OW16095   5.504   8.403   2.026
 5282SOL    HW116096   5.427   8.422   1.972
 5282SOL    HW216097   5.479   8.327   2.077
 5283SOL     OW16098   9.244   8.725   5.562
 5283SOL    HW116099   9.207   8.796   5.508
 5283SOL    HW216100   9.169   8.671   5.585
 5284SOL     OW16101   3.208   7.112   1.184
 5284SOL    HW116102   3.132   7.169   1.171
 5284SOL    HW216103   3.219   7.107   1.279
 5285SOL     OW16104  10.000  10.937   4.761
 5285SOL    HW116105   9.989  10.898   4.847
 5285SOL    HW216106  10.034  11.025   4.778
 5286SOL     OW16107   6.055   6.851   7.075
 5286SOL    HW116108   6.035   6.930   7.125
 5286SOL    HW216109   6.133   6.874   7.024
 5287SOL     OW16110   6.170   6.484   5.684
 5287SOL    HW116111   6.087   6.454   5.648
 5287SOL    HW216112   6.237   6.431   5.640
 5288SOL     OW16113   1.256   1.739   1.242
 5288SOL    HW116114   1.339   1.749   1.287
 5288SOL    HW216115   1.234   1.828   1.214
 5289SOL     OW16116   6.461   7.400   1.475
 5289SOL    HW116117   6.462   7.398   1.379
 5289SOL    HW216118   6.509   7.322   1.501
 5290SOL     OW16119  12.624  11.242   3.151
 5290SOL    HW116120  12.574  11.279   3.078
 5290SOL    HW216121  12.644  11.317   3.207
 5291SOL     OW16122  10.777   6.841   0.662
 5291SOL    HW116123  10.853   6.785   0.645
 5291SOL    HW216124  10.809   6.930   0.653
 5292SOL     OW16125  10.110   4.312   4.847
 5292SOL    HW116126  10.157   4.317   4.930
 5292SOL    HW216127  10.173   4.342   4.782
 5293SOL     OW16128  14.006  11.684   7.567
 5293SOL    HW116129  14.098  11.666   7.550
 5293SOL    HW216130  13.973  11.603   7.607
 5294SOL     OW16131   7.480   8.411   5.389
 5294SOL    HW116132   7.520   8.401   5.303
 5294SOL    HW216133   7.490   8.325   5.430
 5295SOL     OW16134   8.489  11.312   1.372
 5295SOL    HW116135   8.452  11.277   1.291
 5295SOL    HW216136   8.518  11.234   1.420
 5296SOL     OW16137   6.986   3.164   3.909
 5296SOL    HW116138   6.908   3.129   3.953
 5296SOL    HW216139   6.958   3.250   3.876
 5297SOL     OW16140  11.986   9.393   3.012
 5297SOL    HW116141  12.019   9.427   2.929
 5297SOL    HW216142  11.935   9.465   3.049
 5298SOL     OW16143   7.174  13.555   5.499
 5298SOL    HW116144   7.099  13.500   5.520
 5298SOL    HW216145   7.202  13.525   5.412
 5299SOL     OW16146   9.112   6.656   6.661
 5299SOL    HW116147   9.157   6.575   6.634
 5299SOL    HW216148   9.034   6.660   6.606
 5300SOL     OW16149   8.533   8.811   3.538
 5300SOL    HW116150   8.461   8.815   3.475
 5300SOL    HW216151   8.513   8.735   3.592
 5301SOL     OW16152   5.301   8.517   6.570
 5301SOL    HW116153   5.239   8.589   6.561
 5301SOL    HW216154   5.377   8.545   6.518
 5302SOL     OW16155   7.396   6.318   7.140
 5302SOL    HW116156   7.320   6.325   7.197
 5302SOL    HW216157   7.360   6.313   7.051
 5303SOL     OW16158   4.047   6.028   1.099
 5303SOL    HW116159   3.979   6.010   1.164
 5303SOL    HW216160   4.003   6.082   1.033
 5304SOL     OW16161   8.604  14.093   6.596
 5304SOL    HW116162   8.603  14.188   6.609
 5304SOL    HW216163   8.657  14.080   6.517
 5305SOL     OW16164   1.954  12.280   2.736
 5305SOL    HW116165  12.687  12.338   2.800
 5305SOL    HW216166  12.673  12.202   2.736
 5306SOL     OW16167   5.896   3.915   4.242
 5306SOL    HW116168   5.874   3.994   4.292
 5306SOL    HW216169   5.988   3.899   4.263
 5307SOL     OW16170   4.438   7.654   2.777
 5307SOL    HW116171   4.350   7.626   2.804
 5307SOL    HW216172   4.423   7.709   2.701
 5308SOL     OW16173   9.292  11.851   1.776
 5308SOL    HW116174   9.331  11.805   1.850
 5308SOL    HW216175   9.286  11.942   1.805
 5309SOL     OW16176   8.266  10.159   3.356
 5309SOL    HW116177   8.224  10.074   3.350
 5309SOL    HW216178   8.258  10.184   3.448
 5310SOL     OW16179   3.565  11.405   1.389
 5310SOL    HW116180   3.623  11.408   1.312
 5310SOL    HW216181   3.487  11.453   1.362
 5311SOL     OW16182  10.395   8.024   2.537
 5311SOL    HW116183  10.382   7.970   2.615
 5311SOL    HW216184  10.452   7.972   2.480
 5312SOL     OW16185   0.225   3.273   0.162
 5312SOL    HW116186   0.266   3.242   0.243
 5312SOL    HW216187   0.201   3.363   0.180
 5313SOL     OW16188  10.089   6.261   2.907
 5313SOL    HW116189  10.021   6.211   2.862
 5313SOL    HW216190  10.166   6.254   2.851
 5314SOL     OW16191   9.518  10.576   4.506
 5314SOL    HW116192   9.570  10.645   4.466
 5314SOL    HW216193   9.430  10.613   4.516
 5315SOL     OW16194  12.147   7.029   7.450
 5315SOL    HW116195  12.207   7.071   7.512
 5315SOL    HW216196  12.110   6.956   7.499
 5316SOL     OW16197  10.661  11.967   2.141
 5316SOL    HW116198  10.658  12.031   2.212
 5316SOL    HW216199  10.754  11.957   2.121
 5317SOL     OW16200  12.633   5.471   3.476
 5317SOL    HW116201  12.728   5.472   3.481
 5317SOL    HW216202  12.604   5.493   3.565
 5318SOL     OW16203   7.511   9.523   4.085
 5318SOL    HW116204   7.553   9.438   4.097
 5318SOL    HW216205   7.562   9.567   4.017
 5319SOL     OW16206  12.611  12.699   6.228
 5319SOL    HW116207  12.566  12.622   6.263
 5319SOL    HW216208  12.672  12.664   6.164
 5320SOL     OW16209   5.615   3.029   0.358
 5320SOL    HW116210   5.520   3.029   0.355
 5320SOL    HW216211   5.636   3.051   0.449
 5321SOL     OW16212   0.911  10.012   1.242
 5321SOL    HW116213   0.880  10.099   1.216
 5321SOL    HW216214   0.986   9.995   1.186
 5322SOL     OW16215  10.571   3.760   4.116
 5322SOL    HW116216  10.541   3.844   4.151
 5322SOL    HW216217  10.615   3.783   4.034
 5323SOL     OW16218   5.455   8.020   3.808
 5323SOL    HW116219   5.484   8.106   3.778
 5323SOL    HW216220   5.525   7.988   3.864
 5324SOL     OW16221   7.085  10.044   0.328
 5324SOL    HW116222   7.136   9.964   0.338
 5324SOL    HW216223   7.016  10.037   0.394
 5325SOL     OW16224   7.529   4.252   3.402
 5325SOL    HW116225   7.467   4.212   3.462
 5325SOL    HW216226   7.541   4.341   3.435
 5326SOL     OW16227   7.151   9.833   0.003
 5326SOL    HW116228   7.220   9.882   0.048
 5326SOL    HW216229   7.117   9.773   0.070
 5327SOL     OW16230  12.235  11.227   3.782
 5327SOL    HW116231  12.212  11.286   3.711
 5327SOL    HW216232  12.224  11.279   3.861
 5328SOL     OW16233  10.790   8.054   0.380
 5328SOL    HW116234  10.730   8.021   0.313
 5328SOL    HW216235  10.735   8.066   0.457
 5329SOL     OW16236   9.311   1.883   0.087
 5329SOL    HW116237  14.688   7.277   7.611
 5329SOL    HW216238   9.362   1.803   0.100
 5330SOL     OW16239  14.129   8.416   5.885
 5330SOL    HW116240  14.080   8.489   5.846
 5330SOL    HW216241  14.217   8.423   5.847
 5331SOL     OW16242   8.924   1.966   0.178
 5331SOL    HW116243   8.884   2.004   0.257
 5331SOL    HW216244   9.018   1.973   0.192
 5332SOL     OW16245   5.113   7.976   6.541
 5332SOL    HW116246   5.117   8.067   6.512
 5332SOL    HW216247   5.200   7.959   6.577
 5333SOL     OW16248   8.179  12.849   3.345
 5333SOL    HW116249   8.238  12.892   3.407
 5333SOL    HW216250   8.202  12.885   3.259
 5334SOL     OW16251   5.114  14.477   5.600
 5334SOL    HW116252   5.198  14.446   5.634
 5334SOL    HW216253   5.122  14.573   5.600
 5335SOL     OW16254   6.048   6.715   0.457
 5335SOL    HW116255   6.006   6.791   0.496
 5335SOL    HW216256   5.995   6.695   0.379
 5336SOL     OW16257   8.130  13.348   5.759
 5336SOL    HW116258   8.095  13.386   5.839
 5336SOL    HW216259   8.056  13.348   5.698
 5337SOL     OW16260   9.864   9.044   2.144
 5337SOL    HW116261   9.883   9.035   2.051
 5337SOL    HW216262   9.836   9.135   2.155
 5338SOL     OW16263   4.978   7.381   6.834
 5338SOL    HW116264   5.010   7.312   6.892
 5338SOL    HW216265   5.004   7.463   6.876
 5339SOL     OW16266   5.483  10.817   4.237
 5339SOL    HW116267   5.564  10.817   4.288
 5339SOL    HW216268   5.486  10.897   4.186
 5340SOL     OW16269   4.698   5.339   3.341
 5340SOL    HW116270   4.700   5.426   3.301
 5340SOL    HW216271   4.612   5.304   3.316
 5341SOL     OW16272  10.052   5.595   7.264
 5341SOL    HW116273   9.994   5.620   7.336
 5341SOL    HW216274  10.139   5.592   7.303
 5342SOL     OW16275   5.746   7.354   4.056
 5342SOL    HW116276   5.823   7.299   4.069
 5342SOL    HW216277   5.736   7.400   4.140
 5343SOL     OW16278  12.141  11.440   5.471
 5343SOL    HW116279  12.215  11.500   5.468
 5343SOL    HW216280  12.067  11.490   5.435
 5344SOL     OW16281   3.660  12.803   3.565
 5344SOL    HW116282   3.622  12.886   3.539
 5344SOL    HW216283   3.601  12.737   3.529
 5345SOL     OW16284   2.378   3.368   3.103
 5345SOL    HW116285   2.374   3.426   3.026
 5345SOL    HW216286   2.340   3.421   3.174
 5346SOL     OW16287  11.518   4.698   1.541
 5346SOL    HW116288  11.524   4.607   1.513
 5346SOL    HW216289  11.586   4.743   1.491
 5347SOL     OW16290  14.158   7.872   7.462
 5347SOL    HW116291  14.194   7.959   7.446
 5347SOL    HW216292  14.076   7.888   7.509
 5348SOL     OW16293   8.525   7.682   0.473
 5348SOL    HW116294   8.507   7.655   0.563
 5348SOL    HW216295   8.452   7.740   0.450
 5349SOL     OW16296   8.108   5.012   1.329
 5349SOL    HW116297   8.158   4.957   1.389
 5349SOL    HW216298   8.120   5.101   1.363
 5350SOL     OW16299   9.403   6.781   3.270
 5350SOL    HW116300   9.340   6.852   3.277
 5350SOL    HW216301   9.416   6.750   3.359
 5351SOL     OW16302   6.013  11.816   5.977
 5351SOL    HW116303   6.094  11.853   5.941
 5351SOL    HW216304   5.980  11.759   5.907
 5352SOL     OW16305  11.344   4.093   3.639
 5352SOL    HW116306  11.366   4.074   3.731
 5352SOL    HW216307  11.257   4.055   3.628
 5353SOL     OW16308   4.529   7.763   4.781
 5353SOL    HW116309   4.511   7.814   4.702
 5353SOL    HW216310   4.517   7.672   4.754
 5354SOL     OW16311  10.244   5.188   5.983
 5354SOL    HW116312  10.332   5.159   6.008
 5354SOL    HW216313  10.215   5.124   5.919
 5355SOL     OW16314  15.315   5.444   7.101
 5355SOL    HW116315  15.363   5.494   7.167
 5355SOL    HW216316  15.229   5.486   7.098
 5356SOL     OW16317   7.568  13.882   5.360
 5356SOL    HW116318   7.572  13.977   5.369
 5356SOL    HW216319   7.657  13.857   5.333
 5357SOL     OW16320   8.963   5.691   0.421
 5357SOL    HW116321   8.968   5.693   0.326
 5357SOL    HW216322   9.051   5.666   0.450
 5358SOL     OW16323  14.387  12.823   6.770
 5358SOL    HW116324  14.367  12.864   6.686
 5358SOL    HW216325  14.476  12.789   6.760
 5359SOL     OW16326  12.658   9.195   3.702
 5359SOL    HW116327  12.711   9.210   3.624
 5359SOL    HW216328  12.706   9.237   3.773
 5360SOL     OW16329   9.122  12.541   3.478
 5360SOL    HW116330   9.041  12.543   3.528
 5360SOL    HW216331   9.108  12.601   3.404
 5361SOL     OW16332   6.289   9.459   4.773
 5361SOL    HW116333   6.205   9.439   4.733
 5361SOL    HW216334   6.272   9.536   4.828
 5362SOL     OW16335  10.816  10.026   6.428
 5362SOL    HW116336  10.806  10.000   6.520
 5362SOL    HW216337  10.742   9.986   6.383
 5363SOL     OW16338  11.392  11.714   4.544
 5363SOL    HW116339  11.429  11.626   4.542
 5363SOL    HW216340  11.309  11.706   4.495
 5364SOL     OW16341  11.516  14.208   5.782
 5364SOL    HW116342  11.576  14.277   5.812
 5364SOL    HW216343  11.429  14.244   5.797
 5365SOL     OW16344   7.348   5.607   5.721
 5365SOL    HW116345   7.304   5.553   5.787
 5365SOL    HW216346   7.401   5.668   5.772
 5366SOL     OW16347   6.488   5.235   6.330
 5366SOL    HW116348   6.424   5.306   6.328
 5366SOL    HW216349   6.532   5.245   6.415
 5367SOL     OW16350  11.544   8.158   3.177
 5367SOL    HW116351  11.601   8.182   3.250
 5367SOL    HW216352  11.595   8.178   3.099
 5368SOL     OW16353   6.491   5.809   6.704
 5368SOL    HW116354   6.522   5.726   6.667
 5368SOL    HW216355   6.551   5.874   6.668
 5369SOL     OW16356  11.044   4.913   4.001
 5369SOL    HW116357  11.057   4.818   4.005
 5369SOL    HW216358  11.132   4.948   3.986
 5370SOL     OW16359  14.257   9.213   5.111
 5370SOL    HW116360  14.189   9.163   5.155
 5370SOL    HW216361  14.232   9.211   5.018
 5371SOL     OW16362   6.049   6.725   3.433
 5371SOL    HW116363   6.060   6.656   3.368
 5371SOL    HW216364   6.013   6.680   3.510
 5372SOL     OW16365   6.203   8.404   2.861
 5372SOL    HW116366   6.239   8.379   2.776
 5372SOL    HW216367   6.228   8.331   2.919
 5373SOL     OW16368   4.443   4.878   2.494
 5373SOL    HW116369   4.512   4.876   2.560
 5373SOL    HW216370   4.379   4.939   2.528
 5374SOL     OW16371  10.054   8.332   5.566
 5374SOL    HW116372  10.011   8.417   5.575
 5374SOL    HW216373  10.000   8.284   5.503
 5375SOL     OW16374   4.261  12.697   3.148
 5375SOL    HW116375   4.343  12.720   3.104
 5375SOL    HW216376   4.235  12.777   3.194
 5376SOL     OW16377   6.398   8.832   5.510
 5376SOL    HW116378   6.349   8.901   5.556
 5376SOL    HW216379   6.414   8.766   5.578
 5377SOL     OW16380   5.450  11.802   7.226
 5377SOL    HW116381   5.460  11.707   7.221
 5377SOL    HW216382   5.454  11.821   7.320
 5378SOL     OW16383   5.026   5.746   6.602
 5378SOL    HW116384   5.089   5.694   6.552
 5378SOL    HW216385   5.066   5.756   6.688
 5379SOL     OW16386   9.151   3.726   1.721
 5379SOL    HW116387   9.125   3.812   1.689
 5379SOL    HW216388   9.129   3.666   1.650
 5380SOL     OW16389  14.551  14.964   7.565
 5380SOL    HW116390  14.610  14.933   7.496
 5380SOL    HW216391  14.481  14.899   7.568
 5381SOL     OW16392   7.694   8.095   3.772
 5381SOL    HW116393   7.674   8.084   3.865
 5381SOL    HW216394   7.629   8.158   3.741
 5382SOL     OW16395   6.572  10.862   1.249
 5382SOL    HW116396   6.597  10.787   1.195
 5382SOL    HW216397   6.536  10.925   1.186
 5383SOL     OW16398   8.482  10.541   0.604
 5383SOL    HW116399   8.516  10.454   0.584
 5383SOL    HW216400   8.559  10.594   0.620
 5384SOL     OW16401  13.525   5.073   5.732
 5384SOL    HW116402  13.589   5.026   5.679
 5384SOL    HW216403  13.555   5.164   5.730
 5385SOL     OW16404  11.307   6.553   5.601
 5385SOL    HW116405  11.390   6.523   5.638
 5385SOL    HW216406  11.304   6.514   5.514
 5386SOL     OW16407  10.942   9.111   4.699
 5386SOL    HW116408  10.954   9.152   4.614
 5386SOL    HW216409  10.870   9.050   4.686
 5387SOL     OW16410   3.807   3.790   2.602
 5387SOL    HW116411   3.783   3.730   2.673
 5387SOL    HW216412   3.851   3.735   2.537
 5388SOL     OW16413  13.184   8.421   5.640
 5388SOL    HW116414  13.278   8.438   5.642
 5388SOL    HW216415  13.174   8.334   5.678
 5389SOL     OW16416   9.741  10.392   2.087
 5389SOL    HW116417   9.721  10.430   2.173
 5389SOL    HW216418   9.800  10.455   2.047
 5390SOL     OW16419   4.678   6.173   0.198
 5390SOL    HW116420   4.618   6.102   0.220
 5390SOL    HW216421   4.622   6.250   0.190
 5391SOL     OW16422   4.174   5.896   4.218
 5391SOL    HW116423   4.147   5.934   4.135
 5391SOL    HW216424   4.269   5.908   4.221
 5392SOL     OW16425   6.644   9.236   6.465
 5392SOL    HW116426   6.655   9.153   6.420
 5392SOL    HW216427   6.733   9.267   6.481
 5393SOL     OW16428  11.247   7.959   3.898
 5393SOL    HW116429  11.319   7.984   3.957
 5393SOL    HW216430  11.272   7.873   3.865
 5394SOL     OW16431   1.747   4.851   1.810
 5394SOL    HW116432   1.814   4.900   1.763
 5394SOL    HW216433   1.795   4.784   1.859
 5395SOL     OW16434   6.886   3.149   0.077
 5395SOL    HW116435   6.967   3.100   0.066
 5395SOL    HW216436  12.258   8.577   7.610
 5396SOL     OW16437   9.905   8.667   1.818
 5396SOL    HW116438   9.878   8.605   1.886
 5396SOL    HW216439   9.896   8.618   1.737
 5397SOL     OW16440   7.251   6.147   4.478
 5397SOL    HW116441   7.278   6.120   4.566
 5397SOL    HW216442   7.191   6.221   4.493
 5398SOL     OW16443  11.384   5.708   2.785
 5398SOL    HW116444  11.401   5.655   2.707
 5398SOL    HW216445  11.299   5.750   2.766
 5399SOL     OW16446  10.423   3.540   4.159
 5399SOL    HW116447  10.432   3.546   4.254
 5399SOL    HW216448  10.470   3.616   4.125
 5400SOL     OW16449  10.613   7.349   1.813
 5400SOL    HW116450  10.600   7.336   1.907
 5400SOL    HW216451  10.553   7.286   1.772
 5401SOL     OW16452   6.830  13.825   4.322
 5401SOL    HW116453   6.820   3.137   4.363
 5401SOL    HW216454   6.766  13.770   4.368
 5402SOL     OW16455   8.480  12.439   3.141
 5402SOL    HW116456   8.506  12.347   3.130
 5402SOL    HW216457   8.467  12.471   3.051
 5403SOL     OW16458   5.408  10.942   0.316
 5403SOL    HW116459   5.444   0.241   0.266
 5403SOL    HW216460   5.324  10.974   0.348
 5404SOL     OW16461  12.451  11.645   3.489
 5404SOL    HW116462  12.368  11.681   3.457
 5404SOL    HW216463  12.426  11.586   3.560
 5405SOL     OW16464  15.722  12.669   7.524
 5405SOL    HW116465  15.712  12.745   7.582
 5405SOL    HW216466  15.694  12.701   7.438
 5406SOL     OW16467   7.083   9.674   5.272
 5406SOL    HW116468   7.130   9.677   5.188
 5406SOL    HW216469   7.040   9.759   5.278
 5407SOL     OW16470  15.190  15.693   7.283
 5407SOL    HW116471  15.279  15.678   7.314
 5407SOL    HW216472  15.138  15.625   7.326
 5408SOL     OW16473  13.068   9.690   6.917
 5408SOL    HW116474  13.072   9.637   6.996
 5408SOL    HW216475  13.088   9.779   6.947
 5409SOL     OW16476   5.007   7.036   6.633
 5409SOL    HW116477   4.961   7.026   6.717
 5409SOL    HW216478   4.950   6.993   6.569
 5410SOL     OW16479   8.735   2.152   0.115
 5410SOL    HW116480   8.731   2.201   0.033
 5410SOL    HW216481   8.823   2.113   0.116
 5411SOL     OW16482   4.951   9.193   0.896
 5411SOL    HW116483   4.996   9.120   0.854
 5411SOL    HW216484   4.953   9.172   0.989
 5412SOL     OW16485   5.100  12.147   6.578
 5412SOL    HW116486   5.125  12.063   6.616
 5412SOL    HW216487   5.131  12.143   6.488
 5413SOL     OW16488   9.906  12.236   6.705
 5413SOL    HW116489   9.961  12.159   6.692
 5413SOL    HW216490   9.920  12.260   6.797
 5414SOL     OW16491   5.593   5.359   2.986
 5414SOL    HW116492   5.666   5.329   2.930
 5414SOL    HW216493   5.625   5.441   3.024
 5415SOL     OW16494   8.362   5.850   4.252
 5415SOL    HW116495   8.455   5.851   4.276
 5415SOL    HW216496   8.357   5.791   4.177
 5416SOL     OW16497   4.363  11.052   4.878
 5416SOL    HW116498   4.381  11.020   4.789
 5416SOL    HW216499   4.377  11.147   4.872
 5417SOL     OW16500   9.110   5.342   5.654
 5417SOL    HW116501   9.069   5.281   5.592
 5417SOL    HW216502   9.160   5.285   5.714
 5418SOL     OW16503   6.283   2.429   1.219
 5418SOL    HW116504   6.361   2.464   1.176
 5418SOL    HW216505   6.316   2.392   1.301
 5419SOL     OW16506   9.195  13.918   4.778
 5419SOL    HW116507   9.253  13.990   4.803
 5419SOL    HW216508   9.115  13.934   4.827
 5420SOL     OW16509   6.757  12.710   6.016
 5420SOL    HW116510   6.679  12.756   5.984
 5420SOL    HW216511   6.828  12.745   5.963
 5421SOL     OW16512   7.898   7.310   1.134
 5421SOL    HW116513   7.816   7.266   1.112
 5421SOL    HW216514   7.966   7.261   1.088
 5422SOL     OW16515   3.922   3.584   4.791
 5422SOL    HW116516   3.890   3.663   4.835
 5422SOL    HW216517   3.846   3.551   4.743
 5423SOL     OW16518  13.689   4.987   7.024
 5423SOL    HW116519  13.713  15.688   6.968
 5423SOL    HW216520  13.619  15.727   7.080
 5424SOL     OW16521   8.107   8.590   6.619
 5424SOL    HW116522   8.023   8.547   6.630
 5424SOL    HW216523   8.152   8.538   6.552
 5425SOL     OW16524  14.973   4.671   6.489
 5425SOL    HW116525  15.024   4.679   6.409
 5425SOL    HW216526  14.925   4.754   6.496
 5426SOL     OW16527  11.379   6.050   4.896
 5426SOL    HW116528  11.474   6.060   4.885
 5426SOL    HW216529  11.343   6.067   4.808
 5427SOL     OW16530   3.467   5.611   2.795
 5427SOL    HW116531   3.504   5.622   2.707
 5427SOL    HW216532   3.451   5.517   2.802
 5428SOL     OW16533   4.291   8.931   1.414
 5428SOL    HW116534   4.229   8.909   1.483
 5428SOL    HW216535   4.375   8.900   1.447
 5429SOL     OW16536   6.528   7.862   0.136
 5429SOL    HW116537   6.463   7.792   0.139
 5429SOL    HW216538   6.568   7.854   0.050
 5430SOL     OW16539   4.743   7.933   5.994
 5430SOL    HW116540   4.764   7.992   5.922
 5430SOL    HW216541   4.653   7.903   5.975
 5431SOL     OW16542   6.046   6.439   0.891
 5431SOL    HW116543   6.070   6.517   0.941
 5431SOL    HW216544   6.067   6.366   0.948
 5432SOL     OW16545  15.161  12.242   6.301
 5432SOL    HW116546  15.165  12.314   6.364
 5432SOL    HW216547  15.073  12.205   6.313
 5433SOL     OW16548   9.767  14.214   5.475
 5433SOL    HW116549   9.734  14.257   5.553
 5433SOL    HW216550   9.707  14.241   5.405
 5434SOL     OW16551  14.386  10.095   6.493
 5434SOL    HW116552  14.321  10.027   6.479
 5434SOL    HW216553  14.428  10.071   6.575
 5435SOL     OW16554   7.469   5.264   4.310
 5435SOL    HW116555   7.514   5.180   4.324
 5435SOL    HW216556   7.498   5.292   4.223
 5436SOL     OW16557   3.327   7.471   3.575
 5436SOL    HW116558   3.416   7.492   3.544
 5436SOL    HW216559   3.333   7.380   3.604
 5437SOL     OW16560   9.011  11.265   5.031
 5437SOL    HW116561   9.106  11.259   5.017
 5437SOL    HW216562   8.979  11.177   5.013
 5438SOL     OW16563   4.647   9.488   0.168
 5438SOL    HW116564   4.598   9.406   0.172
 5438SOL    HW216565   4.620   9.528   0.085
 5439SOL     OW16566  12.962  12.787   5.409
 5439SOL    HW116567  12.964  12.725   5.483
 5439SOL    HW216568  13.052  12.788   5.376
 5440SOL     OW16569   9.303   6.884   7.285
 5440SOL    HW116570   9.230   6.934   7.248
 5440SOL    HW216571   9.272   6.793   7.284
 5441SOL     OW16572   8.037   9.269   1.188
 5441SOL    HW116573   8.086   9.345   1.157
 5441SOL    HW216574   8.101   9.218   1.237
 5442SOL     OW16575   6.017  10.051   1.003
 5442SOL    HW116576   6.112  10.040   0.990
 5442SOL    HW216577   5.980  10.044   0.915
 5443SOL     OW16578   4.390   3.977   3.243
 5443SOL    HW116579   4.301   3.945   3.259
 5443SOL    HW216580   4.397   4.055   3.299
 5444SOL     OW16581  14.690  15.405   7.119
 5444SOL    HW116582  14.609  15.447   7.090
 5444SOL    HW216583  14.745  15.402   7.041
 5445SOL     OW16584   9.521  10.627   2.490
 5445SOL    HW116585   9.511  10.719   2.516
 5445SOL    HW216586   9.589  10.630   2.422
 5446SOL     OW16587   3.992   4.900   0.565
 5446SOL    HW116588   3.962   4.869   0.650
 5446SOL    HW216589   3.957   4.836   0.503
 5447SOL     OW16590   3.988   5.918   4.427
 5447SOL    HW116591   3.910   5.886   4.382
 5447SOL    HW216592   4.055   5.922   4.359
 5448SOL     OW16593   8.190   7.796   6.501
 5448SOL    HW116594   8.253   7.866   6.520
 5448SOL    HW216595   8.234   7.741   6.437
 5449SOL     OW16596   4.889   5.676   5.232
 5449SOL    HW116597   4.867   5.751   5.288
 5449SOL    HW216598   4.945   5.712   5.163
 5450SOL     OW16599   6.022   6.762   6.313
 5450SOL    HW116600   5.973   6.830   6.359
 5450SOL    HW216601   5.999   6.681   6.358
 5451SOL     OW16602  11.244   2.967   1.659
 5451SOL    HW116603  11.204   2.882   1.676
 5451SOL    HW216604  11.228   2.983   1.566
 5452SOL     OW16605   8.478   8.564   1.661
 5452SOL    HW116606   8.476   8.577   1.756
 5452SOL    HW216607   8.420   8.489   1.645
 5453SOL     OW16608  10.029   3.023   0.343
 5453SOL    HW116609   9.964   2.987   0.282
 5453SOL    HW216610  10.105   3.042   0.288
 5454SOL     OW16611  11.456   4.051   1.010
 5454SOL    HW116612  11.503   4.113   1.065
 5454SOL    HW216613   0.751   3.999   0.967
 5455SOL     OW16614   6.125   5.199   6.037
 5455SOL    HW116615   6.097   5.171   6.124
 5455SOL    HW216616   6.109   5.294   6.036
 5456SOL     OW16617  12.548   8.705   7.524
 5456SOL    HW116618  12.511   8.768   7.586
 5456SOL    HW216619  12.575   8.631   7.578
 5457SOL     OW16620   5.646  15.011   7.343
 5457SOL    HW116621   5.697  15.060   7.277
 5457SOL    HW216622   5.644  15.068   7.419
 5458SOL     OW16623  12.551   6.567   6.847
 5458SOL    HW116624  12.622   6.548   6.786
 5458SOL    HW216625  12.472   6.561   6.794
 5459SOL     OW16626   6.213   4.632   2.401
 5459SOL    HW116627   6.210   4.666   2.312
 5459SOL    HW216628   6.262   4.551   2.395
 5460SOL     OW16629  12.841  10.143   3.737
 5460SOL    HW116630  12.851  10.130   3.831
 5460SOL    HW216631  12.817  10.235   3.727
 5461SOL     OW16632   4.410   9.428   2.098
 5461SOL    HW116633   4.435   9.509   2.053
 5461SOL    HW216634   4.493   9.386   2.119
 5462SOL     OW16635   4.253   7.516   4.898
 5462SOL    HW116636   4.187   7.585   4.902
 5462SOL    HW216637   4.274   7.497   4.990
 5463SOL     OW16638   6.810   7.315   5.288
 5463SOL    HW116639   6.846   7.357   5.366
 5463SOL    HW216640   6.838   7.370   5.215
 5464SOL     OW16641   5.612   8.778   4.445
 5464SOL    HW116642   5.549   8.734   4.389
 5464SOL    HW216643   5.618   8.867   4.409
 5465SOL     OW16644  15.388   7.542   7.521
 5465SOL    HW116645  15.414   7.463   7.474
 5465SOL    HW216646  15.466   7.598   7.518
 5466SOL     OW16647  11.118   6.165   4.280
 5466SOL    HW116648  11.171   6.087   4.263
 5466SOL    HW216649  11.098   6.200   4.193
 5467SOL     OW16650   4.708   5.524   1.229
 5467SOL    HW116651   4.759   5.552   1.154
 5467SOL    HW216652   4.709   5.428   1.225
 5468SOL     OW16653  11.020   5.877   4.211
 5468SOL    HW116654  11.038   5.967   4.239
 5468SOL    HW216655  10.928   5.863   4.231
 5469SOL     OW16656   6.514  13.048   6.711
 5469SOL    HW116657   6.455  13.123   6.714
 5469SOL    HW216658   6.599  13.082   6.741
 5470SOL     OW16659   6.384   9.900   1.143
 5470SOL    HW116660   6.344   9.944   1.218
 5470SOL    HW216661   6.313   9.891   1.079
 5471SOL     OW16662   6.053  13.094   6.996
 5471SOL    HW116663   6.144  13.069   6.977
 5471SOL    HW216664   6.022  13.026   7.055
 5472SOL     OW16665   4.377   3.509   2.687
 5472SOL    HW116666   4.381   3.437   2.750
 5472SOL    HW216667   4.468   3.524   2.662
 5473SOL     OW16668  10.559   8.654   3.103
 5473SOL    HW116669  10.589   8.713   3.172
 5473SOL    HW216670  10.520   8.580   3.150
 5474SOL     OW16671  10.932  10.869   3.409
 5474SOL    HW116672  11.024  10.856   3.432
 5474SOL    HW216673  10.897  10.780   3.400
 5475SOL     OW16674   3.496  11.735   4.526
 5475SOL    HW116675   3.474  11.707   4.437
 5475SOL    HW216676   3.417  11.777   4.558
 5476SOL     OW16677  11.849  11.101   4.722
 5476SOL    HW116678  11.874  11.023   4.772
 5476SOL    HW216679  11.761  11.123   4.754
 5477SOL     OW16680   9.759  10.769   3.740
 5477SOL    HW116681   9.685  10.755   3.800
 5477SOL    HW216682   9.824  10.704   3.767
 5478SOL     OW16683   9.883  13.745   6.236
 5478SOL    HW116684   9.903  13.765   6.144
 5478SOL    HW216685   9.804  13.795   6.255
 5479SOL     OW16686  12.408  10.355   4.616
 5479SOL    HW116687  12.452  10.425   4.568
 5479SOL    HW216688  12.469  10.281   4.611
 5480SOL     OW16689  10.671   8.539   5.577
 5480SOL    HW116690  10.621   8.605   5.624
 5480SOL    HW216691  10.669   8.567   5.486
 5481SOL     OW16692   4.628   1.880   1.448
 5481SOL    HW116693   4.567   1.852   1.517
 5481SOL    HW216694   4.609   1.822   1.374
 5482SOL     OW16695  11.880   3.520   4.255
 5482SOL    HW116696  11.861   3.595   4.198
 5482SOL    HW216697  11.851   3.549   4.342
 5483SOL     OW16698   4.925   6.508   3.993
 5483SOL    HW116699   4.862   6.557   3.941
 5483SOL    HW216700   4.991   6.573   4.018
 5484SOL     OW16701   0.351  10.867   0.430
 5484SOL    HW116702   0.378  10.791   0.483
 5484SOL    HW216703   0.404  10.939   0.463
 5485SOL     OW16704   6.563   6.050   3.716
 5485SOL    HW116705   6.630   6.000   3.761
 5485SOL    HW216706   6.505   6.082   3.785
 5486SOL     OW16707  10.892   3.653   4.191
 5486SOL    HW116708  10.895   3.570   4.144
 5486SOL    HW216709  10.857   3.631   4.277
 5487SOL     OW16710   8.735   3.349   1.483
 5487SOL    HW116711   8.743   3.355   1.578
 5487SOL    HW216712   8.763   3.435   1.451
 5488SOL     OW16713  13.112   9.853   7.193
 5488SOL    HW116714  13.039   9.856   7.256
 5488SOL    HW216715  13.184   9.814   7.243
 5489SOL     OW16716  10.768  10.050   7.061
 5489SOL    HW116717  10.845   9.994   7.063
 5489SOL    HW216718  10.697   9.992   7.035
 5490SOL     OW16719   3.424   2.541   1.243
 5490SOL    HW116720   3.440   2.612   1.181
 5490SOL    HW216721   3.442   2.580   1.329
 5491SOL     OW16722   2.539   9.276   3.523
 5491SOL    HW116723  13.294   9.360   3.565
 5491SOL    HW216724   2.634   9.269   3.527
 5492SOL     OW16725   8.078   7.467   6.640
 5492SOL    HW116726   8.117   7.427   6.562
 5492SOL    HW216727   8.099   7.560   6.632
 5493SOL     OW16728   5.969   5.022   0.696
 5493SOL    HW116729   6.010   4.980   0.620
 5493SOL    HW216730   5.978   5.116   0.680
 5494SOL     OW16731   6.679   7.395   6.350
 5494SOL    HW116732   6.638   7.461   6.294
 5494SOL    HW216733   6.715   7.446   6.423
 5495SOL     OW16734  12.102  12.075   6.062
 5495SOL    HW116735  12.171  12.034   6.116
 5495SOL    HW216736  12.021  12.037   6.095
 5496SOL     OW16737   4.182   3.425   2.265
 5496SOL    HW116738   4.225   3.340   2.271
 5496SOL    HW216739   4.218   3.475   2.339
 5497SOL     OW16740  12.915   7.762   7.211
 5497SOL    HW116741  12.992   7.758   7.269
 5497SOL    HW216742  12.870   7.842   7.237
 5498SOL     OW16743  12.089   9.015   3.706
 5498SOL    HW116744  12.018   9.037   3.646
 5498SOL    HW216745  12.096   8.919   3.701
 5499SOL     OW16746  13.056  13.333   6.747
 5499SOL    HW116747  13.132  13.390   6.734
 5499SOL    HW216748  13.012  13.332   6.662
 5500SOL     OW16749   6.849   9.988   3.901
 5500SOL    HW116750   6.798   9.909   3.922
 5500SOL    HW216751   6.794  10.035   3.838
 5501SOL     OW16752   4.577   4.536   3.559
 5501SOL    HW116753   4.584   4.556   3.466
 5501SOL    HW216754   4.625   4.607   3.603
 5502SOL     OW16755   6.295  10.546   5.755
 5502SOL    HW116756   6.249  10.511   5.679
 5502SOL    HW216757   6.227  10.581   5.811
 5503SOL     OW16758   4.902   4.049   5.666
 5503SOL    HW116759   4.929  14.819   5.758
 5503SOL    HW216760   4.919   4.140   5.640
 5504SOL     OW16761   9.226   4.765   0.212
 5504SOL    HW116762   9.290   4.835   0.226
 5504SOL    HW216763   9.264   4.711   0.144
 5505SOL     OW16764   6.643   4.007   1.459
 5505SOL    HW116765   6.717   3.949   1.477
 5505SOL    HW216766   6.565   3.956   1.482
 5506SOL     OW16767   6.443  12.422   5.873
 5506SOL    HW116768   6.529  12.388   5.896
 5506SOL    HW216769   6.416  12.472   5.950
 5507SOL     OW16770   5.619  12.776   2.982
 5507SOL    HW116771   5.560  12.767   2.907
 5507SOL    HW216772   5.622  12.689   3.021
 5508SOL     OW16773   6.743   6.567   5.525
 5508SOL    HW116774   6.763   6.649   5.480
 5508SOL    HW216775   6.739   6.591   5.618
 5509SOL     OW16776   5.393  10.411   6.145
 5509SOL    HW116777   5.325  10.479   6.147
 5509SOL    HW216778   5.402  10.384   6.236
 5510SOL     OW16779  10.321   2.021   0.780
 5510SOL    HW116780  10.415   2.008   0.778
 5510SOL    HW216781  10.309   2.112   0.752
 5511SOL     OW16782   5.844   2.854   2.654
 5511SOL    HW116783   5.888   2.921   2.707
 5511SOL    HW216784   5.825   2.783   2.716
 5512SOL     OW16785   3.859   2.008   0.084
 5512SOL    HW116786   3.939   2.057   0.107
 5512SOL    HW216787   3.817   2.061   0.017
 5513SOL     OW16788   8.020   7.546   4.835
 5513SOL    HW116789   8.040   7.460   4.873
 5513SOL    HW216790   8.062   7.544   4.749
 5514SOL     OW16791   7.138   9.786   1.723
 5514SOL    HW116792   7.134   9.876   1.693
 5514SOL    HW216793   7.219   9.780   1.773
 5515SOL     OW16794   7.380   7.747   7.232
 5515SOL    HW116795   7.291   7.771   7.206
 5515SOL    HW216796   7.433   7.823   7.208
 5516SOL     OW16797   1.216  11.305   0.750
 5516SOL    HW116798   1.269  11.246   0.804
 5516SOL    HW216799   1.136  11.319   0.802
 5517SOL     OW16800  10.557   9.917   2.460
 5517SOL    HW116801  10.557   9.956   2.547
 5517SOL    HW216802  10.642   9.940   2.424
 5518SOL     OW16803  10.882   6.915   3.151
 5518SOL    HW116804  10.858   6.990   3.097
 5518SOL    HW216805  10.868   6.839   3.095
 5519SOL     OW16806   9.709   7.447   6.464
 5519SOL    HW116807   9.752   7.411   6.386
 5519SOL    HW216808   9.747   7.399   6.537
 5520SOL     OW16809  14.021  12.617   4.994
 5520SOL    HW116810  14.032  12.579   4.907
 5520SOL    HW216811  14.073  12.697   4.992
 5521SOL     OW16812   6.616  10.024   1.016
 5521SOL    HW116813   6.527  10.008   1.047
 5521SOL    HW216814   6.648   9.937   0.990
 5522SOL     OW16815   7.473  13.177   3.541
 5522SOL    HW116816   7.554  13.216   3.507
 5522SOL    HW216817   7.485  13.083   3.529
 5523SOL     OW16818   8.437   9.937   1.672
 5523SOL    HW116819   8.465   9.876   1.741
 5523SOL    HW216820   8.474  10.021   1.698
 5524SOL     OW16821   4.785   1.738   2.379
 5524SOL    HW116822   4.878   1.724   2.365
 5524SOL    HW216823   4.760   1.806   2.317
 5525SOL     OW16824   3.360   3.219   4.019
 5525SOL    HW116825   3.330   3.141   3.973
 5525SOL    HW216826   3.425   3.258   3.959
 5526SOL     OW16827   1.463   7.270   0.913
 5526SOL    HW116828   1.527   7.230   0.971
 5526SOL    HW216829   1.386   7.214   0.919
 5527SOL     OW16830  15.224   7.545   6.378
 5527SOL    HW116831  15.200   7.518   6.289
 5527SOL    HW216832  15.140   7.561   6.421
 5528SOL     OW16833  14.411   9.720   6.944
 5528SOL    HW116834  14.462   9.759   7.015
 5528SOL    HW216835  14.346   9.786   6.921
 5529SOL     OW16836  12.756   8.174   5.733
 5529SOL    HW116837  12.771   8.268   5.730
 5529SOL    HW216838  12.776   8.149   5.823
 5530SOL     OW16839  13.992   5.382   5.281
 5530SOL    HW116840  13.936   5.435   5.337
 5530SOL    HW216841  13.940   5.367   5.201
 5531SOL     OW16842   4.518   5.611   5.731
 5531SOL    HW116843   4.560   5.697   5.739
 5531SOL    HW216844   4.568   5.567   5.663
 5532SOL     OW16845  13.638   8.108   5.648
 5532SOL    HW116846  13.544   8.117   5.639
 5532SOL    HW216847  13.674   8.184   5.603
 5533SOL     OW16848   8.740   3.618   0.698
 5533SOL    HW116849   8.779   3.646   0.781
 5533SOL    HW216850   8.813   3.587   0.646
 5534SOL     OW16851  10.571  10.955   4.016
 5534SOL    HW116852  10.596  10.872   3.975
 5534SOL    HW216853  10.517  10.929   4.090
 5535SOL     OW16854   2.594   8.347   2.645
 5535SOL    HW116855   2.511   8.347   2.598
 5535SOL    HW216856   2.659   8.369   2.579
 5536SOL     OW16857   9.761   5.960   0.621
 5536SOL    HW116858   9.788   6.049   0.643
 5536SOL    HW216859   9.707   5.969   0.543
 5537SOL     OW16860   3.954   1.593   1.695
 5537SOL    HW116861   3.927   1.664   1.636
 5537SOL    HW216862   4.044   1.615   1.718
 5538SOL     OW16863   2.456  11.284   2.539
 5538SOL    HW116864   2.525  11.283   2.605
 5538SOL    HW216865   2.375  11.295   2.588
 5539SOL     OW16866  14.577  11.314   6.718
 5539SOL    HW116867  14.613  11.228   6.741
 5539SOL    HW216868  14.495  11.295   6.672
 5540SOL     OW16869  11.417  12.943   4.170
 5540SOL    HW116870  11.355  12.979   4.233
 5540SOL    HW216871  11.381  12.857   4.147
 5541SOL     OW16872   2.726   7.671   0.212
 5541SOL    HW116873   2.749   7.762   0.196
 5541SOL    HW216874   2.780   7.645   0.286
 5542SOL     OW16875   8.878  12.470   5.761
 5542SOL    HW116876   8.847  12.559   5.780
 5542SOL    HW216877   8.900  12.472   5.668
 5543SOL     OW16878   5.143   7.072   2.047
 5543SOL    HW116879   5.079   7.135   2.014
 5543SOL    HW216880   5.170   7.023   1.969
 5544SOL     OW16881  12.470   8.875   4.215
 5544SOL    HW116882  12.543   8.936   4.200
 5544SOL    HW216883  12.470   8.818   4.138
 5545SOL     OW16884   5.101   4.326   1.876
 5545SOL    HW116885   5.154   4.281   1.941
 5545SOL    HW216886   5.163   4.381   1.828
 5546SOL     OW16887  11.486   6.417   2.475
 5546SOL    HW116888  11.461   6.480   2.407
 5546SOL    HW216889  11.500   6.470   2.553
 5547SOL     OW16890   6.387  11.181   4.843
 5547SOL    HW116891   6.302  11.137   4.846
 5547SOL    HW216892   6.414  11.188   4.935
 5548SOL     OW16893   2.930   9.899   3.570
 5548SOL    HW116894   2.911   9.824   3.514
 5548SOL    HW216895   2.892   9.876   3.655
 5549SOL     OW16896   3.863   6.840   3.353
 5549SOL    HW116897   3.866   6.829   3.448
 5549SOL    HW216898   3.788   6.787   3.324
 5550SOL     OW16899   7.264  13.900   5.314
 5550SOL    HW116900   7.267  13.944   5.229
 5550SOL    HW216901   7.315  13.821   5.302
 5551SOL     OW16902  15.566   7.104   7.179
 5551SOL    HW116903  15.579   7.199   7.175
 5551SOL    HW216904  15.484   7.089   7.134
 5552SOL     OW16905  10.428   6.049   0.660
 5552SOL    HW116906  10.422   6.094   0.744
 5552SOL    HW216907  10.419   6.119   0.595
 5553SOL     OW16908  10.468  11.723   3.210
 5553SOL    HW116909  10.414  11.659   3.257
 5553SOL    HW216910  10.555  11.683   3.208
 5554SOL     OW16911   9.979   7.359   2.310
 5554SOL    HW116912   9.929   7.440   2.296
 5554SOL    HW216913   9.933   7.314   2.381
 5555SOL     OW16914   7.829   7.752   2.334
 5555SOL    HW116915   7.759   7.725   2.275
 5555SOL    HW216916   7.834   7.682   2.399
 5556SOL     OW16917   6.624  10.481   4.575
 5556SOL    HW116918   6.650  10.449   4.488
 5556SOL    HW216919   6.529  10.481   4.573
 5557SOL     OW16920  10.768  12.580   3.234
 5557SOL    HW116921  10.689  12.528   3.220
 5557SOL    HW216922  10.818  12.570   3.153
 5558SOL     OW16923   3.187   5.420   2.940
 5558SOL    HW116924   3.105   5.373   2.927
 5558SOL    HW216925   3.255   5.353   2.935
 5559SOL     OW16926  13.507   6.724   6.290
 5559SOL    HW116927  13.551   6.677   6.360
 5559SOL    HW216928  13.576   6.749   6.229
 5560SOL     OW16929   4.738   9.616   5.933
 5560SOL    HW116930   4.816   9.651   5.889
 5560SOL    HW216931   4.697   9.693   5.973
 5561SOL     OW16932   3.234   2.473   2.395
 5561SOL    HW116933   3.248   2.551   2.449
 5561SOL    HW216934   3.231   2.401   2.458
 5562SOL     OW16935   5.005   4.648   2.945
 5562SOL    HW116936   5.047   4.731   2.922
 5562SOL    HW216937   4.971   4.662   3.033
 5563SOL     OW16938  12.891   9.521   6.068
 5563SOL    HW116939  12.898   9.427   6.087
 5563SOL    HW216940  12.933   9.564   6.143
 5564SOL     OW16941  13.924  11.375   6.282
 5564SOL    HW116942  13.926  11.471   6.278
 5564SOL    HW216943  13.868  11.349   6.209
 5565SOL     OW16944   1.548   7.222   0.063
 5565SOL    HW116945   6.957  12.664   7.606
 5565SOL    HW216946   1.453   7.223   0.068
 5566SOL     OW16947  11.808   7.900   6.066
 5566SOL    HW116948  11.876   7.921   6.131
 5566SOL    HW216949  11.764   7.984   6.050
 5567SOL     OW16950   9.104   3.737   0.313
 5567SOL    HW116951   9.181   3.787   0.341
 5567SOL    HW216952   9.127   3.646   0.330
 5568SOL     OW16953  10.921  12.708   6.317
 5568SOL    HW116954  11.003  12.661   6.333
 5568SOL    HW216955  10.930  12.740   6.227
 5569SOL     OW16956   7.427   4.446   2.899
 5569SOL    HW116957   7.501   4.486   2.855
 5569SOL    HW216958   7.386   4.517   2.948
 5570SOL     OW16959   2.380   3.002   1.651
 5570SOL    HW116960   2.443   2.995   1.723
 5570SOL    HW216961   2.429   3.043   1.579
 5571SOL     OW16962  10.049  12.086   2.428
 5571SOL    HW116963  10.007  12.048   2.351
 5571SOL    HW216964   9.985  12.072   2.498
 5572SOL     OW16965   4.296   8.295   6.011
 5572SOL    HW116966  15.028   8.212   6.035
 5572SOL    HW216967   4.380   8.269   5.973
 5573SOL     OW16968   3.396   9.079   1.745
 5573SOL    HW116969   3.333   9.078   1.674
 5573SOL    HW216970   3.370   9.007   1.802
 5574SOL     OW16971  14.949   7.755   6.306
 5574SOL    HW116972  14.862   7.715   6.311
 5574SOL    HW216973  14.963   7.769   6.212
 5575SOL     OW16974   7.164   5.555   6.574
 5575SOL    HW116975   7.111   5.503   6.514
 5575SOL    HW216976   7.220   5.491   6.619
 5576SOL     OW16977  14.289   5.196   6.158
 5576SOL    HW116978  14.377   5.219   6.186
 5576SOL    HW216979  14.271   5.255   6.084
 5577SOL     OW16980   6.929  10.627   5.335
 5577SOL    HW116981   6.857  10.689   5.334
 5577SOL    HW216982   6.895  10.549   5.291
 5578SOL     OW16983  11.735  10.295   2.405
 5578SOL    HW116984  11.650  10.292   2.450
 5578SOL    HW216985  11.725  10.238   2.330
 5579SOL     OW16986   6.123  11.638   6.527
 5579SOL    HW116987   6.195  11.594   6.482
 5579SOL    HW216988   6.044  11.596   6.492
 5580SOL     OW16989   2.119   9.492   2.751
 5580SOL    HW116990   2.105   9.578   2.790
 5580SOL    HW216991   2.164   9.510   2.668
 5581SOL     OW16992  13.370   6.830   7.189
 5581SOL    HW116993  13.414   6.802   7.269
 5581SOL    HW216994  13.324   6.752   7.158
 5582SOL     OW16995   4.943  13.591   5.574
 5582SOL    HW116996   4.897  13.513   5.542
 5582SOL    HW216997   5.022  13.557   5.616
 5583SOL     OW16998   8.030   1.548   0.730
 5583SOL    HW116999   8.088   1.608   0.682
 5583SOL    HW217000   8.065   1.461   0.713
 5584SOL     OW17001  10.320   1.420   0.902
 5584SOL    HW117002  10.293   1.366   0.977
 5584SOL    HW217003  10.398   1.466   0.934
 5585SOL     OW17004   8.342  13.860   4.509
 5585SOL    HW117005   8.368   3.135   4.431
 5585SOL    HW217006   8.422  13.855   4.561
 5586SOL     OW17007  12.730   6.078   6.607
 5586SOL    HW117008  12.699   6.038   6.688
 5586SOL    HW217009  12.822   6.097   6.623
 5587SOL     OW17010   6.010   8.058   3.894
 5587SOL    HW117011   6.056   8.141   3.906
 5587SOL    HW217012   6.008   8.019   3.982
 5588SOL     OW17013   6.172   4.290   4.099
 5588SOL    HW117014   6.251   4.235   4.102
 5588SOL    HW217015   6.145   4.288   4.007
 5589SOL     OW17016   9.084   5.856   5.033
 5589SOL    HW117017   9.073   5.905   5.115
 5589SOL    HW217018   9.124   5.773   5.060
 5590SOL     OW17019   4.978  11.047   1.016
 5590SOL    HW117020   4.929  10.973   0.980
 5590SOL    HW217021   4.986  11.028   1.109
 5591SOL     OW17022   9.791  14.133   7.319
 5591SOL    HW117023   9.748  14.082   7.250
 5591SOL    HW217024   9.858  14.074   7.354
 5592SOL     OW17025  12.077   7.135   6.788
 5592SOL    HW117026  12.157   7.103   6.746
 5592SOL    HW217027  12.006   7.097   6.738
 5593SOL     OW17028  10.725   7.699   0.276
 5593SOL    HW117029  10.805   7.735   0.313
 5593SOL    HW217030  10.695   7.767   0.215
 5594SOL     OW17031   7.008   9.494   6.843
 5594SOL    HW117032   7.020   9.533   6.757
 5594SOL    HW217033   6.914   9.500   6.860
 5595SOL     OW17034   5.568  11.915   5.599
 5595SOL    HW117035   5.555  11.994   5.651
 5595SOL    HW217036   5.479  11.883   5.583
 5596SOL     OW17037   7.213   7.831   6.598
 5596SOL    HW117038   7.296   7.787   6.617
 5596SOL    HW217039   7.216   7.849   6.504
 5597SOL     OW17040  10.587   4.213   2.844
 5597SOL    HW117041  10.620   4.185   2.929
 5597SOL    HW217042  10.512   4.270   2.864
 5598SOL     OW17043  12.363   8.049   4.812
 5598SOL    HW117044  12.318   8.117   4.762
 5598SOL    HW217045  12.339   8.067   4.903
 5599SOL     OW17046   4.498   6.348   1.731
 5599SOL    HW117047   4.501   6.352   1.826
 5599SOL    HW217048   4.513   6.256   1.710
 5600SOL     OW17049   5.690  11.650   2.163
 5600SOL    HW117050   5.766  11.657   2.105
 5600SOL    HW217051   5.623  11.607   2.110
 5601SOL     OW17052  12.696   6.952   6.011
 5601SOL    HW117053  12.747   6.884   5.968
 5601SOL    HW217054  12.632   6.979   5.945
 5602SOL     OW17055   1.913   5.770   1.617
 5602SOL    HW117056   1.902   5.865   1.626
 5602SOL    HW217057   1.841   5.733   1.667
 5603SOL     OW17058   4.941   5.179   3.932
 5603SOL    HW117059   4.850   5.170   3.903
 5603SOL    HW217060   4.979   5.242   3.870
 5604SOL     OW17061   2.555   3.792   1.366
 5604SOL    HW117062   2.539   3.709   1.411
 5604SOL    HW217063   2.626   3.833   1.414
 5605SOL     OW17064   8.884   4.280   3.364
 5605SOL    HW117065   8.797   4.311   3.390
 5605SOL    HW217066   8.866   4.211   3.300
 5606SOL     OW17067   6.354   8.704   0.989
 5606SOL    HW117068   6.355   8.658   0.905
 5606SOL    HW217069   6.415   8.656   1.044
 5607SOL     OW17070   3.198   9.796   1.547
 5607SOL    HW117071   3.191   9.875   1.494
 5607SOL    HW217072   3.247   9.823   1.625
 5608SOL     OW17073   8.861  11.862   4.059
 5608SOL    HW117074   8.912  11.891   4.134
 5608SOL    HW217075   8.775  11.840   4.096
 5609SOL     OW17076   5.758   2.445   0.506
 5609SOL    HW117077   5.752   2.457   0.601
 5609SOL    HW217078   5.834   2.497   0.480
 5610SOL     OW17079   3.961   4.738   2.410
 5610SOL    HW117080   3.879   4.787   2.420
 5610SOL    HW217081   3.980   4.743   2.317
 5611SOL     OW17082   7.381   8.216   5.930
 5611SOL    HW117083   7.299   8.225   5.978
 5611SOL    HW217084   7.421   8.137   5.967
 5612SOL     OW17085  12.809   7.750   2.948
 5612SOL    HW117086   2.104   7.803   2.907
 5612SOL    HW217087  12.846   7.723   3.032
 5613SOL     OW17088   5.058   5.418   5.236
 5613SOL    HW117089   5.003   5.495   5.226
 5613SOL    HW217090   5.064   5.404   5.331
 5614SOL     OW17091   6.291   7.398   0.812
 5614SOL    HW117092   6.289   7.353   0.728
 5614SOL    HW217093   6.220   7.358   0.863
 5615SOL     OW17094   6.052   0.393   0.511
 5615SOL    HW117095   6.045   0.377   0.417
 5615SOL    HW217096   6.062  11.081   0.550
 5616SOL     OW17097   5.365   7.842   0.140
 5616SOL    HW117098   5.318   7.761   0.159
 5616SOL    HW217099   5.446   7.836   0.190
 5617SOL     OW17100   7.451   9.385   6.186
 5617SOL    HW117101   7.487   9.306   6.228
 5617SOL    HW217102   7.470   9.374   6.093
 5618SOL     OW17103   7.437  12.016   3.861
 5618SOL    HW117104   7.345  11.998   3.877
 5618SOL    HW217105   7.484  11.959   3.923
 5619SOL     OW17106  11.850  10.936   3.179
 5619SOL    HW117107  11.896  10.864   3.223
 5619SOL    HW217108  11.823  10.899   3.095
 5620SOL     OW17109   8.586   7.506   5.157
 5620SOL    HW117110   8.509   7.492   5.211
 5620SOL    HW217111   8.657   7.463   5.205
 5621SOL     OW17112  13.896   5.370   4.990
 5621SOL    HW117113  13.954   5.294   4.995
 5621SOL    HW217114  13.914   5.409   4.904
 5622SOL     OW17115  11.365   6.828   3.133
 5622SOL    HW117116  11.456   6.800   3.132
 5622SOL    HW217117  11.355   6.880   3.054
 5623SOL     OW17118   2.351   4.121   2.773
 5623SOL    HW117119   2.433   4.138   2.727
 5623SOL    HW217120   2.305   4.205   2.772
 5624SOL     OW17121  11.260   2.399   3.364
 5624SOL    HW117122  11.318   2.474   3.377
 5624SOL    HW217123  11.217  13.162   3.449
 5625SOL     OW17124   6.177  11.763   6.252
 5625SOL    HW117125   6.223  11.728   6.176
 5625SOL    HW217126   6.221  11.845   6.272
 5626SOL     OW17127   6.440   4.112   0.633
 5626SOL    HW117128   6.515   4.067   0.593
 5626SOL    HW217129   6.431   4.071   0.719
 5627SOL     OW17130  10.483   3.913   2.982
 5627SOL    HW117131  10.562   3.868   2.952
 5627SOL    HW217132  10.513   3.970   3.053
 5628SOL     OW17133   5.780   2.849   2.047
 5628SOL    HW117134   5.697   2.882   2.082
 5628SOL    HW217135   5.769   2.754   2.044
 5629SOL     OW17136   9.992  10.937   1.002
 5629SOL    HW117137   9.937  10.860   0.985
 5629SOL    HW217138   9.985  10.950   1.097
 5630SOL     OW17139   0.715  11.040   0.938
 5630SOL    HW117140  11.419  10.976   0.947
 5630SOL    HW217141   0.670  11.124   0.929
 5631SOL     OW17142   5.330   9.736   5.912
 5631SOL    HW117143   5.413   9.771   5.945
 5631SOL    HW217144   5.269   9.749   5.985
 5632SOL     OW17145   6.846  10.203   5.113
 5632SOL    HW117146   6.818  10.217   5.023
 5632SOL    HW217147   6.765  10.180   5.160
 5633SOL     OW17148   5.676   6.230   5.604
 5633SOL    HW117149   5.735   6.155   5.612
 5633SOL    HW217150   5.704   6.275   5.525
 5634SOL     OW17151   6.887  12.840   6.733
 5634SOL    HW117152   6.864  12.823   6.642
 5634SOL    HW217153   6.810  12.812   6.783
 5635SOL     OW17154   2.258   2.804   2.417
 5635SOL    HW117155   2.199   2.729   2.411
 5635SOL    HW217156   2.256   2.843   2.329
 5636SOL     OW17157   3.480  10.531   3.564
 5636SOL    HW117158   3.506  10.439   3.573
 5636SOL    HW217159   3.484  10.565   3.653
 5637SOL     OW17160   9.926   8.106   0.943
 5637SOL    HW117161   9.862   8.135   0.878
 5637SOL    HW217162   9.883   8.033   0.988
 5638SOL     OW17163   7.868   8.285   4.860
 5638SOL    HW117164   7.947   8.232   4.862
 5638SOL    HW217165   7.867   8.324   4.772
 5639SOL     OW17166   5.827   9.960   6.962
 5639SOL    HW117167   5.805  10.052   6.948
 5639SOL    HW217168   5.838   9.924   6.874
 5640SOL     OW17169   5.138  13.512   4.862
 5640SOL    HW117170   5.065  13.523   4.923
 5640SOL    HW217171   5.104  13.542   4.778
 5641SOL     OW17172  10.228   4.281   1.496
 5641SOL    HW117173  10.276   4.198   1.491
 5641SOL    HW217174  10.178   4.275   1.577
 5642SOL     OW17175   9.577  14.222   7.549
 5642SOL    HW117176   9.599  14.154   7.613
 5642SOL    HW217177   9.648  14.218   7.485
 5643SOL     OW17178  13.187   3.997   4.912
 5643SOL    HW117179  13.282   3.987   4.915
 5643SOL    HW217180  13.169   4.073   4.968
 5644SOL     OW17181   8.936   5.007   4.382
 5644SOL    HW117182   8.984   5.086   4.408
 5644SOL    HW217183   8.852   5.013   4.427
 5645SOL     OW17184  11.933  12.237   6.382
 5645SOL    HW117185  11.856  12.233   6.439
 5645SOL    HW217186  11.988  12.306   6.420
 5646SOL     OW17187  11.731  12.858   6.594
 5646SOL    HW117188  11.808  12.900   6.557
 5646SOL    HW217189  11.658  12.913   6.568
 5647SOL     OW17190   6.499   3.906   0.823
 5647SOL    HW117191   6.515   3.814   0.805
 5647SOL    HW217192   6.563   3.930   0.890
 5648SOL     OW17193  10.487  10.474   3.844
 5648SOL    HW117194  10.534  10.405   3.796
 5648SOL    HW217195  10.531  10.555   3.820
 5649SOL     OW17196   7.945   5.229   5.004
 5649SOL    HW117197   7.979   5.183   4.927
 5649SOL    HW217198   8.008   5.209   5.073
 5650SOL     OW17199   6.104  14.999   7.285
 5650SOL    HW117200   6.173  14.979   7.222
 5650SOL    HW217201   6.066  15.081   7.254
 5651SOL     OW17202   6.376  11.130   7.214
 5651SOL    HW117203   6.469  11.110   7.208
 5651SOL    HW217204   6.341  11.106   7.128
 5652SOL     OW17205   9.173   7.322   1.213
 5652SOL    HW117206   9.159   7.416   1.207
 5652SOL    HW217207   9.268   7.311   1.200
 5653SOL     OW17208   1.711   8.065   0.268
 5653SOL    HW117209   1.795   8.089   0.307
 5653SOL    HW217210   1.733   8.046   0.176
 5654SOL     OW17211   8.518  14.918   7.562
 5654SOL    HW117212   8.468  14.845   7.526
 5654SOL    HW217213   8.473  14.996   7.530
 5655SOL     OW17214  11.980   7.892   5.135
 5655SOL    HW117215  11.995   7.936   5.219
 5655SOL    HW217216  11.886   7.878   5.131
 5656SOL     OW17217   6.086  14.098   5.435
 5656SOL    HW117218   6.171  14.053   5.440
 5656SOL    HW217219   6.093  14.151   5.356
 5657SOL     OW17220   7.734  12.844   3.033
 5657SOL    HW117221   7.756   2.113   2.951
 5657SOL    HW217222   7.797  12.879   3.096
 5658SOL     OW17223  13.571  11.039   4.982
 5658SOL    HW117224  13.579  11.065   4.890
 5658SOL    HW217225  13.660  11.045   5.017
 5659SOL     OW17226   3.970   7.010   0.831
 5659SOL    HW117227   3.969   7.079   0.765
 5659SOL    HW217228   3.958   6.929   0.781
 5660SOL     OW17229   5.102   7.986   0.019
 5660SOL    HW117230   5.188   7.950   0.041
 5660SOL    HW217231   5.105   8.076   0.051
 5661SOL     OW17232   8.881   9.647   0.513
 5661SOL    HW117233   8.881   9.632   0.418
 5661SOL    HW217234   8.800   9.605   0.544
 5662SOL     OW17235  10.388   8.341   6.051
 5662SOL    HW117236  10.347   8.259   6.078
 5662SOL    HW217237  10.360   8.405   6.116
 5663SOL     OW17238  11.135   5.325   4.468
 5663SOL    HW117239  11.158   5.261   4.400
 5663SOL    HW217240  11.121   5.272   4.547
 5664SOL     OW17241   2.435   6.472   0.647
 5664SOL    HW117242   2.512   6.521   0.618
 5664SOL    HW217243   2.360   6.524   0.615
 5665SOL     OW17244   6.409  11.251   6.656
 5665SOL    HW117245   6.385  11.278   6.744
 5665SOL    HW217246   6.389  11.158   6.653
 5666SOL     OW17247   6.149   8.234   3.545
 5666SOL    HW117248   6.073   8.176   3.554
 5666SOL    HW217249   6.117   8.320   3.571
 5667SOL     OW17250   4.911   6.537   0.888
 5667SOL    HW117251   4.891   6.582   0.970
 5667SOL    HW217252   4.968   6.598   0.842
 5668SOL     OW17253   7.712  10.534   4.589
 5668SOL    HW117254   7.661  10.615   4.584
 5668SOL    HW217255   7.689  10.487   4.509
 5669SOL     OW17256  14.547  11.020   6.036
 5669SOL    HW117257  14.537  11.091   6.100
 5669SOL    HW217258  14.543  10.940   6.089
 5670SOL     OW17259   4.535   9.181   0.045
 5670SOL    HW117260   4.480   9.249   0.004
 5670SOL    HW217261   4.494   9.166   0.130
 5671SOL     OW17262   6.829   2.698   2.011
 5671SOL    HW117263   6.765   2.627   2.020
 5671SOL    HW217264   6.894   2.664   1.949
 5672SOL     OW17265   9.433   1.548   1.320
 5672SOL    HW117266   9.372   1.599   1.266
 5672SOL    HW217267   9.415   1.577   1.410
 5673SOL     OW17268   1.647   2.148   1.351
 5673SOL    HW117269   1.699   2.201   1.290
 5673SOL    HW217270   1.592   2.094   1.294
 5674SOL     OW17271   7.642   2.358   1.672
 5674SOL    HW117272   7.570   2.303   1.703
 5674SOL    HW217273   7.704   2.296   1.633
 5675SOL     OW17274   5.352  11.827   1.814
 5675SOL    HW117275   5.438  11.825   1.772
 5675SOL    HW217276   5.365  11.784   1.899
 5676SOL     OW17277  14.901   8.845   6.148
 5676SOL    HW117278  14.935   8.788   6.218
 5676SOL    HW217279  14.968   8.912   6.138
 5677SOL     OW17280   3.503   7.281   2.356
 5677SOL    HW117281   3.465   7.249   2.438
 5677SOL    HW217282   3.580   7.226   2.342
 5678SOL     OW17283   4.005   4.492   5.587
 5678SOL    HW117284  14.722   4.527   5.655
 5678SOL    HW217285   4.012   4.562   5.523
 5679SOL     OW17286   3.045  10.503   3.646
 5679SOL    HW117287   2.955  10.471   3.653
 5679SOL    HW217288   3.081  10.494   3.734
 5680SOL     OW17289   4.743   4.347   2.583
 5680SOL    HW117290   4.673   4.284   2.603
 5680SOL    HW217291   4.698   4.421   2.542
 5681SOL     OW17292   5.084   6.127   0.152
 5681SOL    HW117293   5.069   6.210   0.198
 5681SOL    HW217294   5.025   6.065   0.195
 5682SOL     OW17295  11.930  12.881   6.423
 5682SOL    HW117296  11.894  12.931   6.350
 5682SOL    HW217297  11.909  12.790   6.403
 5683SOL     OW17298  10.007   7.772   0.940
 5683SOL    HW117299  10.082   7.728   0.900
 5683SOL    HW217300   9.976   7.710   1.005
 5684SOL     OW17301   8.813   9.884   1.303
 5684SOL    HW117302   8.866   9.959   1.330
 5684SOL    HW217303   8.732   9.892   1.354
 5685SOL     OW17304   9.767   4.285   1.974
 5685SOL    HW117305   9.807   4.301   1.888
 5685SOL    HW217306   9.673   4.295   1.958
 5686SOL     OW17307  10.145   5.970   4.242
 5686SOL    HW117308  10.206   6.043   4.236
 5686SOL    HW217309  10.199   5.895   4.265
 5687SOL     OW17310   4.645   6.849   1.838
 5687SOL    HW117311   4.699   6.830   1.761
 5687SOL    HW217312   4.681   6.929   1.874
 5688SOL     OW17313   9.321   9.172   3.095
 5688SOL    HW117314   9.247   9.125   3.132
 5688SOL    HW217315   9.372   9.200   3.170
 5689SOL     OW17316   4.589   4.014   3.475
 5689SOL    HW117317   4.582   4.110   3.477
 5689SOL    HW217318   4.683   3.997   3.478
 5690SOL     OW17319  10.157   7.657   4.739
 5690SOL    HW117320  10.204   7.574   4.749
 5690SOL    HW217321  10.224   7.720   4.713
 5691SOL     OW17322   4.411   2.265   0.774
 5691SOL    HW117323   4.333   2.229   0.816
 5691SOL    HW217324   4.457   2.188   0.739
 5692SOL     OW17325   7.386   6.307   1.753
 5692SOL    HW117326   7.331   6.253   1.809
 5692SOL    HW217327   7.406   6.384   1.806
 5693SOL     OW17328   6.650   3.213   2.119
 5693SOL    HW117329   6.685   3.193   2.206
 5693SOL    HW217330   6.723   3.256   2.073
 5694SOL     OW17331   7.775   5.840   7.253
 5694SOL    HW117332   7.773   5.914   7.314
 5694SOL    HW217333   7.852   5.857   7.198
 5695SOL     OW17334   4.611  11.015   1.122
 5695SOL    HW117335   4.666  10.961   1.179
 5695SOL    HW217336   4.669  11.085   1.091
 5696SOL     OW17337   4.356   6.799   2.395
 5696SOL    HW117338   4.452   6.807   2.399
 5696SOL    HW217339   4.331   6.858   2.323
 5697SOL     OW17340  12.358  10.157   3.947
 5697SOL    HW117341  12.450  10.171   3.969
 5697SOL    HW217342  12.319  10.244   3.947
 5698SOL     OW17343  13.152   6.320   6.522
 5698SOL    HW117344  13.160   6.352   6.611
 5698SOL    HW217345  13.072   6.268   6.522
 5699SOL     OW17346   8.792  12.244   4.235
 5699SOL    HW117347   8.766  12.289   4.315
 5699SOL    HW217348   8.885  12.226   4.247
 5700SOL     OW17349  12.933   7.797   5.224
 5700SOL    HW117350  13.027   7.807   5.214
 5700SOL    HW217351  12.917   7.704   5.207
 5701SOL     OW17352  11.168   7.639   1.922
 5701SOL    HW117353  11.122   7.721   1.905
 5701SOL    HW217354  11.098   7.574   1.930
 5702SOL     OW17355   6.052  12.714   6.809
 5702SOL    HW117356   6.126  12.657   6.828
 5702SOL    HW217357   6.093  12.798   6.785
 5703SOL     OW17358   8.615  14.211   6.141
 5703SOL    HW117359   8.603  14.202   6.047
 5703SOL    HW217360   8.540  14.264   6.170
 5704SOL     OW17361  10.700  10.350   1.137
 5704SOL    HW117362  10.783  10.364   1.091
 5704SOL    HW217363  10.725  10.343   1.229
 5705SOL     OW17364   5.893   8.899   1.864
 5705SOL    HW117365   5.888   8.852   1.781
 5705SOL    HW217366   5.852   8.840   1.928
 5706SOL     OW17367   9.087   4.073   0.538
 5706SOL    HW117368   9.093   4.042   0.448
 5706SOL    HW217369   9.149   4.146   0.542
 5707SOL     OW17370  10.881   4.218   4.239
 5707SOL    HW117371  10.871   4.132   4.199
 5707SOL    HW217372  10.879   4.279   4.165
 5708SOL     OW17373   5.319   5.435   5.076
 5708SOL    HW117374   5.258   5.410   5.145
 5708SOL    HW217375   5.277   5.509   5.032
 5709SOL     OW17376   6.610   6.632   3.412
 5709SOL    HW117377   6.647   6.619   3.499
 5709SOL    HW217378   6.661   6.573   3.355
 5710SOL     OW17379   7.596   8.687   0.948
 5710SOL    HW117380   7.529   8.752   0.929
 5710SOL    HW217381   7.588   8.623   0.877
 5711SOL     OW17382  10.788   9.886   2.788
 5711SOL    HW117383  10.868   9.921   2.827
 5711SOL    HW217384  10.819   9.827   2.719
 5712SOL     OW17385   6.848   8.130   7.430
 5712SOL    HW117386   6.929   8.158   7.474
 5712SOL    HW217387   6.816   8.057   7.483
 5713SOL     OW17388   6.436  12.169   3.765
 5713SOL    HW117389   6.514  12.115   3.755
 5713SOL    HW217390   6.364  12.106   3.772
 5714SOL     OW17391  12.599  12.804   6.974
 5714SOL    HW117392  12.600  12.709   6.991
 5714SOL    HW217393  12.510  12.823   6.946
 5715SOL     OW17394   9.386  15.791   7.168
 5715SOL    HW117395   9.473  15.827   7.183
 5715SOL    HW217396   9.332   5.093   7.145
 5716SOL     OW17397  14.584   9.230   5.867
 5716SOL    HW117398  14.608   9.315   5.905
 5716SOL    HW217399  14.624   9.231   5.780
 5717SOL     OW17400  12.295   9.765   4.989
 5717SOL    HW117401  12.346   9.741   5.066
 5717SOL    HW217402  12.222   9.817   5.024
 5718SOL     OW17403   8.570   9.277   3.329
 5718SOL    HW117404   8.574   9.249   3.238
 5718SOL    HW217405   8.659   9.267   3.361
 5719SOL     OW17406   5.225   8.174   0.622
 5719SOL    HW117407   5.177   8.197   0.542
 5719SOL    HW217408   5.248   8.082   0.611
 5720SOL     OW17409   1.372   5.895   1.001
 5720SOL    HW117410   1.448   5.892   0.943
 5720SOL    HW217411   1.409   5.901   1.089
 5721SOL     OW17412   9.069   2.478   0.655
 5721SOL    HW117413   9.141   2.448   0.600
 5721SOL    HW217414   9.018   2.537   0.600
 5722SOL     OW17415   7.220   8.070   2.069
 5722SOL    HW117416   7.125   8.056   2.072
 5722SOL    HW217417   7.238   8.091   1.977
 5723SOL     OW17418  10.330   3.865   5.035
 5723SOL    HW117419  10.374   3.784   5.008
 5723SOL    HW217420  10.287   3.897   4.956
 5724SOL     OW17421   2.927   2.353   3.017
 5724SOL    HW117422   2.833   2.345   3.002
 5724SOL    HW217423   2.937   2.342   3.112
 5725SOL     OW17424   8.984   9.433   3.833
 5725SOL    HW117425   8.893   9.403   3.833
 5725SOL    HW217426   9.018   9.404   3.748
 5726SOL     OW17427   4.295   9.943   4.983
 5726SOL    HW117428   4.303   9.906   5.071
 5726SOL    HW217429   4.201   9.949   4.968
 5727SOL     OW17430   9.974  10.297   5.234
 5727SOL    HW117431   9.953  10.322   5.324
 5727SOL    HW217432  10.040  10.360   5.206
 5728SOL     OW17433   8.098   6.309   4.487
 5728SOL    HW117434   8.002   6.311   4.485
 5728SOL    HW217435   8.121   6.219   4.463
 5729SOL     OW17436   5.176   5.147   7.207
 5729SOL    HW117437   5.222   5.230   7.203
 5729SOL    HW217438   5.221   5.091   7.144
 5730SOL     OW17439  10.915  10.900   5.450
 5730SOL    HW117440  10.948  10.830   5.506
 5730SOL    HW217441  10.922  10.979   5.503
 5731SOL     OW17442   7.947   7.718   0.281
 5731SOL    HW117443   7.927   7.804   0.244
 5731SOL    HW217444   7.881   7.706   0.350
 5732SOL     OW17445  14.503   4.281   5.600
 5732SOL    HW117446  14.597   4.266   5.610
 5732SOL    HW217447  14.463   4.232   5.672
 5733SOL     OW17448  12.400   5.901   6.421
 5733SOL    HW117449  12.437   5.814   6.436
 5733SOL    HW217450  12.351   5.893   6.340
 5734SOL     OW17451   6.897   5.384   0.576
 5734SOL    HW117452   6.822   5.444   0.575
 5734SOL    HW217453   6.909   5.359   0.484
 5735SOL     OW17454  10.452   8.379   1.881
 5735SOL    HW117455  10.408   8.463   1.888
 5735SOL    HW217456  10.458   8.347   1.971
 5736SOL     OW17457  10.994   4.533   3.353
 5736SOL    HW117458  11.084   4.565   3.357
 5736SOL    HW217459  11.002   4.438   3.342
 5737SOL     OW17460  12.423   5.220   7.199
 5737SOL    HW117461  12.409   5.127   7.219
 5737SOL    HW217462  12.496   5.219   7.136
 5738SOL     OW17463   9.793  10.595   2.669
 5738SOL    HW117464   9.706  10.603   2.707
 5738SOL    HW217465   9.841  10.540   2.731
 5739SOL     OW17466  12.889   9.971   6.599
 5739SOL    HW117467  12.819  10.021   6.639
 5739SOL    HW217468  12.905  10.014   6.515
 5740SOL     OW17469   8.639   6.613   2.267
 5740SOL    HW117470   8.685   6.540   2.307
 5740SOL    HW217471   8.689   6.632   2.187
 5741SOL     OW17472   1.654   8.225   1.407
 5741SOL    HW117473   1.713   8.284   1.454
 5741SOL    HW217474   1.658   8.254   1.316
 5742SOL     OW17475  12.309   5.464   2.692
 5742SOL    HW117476  12.262   5.513   2.759
 5742SOL    HW217477  12.280   5.503   2.609
 5743SOL     OW17478   4.952   6.944   3.162
 5743SOL    HW117479   5.008   6.974   3.091
 5743SOL    HW217480   4.904   7.022   3.189
 5744SOL     OW17481  11.393   1.534   1.620
 5744SOL    HW117482  11.342   1.582   1.685
 5744SOL    HW217483  11.374   1.579   1.537
 5745SOL     OW17484  10.572   7.187   7.388
 5745SOL    HW117485  10.631   7.220   7.321
 5745SOL    HW217486  10.505   7.256   7.397
 5746SOL     OW17487   4.887   7.850   4.314
 5746SOL    HW117488   4.902   7.845   4.219
 5746SOL    HW217489   4.907   7.762   4.345
 5747SOL     OW17490   6.557  10.265   5.492
 5747SOL    HW117491   6.545  10.225   5.578
 5747SOL    HW217492   6.556  10.192   5.431
 5748SOL     OW17493  10.409   1.861   1.066
 5748SOL    HW117494  10.472   1.798   1.031
 5748SOL    HW217495  10.358   1.889   0.990
 5749SOL     OW17496   5.999   7.706   2.678
 5749SOL    HW117497   5.991   7.624   2.727
 5749SOL    HW217498   5.931   7.763   2.715
 5750SOL     OW17499  14.814   5.708   6.983
 5750SOL    HW117500  14.789   5.727   7.074
 5750SOL    HW217501  14.882   5.772   6.962
 5751SOL     OW17502  13.070   6.488   4.412
 5751SOL    HW117503  13.007   6.466   4.344
 5751SOL    HW217504  13.018   6.526   4.482
 5752SOL     OW17505   9.085   5.284   4.099
 5752SOL    HW117506   9.116   5.344   4.167
 5752SOL    HW217507   8.991   5.276   4.115
 5753SOL     OW17508  10.447   2.655   3.729
 5753SOL    HW117509  10.469  13.411   3.820
 5753SOL    HW217510  10.524   2.700   3.694
 5754SOL     OW17511  10.208   7.493   0.699
 5754SOL    HW117512  10.130   7.537   0.667
 5754SOL    HW217513  10.214   7.413   0.647
 5755SOL     OW17514   8.975   9.105   2.698
 5755SOL    HW117515   9.065   9.133   2.718
 5755SOL    HW217516   8.981   9.011   2.687
 5756SOL     OW17517   5.470  15.762   7.114
 5756SOL    HW117518   5.510  15.810   7.187
 5756SOL    HW217519   5.534   4.993   7.043
 5757SOL     OW17520  13.284   9.276   7.575
 5757SOL    HW117521   7.832   3.861   0.022
 5757SOL    HW217522   7.978   3.900   0.005
 5758SOL     OW17523   4.796  11.241   1.097
 5758SOL    HW117524   4.858  11.179   1.058
 5758SOL    HW217525   4.802  11.319   1.042
 5759SOL     OW17526  10.119   8.691   0.022
 5759SOL    HW117527  15.568  14.121   7.581
 5759SOL    HW217528  10.130   8.738   0.105
 5760SOL     OW17529   7.128   3.222   4.170
 5760SOL    HW117530   7.185   3.274   4.114
 5760SOL    HW217531   7.089   3.157   4.111
 5761SOL     OW17532   7.148   3.034   0.041
 5761SOL    HW117533   7.199   2.959   0.072
 5761SOL    HW217534  12.546   8.419   7.564
 5762SOL     OW17535  11.826   6.357   2.444
 5762SOL    HW117536  11.816   6.266   2.417
 5762SOL    HW217537  11.737   6.393   2.442
 5763SOL     OW17538   8.893  12.356   5.299
 5763SOL    HW117539   8.869  12.291   5.233
 5763SOL    HW217540   8.812  12.372   5.347
 5764SOL     OW17541  11.661  11.262   2.379
 5764SOL    HW117542  11.611  11.314   2.316
 5764SOL    HW217543  11.751  11.266   2.347
 5765SOL     OW17544   9.079   2.317   0.124
 5765SOL    HW117545   9.097   2.299   0.031
 5765SOL    HW217546   9.095   2.234   0.168
 5766SOL     OW17547  14.706  10.694   7.382
 5766SOL    HW117548  14.783  10.720   7.434
 5766SOL    HW217549  14.714  10.744   7.301
 5767SOL     OW17550  12.931   4.021   5.431
 5767SOL    HW117551  13.007   4.024   5.373
 5767SOL    HW217552  12.964   3.980   5.511
 5768SOL     OW17553  11.375   2.670   1.745
 5768SOL    HW117554  11.334   2.717   1.817
 5768SOL    HW217555  11.448   2.623   1.785
 5769SOL     OW17556  12.596  12.042   3.634
 5769SOL    HW117557  12.512  12.077   3.603
 5769SOL    HW217558  12.575  12.001   3.718
 5770SOL     OW17559  10.442  10.366   3.271
 5770SOL    HW117560  10.472  10.317   3.348
 5770SOL    HW217561  10.497  10.444   3.268
 5771SOL     OW17562  12.547   7.331   4.746
 5771SOL    HW117563  12.560   7.421   4.777
 5771SOL    HW217564  12.552   7.277   4.825
 5772SOL     OW17565   3.221   9.672   2.784
 5772SOL    HW117566   3.162   9.691   2.857
 5772SOL    HW217567   3.271   9.596   2.814
 5773SOL     OW17568  13.677   8.674   6.695
 5773SOL    HW117569  13.741   8.678   6.624
 5773SOL    HW217570  13.664   8.580   6.710
 5774SOL     OW17571   5.649   3.651   0.202
 5774SOL    HW117572   5.720   3.590   0.225
 5774SOL    HW217573   5.643   3.646   0.107
 5775SOL     OW17574   4.254   7.923   2.577
 5775SOL    HW117575   4.342   7.959   2.571
 5775SOL    HW217576   4.241   7.906   2.670
 5776SOL     OW17577   5.998   7.414   0.580
 5776SOL    HW117578   5.998   7.404   0.675
 5776SOL    HW217579   6.011   7.508   0.565
 5777SOL     OW17580   9.605   3.600   1.134
 5777SOL    HW117581   9.681   3.566   1.088
 5777SOL    HW217582   9.617   3.695   1.134
 5778SOL     OW17583  10.575   8.338   0.473
 5778SOL    HW117584  10.512   8.398   0.435
 5778SOL    HW217585  10.531   8.302   0.550
 5779SOL     OW17586   9.446  12.960   6.265
 5779SOL    HW117587   9.420  12.903   6.193
 5779SOL    HW217588   9.511  12.910   6.314
 5780SOL     OW17589   5.220  12.657   6.477
 5780SOL    HW117590   5.199  12.747   6.501
 5780SOL    HW217591   5.215  12.609   6.560
 5781SOL     OW17592   7.400   4.213   5.523
 5781SOL    HW117593   7.488   4.241   5.547
 5781SOL    HW217594   7.365   4.174   5.603
 5782SOL     OW17595  13.501  15.027   7.610
 5782SOL    HW117596   8.109   9.718   0.046
 5782SOL    HW217597  13.593  15.000   7.615
 5783SOL     OW17598  13.690   7.777   5.743
 5783SOL    HW117599  13.623   7.836   5.777
 5783SOL    HW217600  13.642   7.704   5.705
 5784SOL     OW17601   4.836   3.843   4.944
 5784SOL    HW117602   4.796   3.791   4.874
 5784SOL    HW217603   4.765   3.899   4.976
 5785SOL     OW17604  13.795   7.226   4.427
 5785SOL    HW117605  13.732   7.172   4.379
 5785SOL    HW217606  13.826   7.290   4.362
 5786SOL     OW17607   4.395   4.309   2.650
 5786SOL    HW117608   4.489   4.308   2.670
 5786SOL    HW217609   4.375   4.401   2.635
 5787SOL     OW17610  10.176  10.849   0.722
 5787SOL    HW117611  10.186  10.891   0.807
 5787SOL    HW217612  10.128  10.768   0.742
 5788SOL     OW17613  14.005   8.608   7.240
 5788SOL    HW117614  14.053   8.525   7.243
 5788SOL    HW217615  13.979   8.624   7.331
 5789SOL     OW17616   5.339  14.562   5.372
 5789SOL    HW117617   5.379  14.613   5.442
 5789SOL    HW217618   5.398  14.488   5.360
 5790SOL     OW17619   8.387   9.564   1.773
 5790SOL    HW117620   8.374   9.658   1.762
 5790SOL    HW217621   8.464   9.545   1.720
 5791SOL     OW17622   6.646  11.875   5.047
 5791SOL    HW117623   6.600  11.856   5.129
 5791SOL    HW217624   6.721  11.816   5.049
 5792SOL     OW17625   7.547   6.777   4.907
 5792SOL    HW117626   7.610   6.805   4.840
 5792SOL    HW217627   7.530   6.685   4.888
 5793SOL     OW17628   6.761   2.605   0.779
 5793SOL    HW117629   6.821   2.671   0.814
 5793SOL    HW217630   6.692   2.598   0.845
 5794SOL     OW17631   9.808   2.845   3.015
 5794SOL    HW117632   9.717   2.866   2.995
 5794SOL    HW217633   9.808   2.823   3.108
 5795SOL     OW17634   8.618  13.426   5.887
 5795SOL    HW117635   8.600  13.368   5.961
 5795SOL    HW217636   8.531  13.458   5.861
 5796SOL     OW17637   4.815   4.253   1.478
 5796SOL    HW117638   4.835   4.228   1.568
 5796SOL    HW217639   4.851   4.182   1.424
 5797SOL     OW17640   7.951   1.790   1.388
 5797SOL    HW117641   8.016   1.743   1.336
 5797SOL    HW217642   7.991   1.798   1.475
 5798SOL     OW17643   8.077   8.660   7.060
 5798SOL    HW117644   7.999   8.700   7.099
 5798SOL    HW217645   8.044   8.587   7.009
 5799SOL     OW17646   8.621  13.935   7.437
 5799SOL    HW117647   8.676  13.857   7.430
 5799SOL    HW217648   8.578  13.926   7.522
 5800SOL     OW17649  13.069   8.797   5.132
 5800SOL    HW117650  12.993   8.758   5.089
 5800SOL    HW217651  13.129   8.817   5.061
 5801SOL     OW17652   5.445  11.335   7.148
 5801SOL    HW117653   5.528  11.381   7.161
 5801SOL    HW217654   5.437  11.327   7.053
 5802SOL     OW17655  11.208   9.536   3.963
 5802SOL    HW117656  11.132   9.478   3.969
 5802SOL    HW217657  11.280   9.485   4.001
 5803SOL     OW17658   3.693   6.994   4.838
 5803SOL    HW117659   3.743   6.915   4.816
 5803SOL    HW217660   3.760   7.063   4.847
 5804SOL     OW17661   1.580   3.176   0.017
 5804SOL    HW117662   1.598   3.083   0.034
 5804SOL    HW217663   1.515   3.201   0.082
 5805SOL     OW17664   7.452   6.027   2.345
 5805SOL    HW117665   7.508   6.031   2.422
 5805SOL    HW217666   7.364   6.015   2.380
 5806SOL     OW17667   6.082   5.609   5.428
 5806SOL    HW117668   6.124   5.674   5.484
 5806SOL    HW217669   6.125   5.620   5.343
 5807SOL     OW17670   2.046   4.712   1.767
 5807SOL    HW117671   2.122   4.664   1.733
 5807SOL    HW217672   2.067   4.804   1.752
 5808SOL     OW17673  11.343  12.610   3.902
 5808SOL    HW117674  11.346  12.521   3.937
 5808SOL    HW217675  11.387  12.663   3.967
 5809SOL     OW17676   4.561   8.102   3.676
 5809SOL    HW117677   4.578   8.173   3.614
 5809SOL    HW217678   4.593   8.023   3.632
 5810SOL     OW17679  11.773   8.011   6.409
 5810SOL    HW117680  11.710   7.942   6.430
 5810SOL    HW217681  11.857   7.977   6.441
 5811SOL     OW17682  14.729  10.298   6.906
 5811SOL    HW117683  14.722  10.335   6.994
 5811SOL    HW217684  14.643  10.259   6.889
 5812SOL     OW17685  11.465   5.551   4.095
 5812SOL    HW117686  11.475   5.462   4.128
 5812SOL    HW217687  11.490   5.545   4.003
 5813SOL     OW17688   5.991  10.485   0.673
 5813SOL    HW117689   6.062  10.549   0.673
 5813SOL    HW217690   5.919  10.529   0.629
 5814SOL     OW17691   9.022   1.410   0.334
 5814SOL    HW117692   8.965   1.374   0.266
 5814SOL    HW217693   9.042   1.499   0.304
 5815SOL     OW17694  12.640  11.990   5.839
 5815SOL    HW117695  12.722  12.002   5.792
 5815SOL    HW217696  12.578  12.049   5.796
 5816SOL     OW17697   7.718   6.758   6.440
 5816SOL    HW117698   7.633   6.748   6.482
 5816SOL    HW217699   7.705   6.826   6.374
 5817SOL     OW17700   2.540  11.400   3.495
 5817SOL    HW117701   2.503  11.319   3.531
 5817SOL    HW217702   2.463  11.454   3.475
 5818SOL     OW17703   6.085  11.847   5.322
 5818SOL    HW117704   6.018  11.827   5.256
 5818SOL    HW217705   6.161  11.874   5.271
 5819SOL     OW17706   4.618   9.896   2.191
 5819SOL    HW117707   4.599   9.803   2.200
 5819SOL    HW217708   4.680   9.915   2.261
 5820SOL     OW17709   4.291   4.768   0.687
 5820SOL    HW117710   4.201   4.746   0.711
 5820SOL    HW217711   4.284   4.803   0.598
 5821SOL     OW17712   6.734   7.468   0.493
 5821SOL    HW117713   6.664   7.529   0.469
 5821SOL    HW217714   6.713   7.388   0.444
 5822SOL     OW17715   5.802   5.450   3.668
 5822SOL    HW117716   5.722   5.436   3.616
 5822SOL    HW217717   5.843   5.363   3.671
 5823SOL     OW17718  11.566   6.202   2.251
 5823SOL    HW117719  11.500   6.142   2.218
 5823SOL    HW217720  11.533   6.289   2.228
 5824SOL     OW17721  12.859  10.743   3.000
 5824SOL    HW117722   2.150  10.674   3.002
 5824SOL    HW217723  12.775  10.697   3.009
 5825SOL     OW17724   9.797   8.660   4.775
 5825SOL    HW117725   9.832   8.579   4.812
 5825SOL    HW217726   9.874   8.717   4.766
 5826SOL     OW17727   8.329   9.718   6.105
 5826SOL    HW117728   8.395   9.784   6.130
 5826SOL    HW217729   8.293   9.750   6.022
 5827SOL     OW17730   8.259  11.810   2.658
 5827SOL    HW117731   8.199  11.846   2.723
 5827SOL    HW217732   8.345  11.814   2.700
 5828SOL     OW17733   5.962   7.186   1.754
 5828SOL    HW117734   5.909   7.152   1.681
 5828SOL    HW217735   5.938   7.130   1.828
 5829SOL     OW17736   7.981  11.369   1.041
 5829SOL    HW117737   7.990  11.453   0.996
 5829SOL    HW217738   7.949  11.393   1.129
 5830SOL     OW17739  14.246  12.792   4.914
 5830SOL    HW117740   3.544  12.732   4.897
 5830SOL    HW217741  14.282  12.856   4.975
 5831SOL     OW17742   4.836   9.980   1.342
 5831SOL    HW117743   4.843   9.983   1.247
 5831SOL    HW217744   4.743   9.994   1.361
 5832SOL     OW17745   5.481   8.644   1.460
 5832SOL    HW117746   5.412   8.700   1.423
 5832SOL    HW217747   5.555   8.703   1.474
 5833SOL     OW17748   9.225   7.621   6.111
 5833SOL    HW117749   9.250   7.660   6.195
 5833SOL    HW217750   9.188   7.535   6.134
 5834SOL     OW17751  11.465   7.207   4.430
 5834SOL    HW117752  11.477   7.289   4.382
 5834SOL    HW217753  11.378   7.177   4.404
 5835SOL     OW17754  10.697  10.182   2.245
 5835SOL    HW117755  10.701  10.267   2.200
 5835SOL    HW217756  10.780  10.177   2.292
 5836SOL     OW17757   6.357  10.800   0.922
 5836SOL    HW117758   6.303  10.860   0.869
 5836SOL    HW217759   6.320  10.714   0.905
 5837SOL     OW17760  12.006  10.580   4.314
 5837SOL    HW117761  12.061  10.646   4.358
 5837SOL    HW217762  11.934  10.564   4.375
 5838SOL     OW17763   6.156   7.070   5.728
 5838SOL    HW117764   6.062   7.061   5.738
 5838SOL    HW217765   6.170   7.162   5.707
 5839SOL     OW17766   5.138  11.563   3.235
 5839SOL    HW117767   5.144  11.617   3.156
 5839SOL    HW217768   5.123  11.625   3.306
 5840SOL     OW17769   7.343  14.058   5.592
 5840SOL    HW117770   7.315  13.983   5.644
 5840SOL    HW217771   7.347  14.025   5.502
 5841SOL     OW17772   7.904  14.875   6.848
 5841SOL    HW117773   7.814  14.882   6.879
 5841SOL    HW217774   7.958  14.900   6.924
 5842SOL     OW17775   9.090   7.578   0.975
 5842SOL    HW117776   9.153   7.586   1.046
 5842SOL    HW217777   9.143   7.576   0.895
 5843SOL     OW17778   5.711   5.307   6.883
 5843SOL    HW117779   5.622   5.275   6.894
 5843SOL    HW217780   5.749   5.301   6.971
 5844SOL     OW17781   6.827  10.899   6.312
 5844SOL    HW117782   6.888  10.849   6.367
 5844SOL    HW217783   6.763  10.835   6.283
 5845SOL     OW17784   8.923  11.568   2.433
 5845SOL    HW117785   8.884  11.655   2.439
 5845SOL    HW217786   8.886  11.519   2.506
 5846SOL     OW17787   6.807   8.390   6.943
 5846SOL    HW117788   6.892   8.424   6.971
 5846SOL    HW217789   6.828   8.311   6.893
 5847SOL     OW17790   7.672  14.823   6.977
 5847SOL    HW117791   7.686  14.830   7.072
 5847SOL    HW217792   7.577  14.821   6.966
 5848SOL     OW17793   6.669  11.148   4.746
 5848SOL    HW117794   6.589  11.132   4.796
 5848SOL    HW217795   6.641  11.198   4.670
 5849SOL     OW17796   3.991   8.577   4.177
 5849SOL    HW117797   4.046   8.597   4.253
 5849SOL    HW217798   3.902   8.572   4.212
 5850SOL     OW17799   4.734   9.414   5.737
 5850SOL    HW117800   4.781   9.339   5.774
 5850SOL    HW217801   4.764   9.489   5.788
 5851SOL     OW17802  10.336  14.056   4.836
 5851SOL    HW117803  10.383  14.014   4.908
 5851SOL    HW217804  10.305  14.139   4.872
 5852SOL     OW17805   2.631   2.096   1.527
 5852SOL    HW117806   2.563   2.050   1.577
 5852SOL    HW217807   2.709   2.092   1.583
 5853SOL     OW17808  13.376  12.410   5.546
 5853SOL    HW117809  13.446  12.450   5.494
 5853SOL    HW217810  13.296  12.453   5.516
 5854SOL     OW17811  12.200  11.360   7.330
 5854SOL    HW117812  12.288  11.343   7.365
 5854SOL    HW217813  12.144  11.363   7.407
 5855SOL     OW17814   3.744   5.474   3.677
 5855SOL    HW117815   3.736   5.546   3.740
 5855SOL    HW217816   3.663   5.425   3.684
 5856SOL     OW17817   8.285   6.489   7.314
 5856SOL    HW117818   8.299   6.414   7.372
 5856SOL    HW217819   8.302   6.455   7.226
 5857SOL     OW17820   9.372   9.695   3.132
 5857SOL    HW117821   9.392   9.788   3.120
 5857SOL    HW217822   9.395   9.655   3.049
 5858SOL     OW17823   9.768   4.010   4.939
 5858SOL    HW117824   9.862   4.005   4.919
 5858SOL    HW217825   9.755   4.098   4.976
 5859SOL     OW17826  10.586   7.860   3.498
 5859SOL    HW117827  10.605   7.868   3.404
 5859SOL    HW217828  10.605   7.769   3.519
 5860SOL     OW17829   8.143   5.340   5.990
 5860SOL    HW117830   8.118   5.422   5.948
 5860SOL    HW217831   8.137   5.359   6.084
 5861SOL     OW17832   8.327  11.690   5.795
 5861SOL    HW117833   8.346  11.784   5.798
 5861SOL    HW217834   8.246  11.680   5.845
 5862SOL     OW17835   8.711  10.520   0.233
 5862SOL    HW117836   8.622  10.483   0.235
 5862SOL    HW217837   8.748  10.497   0.318
 5863SOL     OW17838   6.731   1.942   2.391
 5863SOL    HW117839   6.759   2.030   2.414
 5863SOL    HW217840   6.813   1.893   2.381
 5864SOL     OW17841   5.565  15.123   6.864
 5864SOL    HW117842   5.549  15.136   6.771
 5864SOL    HW217843   5.505  15.052   6.889
 5865SOL     OW17844   6.404   8.611   2.756
 5865SOL    HW117845   6.321   8.658   2.751
 5865SOL    HW217846   6.403   8.552   2.680
 5866SOL     OW17847   9.904  10.231   1.906
 5866SOL    HW117848   9.990  10.264   1.930
 5866SOL    HW217849   9.845  10.267   1.973
 5867SOL     OW17850  10.531   8.750   5.804
 5867SOL    HW117851  10.516   8.844   5.813
 5867SOL    HW217852  10.443   8.713   5.793
 5868SOL     OW17853   5.414   7.925   6.588
 5868SOL    HW117854   5.436   7.912   6.680
 5868SOL    HW217855   5.494   7.960   6.549
 5869SOL     OW17856  11.730   6.950   5.513
 5869SOL    HW117857  11.685   6.937   5.429
 5869SOL    HW217858  11.703   6.876   5.567
 5870SOL     OW17859   7.248   0.681   0.396
 5870SOL    HW117860   7.223   0.744   0.329
 5870SOL    HW217861   7.298   0.732   0.460
 5871SOL     OW17862   4.487   8.039   4.948
 5871SOL    HW117863   4.511   8.058   5.038
 5871SOL    HW217864   4.474   7.944   4.946
 5872SOL     OW17865   7.821  12.911   6.777
 5872SOL    HW117866   7.850  12.827   6.741
 5872SOL    HW217867   7.790  12.961   6.702
 5873SOL     OW17868   6.744  10.523   5.641
 5873SOL    HW117869   6.800  10.476   5.579
 5873SOL    HW217870   6.803  10.551   5.710
 5874SOL     OW17871  12.957   3.700   3.816
 5874SOL    HW117872  12.908   3.739   3.744
 5874SOL    HW217873  13.049   3.718   3.794
 5875SOL     OW17874   1.744   9.395   2.174
 5875SOL    HW117875   1.677   9.381   2.241
 5875SOL    HW217876   1.768   9.487   2.183
 5876SOL     OW17877   7.765   6.745   2.542
 5876SOL    HW117878   7.766   6.706   2.630
 5876SOL    HW217879   7.700   6.695   2.494
 5877SOL     OW17880   5.033   7.014   1.649
 5877SOL    HW117881   5.033   7.079   1.579
 5877SOL    HW217882   5.101   6.952   1.624
 5878SOL     OW17883   6.993   9.615   0.096
 5878SOL    HW117884   6.986   9.583   0.006
 5878SOL    HW217885   7.083   9.596   0.122
 5879SOL     OW17886  14.384  10.521   5.313
 5879SOL    HW117887  14.313  10.549   5.255
 5879SOL    HW217888  14.410  10.600   5.360
 5880SOL     OW17889  12.350   9.342   7.063
 5880SOL    HW117890  12.418   9.330   7.129
 5880SOL    HW217891  12.269   9.318   7.107
 5881SOL     OW17892  10.710  10.661   6.958
 5881SOL    HW117893  10.652  10.609   7.014
 5881SOL    HW217894  10.728  10.740   7.008
 5882SOL     OW17895  11.920  10.089   4.797
 5882SOL    HW117896  11.843  10.099   4.853
 5882SOL    HW217897  11.885  10.060   4.713
 5883SOL     OW17898   9.370  10.991   5.347
 5883SOL    HW117899   9.453  10.950   5.372
 5883SOL    HW217900   9.310  10.966   5.417
 5884SOL     OW17901  13.355  14.686   7.015
 5884SOL    HW117902  13.349  14.730   6.931
 5884SOL    HW217903  13.299  14.608   7.006
 5885SOL     OW17904   9.685  11.530   5.298
 5885SOL    HW117905   9.626  11.474   5.349
 5885SOL    HW217906   9.703  11.604   5.355
 5886SOL     OW17907  11.399  11.295   0.901
 5886SOL    HW117908  11.426  11.341   0.981
 5886SOL    HW217909  11.366  11.364   0.844
 5887SOL     OW17910   5.085   7.736   5.726
 5887SOL    HW117911   5.129   7.674   5.785
 5887SOL    HW217912   5.026   7.681   5.674
 5888SOL     OW17913   8.830   9.533   6.428
 5888SOL    HW117914   8.891   9.584   6.482
 5888SOL    HW217915   8.857   9.551   6.338
 5889SOL     OW17916  12.626   8.058   5.958
 5889SOL    HW117917  12.580   8.004   5.893
 5889SOL    HW217918  12.651   7.997   6.027
 5890SOL     OW17919   4.986  11.761   5.363
 5890SOL    HW117920   5.069  11.782   5.320
 5890SOL    HW217921   4.954  11.845   5.396
 5891SOL     OW17922   2.881  10.946   2.472
 5891SOL    HW117923   2.880  10.993   2.389
 5891SOL    HW217924   2.948  10.991   2.524
 5892SOL     OW17925   7.275   1.242   0.421
 5892SOL    HW117926   7.324   1.233   0.339
 5892SOL    HW217927   7.198   1.187   0.410
 5893SOL     OW17928   9.594  10.115   4.239
 5893SOL    HW117929   9.527  10.163   4.287
 5893SOL    HW217930   9.578  10.136   4.147
 5894SOL     OW17931  12.315  10.526   2.604
 5894SOL    HW117932  12.351  10.451   2.556
 5894SOL    HW217933  12.234  10.547   2.557
 5895SOL     OW17934   9.680   8.788   0.928
 5895SOL    HW117935   9.614   8.729   0.965
 5895SOL    HW217936   9.720   8.737   0.857
 5896SOL     OW17937  10.488   8.953   7.479
 5896SOL    HW117938  10.581   8.936   7.496
 5896SOL    HW217939  10.442   8.880   7.521
 5897SOL     OW17940   8.221   8.697   3.951
 5897SOL    HW117941   8.143   8.671   4.000
 5897SOL    HW217942   8.292   8.647   3.992
 5898SOL     OW17943   4.533   6.959   2.270
 5898SOL    HW117944   4.471   7.017   2.226
 5898SOL    HW217945   4.617   6.974   2.224
 5899SOL     OW17946  12.359  14.392   5.592
 5899SOL    HW117947  12.399  14.473   5.624
 5899SOL    HW217948  12.358  14.402   5.497
 5900SOL     OW17949   2.743   8.972   3.748
 5900SOL    HW117950   2.812   9.023   3.791
 5900SOL    HW217951   2.667   9.031   3.747
 5901SOL     OW17952  10.328   7.311   5.920
 5901SOL    HW117953  10.352   7.278   5.834
 5901SOL    HW217954  10.259   7.252   5.951
 5902SOL     OW17955  11.136   6.872   5.637
 5902SOL    HW117956  11.106   6.783   5.621
 5902SOL    HW217957  11.113   6.889   5.729
 5903SOL     OW17958   6.837  11.628   7.128
 5903SOL    HW117959   6.761  11.660   7.079
 5903SOL    HW217960   6.912  11.672   7.089
 5904SOL     OW17961   1.219   9.380   1.385
 5904SOL    HW117962   1.213   9.343   1.473
 5904SOL    HW217963   1.181   9.313   1.328
 5905SOL     OW17964   1.582   4.222   1.464
 5905SOL    HW117965   1.592   4.128   1.477
 5905SOL    HW217966   1.578   4.233   1.369
 5906SOL     OW17967  13.132   3.977   3.347
 5906SOL    HW117968  13.070   3.927   3.294
 5906SOL    HW217969  13.087   4.060   3.365
 5907SOL     OW17970   6.152   2.427   0.626
 5907SOL    HW117971   6.131   2.334   0.633
 5907SOL    HW217972   6.226   2.439   0.686
 5908SOL     OW17973   2.919   3.330   0.044
 5908SOL    HW117974   2.929   3.419   0.010
 5908SOL    HW217975   2.851   3.337   0.111
 5909SOL     OW17976  12.218   2.861   2.409
 5909SOL    HW117977  12.177   2.775   2.402
 5909SOL    HW217978  12.251   2.879   2.321
 5910SOL     OW17979   2.868   9.883   0.081
 5910SOL    HW117980   2.806   9.810   0.077
 5910SOL    HW217981   8.247  15.313   7.614
 5911SOL     OW17982   4.903   1.650   0.382
 5911SOL    HW117983   4.986   1.657   0.429
 5911SOL    HW217984   4.837   1.642   0.450
 5912SOL     OW17985   3.846   9.247   0.311
 5912SOL    HW117986   3.878   9.244   0.401
 5912SOL    HW217987   3.909   9.301   0.264
 5913SOL     OW17988   9.143  12.004   4.641
 5913SOL    HW117989   9.151  12.098   4.630
 5913SOL    HW217990   9.058  11.991   4.684
 5914SOL     OW17991   3.760   8.547   4.335
 5914SOL    HW117992   3.747   8.482   4.404
 5914SOL    HW217993   3.698   8.617   4.358
 5915SOL     OW17994   2.497   6.186   0.182
 5915SOL    HW117995   2.451   6.109   0.148
 5915SOL    HW217996   2.587   6.156   0.196
 5916SOL     OW17997   6.149   3.604   5.006
 5916SOL    HW117998   6.112  14.291   5.001
 5916SOL    HW217999   6.122   3.636   5.092
 5917SOL     OW18000   8.401   6.916   0.425
 5917SOL    HW118001   8.415   6.821   0.428
 5917SOL    HW218002   8.466   6.947   0.362
 5918SOL     OW18003   8.285   2.166   0.674
 5918SOL    HW118004   8.242   2.149   0.758
 5918SOL    HW218005   8.313   2.257   0.679
 5919SOL     OW18006  10.869   9.062   6.595
 5919SOL    HW118007  10.912   9.142   6.625
 5919SOL    HW218008  10.929   8.992   6.621
 5920SOL     OW18009  13.348   3.554   4.237
 5920SOL    HW118010  13.308   3.621   4.181
 5920SOL    HW218011  13.372   3.484   4.177
 5921SOL     OW18012  10.943  10.887   1.512
 5921SOL    HW118013  10.926  10.973   1.475
 5921SOL    HW218014  10.928  10.897   1.606
 5922SOL     OW18015  11.075   3.221   3.293
 5922SOL    HW118016  10.988   3.217   3.253
 5922SOL    HW218017  11.059   3.246   3.384
 5923SOL     OW18018  14.412   8.177   7.120
 5923SOL    HW118019  14.483   8.130   7.165
 5923SOL    HW218020  14.456   8.225   7.050
 5924SOL     OW18021   8.449  11.042   0.664
 5924SOL    HW118022   8.355  11.030   0.681
 5924SOL    HW218023   8.454  11.063   0.570
 5925SOL     OW18024   9.188   6.620   1.664
 5925SOL    HW118025   9.175   6.678   1.589
 5925SOL    HW218026   9.224   6.540   1.626
 5926SOL     OW18027   7.015   5.731   3.449
 5926SOL    HW118028   7.097   5.751   3.405
 5926SOL    HW218029   7.041   5.700   3.536
 5927SOL     OW18030   3.723   2.811   1.121
 5927SOL    HW118031   3.796   2.765   1.079
 5927SOL    HW218032   3.652   2.746   1.124
 5928SOL     OW18033   8.131  13.693   5.787
 5928SOL    HW118034   8.089  13.684   5.701
 5928SOL    HW218035   8.203  13.754   5.772
 5929SOL     OW18036   8.134   3.666   2.130
 5929SOL    HW118037   8.185   3.589   2.105
 5929SOL    HW218038   8.046   3.650   2.095
 5930SOL     OW18039  10.446   6.562   4.156
 5930SOL    HW118040  10.487   6.511   4.087
 5930SOL    HW218041  10.355   6.574   4.127
 5931SOL     OW18042   8.547   5.004   6.337
 5931SOL    HW118043   8.597   5.073   6.294
 5931SOL    HW218044   8.556   5.021   6.430
 5932SOL     OW18045  11.823   4.474   4.363
 5932SOL    HW118046  11.754   4.488   4.298
 5932SOL    HW218047  11.881   4.549   4.354
 5933SOL     OW18048   6.501   5.529   1.198
 5933SOL    HW118049   6.583   5.575   1.214
 5933SOL    HW218050   6.512   5.443   1.240
 5934SOL     OW18051   6.374   4.826   4.085
 5934SOL    HW118052   6.288   4.786   4.069
 5934SOL    HW218053   6.432   4.752   4.104
 5935SOL     OW18054  12.436  12.765   3.274
 5935SOL    HW118055  12.450  12.854   3.240
 5935SOL    HW218056  12.341  12.757   3.280
 5936SOL     OW18057  11.501   2.515   3.007
 5936SOL    HW118058  11.467   2.581   3.067
 5936SOL    HW218059  11.550   2.454   3.063
 5937SOL     OW18060   9.248  12.858   4.867
 5937SOL    HW118061   9.328  12.808   4.851
 5937SOL    HW218062   9.267  12.909   4.946
 5938SOL     OW18063  11.176  10.027   3.989
 5938SOL    HW118064  11.152  10.108   4.035
 5938SOL    HW218065  11.270  10.036   3.972
 5939SOL     OW18066   9.759   6.795   6.065
 5939SOL    HW118067   9.816   6.870   6.087
 5939SOL    HW218068   9.814   6.739   6.011
 5940SOL     OW18069  11.666  12.700   4.784
 5940SOL    HW118070  11.756  12.704   4.815
 5940SOL    HW218071  11.665  12.757   4.707
 5941SOL     OW18072  11.839   6.051   7.353
 5941SOL    HW118073  11.916   6.079   7.304
 5941SOL    HW218074  11.779   6.018   7.286
 5942SOL     OW18075  14.380   7.062   5.492
 5942SOL    HW118076  14.292   7.098   5.486
 5942SOL    HW218077  14.437   7.139   5.491
 5943SOL     OW18078   4.359   8.215   5.268
 5943SOL    HW118079   4.291   8.265   5.312
 5943SOL    HW218080   4.337   8.221   5.175
 5944SOL     OW18081   5.976  10.760   5.114
 5944SOL    HW118082   5.911  10.804   5.169
 5944SOL    HW218083   5.934  10.753   5.028
 5945SOL     OW18084  15.108  14.159   6.973
 5945SOL    HW118085  15.197  14.166   7.009
 5945SOL    HW218086  15.067  14.242   6.997
 5946SOL     OW18087  13.720  12.437   4.204
 5946SOL    HW118088  13.679  12.489   4.273
 5946SOL    HW218089  13.752  12.358   4.249
 5947SOL     OW18090  13.240   7.268   3.556
 5947SOL    HW118091  13.152   7.234   3.543
 5947SOL    HW218092  13.228   7.363   3.561
 5948SOL     OW18093   1.357  10.562   0.820
 5948SOL    HW118094   1.329  10.477   0.854
 5948SOL    HW218095   1.411  10.599   0.890
 5949SOL     OW18096  11.284   7.565   6.153
 5949SOL    HW118097  11.364   7.600   6.114
 5949SOL    HW218098  11.247   7.508   6.085
 5950SOL     OW18099   4.453   8.340   4.975
 5950SOL    HW118100   4.397   8.265   4.952
 5950SOL    HW218101   4.462   8.334   5.070
 5951SOL     OW18102  10.557   9.769   4.073
 5951SOL    HW118103  10.568   9.751   3.980
 5951SOL    HW218104  10.463   9.785   4.083
 5952SOL     OW18105  10.425   2.188   3.040
 5952SOL    HW118106  10.335   2.203   3.011
 5952SOL    HW218107  10.438   2.250   3.111
 5953SOL     OW18108  10.586   3.630   3.220
 5953SOL    HW118109  10.679   3.614   3.201
 5953SOL    HW218110  10.561   3.700   3.160
 5954SOL     OW18111  11.109   7.208   4.771
 5954SOL    HW118112  11.186   7.158   4.799
 5954SOL    HW218113  11.145   7.278   4.715
 5955SOL     OW18114  14.065  10.083   6.842
 5955SOL    HW118115  13.984  10.133   6.843
 5955SOL    HW218116  14.037   9.991   6.840
 5956SOL     OW18117   6.216   3.017   3.858
 5956SOL    HW118118   6.196   2.974   3.941
 5956SOL    HW218119   6.247   2.947   3.801
 5957SOL     OW18120   8.118   7.201   2.652
 5957SOL    HW118121   8.109   7.195   2.747
 5957SOL    HW218122   8.057   7.136   2.618
 5958SOL     OW18123   9.019   6.021   1.654
 5958SOL    HW118124   9.113   6.018   1.637
 5958SOL    HW218125   8.996   5.931   1.674
 5959SOL     OW18126   6.398  12.107   3.074
 5959SOL    HW118127   6.308  12.131   3.098
 5959SOL    HW218128   6.428  12.179   3.020
 5960SOL     OW18129   8.826   8.640   7.369
 5960SOL    HW118130   8.838   8.711   7.433
 5960SOL    HW218131   8.810   8.562   7.423
 5961SOL     OW18132   4.938   3.351   1.710
 5961SOL    HW118133   4.974   3.263   1.721
 5961SOL    HW218134   5.015   3.408   1.710
 5962SOL     OW18135   8.095   9.486   4.516
 5962SOL    HW118136   8.109   9.580   4.527
 5962SOL    HW218137   8.132   9.447   4.596
 5963SOL     OW18138   6.779   3.085   4.065
 5963SOL    HW118139   6.814   3.078   4.154
 5963SOL    HW218140   6.686   3.064   4.075
 5964SOL     OW18141   7.766   2.506   3.305
 5964SOL    HW118142   7.796   2.561   3.233
 5964SOL    HW218143   7.789   2.417   3.279
 5965SOL     OW18144   8.093  13.187   6.544
 5965SOL    HW118145   8.018  13.240   6.571
 5965SOL    HW218146   8.107  13.211   6.452
 5966SOL     OW18147   6.470  10.859   4.444
 5966SOL    HW118148   6.507  10.862   4.532
 5966SOL    HW218149   6.387  10.813   4.454
 5967SOL     OW18150   8.952   8.582   2.499
 5967SOL    HW118151   8.965   8.517   2.568
 5967SOL    HW218152   8.861   8.610   2.509
 5968SOL     OW18153   6.612   4.028   3.049
 5968SOL    HW118154   6.677   3.967   3.014
 5968SOL    HW218155   6.663   4.090   3.101
 5969SOL     OW18156   6.536   7.716   1.873
 5969SOL    HW118157   6.599   7.781   1.842
 5969SOL    HW218158   6.481   7.698   1.796
 5970SOL     OW18159  12.793   5.053   5.755
 5970SOL    HW118160  12.866   5.088   5.704
 5970SOL    HW218161  12.747   5.131   5.787
 5971SOL     OW18162   6.420  12.278   6.633
 5971SOL    HW118163   6.400  12.274   6.539
 5971SOL    HW218164   6.341  12.315   6.673
 5972SOL     OW18165  11.058  11.078   6.361
 5972SOL    HW118166  11.060  11.043   6.272
 5972SOL    HW218167  11.039  11.002   6.416
 5973SOL     OW18168   4.482   1.253   1.147
 5973SOL    HW118169   4.454   1.286   1.061
 5973SOL    HW218170   4.534   1.175   1.127
 5974SOL     OW18171   7.634   8.672   7.486
 5974SOL    HW118172   7.651   8.578   7.498
 5974SOL    HW218173   7.540   8.678   7.469
 5975SOL     OW18174   7.631  10.105   6.521
 5975SOL    HW118175   7.560  10.139   6.466
 5975SOL    HW218176   7.695  10.071   6.458
 5976SOL     OW18177   1.071  10.324   1.092
 5976SOL    HW118178   1.028  10.238   1.089
 5976SOL    HW218179   1.108  10.330   1.180
 5977SOL     OW18180   7.968   7.010   5.176
 5977SOL    HW118181   8.061   7.016   5.155
 5977SOL    HW218182   7.924   7.010   5.092
 5978SOL     OW18183   9.060   9.671   3.967
 5978SOL    HW118184   9.018   9.593   3.932
 5978SOL    HW218185   9.045   9.667   4.061
 5979SOL     OW18186   5.373   1.144   1.166
 5979SOL    HW118187   5.420   1.223   1.140
 5979SOL    HW218188   5.282   1.171   1.170
 5980SOL     OW18189   6.893   9.797   6.068
 5980SOL    HW118190   6.929   9.711   6.047
 5980SOL    HW218191   6.961   9.841   6.119
 5981SOL     OW18192   5.492  13.459   5.943
 5981SOL    HW118193   5.465  13.475   6.033
 5981SOL    HW218194   5.483  13.364   5.932
 5982SOL     OW18195   9.036  11.924   3.188
 5982SOL    HW118196   9.054  11.835   3.159
 5982SOL    HW218197   9.110  11.948   3.243
 5983SOL     OW18198   9.467  14.030   7.207
 5983SOL    HW118199   9.511  13.946   7.192
 5983SOL    HW218200   9.414  14.043   7.129
 5984SOL     OW18201   7.817  10.544   1.695
 5984SOL    HW118202   7.777  10.625   1.664
 5984SOL    HW218203   7.909  10.551   1.669
 5985SOL     OW18204   9.126   7.076   1.409
 5985SOL    HW118205   9.053   7.099   1.352
 5985SOL    HW218206   9.095   7.096   1.498
 5986SOL     OW18207  12.646   8.420   6.895
 5986SOL    HW118208  12.602   8.405   6.978
 5986SOL    HW218209  12.581   8.466   6.842
 5987SOL     OW18210  10.799  11.099   2.124
 5987SOL    HW118211  10.822  11.134   2.210
 5987SOL    HW218212  10.781  11.006   2.140
 5988SOL     OW18213   4.193   8.560   5.439
 5988SOL    HW118214   4.263   8.616   5.471
 5988SOL    HW218215   4.176   8.499   5.512
 5989SOL     OW18216   6.605  10.595   2.656
 5989SOL    HW118217   6.557  10.674   2.630
 5989SOL    HW218218   6.649  10.567   2.575
 5990SOL     OW18219   9.787  11.094   3.661
 5990SOL    HW118220   9.782  11.037   3.738
 5990SOL    HW218221   9.843  11.046   3.599
 5991SOL     OW18222  11.499  10.994   5.377
 5991SOL    HW118223  11.463  10.908   5.356
 5991SOL    HW218224  11.583  10.997   5.330
 5992SOL     OW18225   8.118   8.090   5.698
 5992SOL    HW118226   8.202   8.044   5.700
 5992SOL    HW218227   8.075   8.065   5.780
 5993SOL     OW18228   8.635   9.055   1.976
 5993SOL    HW118229   8.556   9.110   1.975
 5993SOL    HW218230   8.663   9.056   2.068
 5994SOL     OW18231  12.368   7.717   3.617
 5994SOL    HW118232  12.345   7.633   3.659
 5994SOL    HW218233  12.389   7.694   3.527
 5995SOL     OW18234  13.951   4.850   6.016
 5995SOL    HW118235  13.927   4.801   5.937
 5995SOL    HW218236  13.990   4.784   6.074
 5996SOL     OW18237   5.511   5.614   2.087
 5996SOL    HW118238   5.589   5.599   2.142
 5996SOL    HW218239   5.532   5.694   2.039
 5997SOL     OW18240  11.201  12.037   3.701
 5997SOL    HW118241  11.236  12.080   3.623
 5997SOL    HW218242  11.226  11.945   3.691
 5998SOL     OW18243   4.390  10.996   3.611
 5998SOL    HW118244   4.465  11.055   3.617
 5998SOL    HW218245   4.402  10.935   3.684
 5999SOL     OW18246   8.292   2.928   2.258
 5999SOL    HW118247   8.256   2.843   2.280
 5999SOL    HW218248   8.376   2.908   2.217
 6000SOL     OW18249   5.784   4.027   0.048
 6000SOL    HW118250   5.859   4.065   0.094
 6000SOL    HW218251   5.720   4.012   0.117
 6001SOL     OW18252  10.229   7.074   2.670
 6001SOL    HW118253  10.291   7.125   2.723
 6001SOL    HW218254  10.283   7.036   2.601
 6002SOL     OW18255  10.361   2.949   2.809
 6002SOL    HW118256  10.424   2.886   2.774
 6002SOL    HW218257  10.341   2.916   2.897
 6003SOL     OW18258   2.552   5.860   3.132
 6003SOL    HW118259   2.542   5.839   3.225
 6003SOL    HW218260   2.495   5.936   3.119
 6004SOL     OW18261  14.641   6.999   5.671
 6004SOL    HW118262  14.606   7.050   5.598
 6004SOL    HW218263  14.736   7.014   5.668
 6005SOL     OW18264   4.665  13.307   5.888
 6005SOL    HW118265   4.584  13.318   5.939
 6005SOL    HW218266   4.644  13.238   5.826
 6006SOL     OW18267   8.547  10.769   0.761
 6006SOL    HW118268   8.621  10.778   0.701
 6006SOL    HW218269   8.502  10.853   0.757
 6007SOL     OW18270   9.206   5.163   2.326
 6007SOL    HW118271   9.123   5.126   2.353
 6007SOL    HW218272   9.216   5.136   2.235
 6008SOL     OW18273  10.464   4.647   5.621
 6008SOL    HW118274  10.469   4.718   5.685
 6008SOL    HW218275  10.551   4.607   5.623
 6009SOL     OW18276   7.246   4.845   0.067
 6009SOL    HW118277   7.302   4.777   0.030
 6009SOL    HW218278   7.262   4.921   0.011
 6010SOL     OW18279   7.971  11.712   6.991
 6010SOL    HW118280   7.917  11.633   6.990
 6010SOL    HW218281   8.013  11.712   7.077
 6011SOL     OW18282   0.612   8.441   0.722
 6011SOL    HW118283   0.601   8.356   0.765
 6011SOL    HW218284   0.574   8.430   0.635
 6012SOL     OW18285   6.477   6.320   4.999
 6012SOL    HW118286   6.532   6.258   4.951
 6012SOL    HW218287   6.452   6.273   5.078
 6013SOL     OW18288   4.519  11.169   2.921
 6013SOL    HW118289   4.451  11.103   2.908
 6013SOL    HW218290   4.479  11.233   2.980
 6014SOL     OW18291   8.198  11.076   3.574
 6014SOL    HW118292   8.162  10.989   3.588
 6014SOL    HW218293   8.277  11.079   3.627
 6015SOL     OW18294   4.448   9.142   3.898
 6015SOL    HW118295   4.417   9.109   3.813
 6015SOL    HW218296   4.447   9.237   3.888
 6016SOL     OW18297   3.099  12.350   2.247
 6016SOL    HW118298   3.112  12.329   2.340
 6016SOL    HW218299   3.005  12.341   2.233
 6017SOL     OW18300  11.384   4.284   6.002
 6017SOL    HW118301  11.327  15.027   6.072
 6017SOL    HW218302  11.419  14.979   5.962
 6018SOL     OW18303  10.255   3.156   1.801
 6018SOL    HW118304  10.282   3.094   1.868
 6018SOL    HW218305  10.336   3.200   1.774
 6019SOL     OW18306   2.485   0.704   0.861
 6019SOL    HW118307   2.568   0.750   0.862
 6019SOL    HW218308   2.473   0.672   0.950
 6020SOL     OW18309   7.583   1.601   0.838
 6020SOL    HW118310   7.565   1.642   0.923
 6020SOL    HW218311   7.665   1.553   0.851
 6021SOL     OW18312  11.088   5.023   5.495
 6021SOL    HW118313  11.059   5.038   5.585
 6021SOL    HW218314  11.029   5.077   5.442
 6022SOL     OW18315   4.055   7.646   1.790
 6022SOL    HW118316   4.111   7.682   1.721
 6022SOL    HW218317   4.109   7.651   1.869
 6023SOL     OW18318  12.460   7.755   4.278
 6023SOL    HW118319  12.379   7.802   4.301
 6023SOL    HW218320  12.523   7.824   4.260
 6024SOL     OW18321  11.370   9.246   2.316
 6024SOL    HW118322  11.296   9.244   2.254
 6024SOL    HW218323  11.401   9.336   2.312
 6025SOL     OW18324   5.499  13.490   3.964
 6025SOL    HW118325   5.544  13.491   4.048
 6025SOL    HW218326   5.570  13.493   3.899
 6026SOL     OW18327  15.023   6.482   7.289
 6026SOL    HW118328  14.930   6.484   7.310
 6026SOL    HW218329  15.033   6.546   7.218
 6027SOL     OW18330  10.641  12.241   6.616
 6027SOL    HW118331  10.676  12.326   6.591
 6027SOL    HW218332  10.675  12.226   6.704
 6028SOL     OW18333   6.022   6.827   4.172
 6028SOL    HW118334   5.937   6.858   4.142
 6028SOL    HW218335   6.002   6.775   4.250
 6029SOL     OW18336  11.942  12.510   5.116
 6029SOL    HW118337  12.029  12.539   5.144
 6029SOL    HW218338  11.883  12.580   5.145
 6030SOL     OW18339   8.779  12.156   2.336
 6030SOL    HW118340   8.802  12.161   2.429
 6030SOL    HW218341   8.781  12.062   2.317
 6031SOL     OW18342  13.429  11.333   6.808
 6031SOL    HW118343  13.409  11.306   6.719
 6031SOL    HW218344  13.463  11.422   6.799
 6032SOL     OW18345   7.396  14.888   7.067
 6032SOL    HW118346   7.346  14.819   7.110
 6032SOL    HW218347   7.436  14.936   7.140
 6033SOL     OW18348   4.715   2.872   0.206
 6033SOL    HW118349   4.664   2.878   0.125
 6033SOL    HW218350   4.651   2.851   0.273
 6034SOL     OW18351   5.138   2.600   0.165
 6034SOL    HW118352   5.221   2.608   0.117
 6034SOL    HW218353   5.081   2.665   0.124
 6035SOL     OW18354   7.847   6.410   7.546
 6035SOL    HW118355   7.909   6.457   7.491
 6035SOL    HW218356   7.776   6.472   7.563
 6036SOL     OW18357   0.965   2.777   0.205
 6036SOL    HW118358   0.973   2.695   0.254
 6036SOL    HW218359   0.871   2.783   0.186
 6037SOL     OW18360  10.537   6.948   5.581
 6037SOL    HW118361  10.535   6.884   5.653
 6037SOL    HW218362  10.518   6.896   5.503
 6038SOL     OW18363   9.420   7.862   1.228
 6038SOL    HW118364   9.424   7.940   1.173
 6038SOL    HW218365   9.374   7.890   1.307
 6039SOL     OW18366  10.601   7.186   2.050
 6039SOL    HW118367  10.640   7.185   1.963
 6039SOL    HW218368  10.640   7.111   2.095
 6040SOL     OW18369   5.929   8.908   6.345
 6040SOL    HW118370   6.018   8.942   6.336
 6040SOL    HW218371   5.939   8.829   6.398
 6041SOL     OW18372   9.802   8.480   1.396
 6041SOL    HW118373   9.714   8.451   1.371
 6041SOL    HW218374   9.857   8.457   1.321
 6042SOL     OW18375  12.272   7.994   2.286
 6042SOL    HW118376  12.188   7.990   2.332
 6042SOL    HW218377  12.294   8.087   2.286
 6043SOL     OW18378  13.459   6.125   5.743
 6043SOL    HW118379  13.450   6.208   5.789
 6043SOL    HW218380  13.524   6.142   5.675
 6044SOL     OW18381   4.732   4.823   1.485
 6044SOL    HW118382   4.802   4.798   1.425
 6044SOL    HW218383   4.670   4.750   1.482
 6045SOL     OW18384   8.071   6.686   2.224
 6045SOL    HW118385   8.029   6.756   2.174
 6045SOL    HW218386   7.999   6.628   2.247
 6046SOL     OW18387   6.135  13.539   5.275
 6046SOL    HW118388   6.109  13.447   5.275
 6046SOL    HW218389   6.227  13.538   5.303
 6047SOL     OW18390   5.067   6.185   4.928
 6047SOL    HW118391   4.982   6.170   4.969
 6047SOL    HW218392   5.069   6.125   4.854
 6048SOL     OW18393  11.234   2.501   1.535
 6048SOL    HW118394  11.288   2.522   1.459
 6048SOL    HW218395  11.247   2.574   1.595
 6049SOL     OW18396   8.877   6.099   4.677
 6049SOL    HW118397   8.835   6.020   4.710
 6049SOL    HW218398   8.970   6.087   4.696
 6050SOL     OW18399   4.842  12.938   6.822
 6050SOL    HW118400   4.919  12.882   6.817
 6050SOL    HW218401  15.552  12.885   6.869
 6051SOL     OW18402   6.697   4.117   2.682
 6051SOL    HW118403   6.624   4.173   2.655
 6051SOL    HW218404   6.663   4.070   2.759
 6052SOL     OW18405  15.318   9.057   6.622
 6052SOL    HW118406  15.224   9.043   6.614
 6052SOL    HW218407  15.334   9.056   6.716
 6053SOL     OW18408  15.429  13.752   7.262
 6053SOL    HW118409  15.403  13.735   7.172
 6053SOL    HW218410  15.442  13.664   7.300
 6054SOL     OW18411  11.064   7.048   6.360
 6054SOL    HW118412  11.158   7.069   6.358
 6054SOL    HW218413  11.031   7.093   6.438
 6055SOL     OW18414  14.658  15.090   6.431
 6055SOL    HW118415  14.742  15.136   6.434
 6055SOL    HW218416  14.598  15.146   6.480
 6056SOL     OW18417   1.595   9.259   1.412
 6056SOL    HW118418   1.539   9.188   1.379
 6056SOL    HW218419   1.583   9.330   1.349
 6057SOL     OW18420   3.748   3.810   4.657
 6057SOL    HW118421   3.734   3.861   4.578
 6057SOL    HW218422   3.715   3.723   4.637
 6058SOL     OW18423   6.933   9.696   0.711
 6058SOL    HW118424   6.947   9.606   0.683
 6058SOL    HW218425   6.999   9.711   0.779
 6059SOL     OW18426   8.648   4.296   3.490
 6059SOL    HW118427   8.621   4.298   3.581
 6059SOL    HW218428   8.590   4.231   3.450
 6060SOL     OW18429  10.484   5.156   1.825
 6060SOL    HW118430  10.408   5.122   1.873
 6060SOL    HW218431  10.559   5.119   1.871
 6061SOL     OW18432   1.673  10.430   0.282
 6061SOL    HW118433   1.715  10.429   0.368
 6061SOL    HW218434   1.609  10.501   0.287
 6062SOL     OW18435   7.559  12.813   6.311
 6062SOL    HW118436   7.515  12.883   6.359
 6062SOL    HW218437   7.498  12.792   6.240
 6063SOL     OW18438   8.504   9.163   1.617
 6063SOL    HW118439   8.484   9.121   1.534
 6063SOL    HW218440   8.419   9.190   1.652
 6064SOL     OW18441   9.583   5.919   6.733
 6064SOL    HW118442   9.664   5.875   6.707
 6064SOL    HW218443   9.603   5.958   6.818
 6065SOL     OW18444   2.627   8.415   3.551
 6065SOL    HW118445   2.718   8.398   3.527
 6065SOL    HW218446   2.581   8.428   3.468
 6066SOL     OW18447   6.171  12.478   4.940
 6066SOL    HW118448   6.119  12.520   4.871
 6066SOL    HW218449   6.126  12.499   5.021
 6067SOL     OW18450   9.296   8.185   2.907
 6067SOL    HW118451   9.265   8.116   2.848
 6067SOL    HW218452   9.318   8.258   2.849
 6068SOL     OW18453  10.994   6.495   5.243
 6068SOL    HW118454  11.072   6.441   5.252
 6068SOL    HW218455  11.026   6.585   5.254
 6069SOL     OW18456   7.931   6.900   2.098
 6069SOL    HW118457   7.926   6.932   2.008
 6069SOL    HW218458   8.008   6.943   2.136
 6070SOL     OW18459  12.308   5.556   4.184
 6070SOL    HW118460  12.363   5.575   4.108
 6070SOL    HW218461  12.225   5.598   4.165
 6071SOL     OW18462   5.725   4.175   3.261
 6071SOL    HW118463   5.755   4.107   3.321
 6071SOL    HW218464   5.644   4.141   3.224
 6072SOL     OW18465   8.159   9.600   1.949
 6072SOL    HW118466   8.090   9.649   1.903
 6072SOL    HW218467   8.223   9.580   1.881
 6073SOL     OW18468   2.412   8.018   1.152
 6073SOL    HW118469   2.430   7.925   1.137
 6073SOL    HW218470   2.327   8.019   1.196
 6074SOL     OW18471  11.544   7.547   2.244
 6074SOL    HW118472  11.506   7.612   2.185
 6074SOL    HW218473  11.472   7.486   2.263
 6075SOL     OW18474   9.023   8.484   3.120
 6075SOL    HW118475   8.991   8.556   3.174
 6075SOL    HW218476   9.110   8.512   3.091
 6076SOL     OW18477   2.154  11.894   1.601
 6076SOL    HW118478   2.088   1.182   1.633
 6076SOL    HW218479   2.231  11.911   1.654
 6077SOL     OW18480   6.645   8.146   4.123
 6077SOL    HW118481   6.596   8.204   4.182
 6077SOL    HW218482   6.614   8.058   4.146
 6078SOL     OW18483  12.281  14.739   5.678
 6078SOL    HW118484  12.351  14.701   5.731
 6078SOL    HW218485  12.315   4.049   5.649
 6079SOL     OW18486   7.646   5.384   2.770
 6079SOL    HW118487   7.634   5.454   2.834
 6079SOL    HW218488   7.713   5.418   2.710
 6080SOL     OW18489   8.850   1.869   2.576
 6080SOL    HW118490   8.793   1.946   2.580
 6080SOL    HW218491   8.796   1.800   2.539
 6081SOL     OW18492   2.938   1.468   0.910
 6081SOL    HW118493   2.944   1.506   0.823
 6081SOL    HW218494   2.960   1.540   0.969
 6082SOL     OW18495  14.149   8.808   7.071
 6082SOL    HW118496  14.112   8.740   7.127
 6082SOL    HW218497  14.174   8.878   7.131
 6083SOL     OW18498   8.383   8.442   7.524
 6083SOL    HW118499   8.428   8.490   7.455
 6083SOL    HW218500   8.378   8.504   7.597
 6084SOL     OW18501   7.966  12.788   3.489
 6084SOL    HW118502   8.049  12.806   3.445
 6084SOL    HW218503   7.910  12.751   3.420
 6085SOL     OW18504  11.384   2.524   0.953
 6085SOL    HW118505  11.338   2.440   0.962
 6085SOL    HW218506  11.465   2.513   1.002
 6086SOL     OW18507   1.917   6.813   0.508
 6086SOL    HW118508   1.939   6.870   0.434
 6086SOL    HW218509   1.843   6.761   0.476
 6087SOL     OW18510   2.146   6.895   2.462
 6087SOL    HW118511   2.207   6.821   2.458
 6087SOL    HW218512   2.202   6.972   2.472
 6088SOL     OW18513  11.095   5.009   1.317
 6088SOL    HW118514  11.170   5.040   1.367
 6088SOL    HW218515  11.127   5.000   1.228
 6089SOL     OW18516   8.592  11.982   2.722
 6089SOL    HW118517   8.574  11.901   2.769
 6089SOL    HW218518   8.506  12.025   2.714
 6090SOL     OW18519   3.917   4.979   5.478
 6090SOL    HW118520   3.956   5.050   5.529
 6090SOL    HW218521   3.872   5.024   5.406
 6091SOL     OW18522   8.329   9.134   3.708
 6091SOL    HW118523   8.329   9.149   3.613
 6091SOL    HW218524   8.261   9.069   3.723
 6092SOL     OW18525   6.510   6.123   5.828
 6092SOL    HW118526   6.454   6.075   5.890
 6092SOL    HW218527   6.557   6.186   5.882
 6093SOL     OW18528   2.917   6.045   1.547
 6093SOL    HW118529   2.969   6.115   1.586
 6093SOL    HW218530   2.920   6.063   1.453
 6094SOL     OW18531   4.794   7.978   2.890
 6094SOL    HW118532   4.724   8.013   2.834
 6094SOL    HW218533   4.756   7.900   2.930
 6095SOL     OW18534  14.126  12.474   6.626
 6095SOL    HW118535  14.095  12.390   6.593
 6095SOL    HW218536  14.046  12.524   6.645
 6096SOL     OW18537  10.324   4.168   0.104
 6096SOL    HW118538  10.366   4.240   0.057
 6096SOL    HW218539  10.386   4.146   0.174
 6097SOL     OW18540   3.121   0.579   0.144
 6097SOL    HW118541   3.094   0.535   0.063
 6097SOL    HW218542   3.212   0.602   0.129
 6098SOL     OW18543   8.858   5.242   5.186
 6098SOL    HW118544   8.845   5.247   5.092
 6098SOL    HW218545   8.857   5.334   5.215
 6099SOL     OW18546  13.062   8.593   4.851
 6099SOL    HW118547  13.087   8.534   4.922
 6099SOL    HW218548  13.083   8.545   4.771
 6100SOL     OW18549  11.841  11.723   4.394
 6100SOL    HW118550  11.921  11.738   4.444
 6100SOL    HW218551  11.786  11.669   4.451
 6101SOL     OW18552   7.113   4.897   5.284
 6101SOL    HW118553   7.078   4.975   5.325
 6101SOL    HW218554   7.206   4.915   5.272
 6102SOL     OW18555  10.740   7.985   4.624
 6102SOL    HW118556  10.665   7.964   4.681
 6102SOL    HW218557  10.754   8.079   4.638
 6103SOL     OW18558  11.627   5.910   7.262
 6103SOL    HW118559  11.542   5.870   7.246
 6103SOL    HW218560  11.631   5.922   7.357
 6104SOL     OW18561  10.372  11.545   4.570
 6104SOL    HW118562  10.402  11.601   4.642
 6104SOL    HW218563  10.447  11.488   4.553
 6105SOL     OW18564   5.066   6.052   1.045
 6105SOL    HW118565   5.060   6.146   1.062
 6105SOL    HW218566   5.160   6.036   1.035
 6106SOL     OW18567   2.081  10.584   1.542
 6106SOL    HW118568   2.078  10.594   1.637
 6106SOL    HW218569   2.151  10.642   1.514
 6107SOL     OW18570   4.047   9.054   4.523
 6107SOL    HW118571   4.031   9.147   4.535
 6107SOL    HW218572   4.132   9.049   4.480
 6108SOL     OW18573   4.400   5.542   2.242
 6108SOL    HW118574   4.349   5.623   2.248
 6108SOL    HW218575   4.470   5.553   2.306
 6109SOL     OW18576  12.078   5.514   6.964
 6109SOL    HW118577  12.145   5.481   7.024
 6109SOL    HW218578  12.117   5.502   6.877
 6110SOL     OW18579  13.601   9.916   4.366
 6110SOL    HW118580  13.591   9.893   4.458
 6110SOL    HW218581  13.665   9.988   4.365
 6111SOL     OW18582  12.330   5.782   2.359
 6111SOL    HW118583   1.641   5.783   2.316
 6111SOL    HW218584  12.309   5.875   2.370
 6112SOL     OW18585   1.437  10.783   1.593
 6112SOL    HW118586   1.421  10.763   1.501
 6112SOL    HW218587   1.516  10.837   1.593
 6113SOL     OW18588   2.501   7.708   2.264
 6113SOL    HW118589   2.435   7.723   2.331
 6113SOL    HW218590   2.585   7.713   2.310
 6114SOL     OW18591   6.962   6.026   7.217
 6114SOL    HW118592   7.008   6.076   7.149
 6114SOL    HW218593   6.978   6.075   7.297
 6115SOL     OW18594   9.655   8.408   3.442
 6115SOL    HW118595   9.676   8.378   3.531
 6115SOL    HW218596   9.650   8.503   3.451
 6116SOL     OW18597   6.292   7.735   5.208
 6116SOL    HW118598   6.316   7.783   5.287
 6116SOL    HW218599   6.319   7.645   5.225
 6117SOL     OW18600   5.997   9.177   0.118
 6117SOL    HW118601   5.903   9.191   0.105
 6117SOL    HW218602   6.039   9.241   0.061
 6118SOL     OW18603   7.055  10.739   4.137
 6118SOL    HW118604   6.964  10.724   4.110
 6118SOL    HW218605   7.049  10.761   4.230
 6119SOL     OW18606   8.820   2.147   2.924
 6119SOL    HW118607   8.768   2.226   2.938
 6119SOL    HW218608   8.908   2.179   2.905
 6120SOL     OW18609   5.207  10.639   1.355
 6120SOL    HW118610   5.228  10.598   1.439
 6120SOL    HW218611   5.251  10.584   1.290
 6121SOL     OW18612  14.499  12.864   5.496
 6121SOL    HW118613  14.490  12.783   5.546
 6121SOL    HW218614  14.411  12.884   5.465
 6122SOL     OW18615   9.944   6.016   7.152
 6122SOL    HW118616   9.916   5.970   7.072
 6122SOL    HW218617  10.038   6.028   7.140
 6123SOL     OW18618   4.287   3.204   1.319
 6123SOL    HW118619   4.359   3.265   1.304
 6123SOL    HW218620   4.330   3.119   1.329
 6124SOL     OW18621   9.175   8.462   3.545
 6124SOL    HW118622   9.222   8.402   3.487
 6124SOL    HW218623   9.236   8.478   3.617
 6125SOL     OW18624   1.717  12.019   2.108
 6125SOL    HW118625   1.793  12.053   2.155
 6125SOL    HW218626   1.697  12.086   2.042
 6126SOL     OW18627  12.471   5.869   6.697
 6126SOL    HW118628  12.383   5.832   6.689
 6126SOL    HW218629  12.484   5.919   6.617
 6127SOL     OW18630   6.067  12.709   3.164
 6127SOL    HW118631   5.983  12.712   3.118
 6127SOL    HW218632   6.127  12.756   3.106
 6128SOL     OW18633   5.238  11.070   0.927
 6128SOL    HW118634   5.259  11.157   0.963
 6128SOL    HW218635   5.143  11.064   0.935
 6129SOL     OW18636   2.176   4.986   1.049
 6129SOL    HW118637   2.124   4.907   1.060
 6129SOL    HW218638   2.209   5.006   1.137
 6130SOL     OW18639  10.197  13.324   3.913
 6130SOL    HW118640  10.253  13.274   3.973
 6130SOL    HW218641  10.165  13.397   3.965
 6131SOL     OW18642   9.876  13.280   4.550
 6131SOL    HW118643   9.809  13.241   4.494
 6131SOL    HW218644   9.959  13.252   4.513
 6132SOL     OW18645   7.294  11.016   5.341
 6132SOL    HW118646   7.322  11.103   5.312
 6132SOL    HW218647   7.206  11.006   5.304
 6133SOL     OW18648   6.042  12.902   7.229
 6133SOL    HW118649   6.116  12.899   7.168
 6133SOL    HW218650   5.990  12.825   7.208
 6134SOL     OW18651   9.181  13.029   6.711
 6134SOL    HW118652   9.197  13.051   6.803
 6134SOL    HW218653   9.173  13.113   6.667
 6135SOL     OW18654  12.536   7.845   5.796
 6135SOL    HW118655  12.442   7.823   5.800
 6135SOL    HW218656  12.580   7.767   5.828
 6136SOL     OW18657   3.545  10.319   3.139
 6136SOL    HW118658   3.572  10.327   3.230
 6136SOL    HW218659   3.604  10.252   3.103
 6137SOL     OW18660   4.494   4.483   5.681
 6137SOL    HW118661   4.407   4.450   5.705
 6137SOL    HW218662   4.477   4.544   5.610
 6138SOL     OW18663   7.054   7.765   3.149
 6138SOL    HW118664   7.144   7.791   3.167
 6138SOL    HW218665   7.024   7.723   3.230
 6139SOL     OW18666  12.429   6.188   6.237
 6139SOL    HW118667  12.469   6.181   6.150
 6139SOL    HW218668  12.343   6.147   6.227
 6140SOL     OW18669  14.153  10.104   7.216
 6140SOL    HW118670  14.223  10.170   7.218
 6140SOL    HW218671  14.108  10.120   7.133
 6141SOL     OW18672  11.987  12.707   4.678
 6141SOL    HW118673  11.995  12.710   4.583
 6141SOL    HW218674  12.061  12.655   4.707
 6142SOL     OW18675   5.895  10.247   1.169
 6142SOL    HW118676   5.911  10.183   1.099
 6142SOL    HW218677   5.920  10.331   1.130
 6143SOL     OW18678  14.046   9.651   6.089
 6143SOL    HW118679  13.971   9.651   6.149
 6143SOL    HW218680  14.062   9.744   6.071
 6144SOL     OW18681   4.377   9.213   4.347
 6144SOL    HW118682   4.382   9.158   4.425
 6144SOL    HW218683   4.463   9.205   4.306
 6145SOL     OW18684  10.253   3.696   0.430
 6145SOL    HW118685  10.181   3.724   0.487
 6145SOL    HW218686  10.220   3.710   0.341
 6146SOL     OW18687   5.591  13.994   6.613
 6146SOL    HW118688   5.624  13.904   6.607
 6146SOL    HW218689   5.656  14.040   6.665
 6147SOL     OW18690   9.719  12.399   2.825
 6147SOL    HW118691   9.656  12.465   2.795
 6147SOL    HW218692   9.685  12.371   2.910
 6148SOL     OW18693  13.633   8.888   4.634
 6148SOL    HW118694  13.703   8.931   4.682
 6148SOL    HW218695  13.668   8.877   4.545
 6149SOL     OW18696   0.960   5.172   0.690
 6149SOL    HW118697   0.906   5.099   0.720
 6149SOL    HW218698   0.915   5.204   0.612
 6150SOL     OW18699  13.112   5.811   3.908
 6150SOL    HW118700  13.107   5.833   3.815
 6150SOL    HW218701  13.196   5.846   3.936
 6151SOL     OW18702   4.776   7.023   3.919
 6151SOL    HW118703   4.854   6.970   3.907
 6151SOL    HW218704   4.707   6.974   3.874
 6152SOL     OW18705   4.905  10.231   1.200
 6152SOL    HW118706   4.978  10.206   1.143
 6152SOL    HW218707   4.891  10.155   1.256
 6153SOL     OW18708   6.343   5.118   5.342
 6153SOL    HW118709   6.301   5.187   5.394
 6153SOL    HW218710   6.339   5.150   5.252
 6154SOL     OW18711   6.716   5.859   3.800
 6154SOL    HW118712   6.744   5.821   3.716
 6154SOL    HW218713   6.684   5.784   3.850
 6155SOL     OW18714   4.288   4.252   5.062
 6155SOL    HW118715   4.262   4.220   4.975
 6155SOL    HW218716   4.259   4.343   5.063
 6156SOL     OW18717   4.585   3.133   1.816
 6156SOL    HW118718   4.555   3.212   1.770
 6156SOL    HW218719   4.632   3.166   1.893
 6157SOL     OW18720   1.191   5.810   1.665
 6157SOL    HW118721   1.183   5.882   1.602
 6157SOL    HW218722  11.989   5.853   1.747
 6158SOL     OW18723   8.358   4.911   3.040
 6158SOL    HW118724   8.421   4.842   3.018
 6158SOL    HW218725   8.289   4.866   3.088
 6159SOL     OW18726  12.390   9.510   3.010
 6159SOL    HW118727  12.380   9.415   3.015
 6159SOL    HW218728  12.410   9.537   3.099
 6160SOL     OW18729  13.957  14.913   6.947
 6160SOL    HW118730  13.950  15.008   6.953
 6160SOL    HW218731  14.045  14.897   6.913
 6161SOL     OW18732   3.545  11.919   4.267
 6161SOL    HW118733   3.468  11.863   4.267
 6161SOL    HW218734   3.511  12.007   4.283
 6162SOL     OW18735   9.081   6.789   3.614
 6162SOL    HW118736   9.022   6.727   3.656
 6162SOL    HW218737   9.070   6.870   3.664
 6163SOL     OW18738   6.105  14.244   7.471
 6163SOL    HW118739   6.094  14.338   7.484
 6163SOL    HW218740   6.036  14.204   7.525
 6164SOL     OW18741   2.873   9.805   3.844
 6164SOL    HW118742   2.823   9.791   3.924
 6164SOL    HW218743   2.934   9.876   3.866
 6165SOL     OW18744   5.431   6.224   6.705
 6165SOL    HW118745   5.487   6.267   6.769
 6165SOL    HW218746   5.443   6.130   6.722
 6166SOL     OW18747   5.438   4.487   4.915
 6166SOL    HW118748   5.357   4.481   4.967
 6166SOL    HW218749   5.472   4.397   4.914
 6167SOL     OW18750   2.808   5.179   0.874
 6167SOL    HW118751   2.713   5.188   0.873
 6167SOL    HW218752   2.840   5.258   0.831
 6168SOL     OW18753   6.422   4.652   4.551
 6168SOL    HW118754   6.349   4.619   4.499
 6168SOL    HW218755   6.406   4.619   4.639
 6169SOL     OW18756  14.691  10.266   7.533
 6169SOL    HW118757  14.649  10.180   7.535
 6169SOL    HW218758  14.760  10.261   7.599
 6170SOL     OW18759   5.592   5.932   5.539
 6170SOL    HW118760   5.512   5.891   5.572
 6170SOL    HW218761   5.571   5.953   5.448
 6171SOL     OW18762   3.938   8.961   3.146
 6171SOL    HW118763   4.026   8.933   3.123
 6171SOL    HW218764   3.940   9.057   3.138
 6172SOL     OW18765   7.955   3.491   1.886
 6172SOL    HW118766   8.038   3.461   1.848
 6172SOL    HW218767   7.906   3.410   1.905
 6173SOL     OW18768  12.074   7.981   6.492
 6173SOL    HW118769  12.080   7.909   6.555
 6173SOL    HW218770  12.120   7.950   6.415
 6174SOL     OW18771   2.197   9.267   1.011
 6174SOL    HW118772   2.245   9.300   1.088
 6174SOL    HW218773   2.260   9.272   0.939
 6175SOL     OW18774   0.804   3.072   1.000
 6175SOL    HW118775   0.858   3.137   1.045
 6175SOL    HW218776   0.866   3.017   0.953
 6176SOL     OW18777  10.684  12.884   3.236
 6176SOL    HW118778  10.779  12.892   3.239
 6176SOL    HW218779  10.666  12.796   3.269
 6177SOL     OW18780  12.677  11.372   3.761
 6177SOL    HW118781  12.664  11.318   3.839
 6177SOL    HW218782  12.592  11.414   3.747
 6178SOL     OW18783  12.991   4.593   5.427
 6178SOL    HW118784  12.969   4.509   5.467
 6178SOL    HW218785  13.084   4.604   5.445
 6179SOL     OW18786   3.513   7.466   2.635
 6179SOL    HW118787   3.458   7.542   2.615
 6179SOL    HW218788   3.561   7.449   2.555
 6180SOL     OW18789   1.899   4.883   0.670
 6180SOL    HW118790   1.926   4.799   0.707
 6180SOL    HW218791   1.972   4.942   0.688
 6181SOL     OW18792   4.826   4.991   3.348
 6181SOL    HW118793   4.791   5.057   3.408
 6181SOL    HW218794   4.908   5.029   3.316
 6182SOL     OW18795  14.101  12.820   6.456
 6182SOL    HW118796  14.025  12.835   6.513
 6182SOL    HW218797  14.071  12.848   6.369
 6183SOL     OW18798   6.778  13.367   5.299
 6183SOL    HW118799   6.725  13.297   5.338
 6183SOL    HW218800   6.804  13.332   5.214
 6184SOL     OW18801  10.489   7.846   6.173
 6184SOL    HW118802  10.433   7.902   6.119
 6184SOL    HW218803  10.429   7.783   6.213
 6185SOL     OW18804   7.881   9.393   1.583
 6185SOL    HW118805   7.897   9.314   1.531
 6185SOL    HW218806   7.891   9.465   1.520
 6186SOL     OW18807  11.422  15.861   7.238
 6186SOL    HW118808  11.437  15.916   7.315
 6186SOL    HW218809  11.476   5.126   7.170
 6187SOL     OW18810   3.904   5.810   0.973
 6187SOL    HW118811   3.963   5.885   0.973
 6187SOL    HW218812   3.864   5.811   1.060
 6188SOL     OW18813   5.929   1.574   0.639
 6188SOL    HW118814   5.939   1.481   0.661
 6188SOL    HW218815   5.908   1.574   0.546
 6189SOL     OW18816   7.524  14.254   5.649
 6189SOL    HW118817   7.596  14.214   5.698
 6189SOL    HW218818   7.467  14.181   5.627
 6190SOL     OW18819   2.909   4.417   1.460
 6190SOL    HW118820   2.968   4.440   1.388
 6190SOL    HW218821   2.829   4.467   1.441
 6191SOL     OW18822   3.353  11.600   3.038
 6191SOL    HW118823   3.434  11.554   3.020
 6191SOL    HW218824   3.289  11.530   3.055
 6192SOL     OW18825  11.696   6.376   3.867
 6192SOL    HW118826  11.761   6.444   3.852
 6192SOL    HW218827  11.620   6.404   3.818
 6193SOL     OW18828   8.050  11.304   7.465
 6193SOL    HW118829   8.108  11.380   7.466
 6193SOL    HW218830   8.104  11.233   7.430
 6194SOL     OW18831  12.470  14.221   5.109
 6194SOL    HW118832  12.382  14.232   5.074
 6194SOL    HW218833  12.525  14.208   5.032
 6195SOL     OW18834   7.586   4.628   4.741
 6195SOL    HW118835   7.532   4.664   4.670
 6195SOL    HW218836   7.524   4.607   4.810
 6196SOL     OW18837   9.378   8.160   7.447
 6196SOL    HW118838   9.387   8.064   7.449
 6196SOL    HW218839   9.286   8.175   7.424
 6197SOL     OW18840  11.404   4.679   4.690
 6197SOL    HW118841  11.486   4.669   4.739
 6197SOL    HW218842  11.398   4.773   4.674
 6198SOL     OW18843   6.596   7.910   4.571
 6198SOL    HW118844   6.670   7.851   4.586
 6198SOL    HW218845   6.583   7.954   4.655
 6199SOL     OW18846   3.451   6.313   0.982
 6199SOL    HW118847   3.528   6.312   0.925
 6199SOL    HW218848   3.378   6.292   0.923
 6200SOL     OW18849  11.193   7.326   3.716
 6200SOL    HW118850  11.128   7.324   3.646
 6200SOL    HW218851  11.168   7.255   3.775
 6201SOL     OW18852  10.585  13.889   5.919
 6201SOL    HW118853  10.609  13.963   5.863
 6201SOL    HW218854  10.579  13.927   6.007
 6202SOL     OW18855  13.570   5.446   5.978
 6202SOL    HW118856  13.665   5.442   5.992
 6202SOL    HW218857  13.541   5.356   5.983
 6203SOL     OW18858   3.192   1.250   0.212
 6203SOL    HW118859   3.214   1.338   0.182
 6203SOL    HW218860   3.164   1.204   0.133
 6204SOL     OW18861   8.409   5.717   2.060
 6204SOL    HW118862   8.401   5.812   2.058
 6204SOL    HW218863   8.494   5.698   2.022
 6205SOL     OW18864  10.284   7.976   6.976
 6205SOL    HW118865  10.348   7.936   6.917
 6205SOL    HW218866  10.209   7.917   6.973
 6206SOL     OW18867   6.540   3.322   2.825
 6206SOL    HW118868   6.503   3.275   2.750
 6206SOL    HW218869   6.567   3.252   2.885
 6207SOL     OW18870   6.467  12.255   4.739
 6207SOL    HW118871   6.434  12.271   4.651
 6207SOL    HW218872   6.444  12.163   4.756
 6208SOL     OW18873   2.880  10.027   0.720
 6208SOL    HW118874   2.954   9.995   0.771
 6208SOL    HW218875   2.849  10.104   0.768
 6209SOL     OW18876   7.098   8.768   6.019
 6209SOL    HW118877   7.125   8.757   6.111
 6209SOL    HW218878   7.180   8.770   5.970
 6210SOL     OW18879  11.218  11.880   6.762
 6210SOL    HW118880  11.306  11.887   6.725
 6210SOL    HW218881  11.221  11.930   6.843
 6211SOL     OW18882  15.081  14.475   7.037
 6211SOL    HW118883  15.173  14.502   7.034
 6211SOL    HW218884  15.062  14.465   7.130
 6212SOL     OW18885   7.267  11.081   6.479
 6212SOL    HW118886   7.191  11.127   6.513
 6212SOL    HW218887   7.266  11.099   6.385
 6213SOL     OW18888   9.118  14.645   7.476
 6213SOL    HW118889   9.207  14.614   7.461
 6213SOL    HW218890   9.096  14.696   7.398
 6214SOL     OW18891   4.317   5.003   0.449
 6214SOL    HW118892   4.262   5.063   0.399
 6214SOL    HW218893   4.405   5.015   0.411
 6215SOL     OW18894  11.623  14.511   6.844
 6215SOL    HW118895  11.570  14.446   6.797
 6215SOL    HW218896  11.654  14.463   6.922
 6216SOL     OW18897   4.017   9.644   2.800
 6216SOL    HW118898   3.987   9.567   2.849
 6216SOL    HW218899   4.063   9.697   2.865
 6217SOL     OW18900   6.957  11.974   4.840
 6217SOL    HW118901   6.878  11.931   4.806
 6217SOL    HW218902   6.992  12.021   4.765
 6218SOL     OW18903  11.762   8.564   2.650
 6218SOL    HW118904  11.673   8.600   2.649
 6218SOL    HW218905  11.805   8.609   2.722
 6219SOL     OW18906   3.207  10.994   4.249
 6219SOL    HW118907   3.192  10.989   4.155
 6219SOL    HW218908   3.219  11.088   4.267
 6220SOL     OW18909   9.956  10.455   6.608
 6220SOL    HW118910   9.943  10.490   6.696
 6220SOL    HW218911   9.876  10.407   6.589
 6221SOL     OW18912   5.633  11.952   3.806
 6221SOL    HW118913   5.713  11.955   3.858
 6221SOL    HW218914   5.642  11.874   3.752
 6222SOL     OW18915   4.180   6.928   3.647
 6222SOL    HW118916   4.258   6.912   3.595
 6222SOL    HW218917   4.134   6.844   3.650
 6223SOL     OW18918  12.884   4.883   3.560
 6223SOL    HW118919  12.832   4.885   3.640
 6223SOL    HW218920  12.973   4.864   3.590
 6224SOL     OW18921   2.054   1.548   0.383
 6224SOL    HW118922   1.961   1.563   0.365
 6224SOL    HW218923   2.064   1.453   0.383
 6225SOL     OW18924   9.899   8.207   6.667
 6225SOL    HW118925   9.956   8.131   6.659
 6225SOL    HW218926   9.828   8.178   6.725
 6226SOL     OW18927  12.388  11.137   4.022
 6226SOL    HW118928  12.445  11.068   3.986
 6226SOL    HW218929  12.445  11.213   4.031
 6227SOL     OW18930   4.384  11.132   1.268
 6227SOL    HW118931   4.299  11.096   1.294
 6227SOL    HW218932   4.440  11.055   1.255
 6228SOL     OW18933  11.590   7.636   4.412
 6228SOL    HW118934  11.577   7.710   4.472
 6228SOL    HW218935  11.643   7.574   4.461
 6229SOL     OW18936   7.062  11.959   4.384
 6229SOL    HW118937   7.081  11.940   4.476
 6229SOL    HW218938   6.966  11.966   4.381
 6230SOL     OW18939   5.282  10.655   4.052
 6230SOL    HW118940   5.320  10.569   4.068
 6230SOL    HW218941   5.354  10.708   4.019
 6231SOL     OW18942   5.689  10.847   5.534
 6231SOL    HW118943   5.753  10.918   5.526
 6231SOL    HW218944   5.706  10.809   5.620
 6232SOL     OW18945   5.597  11.480   3.998
 6232SOL    HW118946   5.679  11.522   3.971
 6232SOL    HW218947   5.621  11.388   4.008
 6233SOL     OW18948  10.440  12.920   4.598
 6233SOL    HW118949  10.478  12.847   4.647
 6233SOL    HW218950  10.417  12.985   4.664
 6234SOL     OW18951  12.422   4.702   3.739
 6234SOL    HW118952  12.343   4.705   3.794
 6234SOL    HW218953  12.394   4.740   3.655
 6235SOL     OW18954  13.222  12.471   5.796
 6235SOL    HW118955  13.195  12.560   5.816
 6235SOL    HW218956  13.270  12.479   5.714
 6236SOL     OW18957   8.948   5.109   3.721
 6236SOL    HW118958   8.882   5.167   3.761
 6236SOL    HW218959   8.939   5.026   3.768
 6237SOL     OW18960   6.020   6.082   5.050
 6237SOL    HW118961   6.066   6.160   5.019
 6237SOL    HW218962   6.003   6.031   4.971
 6238SOL     OW18963   8.103  14.424   7.018
 6238SOL    HW118964   8.074  14.404   7.107
 6238SOL    HW218965   8.090  14.519   7.010
 6239SOL     OW18966  11.776   4.879   3.034
 6239SOL    HW118967  11.725   4.821   2.977
 6239SOL    HW218968  11.856   4.897   2.985
 6240SOL     OW18969   3.817   6.380   2.525
 6240SOL    HW118970   3.863   6.360   2.606
 6240SOL    HW218971   3.834   6.473   2.509
 6241SOL     OW18972  10.250  12.146   4.961
 6241SOL    HW118973  10.268  12.140   5.055
 6241SOL    HW218974  10.278  12.234   4.936
 6242SOL     OW18975  12.096   9.032   4.021
 6242SOL    HW118976  12.079   8.938   4.011
 6242SOL    HW218977  12.030   9.074   3.966
 6243SOL     OW18978  12.170   4.872   2.211
 6243SOL    HW118979  12.222   4.936   2.261
 6243SOL    HW218980  12.216   4.864   2.128
 6244SOL     OW18981  11.640  12.340   6.827
 6244SOL    HW118982  11.616  12.404   6.894
 6244SOL    HW218983  11.578  12.355   6.756
 6245SOL     OW18984   5.580   9.672   6.484
 6245SOL    HW118985   5.552   9.684   6.574
 6245SOL    HW218986   5.503   9.637   6.439
 6246SOL     OW18987   4.851  14.496   5.537
 6246SOL    HW118988   4.945  14.499   5.518
 6246SOL    HW218989   4.841  14.421   5.596
 6247SOL     OW18990  12.319   7.587   5.000
 6247SOL    HW118991  12.301   7.558   5.090
 6247SOL    HW218992  12.263   7.664   4.988
 6248SOL     OW18993   3.474  10.101   4.072
 6248SOL    HW118994   3.379  10.089   4.079
 6248SOL    HW218995   3.510  10.037   4.134
 6249SOL     OW18996   9.553   6.118   0.103
 6249SOL    HW118997   9.528   6.186   0.165
 6249SOL    HW218998   9.626   6.072   0.145
 6250SOL     OW18999   7.852  13.178   6.303
 6250SOL    HW119000   7.929  13.234   6.298
 6250SOL    HW219001   7.876  13.099   6.255
 6251SOL     OW19002   7.865  12.983   7.293
 6251SOL    HW119003   7.800  12.983   7.364
 6251SOL    HW219004   7.866  12.892   7.263
 6252SOL     OW19005   8.388   4.368   0.092
 6252SOL    HW119006   8.391   4.456   0.054
 6252SOL    HW219007   8.407   4.381   0.185
 6253SOL     OW19008  10.536   8.854   6.385
 6253SOL    HW119009  10.607   8.869   6.322
 6253SOL    HW219010  10.467   8.812   6.333
 6254SOL     OW19011  11.731  13.286   7.509
 6254SOL    HW119012  11.694  13.361   7.557
 6254SOL    HW219013  11.730  13.215   7.572
 6255SOL     OW19014  12.225   8.306   3.963
 6255SOL    HW119015  12.238   8.211   3.953
 6255SOL    HW219016  12.142   8.324   3.918
 6256SOL     OW19017   8.988  11.754   5.930
 6256SOL    HW119018   8.919  11.701   5.969
 6256SOL    HW219019   8.958  11.844   5.943
 6257SOL     OW19020   3.458   3.536   2.330
 6257SOL    HW119021   3.457   3.493   2.416
 6257SOL    HW219022   3.411   3.618   2.344
 6258SOL     OW19023   3.947   3.262   2.295
 6258SOL    HW119024   3.918   3.191   2.353
 6258SOL    HW219025   4.031   3.232   2.260
 6259SOL     OW19026   5.144  10.810   2.244
 6259SOL    HW119027   5.160  10.875   2.175
 6259SOL    HW219028   5.065  10.840   2.288
 6260SOL     OW19029   4.567   5.616   1.005
 6260SOL    HW119030   4.491   5.582   0.956
 6260SOL    HW219031   4.584   5.550   1.072
 6261SOL     OW19032   8.638  11.224   2.110
 6261SOL    HW119033   8.664  11.293   2.172
 6261SOL    HW219034   8.715  11.211   2.055
 6262SOL     OW19035   7.306  12.000   5.543
 6262SOL    HW119036   7.273  12.016   5.632
 6262SOL    HW219037   7.244  11.936   5.506
 6263SOL     OW19038   1.821   9.363   1.862
 6263SOL    HW119039   1.907   9.386   1.896
 6263SOL    HW219040   1.770   9.340   1.940
 6264SOL     OW19041   7.095  15.490   7.076
 6264SOL    HW119042   7.179  15.521   7.041
 6264SOL    HW219043   7.072  15.415   7.020
 6265SOL     OW19044   5.539   8.745   6.962
 6265SOL    HW119045   5.499   8.825   6.998
 6265SOL    HW219046   5.474   8.712   6.901
 6266SOL     OW19047   5.016   6.441   6.232
 6266SOL    HW119048   5.009   6.355   6.272
 6266SOL    HW219049   5.094   6.480   6.273
 6267SOL     OW19050  10.451  13.144   7.454
 6267SOL    HW119051  10.478  13.181   7.370
 6267SOL    HW219052  10.507  13.187   7.518
 6268SOL     OW19053   5.914  12.459   2.961
 6268SOL    HW119054   5.848  12.472   3.029
 6268SOL    HW219055   5.958  12.544   2.953
 6269SOL     OW19056   7.257   7.919   1.464
 6269SOL    HW119057   7.174   7.871   1.456
 6269SOL    HW219058   7.252   7.986   1.396
 6270SOL     OW19059   7.899  10.223   2.280
 6270SOL    HW119060   7.803  10.215   2.272
 6270SOL    HW219061   7.921  10.297   2.223
 6271SOL     OW19062   8.710   3.806   4.591
 6271SOL    HW119063   8.786   3.810   4.532
 6271SOL    HW219064   8.739   3.850   4.670
 6272SOL     OW19065  13.282   6.650   6.508
 6272SOL    HW119066  13.304   6.571   6.459
 6272SOL    HW219067  13.309   6.632   6.598
 6273SOL     OW19068   7.341   3.569   4.263
 6273SOL    HW119069   7.317   3.623   4.338
 6273SOL    HW219070   7.270   3.583   4.200
 6274SOL     OW19071   3.645   4.941   4.222
 6274SOL    HW119072   3.691   4.891   4.289
 6274SOL    HW219073   3.577   4.882   4.189
 6275SOL     OW19074   5.634   6.601   1.191
 6275SOL    HW119075   5.678   6.679   1.158
 6275SOL    HW219076   5.586   6.567   1.115
 6276SOL     OW19077  13.173  10.926   6.940
 6276SOL    HW119078  13.155  11.010   6.898
 6276SOL    HW219079  13.088  10.885   6.949
 6277SOL     OW19080   2.838  10.362   3.340
 6277SOL    HW119081   2.858  10.445   3.384
 6277SOL    HW219082   2.743  10.356   3.343
 6278SOL     OW19083   6.519  10.795   2.395
 6278SOL    HW119084   6.573  10.817   2.471
 6278SOL    HW219085   6.464  10.723   2.425
 6279SOL     OW19086  10.809   7.368   6.509
 6279SOL    HW119087  10.866   7.297   6.479
 6279SOL    HW219088  10.869   7.429   6.552
 6280SOL     OW19089   9.746   3.624   4.848
 6280SOL    HW119090   9.696   3.543   4.861
 6280SOL    HW219091   9.825   3.612   4.901
 6281SOL     OW19092   8.256   7.226   5.440
 6281SOL    HW119093   8.324   7.243   5.375
 6281SOL    HW219094   8.273   7.290   5.510
 6282SOL     OW19095  13.955   9.174   5.743
 6282SOL    HW119096  14.023   9.127   5.791
 6282SOL    HW219097  13.996   9.257   5.718
 6283SOL     OW19098   6.808   1.732   1.298
 6283SOL    HW119099   6.834   1.693   1.215
 6283SOL    HW219100   6.719   1.765   1.283
 6284SOL     OW19101  13.789  15.164   7.382
 6284SOL    HW119102  13.713  15.218   7.361
 6284SOL    HW219103  13.767  15.078   7.346
 6285SOL     OW19104   1.987  12.073   2.160
 6285SOL    HW119105   2.034  12.019   2.224
 6285SOL    HW219106   2.043  12.072   2.082
 6286SOL     OW19107   3.123   5.055   3.920
 6286SOL    HW119108   3.030   5.048   3.899
 6286SOL    HW219109   3.126   5.122   3.989
 6287SOL     OW19110  10.472   8.800   1.847
 6287SOL    HW119111  10.410   8.868   1.874
 6287SOL    HW219112  10.457   8.790   1.753
 6288SOL     OW19113   4.560   8.325   5.921
 6288SOL    HW119114   4.626   8.393   5.932
 6288SOL    HW219115   4.545   8.321   5.827
 6289SOL     OW19116  11.511  10.086   2.534
 6289SOL    HW119117  11.549  10.149   2.595
 6289SOL    HW219118  11.544  10.001   2.564
 6290SOL     OW19119   5.218   8.152   1.455
 6290SOL    HW119120   5.135   8.120   1.421
 6290SOL    HW219121   5.195   8.200   1.535
 6291SOL     OW19122   8.793  10.557   2.738
 6291SOL    HW119123   8.842  10.595   2.810
 6291SOL    HW219124   8.723  10.507   2.780
 6292SOL     OW19125   8.353  11.750   5.009
 6292SOL    HW119126   8.304  11.749   4.927
 6292SOL    HW219127   8.375  11.659   5.026
 6293SOL     OW19128   8.932   9.896   0.091
 6293SOL    HW119129   8.893   9.982   0.107
 6293SOL    HW219130   9.012   9.915   0.042
 6294SOL     OW19131   6.080  10.336   4.171
 6294SOL    HW119132   6.059  10.383   4.091
 6294SOL    HW219133   6.019  10.262   4.172
 6295SOL     OW19134   3.125  10.412   0.883
 6295SOL    HW119135   3.211  10.448   0.903
 6295SOL    HW219136   3.134  10.318   0.895
 6296SOL     OW19137   8.989  12.978   4.052
 6296SOL    HW119138   9.059  12.914   4.070
 6296SOL    HW219139   8.942  12.941   3.977
 6297SOL     OW19140  10.836  10.426   2.101
 6297SOL    HW119141  10.854  10.485   2.174
 6297SOL    HW219142  10.910  10.365   2.101
 6298SOL     OW19143   9.214  10.294   0.094
 6298SOL    HW119144   9.249  10.371   0.139
 6298SOL    HW219145   9.174  10.329   0.015
 6299SOL     OW19146  12.852  12.737   5.164
 6299SOL    HW119147  12.813  12.789   5.094
 6299SOL    HW219148  12.897  12.800   5.219
 6300SOL     OW19149   3.731   7.201   0.287
 6300SOL    HW119150   3.795   7.214   0.216
 6300SOL    HW219151   3.749   7.112   0.318
 6301SOL     OW19152  15.168  14.352   7.370
 6301SOL    HW119153  15.178  14.397   7.454
 6301SOL    HW219154  15.258  14.339   7.340
 6302SOL     OW19155   3.702   5.393   2.980
 6302SOL    HW119156   3.706   5.317   3.039
 6302SOL    HW219157   3.648   5.457   3.027
 6303SOL     OW19158   2.749   9.380   0.293
 6303SOL    HW119159   2.685   9.365   0.223
 6303SOL    HW219160   2.698   9.377   0.374
 6304SOL     OW19161  10.141   6.504   4.292
 6304SOL    HW119162  10.212   6.566   4.308
 6304SOL    HW219163  10.065   6.558   4.271
 6305SOL     OW19164  12.484  10.188   6.314
 6305SOL    HW119165  12.553  10.169   6.251
 6305SOL    HW219166  12.469  10.282   6.304
 6306SOL     OW19167   9.816   9.599   6.120
 6306SOL    HW119168   9.815   9.587   6.025
 6306SOL    HW219169   9.726   9.627   6.141
 6307SOL     OW19170   9.319  12.324   7.558
 6307SOL    HW119171   9.388  12.261   7.574
 6307SOL    HW219172   9.277  12.293   7.477
 6308SOL     OW19173   9.480  10.446   3.357
 6308SOL    HW119174   9.403  10.446   3.413
 6308SOL    HW219175   9.542  10.504   3.401
 6309SOL     OW19176   3.226  12.196   3.101
 6309SOL    HW119177   3.227  12.292   3.103
 6309SOL    HW219178   3.167  12.171   3.171
 6310SOL     OW19179   8.765   5.707   2.223
 6310SOL    HW119180   8.674   5.690   2.247
 6310SOL    HW219181   8.814   5.633   2.258
 6311SOL     OW19182   6.378   6.180   2.621
 6311SOL    HW119183   6.355   6.088   2.609
 6311SOL    HW219184   6.349   6.200   2.711
 6312SOL     OW19185   8.302   5.831   0.829
 6312SOL    HW119186   8.279   5.921   0.854
 6312SOL    HW219187   8.232   5.777   0.865
 6313SOL     OW19188   6.006  10.036   2.651
 6313SOL    HW119189   5.967  10.097   2.713
 6313SOL    HW219190   6.081  10.084   2.615
 6314SOL     OW19191  10.328   9.610   5.348
 6314SOL    HW119192  10.354   9.574   5.433
 6314SOL    HW219193  10.242   9.572   5.331
 6315SOL     OW19194  14.224   8.744   5.854
 6315SOL    HW119195  14.298   8.803   5.869
 6315SOL    HW219196  14.266   8.660   5.833
 6316SOL     OW19197   4.383   5.400   5.794
 6316SOL    HW119198   4.423   5.313   5.791
 6316SOL    HW219199   4.457   5.461   5.794
 6317SOL     OW19200   2.818  10.650   3.512
 6317SOL    HW119201   2.760  10.716   3.549
 6317SOL    HW219202   2.886  10.700   3.467
 6318SOL     OW19203   8.517   4.440   5.408
 6318SOL    HW119204   8.566   4.366   5.373
 6318SOL    HW219205   8.432   4.403   5.433
 6319SOL     OW19206  10.331   4.471   0.766
 6319SOL    HW119207  10.409   4.513   0.803
 6319SOL    HW219208  10.357   4.449   0.676
 6320SOL     OW19209  10.474  15.741   7.528
 6320SOL    HW119210  10.391  15.780   7.500
 6320SOL    HW219211   5.086  10.359   0.004
 6321SOL     OW19212   3.042   3.889   2.208
 6321SOL    HW119213   3.121   3.908   2.157
 6321SOL    HW219214   3.052   3.943   2.287
 6322SOL     OW19215   4.609   7.770   0.178
 6322SOL    HW119216   4.618   7.855   0.220
 6322SOL    HW219217   4.696   7.751   0.143
 6323SOL     OW19218   1.915   6.370   1.937
 6323SOL    HW119219   1.935   6.306   2.005
 6323SOL    HW219220   1.944   6.453   1.973
 6324SOL     OW19221  10.566   7.921   4.784
 6324SOL    HW119222  10.537   7.980   4.854
 6324SOL    HW219223  10.485   7.881   4.752
 6325SOL     OW19224   4.472   6.387   2.991
 6325SOL    HW119225   4.556   6.386   3.036
 6325SOL    HW219226   4.491   6.423   2.904
 6326SOL     OW19227   5.163   7.086   5.070
 6326SOL    HW119228   5.206   7.073   5.154
 6326SOL    HW219229   5.234   7.092   5.007
 6327SOL     OW19230  12.648   3.119   3.642
 6327SOL    HW119231  12.686   3.165   3.567
 6327SOL    HW219232  12.554   3.129   3.631
 6328SOL     OW19233  10.060   3.151   1.195
 6328SOL    HW119234  10.111   3.212   1.249
 6328SOL    HW219235  10.000   3.207   1.147
 6329SOL     OW19236   9.799   8.765   2.200
 6329SOL    HW119237   9.710   8.769   2.166
 6329SOL    HW219238   9.831   8.855   2.193
 6330SOL     OW19239   2.726   1.551   0.301
 6330SOL    HW119240   2.740   1.475   0.245
 6330SOL    HW219241   2.770   1.529   0.383
 6331SOL     OW19242   2.879  11.696   2.022
 6331SOL    HW119243   2.949  11.733   2.076
 6331SOL    HW219244   2.803  11.752   2.041
 6332SOL     OW19245  10.034  10.647   2.561
 6332SOL    HW119246   9.949  10.631   2.603
 6332SOL    HW219247  10.098  10.631   2.630
 6333SOL     OW19248  10.173  13.625   5.701
 6333SOL    HW119249  10.265  13.598   5.700
 6333SOL    HW219250  10.167  13.686   5.774
 6334SOL     OW19251   4.926  11.629   4.074
 6334SOL    HW119252   4.881  11.682   4.140
 6334SOL    HW219253   5.008  11.602   4.117
 6335SOL     OW19254   2.475   6.107   1.405
 6335SOL    HW119255   2.462   6.031   1.462
 6335SOL    HW219256   2.568   6.106   1.386
 6336SOL     OW19257   6.424   5.289   5.660
 6336SOL    HW119258   6.470   5.363   5.621
 6336SOL    HW219259   6.355   5.268   5.596
 6337SOL     OW19260   6.097   9.560   2.298
 6337SOL    HW119261   6.119   9.468   2.282
 6337SOL    HW219262   6.113   9.573   2.391
 6338SOL     OW19263  10.415  15.513   7.012
 6338SOL    HW119264  10.339  15.568   6.993
 6338SOL    HW219265  10.448  15.487   6.926
 6339SOL     OW19266   5.535  10.651   1.287
 6339SOL    HW119267   5.494  10.565   1.285
 6339SOL    HW219268   5.627  10.635   1.264
 6340SOL     OW19269  10.173  12.563   3.234
 6340SOL    HW119270  10.244  12.612   3.194
 6340SOL    HW219271  10.202  12.472   3.231
 6341SOL     OW19272   6.186  10.795   5.910
 6341SOL    HW119273   6.097  10.769   5.935
 6341SOL    HW219274   6.198  10.881   5.950
 6342SOL     OW19275   4.448   5.491   3.982
 6342SOL    HW119276   4.385   5.527   3.920
 6342SOL    HW219277   4.514   5.448   3.927
 6343SOL     OW19278  11.367  10.130   5.702
 6343SOL    HW119279  11.286  10.180   5.712
 6343SOL    HW219280  11.430  10.172   5.761
 6344SOL     OW19281   4.744   8.179   4.513
 6344SOL    HW119282   4.657   8.163   4.474
 6344SOL    HW219283   4.778   8.091   4.531
 6345SOL     OW19284   6.927   9.099   6.444
 6345SOL    HW119285   6.966   9.048   6.515
 6345SOL    HW219286   6.925   9.038   6.370
 6346SOL     OW19287   6.770   6.210   5.319
 6346SOL    HW119288   6.812   6.132   5.283
 6346SOL    HW219289   6.840   6.257   5.364
 6347SOL     OW19290   9.626   1.365   1.149
 6347SOL    HW119291   9.587   1.348   1.234
 6347SOL    HW219292   9.673   1.448   1.160
 6348SOL     OW19293   5.452   6.938   5.148
 6348SOL    HW119294   5.523   6.889   5.189
 6348SOL    HW219295   5.441   6.896   5.062
 6349SOL     OW19296  10.308   5.293   4.114
 6349SOL    HW119297  10.397   5.257   4.111
 6349SOL    HW219298  10.256   5.223   4.153
 6350SOL     OW19299   6.085  14.943   6.538
 6350SOL    HW119300   6.011  14.963   6.481
 6350SOL    HW219301   6.077  14.850   6.556
 6351SOL     OW19302   3.184   8.361   2.058
 6351SOL    HW119303   3.196   8.454   2.079
 6351SOL    HW219304   3.089   8.353   2.044
 6352SOL     OW19305   6.396  13.773   5.124
 6352SOL    HW119306   6.386  13.732   5.038
 6352SOL    HW219307   6.330  13.842   5.126
 6353SOL     OW19308  13.783  12.982   5.489
 6353SOL    HW119309  13.876  13.001   5.504
 6353SOL    HW219310  13.781  12.892   5.457
 6354SOL     OW19311  11.627  10.897   1.473
 6354SOL    HW119312  11.639  10.983   1.514
 6354SOL    HW219313  11.604  10.840   1.546
 6355SOL     OW19314   1.536   9.688   1.784
 6355SOL    HW119315   1.595   9.629   1.738
 6355SOL    HW219316   1.515   9.642   1.865
 6356SOL     OW19317   9.358   6.225   3.770
 6356SOL    HW119318   9.403   6.196   3.849
 6356SOL    HW219319   9.427   6.234   3.705
 6357SOL     OW19320   2.972  11.519   2.649
 6357SOL    HW119321   3.060  11.508   2.684
 6357SOL    HW219322   2.983  11.510   2.554
 6358SOL     OW19323   8.346   3.854   4.944
 6358SOL    HW119324   8.327   3.890   5.031
 6358SOL    HW219325   8.318   3.763   4.949
 6359SOL     OW19326  10.534  11.670   6.626
 6359SOL    HW119327  10.540  11.600   6.691
 6359SOL    HW219328  10.442  11.697   6.628
 6360SOL     OW19329   4.123   8.461   3.019
 6360SOL    HW119330   4.039   8.479   2.977
 6360SOL    HW219331   4.156   8.548   3.043
 6361SOL     OW19332   1.572   6.885   1.646
 6361SOL    HW119333   1.575   6.942   1.723
 6361SOL    HW219334   1.615   6.936   1.577
 6362SOL     OW19335   8.619   5.389   5.621
 6362SOL    HW119336   8.631   5.295   5.638
 6362SOL    HW219337   8.603   5.394   5.527
 6363SOL     OW19338   7.405  10.023   6.100
 6363SOL    HW119339   7.449   9.981   6.174
 6363SOL    HW219340   7.468  10.016   6.028
 6364SOL     OW19341   3.515   9.957   4.291
 6364SOL    HW119342   3.572   9.985   4.363
 6364SOL    HW219343   3.561   9.883   4.252
 6365SOL     OW19344   3.680   6.792   4.605
 6365SOL    HW119345   3.623   6.861   4.639
 6365SOL    HW219346   3.626   6.746   4.541
 6366SOL     OW19347  11.269   9.171   6.771
 6366SOL    HW119348  11.215   9.094   6.791
 6366SOL    HW219349  11.359   9.136   6.767
 6367SOL     OW19350   4.107   6.204   0.727
 6367SOL    HW119351   4.045   6.250   0.783
 6367SOL    HW219352   4.069   6.209   0.639
 6368SOL     OW19353   7.182   6.372   7.314
 6368SOL    HW119354   7.158   6.343   7.402
 6368SOL    HW219355   7.113   6.432   7.288
 6369SOL     OW19356  10.754   4.125   3.468
 6369SOL    HW119357  10.688   4.065   3.504
 6369SOL    HW219358  10.711   4.165   3.393
 6370SOL     OW19359  10.967   8.275   6.360
 6370SOL    HW119360  10.873   8.295   6.356
 6370SOL    HW219361  10.970   8.180   6.375
 6371SOL     OW19362   9.040   7.958   0.326
 6371SOL    HW119363   9.018   7.901   0.253
 6371SOL    HW219364   9.077   8.036   0.285
 6372SOL     OW19365   4.940   9.995   0.332
 6372SOL    HW119366   4.901   9.972   0.247
 6372SOL    HW219367   5.001   9.923   0.349
 6373SOL     OW19368  12.304  12.795   4.113
 6373SOL    HW119369  12.225  12.747   4.088
 6373SOL    HW219370  12.349  12.737   4.174
 6374SOL     OW19371   5.818  12.415   7.282
 6374SOL    HW119372   5.761  12.483   7.247
 6374SOL    HW219373   5.803  12.416   7.376
 6375SOL     OW19374  11.303   7.116   7.480
 6375SOL    HW119375  11.329   7.070   7.559
 6375SOL    HW219376  11.365   7.085   7.413
 6376SOL     OW19377   1.999   7.141   0.505
 6376SOL    HW119378   1.919   7.102   0.538
 6376SOL    HW219379   2.069   7.095   0.551
 6377SOL     OW19380  11.621  13.032   4.905
 6377SOL    HW119381  11.628  13.032   5.000
 6377SOL    HW219382  11.711  13.032   4.874
 6378SOL     OW19383  14.677   4.675   6.258
 6378SOL    HW119384  14.734   4.750   6.239
 6378SOL    HW219385  14.738   4.601   6.267
 6379SOL     OW19386   9.657  13.669   7.619
 6379SOL    HW119387   4.245   8.290   0.092
 6379SOL    HW219388   9.590  13.613   7.581
 6380SOL     OW19389   0.693   1.690   0.046
 6380SOL    HW119390   0.653   1.771   0.076
 6380SOL    HW219391   0.657   1.622   0.104
 6381SOL     OW19392   7.941   6.804   0.605
 6381SOL    HW119393   7.887   6.780   0.530
 6381SOL    HW219394   8.028   6.768   0.585
 6382SOL     OW19395   0.997   4.212   0.817
 6382SOL    HW119396   0.990   4.307   0.827
 6382SOL    HW219397   1.022   4.180   0.903
 6383SOL     OW19398   1.319   3.888   1.848
 6383SOL    HW119399   1.394   3.834   1.822
 6383SOL    HW219400  12.023   3.862   1.788
 6384SOL     OW19401   6.932   6.990   6.826
 6384SOL    HW119402   6.941   7.084   6.812
 6384SOL    HW219403   7.016   6.962   6.861
 6385SOL     OW19404  11.129   6.234   4.007
 6385SOL    HW119405  11.218   6.268   4.013
 6385SOL    HW219406  11.073   6.311   4.018
 6386SOL     OW19407  11.604  10.689   6.879
 6386SOL    HW119408  11.566  10.772   6.908
 6386SOL    HW219409  11.548  10.622   6.919
 6387SOL     OW19410  12.912  15.751   7.202
 6387SOL    HW119411  12.923  15.845   7.189
 6387SOL    HW219412  12.949  15.735   7.289
 6388SOL     OW19413  10.311   2.561   0.369
 6388SOL    HW119414  10.285   2.473   0.342
 6388SOL    HW219415  10.249   2.619   0.325
 6389SOL     OW19416   0.820   7.046   0.939
 6389SOL    HW119417   0.789   7.014   0.854
 6389SOL    HW219418   0.826   7.141   0.928
 6390SOL     OW19419   3.305   7.943   3.926
 6390SOL    HW119420   3.339   7.882   3.991
 6390SOL    HW219421   3.378   8.003   3.909
 6391SOL     OW19422   9.984   3.965   1.102
 6391SOL    HW119423  10.060   3.914   1.131
 6391SOL    HW219424  10.001   4.053   1.136
 6392SOL     OW19425  11.241  11.450   7.241
 6392SOL    HW119426  11.227  11.460   7.335
 6392SOL    HW219427  11.156  11.421   7.207
 6393SOL     OW19428   3.768   7.985   1.489
 6393SOL    HW119429   3.718   8.065   1.475
 6393SOL    HW219430   3.723   7.942   1.563
 6394SOL     OW19431   8.158   7.526   0.839
 6394SOL    HW119432   8.103   7.597   0.871
 6394SOL    HW219433   8.161   7.538   0.744
 6395SOL     OW19434  11.055   6.160   3.078
 6395SOL    HW119435  11.006   6.164   3.160
 6395SOL    HW219436  11.074   6.252   3.057
 6396SOL     OW19437  10.285   7.828   5.866
 6396SOL    HW119438  10.245   7.787   5.789
 6396SOL    HW219439  10.294   7.757   5.929
 6397SOL     OW19440   6.247   7.661   6.609
 6397SOL    HW119441   6.215   7.580   6.569
 6397SOL    HW219442   6.247   7.643   6.703
 6398SOL     OW19443  10.333   8.443   7.253
 6398SOL    HW119444  10.360   8.532   7.275
 6398SOL    HW219445  10.410   8.403   7.215
 6399SOL     OW19446   7.349   6.718   3.996
 6399SOL    HW119447   7.412   6.788   4.012
 6399SOL    HW219448   7.313   6.737   3.909
 6400SOL     OW19449   4.370   2.892   2.296
 6400SOL    HW119450   4.436   2.875   2.229
 6400SOL    HW219451   4.362   2.987   2.298
 6401SOL     OW19452   7.294  11.681   3.147
 6401SOL    HW119453   7.389  11.682   3.151
 6401SOL    HW219454   7.269  11.774   3.143
 6402SOL     OW19455   8.289   6.091   4.388
 6402SOL    HW119456   8.352   6.080   4.318
 6402SOL    HW219457   8.239   6.009   4.389
 6403SOL     OW19458   3.983   5.520   0.075
 6403SOL    HW119459   4.028   5.572   0.141
 6403SOL    HW219460   4.036   5.440   0.068
 6404SOL     OW19461   6.357   2.385   1.480
 6404SOL    HW119462   6.292   2.450   1.506
 6404SOL    HW219463   6.368   2.330   1.557
 6405SOL     OW19464   7.948  10.973   5.136
 6405SOL    HW119465   7.999  10.932   5.066
 6405SOL    HW219466   7.984  11.061   5.144
 6406SOL     OW19467   6.217  10.808   4.619
 6406SOL    HW119468   6.231  10.820   4.713
 6406SOL    HW219469   6.182  10.719   4.611
 6407SOL     OW19470   9.521   7.376   6.202
 6407SOL    HW119471   9.441   7.370   6.150
 6407SOL    HW219472   9.587   7.410   6.141
 6408SOL     OW19473   6.830   7.124   6.088
 6408SOL    HW119474   6.792   7.096   6.171
 6408SOL    HW219475   6.779   7.077   6.021
 6409SOL     OW19476   1.396   1.713   0.557
 6409SOL    HW119477   1.382   1.646   0.491
 6409SOL    HW219478   1.329   1.779   0.539
 6410SOL     OW19479  12.623   8.680   4.459
 6410SOL    HW119480  12.544   8.693   4.406
 6410SOL    HW219481  12.695   8.688   4.397
 6411SOL     OW19482   8.880   5.065   1.845
 6411SOL    HW119483   8.819   5.094   1.777
 6411SOL    HW219484   8.962   5.049   1.798
 6412SOL     OW19485   6.291   9.636   6.750
 6412SOL    HW119486   6.257   9.687   6.823
 6412SOL    HW219487   6.282   9.693   6.674
 6413SOL     OW19488   4.167   7.661   2.776
 6413SOL    HW119489   4.104   7.621   2.836
 6413SOL    HW219490   4.121   7.664   2.692
 6414SOL     OW19491  11.206  11.472   4.267
 6414SOL    HW119492  11.164  11.415   4.332
 6414SOL    HW219493  11.241  11.411   4.202
 6415SOL     OW19494   8.147  13.607   6.049
 6415SOL    HW119495   8.138  13.664   5.973
 6415SOL    HW219496   8.104  13.525   6.023
 6416SOL     OW19497   5.039   8.985   5.092
 6416SOL    HW119498   5.127   9.002   5.059
 6416SOL    HW219499   5.008   9.069   5.124
 6417SOL     OW19500   5.962   4.122   4.809
 6417SOL    HW119501   5.887   4.173   4.778
 6417SOL    HW219502   5.948   4.115   4.904
 6418SOL     OW19503   5.469  11.652   1.368
 6418SOL    HW119504   5.488  11.694   1.452
 6418SOL    HW219505   5.411   0.939   1.323
 6419SOL     OW19506  13.863  11.076   4.989
 6419SOL    HW119507  13.903  11.010   5.046
 6419SOL    HW219508  13.931  11.096   4.924
 6420SOL     OW19509  13.971  14.191   6.832
 6420SOL    HW119510  14.063  14.215   6.843
 6420SOL    HW219511  13.951  14.137   6.909
 6421SOL     OW19512   4.987  11.150   6.101
 6421SOL    HW119513   4.943  11.152   6.016
 6421SOL    HW219514   4.943  11.080   6.149
 6422SOL     OW19515  10.311   1.545   0.188
 6422SOL    HW119516  10.403   1.520   0.187
 6422SOL    HW219517  10.264   1.463   0.171
 6423SOL     OW19518  14.414  15.674   7.469
 6423SOL    HW119519  14.403  15.750   7.412
 6423SOL    HW219520  14.469  15.614   7.417
 6424SOL     OW19521  11.685  10.722   2.481
 6424SOL    HW119522  11.658  10.788   2.545
 6424SOL    HW219523  11.652  10.755   2.397
 6425SOL     OW19524   3.337   8.523   2.355
 6425SOL    HW119525   3.316   8.432   2.337
 6425SOL    HW219526   3.398   8.548   2.286
 6426SOL     OW19527  13.587  13.452   4.494
 6426SOL    HW119528  13.649  13.473   4.424
 6426SOL    HW219529  13.519  13.520   4.486
 6427SOL     OW19530   3.481  10.472   1.583
 6427SOL    HW119531   3.434  10.457   1.665
 6427SOL    HW219532   3.413  10.482   1.517
 6428SOL     OW19533   7.217  12.350   2.358
 6428SOL    HW119534   7.204  12.419   2.424
 6428SOL    HW219535   7.232  12.271   2.410
 6429SOL     OW19536   4.116   5.324   3.129
 6429SOL    HW119537   4.184   5.270   3.088
 6429SOL    HW219538   4.066   5.360   3.055
 6430SOL     OW19539   7.177   3.124   3.091
 6430SOL    HW119540   7.189   3.202   3.037
 6430SOL    HW219541   7.084   3.126   3.115
 6431SOL     OW19542   5.479   9.886   0.379
 6431SOL    HW119543   5.392   9.916   0.404
 6431SOL    HW219544   5.520   9.859   0.461
 6432SOL     OW19545   8.075   6.993   6.770
 6432SOL    HW119546   8.016   7.034   6.707
 6432SOL    HW219547   8.018   6.969   6.844
 6433SOL     OW19548  14.461  13.567   6.114
 6433SOL    HW119549  14.416  13.483   6.119
 6433SOL    HW219550  14.535  13.558   6.174
 6434SOL     OW19551   8.820  11.272   6.235
 6434SOL    HW119552   8.886  11.341   6.241
 6434SOL    HW219553   8.744  11.314   6.195
 6435SOL     OW19554   4.311   5.851   2.971
 6435SOL    HW119555   4.349   5.773   3.013
 6435SOL    HW219556   4.219   5.829   2.958
 6436SOL     OW19557   5.447  10.710   6.972
 6436SOL    HW119558   5.416  10.620   6.961
 6436SOL    HW219559   5.384  10.764   6.925
 6437SOL     OW19560  13.518  12.974   6.013
 6437SOL    HW119561  13.602  13.008   5.980
 6437SOL    HW219562  13.489  12.913   5.945
 6438SOL     OW19563  10.702   6.106   0.321
 6438SOL    HW119564  10.787   6.086   0.283
 6438SOL    HW219565  10.651   6.140   0.248
 6439SOL     OW19566   8.295   4.131   1.572
 6439SOL    HW119567   8.261   4.086   1.649
 6439SOL    HW219568   8.350   4.066   1.529
 6440SOL     OW19569   6.659   7.850   4.155
 6440SOL    HW119570   6.592   7.798   4.110
 6440SOL    HW219571   6.692   7.792   4.224
 6441SOL     OW19572  13.785   6.797   4.321
 6441SOL    HW119573   3.092   6.800   4.271
 6441SOL    HW219574  13.723   6.753   4.263
 6442SOL     OW19575   6.684   9.372   4.983
 6442SOL    HW119576   6.695   9.466   4.973
 6442SOL    HW219577   6.673   9.339   4.893
 6443SOL     OW19578   3.860   9.435   2.890
 6443SOL    HW119579   3.849   9.429   2.795
 6443SOL    HW219580   3.868   9.344   2.919
 6444SOL     OW19581   2.913   3.817   1.264
 6444SOL    HW119582   2.952   3.729   1.259
 6444SOL    HW219583   2.954   3.857   1.340
 6445SOL     OW19584   8.238  10.676   5.189
 6445SOL    HW119585   8.262  10.751   5.136
 6445SOL    HW219586   8.271  10.696   5.277
 6446SOL     OW19587  12.327   8.105   5.364
 6446SOL    HW119588  12.388   8.135   5.296
 6446SOL    HW219589  12.344   8.162   5.439
 6447SOL     OW19590   6.427   6.166   1.044
 6447SOL    HW119591   6.516   6.196   1.028
 6447SOL    HW219592   6.383   6.171   0.959
 6448SOL     OW19593   1.339   4.178   1.882
 6448SOL    HW119594  12.132   4.173   1.976
 6448SOL    HW219595   1.347   4.088   1.851
 6449SOL     OW19596   4.045   5.119   0.413
 6449SOL    HW119597   4.039   5.049   0.478
 6449SOL    HW219598   4.082   5.077   0.335
 6450SOL     OW19599   4.130   5.929   0.167
 6450SOL    HW119600   4.184   5.990   0.217
 6450SOL    HW219601   4.099   5.865   0.232
 6451SOL     OW19602  15.048  15.506   7.430
 6451SOL    HW119603  14.973  15.530   7.375
 6451SOL    HW219604  15.018  15.520   7.520
 6452SOL     OW19605  13.634   6.895   5.837
 6452SOL    HW119606  13.684   6.815   5.821
 6452SOL    HW219607  13.549   6.878   5.796
 6453SOL     OW19608  11.170  14.395   7.436
 6453SOL    HW119609  11.147  14.436   7.353
 6453SOL    HW219610  11.182  14.302   7.415
 6454SOL     OW19611   2.497  10.191   2.181
 6454SOL    HW119612   2.419  10.211   2.231
 6454SOL    HW219613   2.491  10.245   2.102
 6455SOL     OW19614  11.217   3.949   0.778
 6455SOL    HW119615  11.290   4.010   0.780
 6455SOL    HW219616  11.156   3.987   0.715
 6456SOL     OW19617  13.683  15.100   7.031
 6456SOL    HW119618  13.703  15.193   7.046
 6456SOL    HW219619  13.599  15.100   6.985
 6457SOL     OW19620  10.989   3.496   1.568
 6457SOL    HW119621  10.952   3.450   1.493
 6457SOL    HW219622  11.023   3.578   1.533
 6458SOL     OW19623  13.321  11.063   4.093
 6458SOL    HW119624  13.379  11.120   4.043
 6458SOL    HW219625  13.372  10.984   4.109
 6459SOL     OW19626  10.771   4.047   1.631
 6459SOL    HW119627  10.776   3.992   1.553
 6459SOL    HW219628  10.863   4.061   1.656
 6460SOL     OW19629  12.777  10.034   2.957
 6460SOL    HW119630   2.069  10.084   2.910
 6460SOL    HW219631  12.723  10.101   3.000
 6461SOL     OW19632   4.233   7.190   3.615
 6461SOL    HW119633   4.147   7.228   3.633
 6461SOL    HW219634   4.230   7.103   3.656
 6462SOL     OW19635   5.679   4.614   5.805
 6462SOL    HW119636   5.687   4.532   5.757
 6462SOL    HW219637   5.761   4.660   5.787
 6463SOL     OW19638   6.923   5.551   5.886
 6463SOL    HW119639   6.981   5.476   5.873
 6463SOL    HW219640   6.861   5.522   5.953
 6464SOL     OW19641  11.001   7.546   6.045
 6464SOL    HW119642  10.919   7.596   6.052
 6464SOL    HW219643  11.006   7.496   6.126
 6465SOL     OW19644   3.497  12.428   4.531
 6465SOL    HW119645   3.555  12.470   4.468
 6465SOL    HW219646   3.493  12.490   4.605
 6466SOL     OW19647   6.338   6.539   1.430
 6466SOL    HW119648   6.245   6.537   1.404
 6466SOL    HW219649   6.336   6.524   1.524
 6467SOL     OW19650   8.705   8.832   6.117
 6467SOL    HW119651   8.736   8.912   6.074
 6467SOL    HW219652   8.616   8.853   6.144
 6468SOL     OW19653  12.608  14.088   6.786
 6468SOL    HW119654  12.542  14.023   6.764
 6468SOL    HW219655  12.619  14.139   6.705
 6469SOL     OW19656   7.612   5.857   7.026
 6469SOL    HW119657   7.602   5.952   7.033
 6469SOL    HW219658   7.658   5.832   7.106
 6470SOL     OW19659  12.545   6.962   3.395
 6470SOL    HW119660  12.522   6.934   3.306
 6470SOL    HW219661  12.512   6.892   3.451
 6471SOL     OW19662   4.444  13.990   6.268
 6471SOL    HW119663  15.199  14.080   6.294
 6471SOL    HW219664  15.141  13.961   6.221
 6472SOL     OW19665   6.928  14.155   5.725
 6472SOL    HW119666   6.873  14.227   5.755
 6472SOL    HW219667   6.900  14.138   5.635
 6473SOL     OW19668  14.766  10.973   6.469
 6473SOL    HW119669  14.725  11.024   6.399
 6473SOL    HW219670  14.763  10.883   6.437
 6474SOL     OW19671   5.793   6.383   1.153
 6474SOL    HW119672   5.746   6.466   1.158
 6474SOL    HW219673   5.858   6.387   1.223
 6475SOL     OW19674   2.259  10.560   3.048
 6475SOL    HW119675   2.319  10.500   3.004
 6475SOL    HW219676   2.308  10.591   3.124
 6476SOL     OW19677   5.202   9.312   4.366
 6476SOL    HW119678   5.153   9.260   4.431
 6476SOL    HW219679   5.245   9.247   4.311
 6477SOL     OW19680  10.652  13.193   5.979
 6477SOL    HW119681  10.680  13.162   6.065
 6477SOL    HW219682  10.668  13.288   5.981
 6478SOL     OW19683  10.001   7.855   3.784
 6478SOL    HW119684   9.964   7.888   3.702
 6478SOL    HW219685   9.993   7.760   3.778
 6479SOL     OW19686   6.582  10.109   0.655
 6479SOL    HW119687   6.605  10.019   0.633
 6479SOL    HW219688   6.528  10.139   0.582
 6480SOL     OW19689   4.140   7.578   4.297
 6480SOL    HW119690   4.173   7.555   4.383
 6480SOL    HW219691   4.054   7.617   4.313
 6481SOL     OW19692   9.727   9.355   6.196
 6481SOL    HW119693   9.758   9.444   6.212
 6481SOL    HW219694   9.642   9.351   6.240
 6482SOL     OW19695  13.183   7.822   4.592
 6482SOL    HW119696  13.226   7.895   4.637
 6482SOL    HW219697  13.191   7.749   4.653
 6483SOL     OW19698   1.404   6.426   0.784
 6483SOL    HW119699   1.366   6.430   0.872
 6483SOL    HW219700   1.341   6.374   0.734
 6484SOL     OW19701   9.818  11.734   2.798
 6484SOL    HW119702   9.746  11.772   2.848
 6484SOL    HW219703   9.883  11.804   2.792
 6485SOL     OW19704   9.004   9.715   1.071
 6485SOL    HW119705   8.924   9.664   1.085
 6485SOL    HW219706   8.974   9.797   1.031
 6486SOL     OW19707   6.281   6.883   7.285
 6486SOL    HW119708   6.284   6.900   7.191
 6486SOL    HW219709   6.370   6.856   7.308
 6487SOL     OW19710   6.408   3.599   4.809
 6487SOL    HW119711   6.318   3.604   4.776
 6487SOL    HW219712   6.410   3.522   4.865
 6488SOL     OW19713  12.977  11.810   3.847
 6488SOL    HW119714  13.039  11.883   3.854
 6488SOL    HW219715  12.971  11.793   3.753
 6489SOL     OW19716   5.564   7.621   2.782
 6489SOL    HW119717   5.604   7.702   2.751
 6489SOL    HW219718   5.513   7.647   2.859
 6490SOL     OW19719   5.505   6.009   0.207
 6490SOL    HW119720   5.434   6.062   0.244
 6490SOL    HW219721   5.544   6.065   0.139
 6491SOL     OW19722   7.138   5.977   5.863
 6491SOL    HW119723   7.115   5.897   5.911
 6491SOL    HW219724   7.061   6.034   5.873
 6492SOL     OW19725  13.188  12.901   7.447
 6492SOL    HW119726  13.096  12.905   7.420
 6492SOL    HW219727  13.204  12.985   7.490
 6493SOL     OW19728   6.150  11.705   5.533
 6493SOL    HW119729   6.119  11.779   5.481
 6493SOL    HW219730   6.111  11.628   5.492
 6494SOL     OW19731   8.825  13.384   7.478
 6494SOL    HW119732   8.885  13.441   7.526
 6494SOL    HW219733   8.754  13.366   7.540
 6495SOL     OW19734   6.107   9.338   3.624
 6495SOL    HW119735   6.130   9.245   3.629
 6495SOL    HW219736   6.187   9.380   3.593
 6496SOL     OW19737   4.991   6.278   6.494
 6496SOL    HW119738   4.992   6.299   6.587
 6496SOL    HW219739   4.985   6.183   6.491
 6497SOL     OW19740   7.199   3.645   2.427
 6497SOL    HW119741   7.147   3.725   2.435
 6497SOL    HW219742   7.135   3.574   2.426
 6498SOL     OW19743   8.340   9.845   0.127
 6498SOL    HW119744   8.286   9.836   0.206
 6498SOL    HW219745   8.278   9.836   0.055
 6499SOL     OW19746   5.777  10.911   5.985
 6499SOL    HW119747   5.800  10.826   6.023
 6499SOL    HW219748   5.844  10.971   6.018
 6500SOL     OW19749   5.158   9.761   6.795
 6500SOL    HW119750   5.215   9.836   6.812
 6500SOL    HW219751   5.165   9.707   6.874
 6501SOL     OW19752  13.634   5.061   4.045
 6501SOL    HW119753  13.634   5.145   4.089
 6501SOL    HW219754  13.542   5.037   4.037
 6502SOL     OW19755   5.641   2.630   1.614
 6502SOL    HW119756   5.711   2.661   1.670
 6502SOL    HW219757   5.613   2.707   1.564
 6503SOL     OW19758  11.542  12.164   4.869
 6503SOL    HW119759  11.451  12.134   4.863
 6503SOL    HW219760  11.545  12.215   4.950
 6504SOL     OW19761   5.130  11.736   2.032
 6504SOL    HW119762   5.129  11.689   1.948
 6504SOL    HW219763   5.065  11.806   2.021
 6505SOL     OW19764   3.241   3.055   2.224
 6505SOL    HW119765   3.197   2.985   2.176
 6505SOL    HW219766   3.248   3.127   2.161
 6506SOL     OW19767   7.435   7.584   6.424
 6506SOL    HW119768   7.431   7.595   6.329
 6506SOL    HW219769   7.345   7.564   6.449
 6507SOL     OW19770   5.852   4.346   3.439
 6507SOL    HW119771   5.796   4.295   3.381
 6507SOL    HW219772   5.851   4.435   3.402
 6508SOL     OW19773   4.480   5.896   4.923
 6508SOL    HW119774   4.470   5.978   4.875
 6508SOL    HW219775   4.412   5.839   4.887
 6509SOL     OW19776   5.720   5.707   4.907
 6509SOL    HW119777   5.760   5.674   4.987
 6509SOL    HW219778   5.690   5.629   4.861
 6510SOL     OW19779   5.428  11.700   7.491
 6510SOL    HW119780   5.356  11.637   7.497
 6510SOL    HW219781   5.496  11.654   7.442
 6511SOL     OW19782  13.411  14.169   6.597
 6511SOL    HW119783  13.458  14.196   6.676
 6511SOL    HW219784  13.336  14.119   6.630
 6512SOL     OW19785  10.046  11.309   2.034
 6512SOL    HW119786  10.038  11.393   2.080
 6512SOL    HW219787  10.095  11.254   2.095
 6513SOL     OW19788  13.435  13.437   5.831
 6513SOL    HW119789  13.476  13.471   5.911
 6513SOL    HW219790  13.428  13.514   5.774
 6514SOL     OW19791   9.550   5.710   3.367
 6514SOL    HW119792   9.472   5.699   3.422
 6514SOL    HW219793   9.526   5.780   3.306
 6515SOL     OW19794  10.205  11.489   1.647
 6515SOL    HW119795  10.237  11.401   1.626
 6515SOL    HW219796  10.168  11.481   1.735
 6516SOL     OW19797   3.794  11.804   2.819
 6516SOL    HW119798   3.829  11.887   2.852
 6516SOL    HW219799   3.742  11.828   2.743
 6517SOL     OW19800   4.261   5.786   1.023
 6517SOL    HW119801   4.269   5.771   0.928
 6517SOL    HW219802   4.182   5.838   1.032
 6518SOL     OW19803   9.436   7.635   6.701
 6518SOL    HW119804   9.517   7.591   6.675
 6518SOL    HW219805   9.371   7.605   6.638
 6519SOL     OW19806  11.358   3.935   2.126
 6519SOL    HW119807  11.326   4.024   2.134
 6519SOL    HW219808  11.324   3.904   2.042
 6520SOL     OW19809  11.217  13.081   4.371
 6520SOL    HW119810  11.131  13.095   4.332
 6520SOL    HW219811  11.268  13.157   4.344
 6521SOL     OW19812   8.553   4.511   5.956
 6521SOL    HW119813   8.565   4.503   5.862
 6521SOL    HW219814   8.493   4.440   5.980
 6522SOL     OW19815   6.469   9.315   1.039
 6522SOL    HW119816   6.408   9.385   1.018
 6522SOL    HW219817   6.553   9.345   1.005
 6523SOL     OW19818   7.990  10.196   4.758
 6523SOL    HW119819   7.906  10.211   4.802
 6523SOL    HW219820   8.033  10.130   4.812
 6524SOL     OW19821   8.315   4.942   4.661
 6524SOL    HW119822   8.322   4.846   4.662
 6524SOL    HW219823   8.287   4.962   4.571
 6525SOL     OW19824   8.866   1.999   1.437
 6525SOL    HW119825   8.829   1.991   1.525
 6525SOL    HW219826   8.793   2.029   1.383
 6526SOL     OW19827   9.282   7.927   7.167
 6526SOL    HW119828   9.285   7.834   7.188
 6526SOL    HW219829   9.373   7.956   7.179
 6527SOL     OW19830   9.168   3.110   2.696
 6527SOL    HW119831   9.190   3.027   2.653
 6527SOL    HW219832   9.172   3.091   2.789
 6528SOL     OW19833   8.564  10.431   7.436
 6528SOL    HW119834   8.498  10.363   7.446
 6528SOL    HW219835   8.516  10.513   7.439
 6529SOL     OW19836   3.057  10.996   4.038
 6529SOL    HW119837   3.020  10.907   4.041
 6529SOL    HW219838   2.983  11.053   4.061
 6530SOL     OW19839   9.144   5.362   4.822
 6530SOL    HW119840   9.164   5.278   4.862
 6530SOL    HW219841   9.217   5.378   4.763
 6531SOL     OW19842   2.655  12.068   3.632
 6531SOL    HW119843   2.641  12.104   3.545
 6531SOL    HW219844   2.739  12.023   3.627
 6532SOL     OW19845   7.332   2.916   0.782
 6532SOL    HW119846   7.332   2.910   0.686
 6532SOL    HW219847   7.252   2.965   0.802
 6533SOL     OW19848  11.626  10.173   4.100
 6533SOL    HW119849  11.645  10.102   4.161
 6533SOL    HW219850  11.621  10.251   4.154
 6534SOL     OW19851   3.652   9.339   3.635
 6534SOL    HW119852   3.578   9.399   3.634
 6534SOL    HW219853   3.644   9.293   3.718
 6535SOL     OW19854   8.342   4.368   3.138
 6535SOL    HW119855   8.425   4.322   3.130
 6535SOL    HW219856   8.298   4.325   3.211
 6536SOL     OW19857  15.145   7.383   7.198
 6536SOL    HW119858  15.077   7.448   7.213
 6536SOL    HW219859  15.139   7.362   7.105
 6537SOL     OW19860   7.727   4.468   3.914
 6537SOL    HW119861   7.786   4.440   3.984
 6537SOL    HW219862   7.785   4.499   3.844
 6538SOL     OW19863  13.484  13.427   5.137
 6538SOL    HW119864  13.413  13.395   5.192
 6538SOL    HW219865  13.445  13.433   5.050
 6539SOL     OW19866   5.556  13.317   7.540
 6539SOL    HW119867   5.516  13.296   7.455
 6539SOL    HW219868   5.523  13.404   7.562
 6540SOL     OW19869  11.629   7.527   3.124
 6540SOL    HW119870  11.689   7.593   3.088
 6540SOL    HW219871  11.566   7.511   3.053
 6541SOL     OW19872   4.072   0.714   0.312
 6541SOL    HW119873   4.120   0.797   0.314
 6541SOL    HW219874   4.089   0.675   0.398
 6542SOL     OW19875   7.941   4.728   4.509
 6542SOL    HW119876   8.017   4.780   4.484
 6542SOL    HW219877   7.874   4.793   4.530
 6543SOL     OW19878  11.244  12.758   3.617
 6543SOL    HW119879  11.233  12.663   3.621
 6543SOL    HW219880  11.167  12.790   3.570
 6544SOL     OW19881   8.864   4.204   1.172
 6544SOL    HW119882   8.799   4.199   1.103
 6544SOL    HW219883   8.946   4.180   1.129
 6545SOL     OW19884   9.989   5.855   2.048
 6545SOL    HW119885   9.973   5.767   2.015
 6545SOL    HW219886   9.982   5.847   2.143
 6546SOL     OW19887   9.445  12.770   6.897
 6546SOL    HW119888   9.442  12.731   6.809
 6546SOL    HW219889   9.512  12.719   6.943
 6547SOL     OW19890  12.022  13.048   6.690
 6547SOL    HW119891  12.041  13.131   6.647
 6547SOL    HW219892  12.102  12.997   6.681
 6548SOL     OW19893   8.491   4.206   4.877
 6548SOL    HW119894   8.401   4.226   4.852
 6548SOL    HW219895   8.486   4.123   4.925
 6549SOL     OW19896  10.311  10.323   0.699
 6549SOL    HW119897  10.297  10.240   0.653
 6549SOL    HW219898  10.341  10.383   0.631
 6550SOL     OW19899   6.998   2.716   0.464
 6550SOL    HW119900   6.982   2.769   0.386
 6550SOL    HW219901   7.076   2.665   0.443
 6551SOL     OW19902  11.766  11.324   4.548
 6551SOL    HW119903  11.764  11.281   4.463
 6551SOL    HW219904  11.846  11.291   4.590
 6552SOL     OW19905  12.198  10.600   6.774
 6552SOL    HW119906  12.153  10.582   6.692
 6552SOL    HW219907  12.251  10.678   6.756
 6553SOL     OW19908  10.866   3.909   1.419
 6553SOL    HW119909  10.945   3.956   1.444
 6553SOL    HW219910  10.882   3.818   1.445
 6554SOL     OW19911   8.078  11.836   2.886
 6554SOL    HW119912   7.984  11.844   2.872
 6554SOL    HW219913   8.099  11.748   2.855
 6555SOL     OW19914   4.446  10.057   0.579
 6555SOL    HW119915   4.509  10.129   0.573
 6555SOL    HW219916   4.366  10.093   0.539
 6556SOL     OW19917   4.510   3.004   4.092
 6556SOL    HW119918   4.549   2.918   4.108
 6556SOL    HW219919   4.529   3.023   4.000
 6557SOL     OW19920   6.306   5.862   0.697
 6557SOL    HW119921   6.399   5.872   0.678
 6557SOL    HW219922   6.264   5.865   0.611
 6558SOL     OW19923   3.896  12.836   4.148
 6558SOL    HW119924   3.899  12.824   4.053
 6558SOL    HW219925   3.989  12.837   4.174
 6559SOL     OW19926   9.313  10.330   6.181
 6559SOL    HW119927   9.404  10.348   6.204
 6559SOL    HW219928   9.284  10.267   6.247
 6560SOL     OW19929  10.722   0.382   0.343
 6560SOL    HW119930  10.720   0.306   0.285
 6560SOL    HW219931  10.634   0.387   0.380
 6561SOL     OW19932   4.718  13.988   5.055
 6561SOL    HW119933   4.751  13.952   4.973
 6561SOL    HW219934   4.785  14.051   5.083
 6562SOL     OW19935   4.721  11.123   5.097
 6562SOL    HW119936   4.659  11.146   5.166
 6562SOL    HW219937   4.804  11.110   5.143
 6563SOL     OW19938  11.883   9.067   6.266
 6563SOL    HW119939  11.919   9.151   6.235
 6563SOL    HW219940  11.958   9.023   6.307
 6564SOL     OW19941   2.848   5.771   2.136
 6564SOL    HW119942   2.785   5.836   2.166
 6564SOL    HW219943   2.823   5.691   2.182
 6565SOL     OW19944   4.922   9.257   5.201
 6565SOL    HW119945   4.892   9.345   5.221
 6565SOL    HW219946   4.950   9.221   5.285
 6566SOL     OW19947  13.917  14.670   7.468
 6566SOL    HW119948  13.845  14.729   7.446
 6566SOL    HW219949  13.896  14.638   7.556
 6567SOL     OW19950   3.921   8.601   3.343
 6567SOL    HW119951   3.960   8.535   3.401
 6567SOL    HW219952   3.827   8.597   3.361
 6568SOL     OW19953   4.885   2.427   1.407
 6568SOL    HW119954   4.906   2.383   1.325
 6568SOL    HW219955   4.948   2.498   1.413
 6569SOL     OW19956  12.586  12.366   6.112
 6569SOL    HW119957  12.626  12.343   6.195
 6569SOL    HW219958  12.530  12.441   6.132
 6570SOL     OW19959   9.723   9.793   6.488
 6570SOL    HW119960   9.770   9.759   6.563
 6570SOL    HW219961   9.631   9.782   6.510
 6571SOL     OW19962   6.321   8.128   7.092
 6571SOL    HW119963   6.404   8.091   7.122
 6571SOL    HW219964   6.343   8.170   7.009
 6572SOL     OW19965   7.305  12.890   4.075
 6572SOL    HW119966   7.279  12.851   4.158
 6572SOL    HW219967   7.346  12.818   4.027
 6573SOL     OW19968  10.795   1.647   0.649
 6573SOL    HW119969  10.855   1.672   0.579
 6573SOL    HW219970  10.765   1.730   0.686
 6574SOL     OW19971  10.064   9.861   5.593
 6574SOL    HW119972  10.028   9.779   5.561
 6574SOL    HW219973   9.997   9.927   5.573
 6575SOL     OW19974   5.043   3.356   2.019
 6575SOL    HW119975   5.086   3.386   1.938
 6575SOL    HW219976   5.065   3.423   2.083
 6576SOL     OW19977   8.703   7.446   2.745
 6576SOL    HW119978   8.680   7.368   2.695
 6576SOL    HW219979   8.798   7.446   2.747
 6577SOL     OW19980   6.230   8.639   5.334
 6577SOL    HW119981   6.317   8.621   5.372
 6577SOL    HW219982   6.219   8.572   5.266
 6578SOL     OW19983   9.565  11.693   7.472
 6578SOL    HW119984   9.647  11.719   7.513
 6578SOL    HW219985   9.501  11.757   7.503
 6579SOL     OW19986  12.958  13.577   4.972
 6579SOL    HW119987  13.002  13.492   4.972
 6579SOL    HW219988  12.909  13.579   4.890
 6580SOL     OW19989   5.102  11.782   3.383
 6580SOL    HW119990   5.107  11.806   3.476
 6580SOL    HW219991   5.175  11.829   3.342
 6581SOL     OW19992  11.586  10.186   5.135
 6581SOL    HW119993  11.530  10.134   5.193
 6581SOL    HW219994  11.662  10.209   5.189
 6582SOL     OW19995   6.764   8.690   0.083
 6582SOL    HW119996   6.708   8.615   0.066
 6582SOL    HW219997   6.756   8.705   0.177
 6583SOL     OW19998   2.092   2.157   1.762
 6583SOL    HW119999   2.177   2.171   1.721
 6583SOL    HW220000   2.048   2.093   1.707
 6584SOL     OW20001   5.269   8.770   0.335
 6584SOL    HW120002   5.253   8.760   0.241
 6584SOL    HW220003   5.300   8.860   0.344
 6585SOL     OW20004  13.441  12.084   7.457
 6585SOL    HW120005  13.450  12.067   7.363
 6585SOL    HW220006  13.386  12.162   7.462
 6586SOL     OW20007  10.418   8.963   3.553
 6586SOL    HW120008  10.463   8.923   3.479
 6586SOL    HW220009  10.338   9.000   3.516
 6587SOL     OW20010  14.247   8.387   7.205
 6587SOL    HW120011  14.300   8.307   7.200
 6587SOL    HW220012  14.308   8.458   7.187
 6588SOL     OW20013   9.308   7.471   5.119
 6588SOL    HW120014   9.306   7.380   5.092
 6588SOL    HW220015   9.305   7.521   5.038
 6589SOL     OW20016   9.699   5.181   5.243
 6589SOL    HW120017   9.646   5.117   5.196
 6589SOL    HW220018   9.655   5.265   5.227
 6590SOL     OW20019   8.287   3.606   3.290
 6590SOL    HW120020   8.318   3.535   3.235
 6590SOL    HW220021   8.366   3.646   3.325
 6591SOL     OW20022  10.616   1.982   0.519
 6591SOL    HW120023  10.571   1.924   0.458
 6591SOL    HW220024  10.585   2.070   0.495
 6592SOL     OW20025   4.325  11.841   1.589
 6592SOL    HW120026   4.242  11.888   1.576
 6592SOL    HW220027   4.334  11.786   1.511
 6593SOL     OW20028   5.219   5.720   5.132
 6593SOL    HW120029   5.224   5.653   5.200
 6593SOL    HW220030   5.298   5.772   5.144
 6594SOL     OW20031   1.298   5.644   0.148
 6594SOL    HW120032   1.213   5.603   0.130
 6594SOL    HW220033   1.281   5.706   0.219
 6595SOL     OW20034   4.350  12.007   3.129
 6595SOL    HW120035   4.389  11.925   3.160
 6595SOL    HW220036   4.419  12.046   3.075
 6596SOL     OW20037  11.019  15.141   7.273
 6596SOL    HW120038  11.014  15.172   7.182
 6596SOL    HW220039  11.111  15.149   7.296
 6597SOL     OW20040   7.039   6.197   3.129
 6597SOL    HW120041   6.974   6.242   3.075
 6597SOL    HW220042   6.993   6.179   3.211
 6598SOL     OW20043   9.307   5.697   0.964
 6598SOL    HW120044   9.300   5.619   1.020
 6598SOL    HW220045   9.319   5.662   0.876
 6599SOL     OW20046   7.878   8.689   6.432
 6599SOL    HW120047   7.887   8.598   6.460
 6599SOL    HW220048   7.953   8.704   6.374
 6600SOL     OW20049  11.156   8.887   2.365
 6600SOL    HW120050  11.070   8.921   2.343
 6600SOL    HW220051  11.178   8.828   2.294
 6601SOL     OW20052   7.363   7.887   0.010
 6601SOL    HW120053  12.824  13.304   7.576
 6601SOL    HW220054   7.401   7.865   0.094
 6602SOL     OW20055   5.182   5.252   0.202
 6602SOL    HW120056   5.266   5.220   0.236
 6602SOL    HW220057   5.172   5.339   0.240
 6603SOL     OW20058   6.465  13.258   4.823
 6603SOL    HW120059   6.515  13.177   4.831
 6603SOL    HW220060   6.520  13.324   4.864
 6604SOL     OW20061   5.447  12.363   4.925
 6604SOL    HW120062   5.413  12.376   5.014
 6604SOL    HW220063   5.394  12.421   4.870
 6605SOL     OW20064   7.504  13.060   5.020
 6605SOL    HW120065   7.446  13.084   5.092
 6605SOL    HW220066   7.577  13.014   5.062
 6606SOL     OW20067   7.936   9.351   5.561
 6606SOL    HW120068   8.019   9.351   5.608
 6606SOL    HW220069   7.896   9.266   5.582
 6607SOL     OW20070   6.788  10.204   0.783
 6607SOL    HW120071   6.818  10.187   0.873
 6607SOL    HW220072   6.704  10.158   0.777
 6608SOL     OW20073   1.758   8.733   1.890
 6608SOL    HW120074   1.782   8.640   1.887
 6608SOL    HW220075   1.822   8.776   1.833
 6609SOL     OW20076  10.756   2.790   2.257
 6609SOL    HW120077  10.833   2.739   2.281
 6609SOL    HW220078  10.771   2.876   2.297
 6610SOL     OW20079   6.756  10.595   3.160
 6610SOL    HW120080   6.729  10.537   3.232
 6610SOL    HW220081   6.697  10.573   3.088
 6611SOL     OW20082   4.470  14.043   5.828
 6611SOL    HW120083   4.507  14.088   5.903
 6611SOL    HW220084   4.464  14.110   5.760
 6612SOL     OW20085   9.483   6.281   6.988
 6612SOL    HW120086   9.542   6.233   7.046
 6612SOL    HW220087   9.513   6.259   6.900
 6613SOL     OW20088   5.324   5.858   2.791
 6613SOL    HW120089   5.317   5.917   2.866
 6613SOL    HW220090   5.412   5.820   2.799
 6614SOL     OW20091  13.154  10.029   4.317
 6614SOL    HW120092  13.111  10.036   4.231
 6614SOL    HW220093  13.235  10.078   4.306
 6615SOL     OW20094   4.405  11.710   2.916
 6615SOL    HW120095   4.469  11.756   2.862
 6615SOL    HW220096   4.320  11.744   2.888
 6616SOL     OW20097   6.456   6.099   0.535
 6616SOL    HW120098   6.491   6.178   0.495
 6616SOL    HW220099   6.435   6.041   0.462
 6617SOL     OW20100   9.439   0.602   0.348
 6617SOL    HW120101   9.453   0.575   0.257
 6617SOL    HW220102   9.345   0.590   0.362
 6618SOL     OW20103   8.095   2.450   0.890
 6618SOL    HW120104   8.133   2.366   0.916
 6618SOL    HW220105   8.168   2.512   0.898
 6619SOL     OW20106  10.432  14.402   6.779
 6619SOL    HW120107  10.476  14.409   6.695
 6619SOL    HW220108  10.350  14.449   6.768
 6620SOL     OW20109   2.060   8.864   1.411
 6620SOL    HW120110   2.077   8.900   1.324
 6620SOL    HW220111   2.037   8.940   1.464
 6621SOL     OW20112   5.239   3.571   4.032
 6621SOL    HW120113   5.254   3.532   4.118
 6621SOL    HW220114   5.147   3.594   4.032
 6622SOL     OW20115  12.104   6.921   4.296
 6622SOL    HW120116  12.072   6.910   4.385
 6622SOL    HW220117  12.199   6.920   4.303
 6623SOL     OW20118   7.831   6.690   1.018
 6623SOL    HW120119   7.803   6.648   0.936
 6623SOL    HW220120   7.840   6.783   0.995
 6624SOL     OW20121  11.160   3.726   1.594
 6624SOL    HW120122  11.200   3.743   1.509
 6624SOL    HW220123  11.119   3.809   1.619
 6625SOL     OW20124   7.401   7.346   5.961
 6625SOL    HW120125   7.379   7.285   5.891
 6625SOL    HW220126   7.317   7.368   6.001
 6626SOL     OW20127   4.774   5.258   2.999
 6626SOL    HW120128   4.761   5.165   3.014
 6626SOL    HW220129   4.688   5.290   2.971
 6627SOL     OW20130  12.352  12.048   7.088
 6627SOL    HW120131  12.280  12.094   7.046
 6627SOL    HW220132  12.314  11.963   7.114
 6628SOL     OW20133   6.417   2.123   1.957
 6628SOL    HW120134   6.324   2.141   1.972
 6628SOL    HW220135   6.423   2.027   1.958
 6629SOL     OW20136   7.083   3.580   1.282
 6629SOL    HW120137   7.159   3.596   1.337
 6629SOL    HW220138   7.106   3.619   1.198
 6630SOL     OW20139  12.883  11.921   5.712
 6630SOL    HW120140  12.915  12.012   5.709
 6630SOL    HW220141  12.863  11.900   5.621
 6631SOL     OW20142   9.850  11.627   5.926
 6631SOL    HW120143   9.827  11.706   5.877
 6631SOL    HW220144   9.908  11.579   5.867
 6632SOL     OW20145   2.029   4.979   0.061
 6632SOL    HW120146   2.114   4.979   0.017
 6632SOL    HW220147   2.032   5.053   0.121
 6633SOL     OW20148  12.732   7.831   5.030
 6633SOL    HW120149  12.724   7.902   5.095
 6633SOL    HW220150  12.776   7.871   4.956
 6634SOL     OW20151   7.457   5.702   4.179
 6634SOL    HW120152   7.388   5.689   4.244
 6634SOL    HW220153   7.417   5.677   4.096
 6635SOL     OW20154  11.300  12.524   7.089
 6635SOL    HW120155  11.228  12.552   7.032
 6635SOL    HW220156  11.285  12.430   7.102
 6636SOL     OW20157   3.177   6.668   1.239
 6636SOL    HW120158   3.093   6.622   1.229
 6636SOL    HW220159   3.241   6.612   1.195
 6637SOL     OW20160   7.213   6.345   0.599
 6637SOL    HW120161   7.182   6.262   0.562
 6637SOL    HW220162   7.174   6.349   0.686
 6638SOL     OW20163  13.088  11.553   3.492
 6638SOL    HW120164  12.993  11.545   3.501
 6638SOL    HW220165  13.101  11.639   3.453
 6639SOL     OW20166   6.481   9.241   3.793
 6639SOL    HW120167   6.404   9.189   3.771
 6639SOL    HW220168   6.548   9.177   3.816
 6640SOL     OW20169   5.924   8.340   2.780
 6640SOL    HW120170   5.988   8.396   2.737
 6640SOL    HW220171   5.919   8.374   2.870
 6641SOL     OW20172   4.264  10.071   3.129
 6641SOL    HW120173   4.188  10.113   3.170
 6641SOL    HW220174   4.334  10.135   3.137
 6642SOL     OW20175   8.878   8.429   4.405
 6642SOL    HW120176   8.874   8.435   4.310
 6642SOL    HW220177   8.788   8.410   4.431
 6643SOL     OW20178  12.251   7.648   2.750
 6643SOL    HW120179  12.300   7.728   2.734
 6643SOL    HW220180  12.307   7.596   2.808
 6644SOL     OW20181   9.418   6.405   6.080
 6644SOL    HW120182   9.331   6.439   6.102
 6644SOL    HW220183   9.479   6.469   6.116
 6645SOL     OW20184  10.375   9.975   0.521
 6645SOL    HW120185  10.411  10.032   0.453
 6645SOL    HW220186  10.283  10.002   0.529
 6646SOL     OW20187  11.710  10.447   6.030
 6646SOL    HW120188  11.727  10.420   6.120
 6646SOL    HW220189  11.775  10.515   6.012
 6647SOL     OW20190   5.624  12.627   6.673
 6647SOL    HW120191   5.659  12.680   6.601
 6647SOL    HW220192   5.641  12.536   6.646
 6648SOL     OW20193  10.679   9.664   2.226
 6648SOL    HW120194  10.744   9.727   2.258
 6648SOL    HW220195  10.713   9.579   2.252
 6649SOL     OW20196  13.459   7.241   5.202
 6649SOL    HW120197  13.455   7.210   5.111
 6649SOL    HW220198  13.468   7.336   5.195
 6650SOL     OW20199  14.811  10.443   6.572
 6650SOL    HW120200  14.842  10.477   6.656
 6650SOL    HW220201  14.854  10.358   6.564
 6651SOL     OW20202  15.427   7.427   7.049
 6651SOL    HW120203  15.370   7.492   7.090
 6651SOL    HW220204  15.510   7.433   7.097
 6652SOL     OW20205  10.172  14.147   7.264
 6652SOL    HW120206  10.142  14.238   7.266
 6652SOL    HW220207  10.120  14.103   7.331
 6653SOL     OW20208   6.475   6.406   1.813
 6653SOL    HW120209   6.448   6.325   1.857
 6653SOL    HW220210   6.570   6.408   1.823
 6654SOL     OW20211  10.674  12.370   7.552
 6654SOL    HW120212  10.626  12.447   7.581
 6654SOL    HW220213  10.613  12.297   7.564
 6655SOL     OW20214   5.518  11.401   4.805
 6655SOL    HW120215   5.522  11.335   4.875
 6655SOL    HW220216   5.430  11.390   4.767
 6656SOL     OW20217  10.470   3.170   0.470
 6656SOL    HW120218  10.432   3.082   0.471
 6656SOL    HW220219  10.401   3.226   0.436
 6657SOL     OW20220   7.861   1.505   1.434
 6657SOL    HW120221   7.784   1.463   1.473
 6657SOL    HW220222   7.861   1.594   1.471
 6658SOL     OW20223   8.076  12.431   5.930
 6658SOL    HW120224   8.136  12.444   6.003
 6658SOL    HW220225   8.115  12.480   5.858
 6659SOL     OW20226   5.519   9.481   3.746
 6659SOL    HW120227   5.423   9.470   3.745
 6659SOL    HW220228   5.535   9.546   3.813
 6660SOL     OW20229   9.220  10.143   5.625
 6660SOL    HW120230   9.258  10.154   5.538
 6660SOL    HW220231   9.189  10.230   5.649
 6661SOL     OW20232   6.472   5.920   7.255
 6661SOL    HW120233   6.401   5.865   7.290
 6661SOL    HW220234   6.451   5.929   7.162
 6662SOL     OW20235   3.592   5.696   0.937
 6662SOL    HW120236   3.585   5.791   0.924
 6662SOL    HW220237   3.506   5.662   0.912
 6663SOL     OW20238   7.720   9.149   1.736
 6663SOL    HW120239   7.696   9.095   1.661
 6663SOL    HW220240   7.810   9.177   1.719
 6664SOL     OW20241  15.278  11.076   7.457
 6664SOL    HW120242  15.238  11.074   7.371
 6664SOL    HW220243  15.268  11.166   7.487
 6665SOL     OW20244   6.971   6.453   0.339
 6665SOL    HW120245   6.933   6.369   0.312
 6665SOL    HW220246   7.024   6.432   0.416
 6666SOL     OW20247   8.055  11.184   5.464
 6666SOL    HW120248   8.018  11.265   5.429
 6666SOL    HW220249   8.057  11.124   5.389
 6667SOL     OW20250   7.446  11.701   4.345
 6667SOL    HW120251   7.484  11.786   4.326
 6667SOL    HW220252   7.470  11.646   4.271
 6668SOL     OW20253   7.109  13.340   5.922
 6668SOL    HW120254   7.030  13.382   5.956
 6668SOL    HW220255   7.120  13.376   5.834
 6669SOL     OW20256   6.553  12.585   6.347
 6669SOL    HW120257   6.643  12.616   6.352
 6669SOL    HW220258   6.555  12.497   6.383
 6670SOL     OW20259   6.499   8.951   1.900
 6670SOL    HW120260   6.576   8.895   1.895
 6670SOL    HW220261   6.488   8.969   1.994
 6671SOL     OW20262  14.090   9.575   6.755
 6671SOL    HW120263  14.041   9.506   6.800
 6671SOL    HW220264  14.135   9.530   6.684
 6672SOL     OW20265   9.687   4.983   3.802
 6672SOL    HW120266   9.597   4.992   3.832
 6672SOL    HW220267   9.696   4.890   3.780
 6673SOL     OW20268  11.954   5.335   2.929
 6673SOL    HW120269  11.881   5.329   2.990
 6673SOL    HW220270  11.971   5.429   2.920
 6674SOL     OW20271   1.890   6.053   1.993
 6674SOL    HW120272   1.901   6.099   2.077
 6674SOL    HW220273   1.926   5.965   2.010
 6675SOL     OW20274   4.922   4.458   1.336
 6675SOL    HW120275   4.905   4.400   1.411
 6675SOL    HW220276   4.944   4.542   1.375
 6676SOL     OW20277  13.750   8.256   6.742
 6676SOL    HW120278  13.742   8.338   6.792
 6676SOL    HW220279  13.755   8.283   6.651
 6677SOL     OW20280  12.637  13.503   6.412
 6677SOL    HW120281  12.663  13.496   6.504
 6677SOL    HW220282  12.663  13.420   6.373
 6678SOL     OW20283  10.253   9.470   7.346
 6678SOL    HW120284  10.298   9.526   7.283
 6678SOL    HW220285  10.285   9.382   7.326
 6679SOL     OW20286   6.729  11.975   7.024
 6679SOL    HW120287   6.782  12.056   7.021
 6679SOL    HW220288   6.714  11.960   7.117
 6680SOL     OW20289  10.240   5.066   5.586
 6680SOL    HW120290  10.319   5.039   5.539
 6680SOL    HW220291  10.171   5.067   5.519
 6681SOL     OW20292  11.757   8.435   5.992
 6681SOL    HW120293  11.839   8.427   6.042
 6681SOL    HW220294  11.688   8.413   6.055
 6682SOL     OW20295  11.366   6.937   5.848
 6682SOL    HW120296  11.360   7.007   5.783
 6682SOL    HW220297  11.456   6.904   5.839
 6683SOL     OW20298  11.678   2.102   2.056
 6683SOL    HW120299  11.646   2.088   1.966
 6683SOL    HW220300  11.768   2.133   2.045
 6684SOL     OW20301   4.868  10.094   3.052
 6684SOL    HW120302   4.798  10.155   3.031
 6684SOL    HW220303   4.909  10.075   2.968
 6685SOL     OW20304   7.107   8.209   4.014
 6685SOL    HW120305   7.082   8.121   3.984
 6685SOL    HW220306   7.117   8.200   4.109
 6686SOL     OW20307  10.157   6.395   0.739
 6686SOL    HW120308  10.249   6.379   0.717
 6686SOL    HW220309  10.117   6.422   0.657
 6687SOL     OW20310  12.444   5.289   5.162
 6687SOL    HW120311  12.465   5.258   5.250
 6687SOL    HW220312  12.457   5.383   5.165
 6688SOL     OW20313   4.546   5.061   1.701
 6688SOL    HW120314   4.535   5.155   1.720
 6688SOL    HW220315   4.641   5.049   1.701
 6689SOL     OW20316   1.555   5.747   0.081
 6689SOL    HW120317   1.466   5.728   0.110
 6689SOL    HW220318   1.607   5.744   0.160
 6690SOL     OW20319  10.204   4.584   0.022
 6690SOL    HW120320  10.223   4.677   0.007
 6690SOL    HW220321  10.165   4.581   0.109
 6691SOL     OW20322   6.873   3.342   2.699
 6691SOL    HW120323   6.806   3.378   2.641
 6691SOL    HW220324   6.826   3.276   2.750
 6692SOL     OW20325   8.179  12.557   4.036
 6692SOL    HW120326   8.267  12.526   4.014
 6692SOL    HW220327   8.125  12.529   3.962
 6693SOL     OW20328  12.798   7.698   6.960
 6693SOL    HW120329  12.805   7.707   7.055
 6693SOL    HW220330  12.879   7.736   6.927
 6694SOL     OW20331   7.356   4.699   1.667
 6694SOL    HW120332   7.445   4.707   1.701
 6694SOL    HW220333   7.346   4.774   1.608
 6695SOL     OW20334  10.421  12.059   7.014
 6695SOL    HW120335  10.397  12.082   7.104
 6695SOL    HW220336  10.353  12.099   6.960
 6696SOL     OW20337   8.262   2.499   3.198
 6696SOL    HW120338   8.234   2.486   3.108
 6696SOL    HW220339   8.348   2.541   3.190
 6697SOL     OW20340   5.141   2.042   2.769
 6697SOL    HW120341   5.203   2.057   2.697
 6697SOL    HW220342   5.070   1.992   2.729
 6698SOL     OW20343   1.677   0.963   0.400
 6698SOL    HW120344   1.645   0.897   0.463
 6698SOL    HW220345   1.598   1.008   0.370
 6699SOL     OW20346   6.939   5.344   0.279
 6699SOL    HW120347   6.853   5.303   0.279
 6699SOL    HW220348   6.971   5.332   0.189
 6700SOL     OW20349   9.704   7.519   6.860
 6700SOL    HW120350   9.746   7.465   6.927
 6700SOL    HW220351   9.767   7.522   6.788
 6701SOL     OW20352   7.987  12.161   2.952
 6701SOL    HW120353   7.917  12.202   2.902
 6701SOL    HW220354   8.026  12.098   2.892
 6702SOL     OW20355  10.462   6.256   5.199
 6702SOL    HW120356  10.459   6.198   5.123
 6702SOL    HW220357  10.482   6.199   5.273
 6703SOL     OW20358   8.972   3.204   4.520
 6703SOL    HW120359   8.947   3.289   4.555
 6703SOL    HW220360   8.891  13.942   4.484
 6704SOL     OW20361  11.319  10.060   2.799
 6704SOL    HW120362  11.368  10.141   2.784
 6704SOL    HW220363  11.277  10.041   2.715
 6705SOL     OW20364   7.960   4.114   5.758
 6705SOL    HW120365   7.956   4.126   5.663
 6705SOL    HW220366   7.995   4.196   5.792
 6706SOL     OW20367   4.314  10.542   0.412
 6706SOL    HW120368   4.343  10.579   0.496
 6706SOL    HW220369   4.295  10.619   0.358
 6707SOL     OW20370  12.962   5.652   4.397
 6707SOL    HW120371  12.877   5.607   4.395
 6707SOL    HW220372  13.025   5.585   4.370
 6708SOL     OW20373  12.442   6.478   2.997
 6708SOL    HW120374  12.465   6.395   2.957
 6708SOL    HW220375  12.449   6.462   3.091
 6709SOL     OW20376   3.958   4.542   5.181
 6709SOL    HW120377   4.046   4.504   5.179
 6709SOL    HW220378   3.913   4.494   5.250
 6710SOL     OW20379  13.448   8.207   5.033
 6710SOL    HW120380  13.439   8.296   5.068
 6710SOL    HW220381  13.470   8.153   5.108
 6711SOL     OW20382  13.027   6.130   4.638
 6711SOL    HW120383  12.963   6.107   4.705
 6711SOL    HW220384  13.053   6.047   4.599
 6712SOL     OW20385  12.947  11.348   6.157
 6712SOL    HW120386  12.938  11.252   6.158
 6712SOL    HW220387  12.985  11.368   6.072
 6713SOL     OW20388   8.865   6.913   4.814
 6713SOL    HW120389   8.856   6.946   4.903
 6713SOL    HW220390   8.808   6.836   4.810
 6714SOL     OW20391  10.521   6.625   0.955
 6714SOL    HW120392  10.456   6.606   0.886
 6714SOL    HW220393  10.598   6.573   0.930
 6715SOL     OW20394   8.290   9.489   3.782
 6715SOL    HW120395   8.205   9.518   3.814
 6715SOL    HW220396   8.317   9.557   3.720
 6716SOL     OW20397   2.071   2.515   2.680
 6716SOL    HW120398   2.121   2.519   2.762
 6716SOL    HW220399   2.060   2.422   2.663
 6717SOL     OW20400   6.326  13.584   5.857
 6717SOL    HW120401   6.370  13.665   5.883
 6717SOL    HW220402   6.391  13.515   5.874
 6718SOL     OW20403  11.946  14.125   7.403
 6718SOL    HW120404  12.018  14.141   7.342
 6718SOL    HW220405  11.891  14.202   7.396
 6719SOL     OW20406  14.071  10.439   5.928
 6719SOL    HW120407  13.996  10.380   5.930
 6719SOL    HW220408  14.139  10.393   5.977
 6720SOL     OW20409   8.043  11.668   6.491
 6720SOL    HW120410   8.070  11.758   6.508
 6720SOL    HW220411   8.108  11.614   6.534
 6721SOL     OW20412   8.841   8.206   0.376
 6721SOL    HW120413   8.853   8.197   0.281
 6721SOL    HW220414   8.891   8.133   0.413
 6722SOL     OW20415  10.588   9.809   3.676
 6722SOL    HW120416  10.627   9.734   3.721
 6722SOL    HW220417  10.547   9.772   3.598
 6723SOL     OW20418  13.233  12.088   5.870
 6723SOL    HW120419  13.273  12.062   5.954
 6723SOL    HW220420  13.139  12.077   5.884
 6724SOL     OW20421  13.391   8.116   4.170
 6724SOL    HW120422  13.385   8.045   4.106
 6724SOL    HW220423  13.425   8.191   4.120
 6725SOL     OW20424   3.264  12.797   3.104
 6725SOL    HW120425   3.277  12.888   3.077
 6725SOL    HW220426   3.260  12.748   3.022
 6726SOL     OW20427  12.767  13.334   4.429
 6726SOL    HW120428  12.707  13.370   4.364
 6726SOL    HW220429  12.712  13.318   4.506
 6727SOL     OW20430   7.265   7.010   6.314
 6727SOL    HW120431   7.250   7.102   6.337
 6727SOL    HW220432   7.285   6.967   6.398
 6728SOL     OW20433  15.284  15.551   7.593
 6728SOL    HW120434  15.200  15.527   7.553
 6728SOL    HW220435  15.342  15.478   7.573
 6729SOL     OW20436  16.017   5.872   7.504
 6729SOL    HW120437  15.980   5.906   7.585
 6729SOL    HW220438   5.290   5.947   7.466
 6730SOL     OW20439   3.531  10.847   1.510
 6730SOL    HW120440   3.479  10.775   1.475
 6730SOL    HW220441   3.595  10.866   1.441
 6731SOL     OW20442   7.985   6.445   3.965
 6731SOL    HW120443   7.908   6.499   3.950
 6731SOL    HW220444   8.009   6.460   4.056
 6732SOL     OW20445   5.344   6.102   1.014
 6732SOL    HW120446   5.339   6.058   1.099
 6732SOL    HW220447   5.376   6.190   1.034
 6733SOL     OW20448  13.741  12.712   6.340
 6733SOL    HW120449  13.770  12.657   6.268
 6733SOL    HW220450  13.647  12.723   6.327
 6734SOL     OW20451   3.206   4.704   2.098
 6734SOL    HW120452   3.157   4.773   2.143
 6734SOL    HW220453   3.164   4.623   2.125
 6735SOL     OW20454   8.674   6.682   3.423
 6735SOL    HW120455   8.657   6.672   3.329
 6735SOL    HW220456   8.769   6.681   3.430
 6736SOL     OW20457   5.693  11.388   1.414
 6736SOL    HW120458   5.714  11.297   1.394
 6736SOL    HW220459   5.613  11.383   1.467
 6737SOL     OW20460   7.393  13.273   6.739
 6737SOL    HW120461   7.337  13.319   6.677
 6737SOL    HW220462   7.334  13.244   6.808
 6738SOL     OW20463   3.231   7.370   1.824
 6738SOL    HW120464   3.271   7.393   1.741
 6738SOL    HW220465   3.151   7.323   1.800
 6739SOL     OW20466  13.480  11.154   5.368
 6739SOL    HW120467  13.525  11.083   5.415
 6739SOL    HW220468  13.427  11.197   5.435
 6740SOL     OW20469  15.271  10.339   7.170
 6740SOL    HW120470  15.362  10.351   7.145
 6740SOL    HW220471  15.271  10.354   7.265
 6741SOL     OW20472   3.540   3.498   3.471
 6741SOL    HW120473   3.464   3.457   3.431
 6741SOL    HW220474   3.598   3.520   3.398
 6742SOL     OW20475  12.326  14.328   6.032
 6742SOL    HW120476  12.413  14.358   6.007
 6742SOL    HW220477  12.331  14.233   6.026
 6743SOL     OW20478  14.834  11.477   7.265
 6743SOL    HW120479  14.805  11.471   7.356
 6743SOL    HW220480  14.777  11.544   7.226
 6744SOL     OW20481   6.235   6.961   2.387
 6744SOL    HW120482   6.265   7.051   2.383
 6744SOL    HW220483   6.294   6.913   2.328
 6745SOL     OW20484   0.904  10.745   0.948
 6745SOL    HW120485   0.886  10.715   0.859
 6745SOL    HW220486   1.000  10.748   0.953
 6746SOL     OW20487   6.112  11.586   7.526
 6746SOL    HW120488   6.176  11.651   7.555
 6746SOL    HW220489   6.078  11.549   7.607
 6747SOL     OW20490  14.074  10.155   5.422
 6747SOL    HW120491  14.128  10.085   5.458
 6747SOL    HW220492  14.034  10.117   5.344
 6748SOL     OW20493  13.258   6.335   6.773
 6748SOL    HW120494  13.241   6.345   6.867
 6748SOL    HW220495  13.349   6.361   6.762
 6749SOL     OW20496  12.141  12.313   5.754
 6749SOL    HW120497  12.139  12.276   5.666
 6749SOL    HW220498  12.221  12.277   5.793
 6750SOL     OW20499   5.828   5.779   1.150
 6750SOL    HW120500   5.796   5.868   1.139
 6750SOL    HW220501   5.923   5.786   1.137
 6751SOL     OW20502  11.480   6.080   5.442
 6751SOL    HW120503  11.572   6.082   5.470
 6751SOL    HW220504  11.482   6.112   5.352
 6752SOL     OW20505   1.004   8.707   0.206
 6752SOL    HW120506   1.054   8.635   0.244
 6752SOL    HW220507   0.989   8.680   0.115
 6753SOL     OW20508   5.457   3.978   0.795
 6753SOL    HW120509   5.390   4.045   0.811
 6753SOL    HW220510   5.420   3.898   0.833
 6754SOL     OW20511  14.535   9.373   6.259
 6754SOL    HW120512  14.609   9.326   6.220
 6754SOL    HW220513  14.527   9.453   6.208
 6755SOL     OW20514   6.234   8.685   3.447
 6755SOL    HW120515   6.268   8.596   3.452
 6755SOL    HW220516   6.310   8.740   3.427
 6756SOL     OW20517  10.251  12.659   5.103
 6756SOL    HW120518  10.339  12.677   5.135
 6756SOL    HW220519  10.203  12.740   5.117
 6757SOL     OW20520   0.738   1.202   0.449
 6757SOL    HW120521   0.704   1.174   0.364
 6757SOL    HW220522   0.720   1.296   0.451
 6758SOL     OW20523   7.676  10.333   4.142
 6758SOL    HW120524   7.741  10.314   4.074
 6758SOL    HW220525   7.691  10.265   4.209
 6759SOL     OW20526   6.965   8.306   0.517
 6759SOL    HW120527   6.921   8.267   0.441
 6759SOL    HW220528   6.897   8.358   0.560
 6760SOL     OW20529   6.593   8.411   5.713
 6760SOL    HW120530   6.658   8.387   5.779
 6760SOL    HW220531   6.509   8.386   5.753
 6761SOL     OW20532   5.969   7.987   6.731
 6761SOL    HW120533   6.001   8.056   6.788
 6761SOL    HW220534   6.033   7.982   6.660
 6762SOL     OW20535   6.340   9.596   1.563
 6762SOL    HW120536   6.413   9.552   1.519
 6762SOL    HW220537   6.267   9.589   1.502
 6763SOL     OW20538   5.663   6.962   1.910
 6763SOL    HW120539   5.669   7.043   1.960
 6763SOL    HW220540   5.574   6.930   1.926
 6764SOL     OW20541   6.426   8.923   6.877
 6764SOL    HW120542   6.498   8.958   6.825
 6764SOL    HW220543   6.394   8.848   6.827
 6765SOL     OW20544   5.816  12.649   5.799
 6765SOL    HW120545   5.874  12.633   5.874
 6765SOL    HW220546   5.875  12.663   5.725
 6766SOL     OW20547   5.334  11.210   2.286
 6766SOL    HW120548   5.321  11.232   2.378
 6766SOL    HW220549   5.343  11.295   2.242
 6767SOL     OW20550  12.118   7.491   4.038
 6767SOL    HW120551  12.051   7.547   3.998
 6767SOL    HW220552  12.145   7.432   3.967
 6768SOL     OW20553  12.040   7.984   6.984
 6768SOL    HW120554  12.060   8.065   6.937
 6768SOL    HW220555  12.004   7.926   6.918
 6769SOL     OW20556   8.013  11.556   2.097
 6769SOL    HW120557   7.978  11.626   2.152
 6769SOL    HW220558   8.003  11.589   2.008
 6770SOL     OW20559   3.299   9.385   3.146
 6770SOL    HW120560   3.297   9.292   3.170
 6770SOL    HW220561   3.209   9.415   3.159
 6771SOL     OW20562   5.937   4.660   2.270
 6771SOL    HW120563   5.962   4.682   2.360
 6771SOL    HW220564   5.985   4.580   2.251
 6772SOL     OW20565   4.296  14.520   6.008
 6772SOL    HW120566  15.047  14.578   6.081
 6772SOL    HW220567   4.390  14.532   5.997
 6773SOL     OW20568   8.123   5.296   7.384
 6773SOL    HW120569   8.067  16.031   7.451
 6773SOL    HW220570   8.123   5.389   7.404
 6774SOL     OW20571   3.772   2.226   2.253
 6774SOL    HW120572   3.780   2.284   2.328
 6774SOL    HW220573   3.788   2.138   2.288
 6775SOL     OW20574   5.234   5.392   6.853
 6775SOL    HW120575   5.180   5.314   6.843
 6775SOL    HW220576   5.194   5.440   6.927
 6776SOL     OW20577   5.563   0.576   0.691
 6776SOL    HW120578   5.640   0.628   0.666
 6776SOL    HW220579   5.593   0.485   0.683
 6777SOL     OW20580  10.967  10.245   2.882
 6777SOL    HW120581  10.889  10.201   2.847
 6777SOL    HW220582  11.029  10.174   2.898
 6778SOL     OW20583   1.258   9.084   1.772
 6778SOL    HW120584   1.344   9.093   1.733
 6778SOL    HW220585  12.049   9.052   1.861
 6779SOL     OW20586   8.234   8.046   2.597
 6779SOL    HW120587   8.259   7.957   2.573
 6779SOL    HW220588   8.273   8.100   2.528
 6780SOL     OW20589   1.951   6.256   1.360
 6780SOL    HW120590   2.045   6.272   1.355
 6780SOL    HW220591   1.919   6.318   1.426
 6781SOL     OW20592  10.893  11.379   0.976
 6781SOL    HW120593  10.863   0.684   0.932
 6781SOL    HW220594  10.817  11.321   0.975
 6782SOL     OW20595   8.194   1.092   0.159
 6782SOL    HW120596   8.264   1.144   0.119
 6782SOL    HW220597   8.180   1.020   0.098
 6783SOL     OW20598   7.243   7.833   2.241
 6783SOL    HW120599   7.237   7.906   2.180
 6783SOL    HW220600   7.293   7.767   2.194
 6784SOL     OW20601   4.982   8.619   3.969
 6784SOL    HW120602   4.960   8.632   3.876
 6784SOL    HW220603   5.063   8.669   3.981
 6785SOL     OW20604   6.778   6.197   2.578
 6785SOL    HW120605   6.842   6.264   2.602
 6785SOL    HW220606   6.810   6.117   2.620
 6786SOL     OW20607  11.914   8.767   3.572
 6786SOL    HW120608  11.820   8.757   3.584
 6786SOL    HW220609  11.922   8.822   3.494
 6787SOL     OW20610   5.857  12.385   4.241
 6787SOL    HW120611   5.799  12.324   4.197
 6787SOL    HW220612   5.940  12.379   4.194
 6788SOL     OW20613   5.904   2.357   0.207
 6788SOL    HW120614   5.945   2.439   0.234
 6788SOL    HW220615   5.811   2.377   0.199
 6789SOL     OW20616   8.001   4.474   3.547
 6789SOL    HW120617   7.981   4.383   3.526
 6789SOL    HW220618   8.003   4.477   3.642
 6790SOL     OW20619  15.445   8.007   6.632
 6790SOL    HW120620   4.745   8.063   6.615
 6790SOL    HW220621   4.701   7.919   6.611
 6791SOL     OW20622   7.939   5.501   2.339
 6791SOL    HW120623   8.023   5.471   2.374
 6791SOL    HW220624   7.912   5.432   2.278
 6792SOL     OW20625   5.939   4.970   2.247
 6792SOL    HW120626   5.983   5.049   2.278
 6792SOL    HW220627   6.003   4.927   2.190
 6793SOL     OW20628   3.304   2.893   1.141
 6793SOL    HW120629   3.230   2.911   1.199
 6793SOL    HW220630   3.375   2.869   1.200
 6794SOL     OW20631   3.975   3.032   1.462
 6794SOL    HW120632   3.973   2.939   1.441
 6794SOL    HW220633   4.011   3.075   1.384
 6795SOL     OW20634   4.025   2.810   0.267
 6795SOL    HW120635   4.069   2.761   0.336
 6795SOL    HW220636   3.968   2.746   0.224
 6796SOL     OW20637   5.398   9.713   0.920
 6796SOL    HW120638   5.383   9.803   0.947
 6796SOL    HW220639   5.493   9.703   0.918
 6797SOL     OW20640   9.345   7.193   5.958
 6797SOL    HW120641   9.402   7.151   5.894
 6797SOL    HW220642   9.332   7.126   6.025
 6798SOL     OW20643  13.676  11.800   4.827
 6798SOL    HW120644  13.636  11.879   4.864
 6798SOL    HW220645  13.768  11.806   4.851
 6799SOL     OW20646   8.523  11.879   5.704
 6799SOL    HW120647   8.458  11.877   5.633
 6799SOL    HW220648   8.603  11.844   5.664
 6800SOL     OW20649   4.807   8.782   1.624
 6800SOL    HW120650   4.851   8.806   1.542
 6800SOL    HW220651   4.858   8.827   1.692
 6801SOL     OW20652  13.280   6.602   7.077
 6801SOL    HW120653  13.343   6.541   7.115
 6801SOL    HW220654  13.266   6.570   6.988
 6802SOL     OW20655   5.613  12.198   6.139
 6802SOL    HW120656   5.529  12.163   6.169
 6802SOL    HW220657   5.619  12.284   6.182
 6803SOL     OW20658   7.117   8.049   7.038
 6803SOL    HW120659   7.155   8.107   7.105
 6803SOL    HW220660   7.132   8.096   6.956
 6804SOL     OW20661   5.260   5.338   6.378
 6804SOL    HW120662   5.325   5.375   6.439
 6804SOL    HW220663   5.186   5.314   6.434
 6805SOL     OW20664  10.413  11.283   3.149
 6805SOL    HW120665  10.423  11.238   3.232
 6805SOL    HW220666  10.450  11.224   3.084
 6806SOL     OW20667   7.594   6.397   6.065
 6806SOL    HW120668   7.677   6.445   6.069
 6806SOL    HW220669   7.600   6.333   6.135
 6807SOL     OW20670   3.733   2.945   3.316
 6807SOL    HW120671   3.827   2.941   3.335
 6807SOL    HW220672   3.691   2.951   3.402
 6808SOL     OW20673   5.758   9.823   3.286
 6808SOL    HW120674   5.771   9.827   3.381
 6808SOL    HW220675   5.802   9.743   3.259
 6809SOL     OW20676   9.553   9.925   6.802
 6809SOL    HW120677   9.551   9.872   6.882
 6809SOL    HW220678   9.594  10.007   6.828
 6810SOL     OW20679   4.309   6.298   3.228
 6810SOL    HW120680   4.371   6.275   3.158
 6810SOL    HW220681   4.303   6.219   3.282
 6811SOL     OW20682   3.959   9.454   4.821
 6811SOL    HW120683   3.924   9.368   4.842
 6811SOL    HW220684   3.958   9.501   4.905
 6812SOL     OW20685   6.303   8.322   5.521
 6812SOL    HW120686   6.323   8.237   5.480
 6812SOL    HW220687   6.242   8.301   5.591
 6813SOL     OW20688  12.604  14.520   6.847
 6813SOL    HW120689  12.582  14.611   6.865
 6813SOL    HW220690  12.656  14.523   6.767
 6814SOL     OW20691   3.488   5.894   2.598
 6814SOL    HW120692   3.570   5.873   2.553
 6814SOL    HW220693   3.501   5.983   2.632
 6815SOL     OW20694  10.922   6.172   0.649
 6815SOL    HW120695  10.967   6.111   0.592
 6815SOL    HW220696  10.829   6.151   0.639
 6816SOL     OW20697  12.037  10.454   7.550
 6816SOL    HW120698  12.091  10.490   7.479
 6816SOL    HW220699  11.947  10.465   7.520
 6817SOL     OW20700   1.379   4.617   0.888
 6817SOL    HW120701   1.322   4.624   0.965
 6817SOL    HW220702   1.443   4.550   0.912
 6818SOL     OW20703   7.691   9.551   7.102
 6818SOL    HW120704   7.622   9.486   7.086
 6818SOL    HW220705   7.655   9.633   7.068
 6819SOL     OW20706   8.170  13.428   6.759
 6819SOL    HW120707   8.201  13.342   6.786
 6819SOL    HW220708   8.249  13.476   6.734
 6820SOL     OW20709   4.801   9.810   5.017
 6820SOL    HW120710   4.740   9.737   5.018
 6820SOL    HW220711   4.761   9.874   4.957
 6821SOL     OW20712  10.248   6.541   4.936
 6821SOL    HW120713  10.232   6.623   4.983
 6821SOL    HW220714  10.237   6.473   5.003
 6822SOL     OW20715   6.046  11.384   4.493
 6822SOL    HW120716   6.081  11.319   4.433
 6822SOL    HW220717   6.123  11.418   4.539
 6823SOL     OW20718  12.193  12.802   4.409
 6823SOL    HW120719  12.165  12.718   4.373
 6823SOL    HW220720  12.155  12.867   4.351
 6824SOL     OW20721   2.828   9.568   1.009
 6824SOL    HW120722   2.758   9.508   1.036
 6824SOL    HW220723   2.847   9.544   0.918
 6825SOL     OW20724   6.723  14.412   5.247
 6825SOL    HW120725   6.698  14.374   5.163
 6825SOL    HW220726   6.807  14.372   5.267
 6826SOL     OW20727   8.447  10.776   0.186
 6826SOL    HW120728   8.540  10.799   0.184
 6826SOL    HW220729   8.416  10.812   0.269
 6827SOL     OW20730  11.216  10.928   3.366
 6827SOL    HW120731  11.283  10.905   3.430
 6827SOL    HW220732  11.256  10.908   3.282
 6828SOL     OW20733   6.390   6.372   0.387
 6828SOL    HW120734   6.325   6.314   0.426
 6828SOL    HW220735   6.372   6.370   0.293
 6829SOL     OW20736   6.968   7.730   6.748
 6829SOL    HW120737   6.994   7.661   6.809
 6829SOL    HW220738   7.043   7.740   6.690
 6830SOL     OW20739   5.090   7.815   3.658
 6830SOL    HW120740   5.083   7.775   3.745
 6830SOL    HW220741   5.072   7.742   3.597
 6831SOL     OW20742  11.414   4.959   6.168
 6831SOL    HW120743  11.407   4.873   6.128
 6831SOL    HW220744  11.475   4.948   6.241
 6832SOL     OW20745  10.791   0.625   0.226
 6832SOL    HW120746  10.758   0.538   0.249
 6832SOL    HW220747  10.857   0.644   0.292
 6833SOL     OW20748   8.474  12.943   3.194
 6833SOL    HW120749   8.504  12.855   3.171
 6833SOL    HW220750   8.550  12.984   3.236
 6834SOL     OW20751   8.058   3.729   1.533
 6834SOL    HW120752   8.045   3.642   1.494
 6834SOL    HW220753   8.063   3.713   1.627
 6835SOL     OW20754   5.503   6.668   4.696
 6835SOL    HW120755   5.548   6.726   4.758
 6835SOL    HW220756   5.573   6.621   4.652
 6836SOL     OW20757  11.630   8.223   4.300
 6836SOL    HW120758  11.628   8.216   4.395
 6836SOL    HW220759  11.595   8.310   4.281
 6837SOL     OW20760  12.347   4.370   3.335
 6837SOL    HW120761  12.294   4.349   3.258
 6837SOL    HW220762  12.330   4.462   3.352
 6838SOL     OW20763   1.992  11.367   2.413
 6838SOL    HW120764   1.998  11.298   2.479
 6838SOL    HW220765   2.078  11.370   2.372
 6839SOL     OW20766  10.109   7.809   4.945
 6839SOL    HW120767  10.115   7.746   4.873
 6839SOL    HW220768  10.061   7.883   4.907
 6840SOL     OW20769   8.959   2.697   3.248
 6840SOL    HW120770   8.939   2.660   3.334
 6840SOL    HW220771   9.055   2.694   3.243
 6841SOL     OW20772   2.553  12.397   2.823
 6841SOL    HW120773   2.461  12.378   2.807
 6841SOL    HW220774   2.559  12.493   2.821
 6842SOL     OW20775   2.822   7.300   2.071
 6842SOL    HW120776   2.806   7.209   2.096
 6842SOL    HW220777   2.798   7.350   2.149
 6843SOL     OW20778   2.058  10.965   2.782
 6843SOL    HW120779   2.050  10.884   2.832
 6843SOL    HW220780   2.138  10.953   2.731
 6844SOL     OW20781   8.501  14.417   5.486
 6844SOL    HW120782   8.563  14.344   5.477
 6844SOL    HW220783   8.419  14.375   5.513
 6845SOL     OW20784  11.078   5.535   3.764
 6845SOL    HW120785  11.086   5.595   3.839
 6845SOL    HW220786  11.167   5.501   3.752
 6846SOL     OW20787  12.089   3.108   2.087
 6846SOL    HW120788  12.022   3.048   2.116
 6846SOL    HW220789  12.172   3.063   2.106
 6847SOL     OW20790  11.025   1.253   0.630
 6847SOL    HW120791  10.966   1.242   0.704
 6847SOL    HW220792  11.113   1.254   0.669
 6848SOL     OW20793   6.409  10.607   4.279
 6848SOL    HW120794   6.483  10.621   4.219
 6848SOL    HW220795   6.340  10.665   4.247
 6849SOL     OW20796   8.525   2.354   0.144
 6849SOL    HW120797   8.536   2.405   0.224
 6849SOL    HW220798   8.597   2.291   0.146
 6850SOL     OW20799   3.884   5.369   4.866
 6850SOL    HW120800   3.893   5.412   4.781
 6850SOL    HW220801   3.790   5.371   4.884
 6851SOL     OW20802   4.056  13.993   5.220
 6851SOL    HW120803   4.114  14.058   5.181
 6851SOL    HW220804   3.993  13.972   5.151
 6852SOL     OW20805  10.703   7.049   4.491
 6852SOL    HW120806  10.789   7.087   4.476
 6852SOL    HW220807  10.699   6.974   4.431
 6853SOL     OW20808  14.409   8.479   5.483
 6853SOL    HW120809  14.490   8.442   5.519
 6853SOL    HW220810  14.407   8.569   5.513
 6854SOL     OW20811   9.800  14.664   7.430
 6854SOL    HW120812   9.743  14.597   7.394
 6854SOL    HW220813   9.823  14.719   7.355
 6855SOL     OW20814   4.999  10.872   5.462
 6855SOL    HW120815   5.008  10.858   5.556
 6855SOL    HW220816   4.905  10.881   5.448
 6856SOL     OW20817   8.284   3.298   3.421
 6856SOL    HW120818   8.374   3.328   3.414
 6856SOL    HW220819   8.237   3.342   3.350
 6857SOL     OW20820  11.148  12.613   2.898
 6857SOL    HW120821  11.143  12.595   2.991
 6857SOL    HW220822  11.240  12.595   2.875
 6858SOL     OW20823   9.904   9.504   0.651
 6858SOL    HW120824   9.877   9.495   0.559
 6858SOL    HW220825   9.863   9.586   0.679
 6859SOL     OW20826  10.761   9.349   0.024
 6859SOL    HW120827   5.386  14.650   7.603
 6859SOL    HW220828   5.423  14.795   7.586
 6860SOL     OW20829  10.219   3.447   4.572
 6860SOL    HW120830  10.232   3.528   4.621
 6860SOL    HW220831  10.274   3.456   4.494
 6861SOL     OW20832   6.700   6.207   7.368
 6861SOL    HW120833   6.761   6.151   7.416
 6861SOL    HW220834   6.661   6.148   7.303
 6862SOL     OW20835  14.410   5.387   7.526
 6862SOL    HW120836  14.393  16.078   7.568
 6862SOL    HW220837  14.501   5.382   7.498
 6863SOL     OW20838  14.872  14.136   6.427
 6863SOL    HW120839  14.911  14.075   6.490
 6863SOL    HW220840  14.867  14.219   6.474
 6864SOL     OW20841  11.116   5.726   3.974
 6864SOL    HW120842  11.144   5.742   4.064
 6864SOL    HW220843  11.127   5.810   3.930
 6865SOL     OW20844   4.129  11.537   1.107
 6865SOL    HW120845   4.159  11.589   1.182
 6865SOL    HW220846   4.165   0.809   1.031
 6866SOL     OW20847  13.488   7.877   5.461
 6866SOL    HW120848  13.410   7.889   5.516
 6866SOL    HW220849  13.500   7.783   5.456
 6867SOL     OW20850   3.788   0.970   0.718
 6867SOL    HW120851   3.834   1.031   0.660
 6867SOL    HW220852   3.835   0.976   0.801
 6868SOL     OW20853   7.957  13.067   5.309
 6868SOL    HW120854   7.896  13.088   5.379
 6868SOL    HW220855   7.913  13.096   5.229
 6869SOL     OW20856   4.758   3.620   4.384
 6869SOL    HW120857   4.754   3.529   4.355
 6869SOL    HW220858   4.841   3.627   4.430
 6870SOL     OW20859   6.525   9.132   0.373
 6870SOL    HW120860   6.599   9.128   0.434
 6870SOL    HW220861   6.470   9.058   0.398
 6871SOL     OW20862  10.883   6.488   4.317
 6871SOL    HW120863  10.789   6.503   4.320
 6871SOL    HW220864  10.917   6.535   4.394
 6872SOL     OW20865   3.013  10.986   0.615
 6872SOL    HW120866   3.064  10.905   0.617
 6872SOL    HW220867   3.037  11.027   0.532
 6873SOL     OW20868   9.801   1.979   0.460
 6873SOL    HW120869   9.816   1.901   0.406
 6873SOL    HW220870   9.881   1.987   0.512
 6874SOL     OW20871  11.523   8.678   1.994
 6874SOL    HW120872  11.522   8.754   2.053
 6874SOL    HW220873  11.616   8.661   1.979
 6875SOL     OW20874   3.697   4.012   5.145
 6875SOL    HW120875  14.385   4.045   5.170
 6875SOL    HW220876   3.692   4.001   5.050
 6876SOL     OW20877   5.670   5.074   3.076
 6876SOL    HW120878   5.758   5.108   3.060
 6876SOL    HW220879   5.611   5.139   3.038
 6877SOL     OW20880   7.847   8.919   4.937
 6877SOL    HW120881   7.762   8.890   4.969
 6877SOL    HW220882   7.832   9.010   4.910
 6878SOL     OW20883  12.909   6.278   5.060
 6878SOL    HW120884  12.890   6.371   5.073
 6878SOL    HW220885  12.982   6.277   4.997
 6879SOL     OW20886   4.765   4.167   3.024
 6879SOL    HW120887   4.721   4.165   3.109
 6879SOL    HW220888   4.818   4.087   3.023
 6880SOL     OW20889  13.104  14.690   7.277
 6880SOL    HW120890  13.060  14.774   7.293
 6880SOL    HW220891  13.070  14.661   7.192
 6881SOL     OW20892   2.868   0.647   0.199
 6881SOL    HW120893   2.960   0.642   0.224
 6881SOL    HW220894   2.867   0.624   0.106
 6882SOL     OW20895   5.338   2.691   2.680
 6882SOL    HW120896   5.308   2.675   2.770
 6882SOL    HW220897   5.300   2.776   2.657
 6883SOL     OW20898   3.873  11.302   5.156
 6883SOL    HW120899   3.899  11.327   5.244
 6883SOL    HW220900   3.903  11.212   5.146
 6884SOL     OW20901  11.212   3.536   4.578
 6884SOL    HW120902  11.177   3.579   4.499
 6884SOL    HW220903  11.290   3.490   4.547
 6885SOL     OW20904   2.183   3.716   0.773
 6885SOL    HW120905   2.240   3.793   0.778
 6885SOL    HW220906   2.229   3.649   0.824
 6886SOL     OW20907  12.462   8.623   6.037
 6886SOL    HW120908  12.441   8.715   6.020
 6886SOL    HW220909  12.552   8.613   6.007
 6887SOL     OW20910   8.575   4.789   0.837
 6887SOL    HW120911   8.639   4.848   0.797
 6887SOL    HW220912   8.537   4.840   0.908
 6888SOL     OW20913  13.565  11.219   3.992
 6888SOL    HW120914   2.865  11.279   3.997
 6888SOL    HW220915  13.522  11.241   3.910
 6889SOL     OW20916  12.613   6.739   5.411
 6889SOL    HW120917  12.667   6.819   5.411
 6889SOL    HW220918  12.524   6.771   5.425
 6890SOL     OW20919  11.959   2.084   1.757
 6890SOL    HW120920  11.966   2.121   1.845
 6890SOL    HW220921  11.865   2.084   1.739
 6891SOL     OW20922   3.469   4.488   1.799
 6891SOL    HW120923   3.418   4.408   1.786
 6891SOL    HW220924   3.500   4.482   1.889
 6892SOL     OW20925  13.454   5.173   6.893
 6892SOL    HW120926  13.508   5.107   6.935
 6892SOL    HW220927  13.371   5.171   6.941
 6893SOL     OW20928   8.902   6.612   4.556
 6893SOL    HW120929   8.864   6.535   4.514
 6893SOL    HW220930   8.981   6.580   4.599
 6894SOL     OW20931  12.505   3.735   4.834
 6894SOL    HW120932  12.511   3.641   4.816
 6894SOL    HW220933  12.546   3.746   4.919
 6895SOL     OW20934   4.406   7.809   0.975
 6895SOL    HW120935   4.399   7.808   1.070
 6895SOL    HW220936   4.500   7.821   0.959
 6896SOL     OW20937   9.436  11.265   3.907
 6896SOL    HW120938   9.476  11.287   3.823
 6896SOL    HW220939   9.344  11.251   3.888
 6897SOL     OW20940   8.832   6.147   2.716
 6897SOL    HW120941   8.844   6.154   2.811
 6897SOL    HW220942   8.895   6.080   2.688
 6898SOL     OW20943   7.611  10.838   1.378
 6898SOL    HW120944   7.536  10.784   1.405
 6898SOL    HW220945   7.684  10.776   1.372
 6899SOL     OW20946   5.547   7.403   6.574
 6899SOL    HW120947   5.639   7.387   6.595
 6899SOL    HW220948   5.534   7.361   6.489
 6900SOL     OW20949   8.693  11.422   7.435
 6900SOL    HW120950   8.777  11.381   7.453
 6900SOL    HW220951   8.651  11.430   7.521
 6901SOL     OW20952   8.540   5.014   2.420
 6901SOL    HW120953   8.498   4.962   2.488
 6901SOL    HW220954   8.609   4.958   2.385
 6902SOL     OW20955   5.423  13.001   3.228
 6902SOL    HW120956   5.371  13.009   3.309
 6902SOL    HW220957   5.509  13.034   3.253
 6903SOL     OW20958  11.586   4.025   5.240
 6903SOL    HW120959  11.510   3.968   5.230
 6903SOL    HW220960  11.566   4.101   5.184
 6904SOL     OW20961  14.258   4.057   5.595
 6904SOL    HW120962  14.218   4.015   5.671
 6904SOL    HW220963  14.251   4.151   5.613
 6905SOL     OW20964   4.063   7.700   3.195
 6905SOL    HW120965   4.141   7.715   3.248
 6905SOL    HW220966   4.060   7.774   3.134
 6906SOL     OW20967   5.934  11.030   4.054
 6906SOL    HW120968   5.989  10.976   3.997
 6906SOL    HW220969   5.994  11.097   4.088
 6907SOL     OW20970   7.099  13.362   6.958
 6907SOL    HW120971   7.085  13.367   6.863
 6907SOL    HW220972   7.128  13.271   6.973
 6908SOL     OW20973  10.004  11.276   2.700
 6908SOL    HW120974  10.003  11.366   2.732
 6908SOL    HW220975   9.972  11.224   2.773
 6909SOL     OW20976   5.027   5.599   2.913
 6909SOL    HW120977   5.016   5.694   2.920
 6909SOL    HW220978   4.943   5.568   2.881
 6910SOL     OW20979  11.721   8.059   5.181
 6910SOL    HW120980  11.709   8.118   5.106
 6910SOL    HW220981  11.723   8.117   5.257
 6911SOL     OW20982  11.140   2.796   2.763
 6911SOL    HW120983  11.179   2.823   2.846
 6911SOL    HW220984  11.207   2.815   2.697
 6912SOL     OW20985   5.438   9.488   5.600
 6912SOL    HW120986   5.365   9.485   5.538
 6912SOL    HW220987   5.449   9.581   5.619
 6913SOL     OW20988   7.553  11.617   4.894
 6913SOL    HW120989   7.545  11.536   4.945
 6913SOL    HW220990   7.471  11.621   4.844
 6914SOL     OW20991  11.588  13.188   7.280
 6914SOL    HW120992  11.644  13.254   7.322
 6914SOL    HW220993  11.609  13.196   7.187
 6915SOL     OW20994   9.628  10.873   5.406
 6915SOL    HW120995   9.609  10.836   5.320
 6915SOL    HW220996   9.686  10.808   5.447
 6916SOL     OW20997  12.887  12.939   7.157
 6916SOL    HW120998  12.919  12.849   7.157
 6916SOL    HW220999  12.798  12.933   7.192
 6917SOL     OW21000  10.166  10.278   3.026
 6917SOL    HW121001  10.113  10.226   2.967
 6917SOL    HW221002  10.256  10.264   2.996
 6918SOL     OW21003   7.380  12.522   6.754
 6918SOL    HW121004   7.315  12.558   6.814
 6918SOL    HW221005   7.436  12.597   6.732
 6919SOL     OW21006   5.663   7.168   5.079
 6919SOL    HW121007   5.594   7.143   5.140
 6919SOL    HW221008   5.726   7.096   5.083
 6920SOL     OW21009  15.047  15.104   6.923
 6920SOL    HW121010  15.054  15.134   6.832
 6920SOL    HW221011  15.136  15.114   6.958
 6921SOL     OW21012  14.386  14.059   7.009
 6921SOL    HW121013  14.446  13.989   6.985
 6921SOL    HW221014  14.369  14.105   6.926
 6922SOL     OW21015   3.586   3.615   1.411
 6922SOL    HW121016   3.581   3.522   1.388
 6922SOL    HW221017   3.647   3.652   1.347
 6923SOL     OW21018   4.749  11.038   2.687
 6923SOL    HW121019   4.808  11.075   2.753
 6923SOL    HW221020   4.793  10.958   2.658
 6924SOL     OW21021   9.140   8.723   0.287
 6924SOL    HW121022   9.221   8.672   0.293
 6924SOL    HW221023   9.136   8.770   0.371
 6925SOL     OW21024   8.259  14.070   5.680
 6925SOL    HW121025   8.231  14.089   5.770
 6925SOL    HW221026   8.179  14.044   5.635
 6926SOL     OW21027   8.718   9.499   3.723
 6926SOL    HW121028   8.665   9.575   3.747
 6926SOL    HW221029   8.655   9.431   3.700
 6927SOL     OW21030   3.506   3.622   2.605
 6927SOL    HW121031   3.579   3.594   2.660
 6927SOL    HW221032   3.519   3.716   2.593
 6928SOL     OW21033  14.880   8.110   7.315
 6928SOL    HW121034  14.929   8.049   7.260
 6928SOL    HW221035  14.944   8.139   7.381
 6929SOL     OW21036   2.394   2.249   1.377
 6929SOL    HW121037   2.310   2.290   1.355
 6929SOL    HW221038   2.439   2.313   1.432
 6930SOL     OW21039  10.644   2.678   2.537
 6930SOL    HW121040  10.609   2.589   2.540
 6930SOL    HW221041  10.739   2.667   2.542
 6931SOL     OW21042   5.537  16.057   7.554
 6931SOL    HW121043   0.106  10.720   0.004
 6931SOL    HW221044   5.601  16.004   7.601
 6932SOL     OW21045  11.709   7.336   6.044
 6932SOL    HW121046  11.696   7.326   6.138
 6932SOL    HW221047  11.731   7.248   6.013
 6933SOL     OW21048   9.484   8.434   4.212
 6933SOL    HW121049   9.459   8.342   4.222
 6933SOL    HW221050   9.408   8.476   4.171
 6934SOL     OW21051   6.455   7.392   6.622
 6934SOL    HW121052   6.530   7.333   6.613
 6934SOL    HW221053   6.441   7.426   6.534
 6935SOL     OW21054  12.174   9.590   3.964
 6935SOL    HW121055  12.171   9.609   4.058
 6935SOL    HW221056  12.200   9.673   3.924
 6936SOL     OW21057   7.096  13.334   7.612
 6936SOL    HW121058   7.067  13.396   7.545
 6936SOL    HW221059   7.184  13.308   7.583
 6937SOL     OW21060   5.509   8.662   4.152
 6937SOL    HW121061   5.589   8.609   4.149
 6937SOL    HW221062   5.461   8.637   4.073
 6938SOL     OW21063  12.042   4.295   5.217
 6938SOL    HW121064  11.965   4.242   5.195
 6938SOL    HW221065  12.062   4.341   5.136
 6939SOL     OW21066   8.024   2.675   1.196
 6939SOL    HW121067   7.978   2.743   1.246
 6939SOL    HW221068   8.111   2.711   1.179
 6940SOL     OW21069   6.551   6.544   2.265
 6940SOL    HW121070   6.590   6.470   2.218
 6940SOL    HW221071   6.525   6.605   2.195
 6941SOL     OW21072   8.100  14.447   6.254
 6941SOL    HW121073   8.103  14.352   6.259
 6941SOL    HW221074   8.008  14.469   6.263
 6942SOL     OW21075   4.681   2.233   2.524
 6942SOL    HW121076   4.777   2.229   2.514
 6942SOL    HW221077   4.665   2.208   2.615
 6943SOL     OW21078  13.135   6.905   5.267
 6943SOL    HW121079  13.179   6.824   5.292
 6943SOL    HW221080  13.042   6.881   5.260
 6944SOL     OW21081   5.882   8.107   3.308
 6944SOL    HW121082   5.910   8.118   3.218
 6944SOL    HW221083   5.845   8.192   3.333
 6945SOL     OW21084   7.571  12.758   6.847
 6945SOL    HW121085   7.570  12.744   6.752
 6945SOL    HW221086   7.596  12.850   6.857
 6946SOL     OW21087   8.392   5.499   3.130
 6946SOL    HW121088   8.322   5.441   3.099
 6946SOL    HW221089   8.349   5.558   3.192
 6947SOL     OW21090   2.800   5.775   0.924
 6947SOL    HW121091   2.840   5.702   0.971
 6947SOL    HW221092   2.732   5.807   0.984
 6948SOL     OW21093  11.221  12.089   2.580
 6948SOL    HW121094  11.192  12.113   2.492
 6948SOL    HW221095  11.247  11.997   2.572
 6949SOL     OW21096   2.207   3.608   0.505
 6949SOL    HW121097   2.134   3.561   0.465
 6949SOL    HW221098   2.167   3.682   0.551
 6950SOL     OW21099   7.541   7.120   7.378
 6950SOL    HW121100   7.549   7.177   7.301
 6950SOL    HW221101   7.518   7.034   7.342
 6951SOL     OW21102   9.606   6.486   4.819
 6951SOL    HW121103   9.599   6.413   4.757
 6951SOL    HW221104   9.690   6.472   4.863
 6952SOL     OW21105   6.999   4.424   5.881
 6952SOL    HW121106   6.970   4.405   5.970
 6952SOL    HW221107   6.940   4.491   5.849
 6953SOL     OW21108   9.979   6.536   3.878
 6953SOL    HW121109   9.936   6.591   3.812
 6953SOL    HW221110   9.915   6.530   3.949
 6954SOL     OW21111   6.317  11.718   4.745
 6954SOL    HW121112   6.363  11.636   4.727
 6954SOL    HW221113   6.255  11.696   4.815
 6955SOL     OW21114  13.243   3.513   3.853
 6955SOL    HW121115  13.218   3.587   3.797
 6955SOL    HW221116  13.249   3.551   3.941
 6956SOL     OW21117   3.335  12.161   2.312
 6956SOL    HW121118   3.332  12.219   2.235
 6956SOL    HW221119   3.333  12.073   2.275
 6957SOL     OW21120   9.605   8.039   5.145
 6957SOL    HW121121   9.510   8.030   5.138
 6957SOL    HW221122   9.634   8.051   5.054
 6958SOL     OW21123   4.122  14.369   5.797
 6958SOL    HW121124   4.170  14.348   5.717
 6958SOL    HW221125   4.190  14.379   5.864
 6959SOL     OW21126   2.755   3.511   1.188
 6959SOL    HW121127   2.825   3.564   1.227
 6959SOL    HW221128   2.747   3.543   1.099
 6960SOL     OW21129   8.453   8.487   0.719
 6960SOL    HW121130   8.459   8.406   0.669
 6960SOL    HW221131   8.456   8.459   0.811
 6961SOL     OW21132   5.032   2.743   1.666
 6961SOL    HW121133   5.077   2.688   1.601
 6961SOL    HW221134   4.986   2.809   1.614
 6962SOL     OW21135  12.142  12.317   2.538
 6962SOL    HW121136  12.117  12.358   2.620
 6962SOL    HW221137  12.074  12.253   2.520
 6963SOL     OW21138   6.521  10.312   3.695
 6963SOL    HW121139   6.542  10.363   3.616
 6963SOL    HW221140   6.518  10.377   3.765
 6964SOL     OW21141  12.373   8.087   2.773
 6964SOL    HW121142  12.296   8.068   2.720
 6964SOL    HW221143  12.337   8.114   2.858
 6965SOL     OW21144   6.149   9.235   5.108
 6965SOL    HW121145   6.110   9.322   5.103
 6965SOL    HW221146   6.142   9.201   5.019
 6966SOL     OW21147  15.031  11.078   6.271
 6966SOL    HW121148  14.980  11.118   6.342
 6966SOL    HW221149  14.981  11.000   6.247
 6967SOL     OW21150   6.213   9.365   5.982
 6967SOL    HW121151   6.307   9.373   5.969
 6967SOL    HW221152   6.179   9.454   5.972
 6968SOL     OW21153   6.260   8.607   1.297
 6968SOL    HW121154   6.298   8.686   1.335
 6968SOL    HW221155   6.195   8.639   1.235
 6969SOL     OW21156  13.010   9.491   3.333
 6969SOL    HW121157  13.048   9.578   3.341
 6969SOL    HW221158  12.982   9.468   3.422
 6970SOL     OW21159  10.729   9.252   6.145
 6970SOL    HW121160  10.796   9.185   6.139
 6970SOL    HW221161  10.761   9.311   6.214
 6971SOL     OW21162   7.958   5.469   3.895
 6971SOL    HW121163   7.903   5.431   3.827
 6971SOL    HW221164   7.949   5.563   3.884
 6972SOL     OW21165  11.502   3.488   2.289
 6972SOL    HW121166  11.527   3.546   2.362
 6972SOL    HW221167  11.427   3.532   2.249
 6973SOL     OW21168   4.775   7.658   5.722
 6973SOL    HW121169   4.769   7.753   5.725
 6973SOL    HW221170   4.788   7.631   5.813
 6974SOL     OW21171  12.006   9.301   4.940
 6974SOL    HW121172  12.066   9.330   5.008
 6974SOL    HW221173  12.055   9.232   4.894
 6975SOL     OW21174   5.305   8.802   4.599
 6975SOL    HW121175   5.283   8.806   4.506
 6975SOL    HW221176   5.299   8.892   4.630
 6976SOL     OW21177   4.860   8.316   4.766
 6976SOL    HW121178   4.777   8.305   4.718
 6976SOL    HW221179   4.834   8.315   4.858
 6977SOL     OW21180  10.355   4.759   4.732
 6977SOL    HW121181  10.444   4.794   4.734
 6977SOL    HW221182  10.366   4.664   4.732
 6978SOL     OW21183  11.247  10.589   5.942
 6978SOL    HW121184  11.334  10.601   5.982
 6978SOL    HW221185  11.186  10.615   6.010
 6979SOL     OW21186  11.603   5.148   2.895
 6979SOL    HW121187  11.654   5.103   2.962
 6979SOL    HW221188  11.659   5.144   2.817
 6980SOL     OW21189  11.889   7.030   4.049
 6980SOL    HW121190  11.811   7.078   4.021
 6980SOL    HW221191  11.862   6.985   4.129
 6981SOL     OW21192  11.110   8.529   2.074
 6981SOL    HW121193  11.141   8.496   1.990
 6981SOL    HW221194  11.072   8.615   2.054
 6982SOL     OW21195  15.318   9.353   7.331
 6982SOL    HW121196  15.314   9.427   7.271
 6982SOL    HW221197  15.306   9.276   7.275
 6983SOL     OW21198  11.514   3.902   1.778
 6983SOL    HW121199  11.518   3.985   1.824
 6983SOL    HW221200  11.422   3.893   1.752
 6984SOL     OW21201   2.705   1.393   1.144
 6984SOL    HW121202   2.765   1.360   1.077
 6984SOL    HW221203   2.754   1.381   1.226
 6985SOL     OW21204   8.402   5.661   0.573
 6985SOL    HW121205   8.344   5.699   0.640
 6985SOL    HW221206   8.394   5.567   0.585
 6986SOL     OW21207  12.521   9.509   5.607
 6986SOL    HW121208  12.459   9.456   5.657
 6986SOL    HW221209  12.495   9.497   5.516
 6987SOL     OW21210   9.279  10.797   6.893
 6987SOL    HW121211   9.305  10.717   6.847
 6987SOL    HW221212   9.254  10.767   6.980
 6988SOL     OW21213   7.607   9.166   3.580
 6988SOL    HW121214   7.658   9.132   3.507
 6988SOL    HW221215   7.519   9.130   3.567
 6989SOL     OW21216   7.377   2.397   0.102
 6989SOL    HW121217   7.323   2.324   0.132
 6989SOL    HW221218   7.401   2.443   0.183
 6990SOL     OW21219   9.462   6.437   3.998
 6990SOL    HW121220   9.469   6.355   3.950
 6990SOL    HW221221   9.382   6.428   4.050
 6991SOL     OW21222   4.843   7.831   3.155
 6991SOL    HW121223   4.809   7.870   3.074
 6991SOL    HW221224   4.930   7.869   3.164
 6992SOL     OW21225   9.867  10.444   3.219
 6992SOL    HW121226   9.943  10.388   3.237
 6992SOL    HW221227   9.809  10.390   3.166
 6993SOL     OW21228   8.818   6.922   0.414
 6993SOL    HW121229   8.849   7.012   0.404
 6993SOL    HW221230   8.822   6.905   0.508
 6994SOL     OW21231   9.209   9.332   5.164
 6994SOL    HW121232   9.223   9.360   5.073
 6994SOL    HW221233   9.151   9.399   5.201
 6995SOL     OW21234   2.503   6.941   0.047
 6995SOL    HW121235   2.592   6.975   0.031
 6995SOL    HW221236   2.459   7.010   0.096
 6996SOL     OW21237   6.488   1.667   0.553
 6996SOL    HW121238   6.527   1.643   0.469
 6996SOL    HW221239   6.561   1.661   0.616
 6997SOL     OW21240  13.842  11.795   6.497
 6997SOL    HW121241  13.887  11.716   6.467
 6997SOL    HW221242  13.831  11.848   6.418
 6998SOL     OW21243   2.374   6.027   0.798
 6998SOL    HW121244   2.460   6.033   0.756
 6998SOL    HW221245   2.337   6.115   0.791
 6999SOL     OW21246   4.119   3.568   1.718
 6999SOL    HW121247   4.122   3.662   1.700
 6999SOL    HW221248   4.210   3.543   1.734
 7000SOL     OW21249   9.774   7.182   6.612
 7000SOL    HW121250   9.841   7.197   6.546
 7000SOL    HW221251   9.793   7.095   6.647
 7001SOL     OW21252   4.274   9.723   1.990
 7001SOL    HW121253   4.363   9.755   2.007
 7001SOL    HW221254   4.230   9.730   2.075
 7002SOL     OW21255   6.928  13.913   4.986
 7002SOL    HW121256   6.910  14.005   5.006
 7002SOL    HW221257   6.972  13.915   4.901
 7003SOL     OW21258   3.758   5.885   0.566
 7003SOL    HW121259   3.792   5.970   0.539
 7003SOL    HW221260   3.830   5.845   0.616
 7004SOL     OW21261   9.411  12.446   4.824
 7004SOL    HW121262   9.444  12.454   4.735
 7004SOL    HW221263   9.319  12.422   4.814
 7005SOL     OW21264   6.094   8.655   5.604
 7005SOL    HW121265   6.129   8.634   5.518
 7005SOL    HW221266   6.109   8.576   5.656
 7006SOL     OW21267   9.461  10.696   1.394
 7006SOL    HW121268   9.432  10.686   1.304
 7006SOL    HW221269   9.465  10.791   1.407
 7007SOL     OW21270   8.618   5.660   1.265
 7007SOL    HW121271   8.652   5.573   1.246
 7007SOL    HW221272   8.555   5.677   1.195
 7008SOL     OW21273   8.879   9.444   3.466
 7008SOL    HW121274   8.949   9.462   3.403
 7008SOL    HW221275   8.879   9.520   3.524
 7009SOL     OW21276   3.804   4.471   1.906
 7009SOL    HW121277   3.889   4.427   1.910
 7009SOL    HW221278   3.741   4.402   1.887
 7010SOL     OW21279  10.336   7.023   3.406
 7010SOL    HW121280  10.428   7.047   3.392
 7010SOL    HW221281  10.330   6.932   3.377
 7011SOL     OW21282   6.528   6.512   7.000
 7011SOL    HW121283   6.500   6.497   6.910
 7011SOL    HW221284   6.447   6.525   7.049
 7012SOL     OW21285   8.630   7.801   5.332
 7012SOL    HW121286   8.600   7.843   5.252
 7012SOL    HW221287   8.708   7.752   5.306
 7013SOL     OW21288   7.267  11.259   4.046
 7013SOL    HW121289   7.212  11.278   4.122
 7013SOL    HW221290   7.356  11.255   4.080
 7014SOL     OW21291   9.403  11.117   4.648
 7014SOL    HW121292   9.416  11.078   4.734
 7014SOL    HW221293   9.460  11.194   4.647
 7015SOL     OW21294   3.924  10.978   5.101
 7015SOL    HW121295   3.913  10.888   5.132
 7015SOL    HW221296   3.974  10.969   5.020
 7016SOL     OW21297   7.598  12.671   4.170
 7016SOL    HW121298   7.652  12.704   4.242
 7016SOL    HW221299   7.537  12.611   4.212
 7017SOL     OW21300   6.831  10.118   0.499
 7017SOL    HW121301   6.794  10.195   0.543
 7017SOL    HW221302   6.820  10.136   0.406
 7018SOL     OW21303   6.929   0.748   0.730
 7018SOL    HW121304   6.879   0.773   0.808
 7018SOL    HW221305   6.991   0.681   0.761
 7019SOL     OW21306   8.165   7.489   2.498
 7019SOL    HW121307   8.097   7.465   2.560
 7019SOL    HW221308   8.209   7.406   2.477
 7020SOL     OW21309  14.354  12.982   5.080
 7020SOL    HW121310   3.633  13.030   5.017
 7020SOL    HW221311  14.357  13.034   5.160
 7021SOL     OW21312   9.373   7.883   1.963
 7021SOL    HW121313   9.398   7.800   1.923
 7021SOL    HW221314   9.407   7.879   2.052
 7022SOL     OW21315  12.790   5.625   2.855
 7022SOL    HW121316   2.081   5.578   2.803
 7022SOL    HW221317   1.992   5.701   2.801
 7023SOL     OW21318   7.461  10.755   6.901
 7023SOL    HW121319   7.469  10.660   6.891
 7023SOL    HW221320   7.404  10.765   6.978
 7024SOL     OW21321   5.055   7.348   0.147
 7024SOL    HW121322   5.026   7.257   0.136
 7024SOL    HW221323   5.025   7.372   0.234
 7025SOL     OW21324   3.035  12.122   4.133
 7025SOL    HW121325   2.991  12.190   4.183
 7025SOL    HW221326   2.991  12.121   4.048
 7026SOL     OW21327  12.752   7.961   6.453
 7026SOL    HW121328  12.753   7.877   6.498
 7026SOL    HW221329  12.723   7.941   6.364
 7027SOL     OW21330  15.322   7.242   7.353
 7027SOL    HW121331  15.256   7.206   7.412
 7027SOL    HW221332  15.272   7.296   7.292
 7028SOL     OW21333   2.612  11.864   1.960
 7028SOL    HW121334   2.627  11.844   2.052
 7028SOL    HW221335   2.681  11.927   1.938
 7029SOL     OW21336  15.191  10.059   6.727
 7029SOL    HW121337  15.249   9.999   6.773
 7029SOL    HW221338  15.130  10.090   6.794
 7030SOL     OW21339   3.490   3.736   0.548
 7030SOL    HW121340   3.439   3.715   0.627
 7030SOL    HW221341   3.578   3.703   0.568
 7031SOL     OW21342   1.953   4.639   0.805
 7031SOL    HW121343   2.044   4.609   0.805
 7031SOL    HW221344   1.907   4.575   0.750
 7032SOL     OW21345   3.601   8.860   2.118
 7032SOL    HW121346   3.645   8.912   2.050
 7032SOL    HW221347   3.635   8.772   2.106
 7033SOL     OW21348   4.427   9.741   0.608
 7033SOL    HW121349   4.457   9.721   0.696
 7033SOL    HW221350   4.462   9.829   0.590
 7034SOL     OW21351   9.961   4.689   3.102
 7034SOL    HW121352  10.027   4.704   3.034
 7034SOL    HW221353  10.004   4.632   3.165
 7035SOL     OW21354  10.434  10.521   0.147
 7035SOL    HW121355  10.461  10.577   0.220
 7035SOL    HW221356  10.348  10.487   0.173
 7036SOL     OW21357  11.460   4.364   3.348
 7036SOL    HW121358  11.521   4.390   3.279
 7036SOL    HW221359  11.511   4.308   3.406
 7037SOL     OW21360   9.688   4.716   5.854
 7037SOL    HW121361   9.756   4.650   5.870
 7037SOL    HW221362   9.736   4.797   5.838
 7038SOL     OW21363   6.641  15.009   7.512
 7038SOL    HW121364   6.637  14.917   7.487
 7038SOL    HW221365   6.561  15.047   7.475
 7039SOL     OW21366   6.607   7.978   6.856
 7039SOL    HW121367   6.563   7.943   6.778
 7039SOL    HW221368   6.652   8.057   6.825
 7040SOL     OW21369   2.329   4.576   3.191
 7040SOL    HW121370   2.286   4.491   3.202
 7040SOL    HW221371   2.258   4.636   3.167
 7041SOL     OW21372  10.949  10.252   3.329
 7041SOL    HW121373  10.898  10.199   3.267
 7041SOL    HW221374  11.022  10.285   3.278
 7042SOL     OW21375   1.895   2.388   2.233
 7042SOL    HW121376   1.886   2.306   2.184
 7042SOL    HW221377   1.838   2.450   2.187
 7043SOL     OW21378   8.429   4.677   4.435
 7043SOL    HW121379   8.404   4.635   4.518
 7043SOL    HW221380   8.499   4.621   4.400
 7044SOL     OW21381   6.399  13.544   5.348
 7044SOL    HW121382   6.478  13.594   5.328
 7044SOL    HW221383   6.404  13.526   5.442
 7045SOL     OW21384  12.646  10.628   3.984
 7045SOL    HW121385  12.715  10.681   3.944
 7045SOL    HW221386  12.564  10.673   3.962
 7046SOL     OW21387  11.962   7.098   4.649
 7046SOL    HW121388  12.015   7.152   4.592
 7046SOL    HW221389  11.872   7.113   4.620
 7047SOL     OW21390   2.351   5.230   0.117
 7047SOL    HW121391   2.321   5.204   0.204
 7047SOL    HW221392   2.298   5.307   0.096
 7048SOL     OW21393  11.773   8.776   3.822
 7048SOL    HW121394  11.845   8.774   3.885
 7048SOL    HW221395  11.779   8.692   3.775
 7049SOL     OW21396   6.636  11.676   7.375
 7049SOL    HW121397   6.727  11.705   7.378
 7049SOL    HW221398   6.638  11.588   7.412
 7050SOL     OW21399   3.314   2.690   2.561
 7050SOL    HW121400   3.337   2.759   2.499
 7050SOL    HW221401   3.329   2.728   2.647
 7051SOL     OW21402   2.877   3.779   1.974
 7051SOL    HW121403   2.961   3.816   1.944
 7051SOL    HW221404   2.899   3.731   2.053
 7052SOL     OW21405  10.833   7.707   2.816
 7052SOL    HW121406  10.897   7.675   2.880
 7052SOL    HW221407  10.818   7.633   2.758
 7053SOL     OW21408   6.202   5.030   3.718
 7053SOL    HW121409   6.292   4.999   3.719
 7053SOL    HW221410   6.169   5.011   3.806
 7054SOL     OW21411   6.594  10.841   3.753
 7054SOL    HW121412   6.648  10.795   3.689
 7054SOL    HW221413   6.613  10.798   3.836
 7055SOL     OW21414   2.453   4.270   0.335
 7055SOL    HW121415   2.360   4.259   0.317
 7055SOL    HW221416   2.497   4.245   0.254
 7056SOL     OW21417   9.739   8.174   0.417
 7056SOL    HW121418   9.819   8.220   0.442
 7056SOL    HW221419   9.717   8.121   0.493
 7057SOL     OW21420   3.280   2.779   2.822
 7057SOL    HW121421   3.323   2.854   2.863
 7057SOL    HW221422   3.191   2.780   2.858
 7058SOL     OW21423  13.623  14.213   7.145
 7058SOL    HW121424  13.698  14.243   7.196
 7058SOL    HW221425  13.560  14.181   7.210
 7059SOL     OW21426  11.594   3.504   4.144
 7059SOL    HW121427  11.507   3.465   4.143
 7059SOL    HW221428  11.647   3.442   4.195
 7060SOL     OW21429  11.857  10.863   7.384
 7060SOL    HW121430  11.934  10.810   7.363
 7060SOL    HW221431  11.783  10.807   7.360
 7061SOL     OW21432   1.878   2.277   0.789
 7061SOL    HW121433   1.958   2.317   0.822
 7061SOL    HW221434   1.890   2.273   0.694
 7062SOL     OW21435   2.691   7.826   3.025
 7062SOL    HW121436   2.756   7.896   3.020
 7062SOL    HW221437   2.702   7.788   3.112
 7063SOL     OW21438  13.929  12.302   4.805
 7063SOL    HW121439  13.888  12.291   4.891
 7063SOL    HW221440  13.895  12.229   4.753
 7064SOL     OW21441   8.743   8.607   3.446
 7064SOL    HW121442   8.731   8.657   3.527
 7064SOL    HW221443   8.764   8.519   3.475
 7065SOL     OW21444   7.797   3.531   0.441
 7065SOL    HW121445   7.817   3.538   0.348
 7065SOL    HW221446   7.878   3.499   0.480
 7066SOL     OW21447   7.844   8.713   3.041
 7066SOL    HW121448   7.898   8.635   3.035
 7066SOL    HW221449   7.869   8.754   3.124
 7067SOL     OW21450   8.844   4.578   6.087
 7067SOL    HW121451   8.773   4.553   6.147
 7067SOL    HW221452   8.919   4.595   6.145
 7068SOL     OW21453   9.625   7.897   3.015
 7068SOL    HW121454   9.544   7.917   3.062
 7068SOL    HW221455   9.656   7.982   2.984
 7069SOL     OW21456  10.447   2.941   3.922
 7069SOL    HW121457  10.398   2.864   3.894
 7069SOL    HW221458  10.401   3.015   3.883
 7070SOL     OW21459   5.056   5.191   6.873
 7070SOL    HW121460   5.000   5.267   6.854
 7070SOL    HW221461   4.999   5.115   6.861
 7071SOL     OW21462   4.834   5.349   0.310
 7071SOL    HW121463   4.881   5.367   0.228
 7071SOL    HW221464   4.742   5.346   0.284
 7072SOL     OW21465   5.624   9.048   2.209
 7072SOL    HW121466   5.616   9.009   2.122
 7072SOL    HW221467   5.680   9.124   2.196
 7073SOL     OW21468   6.273   3.187   0.436
 7073SOL    HW121469   6.211   3.136   0.488
 7073SOL    HW221470   6.358   3.147   0.455
 7074SOL     OW21471  10.716  10.521   2.774
 7074SOL    HW121472  10.667  10.451   2.818
 7074SOL    HW221473  10.711  10.595   2.835
 7075SOL     OW21474   6.526   8.846   1.595
 7075SOL    HW121475   6.439   8.809   1.582
 7075SOL    HW221476   6.585   8.785   1.549
 7076SOL     OW21477   8.045  13.372   4.581
 7076SOL    HW121478   7.964  13.391   4.629
 7076SOL    HW221479   8.063  13.280   4.601
 7077SOL     OW21480   7.237  10.454   3.451
 7077SOL    HW121481   7.231  10.438   3.545
 7077SOL    HW221482   7.197  10.377   3.411
 7078SOL     OW21483   6.059   9.498   0.573
 7078SOL    HW121484   6.029   9.535   0.490
 7078SOL    HW221485   6.151   9.524   0.579
 7079SOL     OW21486   9.502   6.325   3.563
 7079SOL    HW121487   9.589   6.340   3.524
 7079SOL    HW221488   9.481   6.407   3.607
 7080SOL     OW21489   8.725   1.195   1.074
 7080SOL    HW121490   8.742   1.135   1.002
 7080SOL    HW221491   8.630   1.192   1.086
 7081SOL     OW21492   6.388   8.546   3.154
 7081SOL    HW121493   6.442   8.624   3.167
 7081SOL    HW221494   6.392   8.500   3.238
 7082SOL     OW21495  10.843  10.188   1.589
 7082SOL    HW121496  10.878  10.243   1.519
 7082SOL    HW221497  10.759  10.156   1.556
 7083SOL     OW21498   8.681   6.001   1.613
 7083SOL    HW121499   8.591   5.971   1.599
 7083SOL    HW221500   8.734   5.922   1.603
 7084SOL     OW21501   7.924   3.900   5.396
 7084SOL    HW121502   7.918  14.646   5.487
 7084SOL    HW221503   7.847   3.861   5.354
 7085SOL     OW21504  11.946   4.768   5.892
 7085SOL    HW121505  11.870   4.821   5.870
 7085SOL    HW221506  11.923   4.679   5.864
 7086SOL     OW21507  10.067   7.292   3.905
 7086SOL    HW121508  10.027   7.354   3.965
 7086SOL    HW221509  10.158   7.321   3.896
 7087SOL     OW21510   6.850   5.470   7.024
 7087SOL    HW121511   6.933   5.510   6.996
 7087SOL    HW221512   6.866   5.376   7.021
 7088SOL     OW21513  13.914   4.447   4.933
 7088SOL    HW121514  13.871   4.461   5.017
 7088SOL    HW221515  13.969   4.370   4.947
 7089SOL     OW21516  12.773   9.176   6.079
 7089SOL    HW121517  12.863   9.208   6.084
 7089SOL    HW221518  12.758   9.133   6.163
 7090SOL     OW21519   7.582   7.241   4.338
 7090SOL    HW121520   7.660   7.293   4.319
 7090SOL    HW221521   7.511   7.287   4.294
 7091SOL     OW21522   8.814   9.692   2.651
 7091SOL    HW121523   8.836   9.644   2.731
 7091SOL    HW221524   8.769   9.627   2.596
 7092SOL     OW21525  14.037  11.495   5.795
 7092SOL    HW121526  13.985  11.568   5.829
 7092SOL    HW221527  13.995  11.416   5.829
 7093SOL     OW21528   4.621   9.199   1.859
 7093SOL    HW121529   4.547   9.159   1.904
 7093SOL    HW221530   4.595   9.202   1.767
 7094SOL     OW21531   1.954   8.419   1.430
 7094SOL    HW121532   1.942   8.436   1.336
 7094SOL    HW221533   1.871   8.444   1.470
 7095SOL     OW21534   4.349   5.609   1.603
 7095SOL    HW121535   4.288   5.598   1.677
 7095SOL    HW221536   4.324   5.540   1.542
 7096SOL     OW21537   3.608   4.778   0.370
 7096SOL    HW121538   3.659   4.761   0.292
 7096SOL    HW221539   3.613   4.873   0.382
 7097SOL     OW21540   5.549   2.448   3.106
 7097SOL    HW121541   5.538   2.430   3.199
 7097SOL    HW221542   5.462   2.432   3.068
 7098SOL     OW21543  13.354  12.977   6.223
 7098SOL    HW121544  13.346  12.886   6.252
 7098SOL    HW221545  13.427  12.976   6.161
 7099SOL     OW21546   9.628   6.169   2.839
 7099SOL    HW121547   9.534   6.168   2.822
 7099SOL    HW221548   9.660   6.246   2.792
 7100SOL     OW21549   9.806   9.201   1.535
 7100SOL    HW121550   9.740   9.151   1.487
 7100SOL    HW221551   9.832   9.270   1.475
 7101SOL     OW21552   5.436   6.035   4.119
 7101SOL    HW121553   5.454   6.114   4.170
 7101SOL    HW221554   5.446   6.063   4.028
 7102SOL     OW21555   8.917   8.773   6.503
 7102SOL    HW121556   8.921   8.821   6.420
 7102SOL    HW221557   8.950   8.685   6.481
 7103SOL     OW21558  10.845  12.925   7.103
 7103SOL    HW121559  10.910  12.978   7.055
 7103SOL    HW221560  10.810  12.985   7.169
 7104SOL     OW21561   4.855  12.652   3.222
 7104SOL    HW121562   4.797  12.695   3.285
 7104SOL    HW221563   4.909  12.592   3.275
 7105SOL     OW21564  13.837   9.736   6.348
 7105SOL    HW121565  13.758   9.776   6.311
 7105SOL    HW221566  13.859   9.792   6.423
 7106SOL     OW21567   3.898   7.215   0.040
 7106SOL    HW121568   9.216  12.579   7.597
 7106SOL    HW221569   9.366  12.575   7.614
 7107SOL     OW21570  11.259   7.935   5.413
 7107SOL    HW121571  11.335   7.966   5.365
 7107SOL    HW221572  11.208   7.886   5.348
 7108SOL     OW21573  10.968   3.484   2.095
 7108SOL    HW121574  11.050   3.519   2.129
 7108SOL    HW221575  10.994   3.429   2.021
 7109SOL     OW21576   3.459   7.232   0.340
 7109SOL    HW121577   3.469   7.213   0.434
 7109SOL    HW221578   3.547   7.223   0.304
 7110SOL     OW21579   5.951   4.745   4.458
 7110SOL    HW121580   6.039   4.707   4.455
 7110SOL    HW221581   5.947   4.788   4.544
 7111SOL     OW21582   3.582   6.526   4.096
 7111SOL    HW121583   3.520   6.599   4.100
 7111SOL    HW221584   3.664   6.565   4.067
 7112SOL     OW21585   6.640  10.877   5.487
 7112SOL    HW121586   6.642  10.793   5.441
 7112SOL    HW221587   6.708  10.870   5.553
 7113SOL     OW21588   5.758   9.953   5.084
 7113SOL    HW121589   5.720   9.867   5.098
 7113SOL    HW221590   5.766   9.991   5.171
 7114SOL     OW21591   3.600   8.208   4.819
 7114SOL    HW121592   3.693   8.189   4.807
 7114SOL    HW221593   3.573   8.249   4.737
 7115SOL     OW21594   7.578   9.350   5.465
 7115SOL    HW121595   7.611   9.354   5.375
 7115SOL    HW221596   7.499   9.405   5.464
 7116SOL     OW21597  13.171  10.318   6.825
 7116SOL    HW121598  13.220  10.282   6.898
 7116SOL    HW221599  13.130  10.242   6.783
 7117SOL     OW21600   4.778   3.679   0.045
 7117SOL    HW121601  10.132   9.088   7.577
 7117SOL    HW221602   4.815   3.761   0.078
 7118SOL     OW21603  11.647   4.501   2.476
 7118SOL    HW121604  11.673   4.591   2.493
 7118SOL    HW221605  11.555   4.506   2.450
 7119SOL     OW21606   4.918  12.430   5.112
 7119SOL    HW121607   4.927  12.471   5.198
 7119SOL    HW221608   4.981  12.476   5.057
 7120SOL     OW21609   4.537   9.453   5.996
 7120SOL    HW121610   4.595   9.492   5.930
 7120SOL    HW221611   4.592   9.443   6.074
 7121SOL     OW21612  10.991   5.203   0.442
 7121SOL    HW121613  11.027   5.229   0.357
 7121SOL    HW221614  10.897   5.223   0.435
 7122SOL     OW21615  12.343   6.711   6.731
 7122SOL    HW121616  12.305   6.624   6.722
 7122SOL    HW221617  12.368   6.736   6.642
 7123SOL     OW21618  10.679   4.819   3.897
 7123SOL    HW121619  10.764   4.817   3.941
 7123SOL    HW221620  10.701   4.829   3.804
 7124SOL     OW21621   3.776  12.199   4.286
 7124SOL    HW121622   3.727  12.162   4.359
 7124SOL    HW221623   3.833  12.265   4.326
 7125SOL     OW21624  12.647  13.319   5.353
 7125SOL    HW121625  12.720  13.362   5.397
 7125SOL    HW221626  12.687  13.252   5.298
 7126SOL     OW21627  11.981   9.937   4.009
 7126SOL    HW121628  11.981   9.988   3.928
 7126SOL    HW221629  12.070   9.948   4.043
 7127SOL     OW21630  12.683  12.517   4.450
 7127SOL    HW121631  12.660  12.425   4.458
 7127SOL    HW221632  12.778  12.518   4.444
 7128SOL     OW21633   9.376   3.940   2.483
 7128SOL    HW121634   9.283   3.941   2.461
 7128SOL    HW221635   9.385   4.003   2.555
 7129SOL     OW21636  13.897   5.674   7.064
 7129SOL    HW121637  13.933   5.701   6.980
 7129SOL    HW221638  13.896   5.754   7.116
 7130SOL     OW21639   5.421   6.095   7.571
 7130SOL    HW121640   0.030   0.662   0.037
 7130SOL    HW221641   5.390   6.183   7.591
 7131SOL     OW21642   7.919  10.410   5.746
 7131SOL    HW121643   7.923  10.406   5.842
 7131SOL    HW221644   7.828  10.432   5.727
 7132SOL     OW21645   9.196   5.788   1.844
 7132SOL    HW121646   9.176   5.881   1.847
 7132SOL    HW221647   9.115   5.747   1.814
 7133SOL     OW21648   4.946   9.157   3.575
 7133SOL    HW121649   4.945   9.068   3.539
 7133SOL    HW221650   4.892   9.208   3.515
 7134SOL     OW21651   3.207   5.741   3.491
 7134SOL    HW121652   3.200   5.752   3.396
 7134SOL    HW221653   3.132   5.789   3.526
 7135SOL     OW21654   0.902   1.652   1.162
 7135SOL    HW121655   0.929   1.663   1.253
 7135SOL    HW221656   0.839   1.581   1.164
 7136SOL     OW21657  12.596  10.075   5.097
 7136SOL    HW121658  12.635  10.157   5.128
 7136SOL    HW221659  12.659  10.040   5.034
 7137SOL     OW21660  10.117   6.754   6.506
 7137SOL    HW121661  10.172   6.797   6.441
 7137SOL    HW221662  10.178   6.725   6.573
 7138SOL     OW21663   4.642   3.371   4.321
 7138SOL    HW121664   4.592   3.414   4.390
 7138SOL    HW221665   4.682   3.295   4.363
 7139SOL     OW21666  11.530  10.247   1.202
 7139SOL    HW121667  11.529  10.280   1.291
 7139SOL    HW221668  11.547  10.324   1.148
 7140SOL     OW21669  13.693   5.848   6.843
 7140SOL    HW121670  13.706   5.941   6.860
 7140SOL    HW221671  13.780   5.816   6.819
 7141SOL     OW21672  11.503   9.515   3.215
 7141SOL    HW121673  11.517   9.572   3.139
 7141SOL    HW221674  11.489   9.576   3.288
 7142SOL     OW21675   2.801   5.174   1.155
 7142SOL    HW121676   2.706   5.183   1.157
 7142SOL    HW221677   2.825   5.188   1.063
 7143SOL     OW21678   3.340   9.570   4.679
 7143SOL    HW121679   3.382   9.596   4.598
 7143SOL    HW221680  14.043   9.633   4.691
 7144SOL     OW21681  11.010   6.655   6.417
 7144SOL    HW121682  10.950   6.629   6.347
 7144SOL    HW221683  11.081   6.699   6.372
 7145SOL     OW21684   6.865   6.315   2.093
 7145SOL    HW121685   6.827   6.368   2.163
 7145SOL    HW221686   6.866   6.226   2.128
 7146SOL     OW21687  13.818   9.475   6.282
 7146SOL    HW121688  13.826   9.570   6.291
 7146SOL    HW221689  13.726   9.457   6.304
 7147SOL     OW21690   3.558  11.018   0.665
 7147SOL    HW121691   3.474  11.052   0.695
 7147SOL    HW221692   3.537  10.968   0.586
 7148SOL     OW21693   8.429   4.579   3.011
 7148SOL    HW121694   8.461   4.626   3.088
 7148SOL    HW221695   8.389   4.500   3.046
 7149SOL     OW21696   6.701   5.006   4.032
 7149SOL    HW121697   6.617   5.029   4.071
 7149SOL    HW221698   6.724   5.083   3.979
 7150SOL     OW21699   2.777   8.943   1.652
 7150SOL    HW121700   2.781   8.869   1.592
 7150SOL    HW221701   2.867   8.974   1.659
 7151SOL     OW21702   4.035   3.948   0.474
 7151SOL    HW121703   4.043   3.964   0.568
 7151SOL    HW221704   3.994   4.027   0.440
 7152SOL     OW21705   5.776  10.661   3.757
 7152SOL    HW121706   5.868  10.682   3.741
 7152SOL    HW221707   5.773  10.566   3.763
 7153SOL     OW21708   6.249   9.320   1.450
 7153SOL    HW121709   6.339   9.294   1.429
 7153SOL    HW221710   6.211   9.346   1.367
 7154SOL     OW21711   9.009   6.047   3.598
 7154SOL    HW121712   8.925   6.092   3.608
 7154SOL    HW221713   9.047   6.048   3.686
 7155SOL     OW21714  10.211   4.414   0.991
 7155SOL    HW121715  10.173   4.501   1.002
 7155SOL    HW221716  10.250   4.416   0.904
 7156SOL     OW21717  11.951  15.223   6.355
 7156SOL    HW121718  12.038  15.216   6.316
 7156SOL    HW221719  11.946   4.539   6.387
 7157SOL     OW21720   3.292   3.016   3.857
 7157SOL    HW121721   3.334   2.941   3.813
 7157SOL    HW221722   3.253   3.066   3.785
 7158SOL     OW21723  10.692  11.337   5.254
 7158SOL    HW121724  10.776  11.382   5.249
 7158SOL    HW221725  10.703  11.271   5.322
 7159SOL     OW21726   9.190  13.069   4.718
 7159SOL    HW121727   9.253  13.136   4.743
 7159SOL    HW221728   9.215  12.992   4.768
 7160SOL     OW21729   8.022   5.309   1.276
 7160SOL    HW121730   7.995   5.396   1.248
 7160SOL    HW221731   8.105   5.295   1.231
 7161SOL     OW21732   7.883   0.915   1.007
 7161SOL    HW121733   7.802   0.942   1.051
 7161SOL    HW221734   7.945   0.984   1.029
 7162SOL     OW21735   4.951  11.754   1.437
 7162SOL    HW121736   5.011   1.047   1.469
 7162SOL    HW221737   4.864  11.785   1.464
 7163SOL     OW21738   6.826  13.303   6.048
 7163SOL    HW121739   6.772  13.226   6.069
 7163SOL    HW221740   6.916  13.271   6.054
 7164SOL     OW21741  10.743   5.956   1.741
 7164SOL    HW121742  10.753   6.051   1.732
 7164SOL    HW221743  10.789   5.935   1.822
 7165SOL     OW21744   3.899  11.406   4.614
 7165SOL    HW121745   3.923  11.356   4.692
 7165SOL    HW221746   3.804  11.416   4.620
 7166SOL     OW21747  14.492   7.209   7.236
 7166SOL    HW121748  14.410   7.208   7.285
 7166SOL    HW221749  14.471   7.164   7.154
 7167SOL     OW21750   4.779   9.891   4.566
 7167SOL    HW121751   4.788   9.965   4.625
 7167SOL    HW221752   4.868   9.874   4.535
 7168SOL     OW21753  12.720   8.849   7.184
 7168SOL    HW121754  12.635   8.869   7.144
 7168SOL    HW221755  12.720   8.899   7.266
 7169SOL     OW21756  11.153  11.634   7.429
 7169SOL    HW121757  11.125  11.613   7.340
 7169SOL    HW221758  11.136  11.727   7.439
 7170SOL     OW21759  12.482   5.033   4.317
 7170SOL    HW121760  12.401   4.994   4.285
 7170SOL    HW221761  12.514   5.085   4.243
 7171SOL     OW21762   8.701   8.591   2.559
 7171SOL    HW121763   8.622   8.541   2.579
 7171SOL    HW221764   8.691   8.672   2.607
 7172SOL     OW21765   4.239   4.859   3.608
 7172SOL    HW121766   4.185   4.804   3.665
 7172SOL    HW221767   4.176   4.902   3.550
 7173SOL     OW21768  11.111   9.378   1.416
 7173SOL    HW121769  11.181   9.390   1.351
 7173SOL    HW221770  11.032   9.406   1.371
 7174SOL     OW21771   3.931   5.177   0.716
 7174SOL    HW121772   3.984   5.118   0.769
 7174SOL    HW221773   3.972   5.174   0.629
 7175SOL     OW21774   8.288   8.656   3.651
 7175SOL    HW121775   8.208   8.604   3.668
 7175SOL    HW221776   8.298   8.710   3.729
 7176SOL     OW21777  13.130   6.061   6.058
 7176SOL    HW121778  13.131   6.123   5.984
 7176SOL    HW221779  13.049   6.012   6.047
 7177SOL     OW21780   7.361   5.584   1.847
 7177SOL    HW121781   7.343   5.663   1.899
 7177SOL    HW221782   7.325   5.604   1.761
 7178SOL     OW21783   3.079  10.667   1.256
 7178SOL    HW121784   3.136  10.732   1.214
 7178SOL    HW221785   3.025  10.718   1.316
 7179SOL     OW21786   2.601  12.151   3.381
 7179SOL    HW121787   2.601  12.175   3.288
 7179SOL    HW221788   2.521  12.190   3.415
 7180SOL     OW21789   7.741  13.184   5.140
 7180SOL    HW121790   7.654  13.198   5.103
 7180SOL    HW221791   7.731  13.106   5.195
 7181SOL     OW21792   4.861   3.255   3.618
 7181SOL    HW121793   4.803   3.265   3.543
 7181SOL    HW221794   4.812   3.200   3.680
 7182SOL     OW21795   5.556  12.966   5.241
 7182SOL    HW121796   5.577  13.016   5.163
 7182SOL    HW221797   5.540  13.032   5.308
 7183SOL     OW21798  13.546   5.318   7.264
 7183SOL    HW121799  13.521   5.404   7.296
 7183SOL    HW221800  13.617   5.335   7.202
 7184SOL     OW21801  13.022  14.312   5.329
 7184SOL    HW121802  13.050  14.362   5.253
 7184SOL    HW221803  13.056  14.361   5.404
 7185SOL     OW21804  10.707   5.509   4.873
 7185SOL    HW121805  10.698   5.557   4.791
 7185SOL    HW221806  10.626   5.459   4.882
 7186SOL     OW21807   9.259  11.661   4.309
 7186SOL    HW121808   9.321  11.637   4.241
 7186SOL    HW221809   9.173  11.638   4.273
 7187SOL     OW21810   9.945   5.866   6.829
 7187SOL    HW121811   9.999   5.894   6.755
 7187SOL    HW221812   9.969   5.774   6.843
 7188SOL     OW21813  10.537  15.398   6.579
 7188SOL    HW121814  10.605   4.690   6.594
 7188SOL    HW221815  10.564  15.355   6.498
 7189SOL     OW21816  11.393   5.519   3.621
 7189SOL    HW121817  11.403   5.589   3.685
 7189SOL    HW221818  11.479   5.477   3.617
 7190SOL     OW21819   1.047  10.436   0.299
 7190SOL    HW121820   1.077  10.388   0.221
 7190SOL    HW221821   1.053  10.528   0.274
 7191SOL     OW21822   6.894   5.866   5.769
 7191SOL    HW121823   6.846   5.915   5.835
 7191SOL    HW221824   6.876   5.774   5.789
 7192SOL     OW21825  12.147  13.786   7.186
 7192SOL    HW121826  12.081  13.732   7.228
 7192SOL    HW221827  12.166  13.855   7.249
 7193SOL     OW21828   4.091   3.789   0.274
 7193SOL    HW121829   4.134   3.848   0.337
 7193SOL    HW221830   4.088   3.839   0.193
 7194SOL     OW21831   6.726   8.043   0.789
 7194SOL    HW121832   6.767   7.962   0.758
 7194SOL    HW221833   6.799   8.102   0.805
 7195SOL     OW21834   7.709  13.388   6.154
 7195SOL    HW121835   7.671  13.451   6.215
 7195SOL    HW221836   7.727  13.311   6.208
 7196SOL     OW21837   9.890   2.942   1.921
 7196SOL    HW121838   9.924   2.863   1.879
 7196SOL    HW221839   9.954   2.963   1.989
 7197SOL     OW21840   8.385   6.904   4.588
 7197SOL    HW121841   8.335   6.942   4.660
 7197SOL    HW221842   8.416   6.980   4.538
 7198SOL     OW21843  14.647   9.932   6.129
 7198SOL    HW121844  14.693   9.849   6.112
 7198SOL    HW221845  14.653   9.979   6.046
 7199SOL     OW21846  10.722  13.121   3.374
 7199SOL    HW121847  10.679  13.062   3.313
 7199SOL    HW221848  10.758   2.416   3.319
 7200SOL     OW21849  10.752  12.141   2.355
 7200SOL    HW121850  10.841  12.173   2.367
 7200SOL    HW221851  10.704  12.217   2.321
 7201SOL     OW21852  14.410   9.587   5.782
 7201SOL    HW121853  14.478   9.647   5.813
 7201SOL    HW221854  14.376   9.547   5.862
 7202SOL     OW21855   2.034   9.807   2.816
 7202SOL    HW121856  12.723   9.770   2.797
 7202SOL    HW221857  12.791   9.881   2.874
 7203SOL     OW21858  10.735   5.692   2.091
 7203SOL    HW121859  10.685   5.730   2.019
 7203SOL    HW221860  10.811   5.652   2.049
 7204SOL     OW21861   8.112   4.276   2.934
 7204SOL    HW121862   8.074   4.339   2.994
 7204SOL    HW221863   8.040   4.249   2.877
 7205SOL     OW21864   7.615   3.713   3.500
 7205SOL    HW121865   7.607   3.682   3.410
 7205SOL    HW221866   7.561   3.652   3.551
 7206SOL     OW21867  14.120   5.006   5.879
 7206SOL    HW121868  14.213   4.998   5.901
 7206SOL    HW221869  14.075   4.952   5.945
 7207SOL     OW21870   6.605  15.329   7.596
 7207SOL    HW121871   6.691  15.371   7.589
 7207SOL    HW221872   1.235   9.858   0.020
 7208SOL     OW21873   4.269  13.065   5.640
 7208SOL    HW121874   4.218  13.075   5.559
 7208SOL    HW221875   4.205  13.040   5.706
 7209SOL     OW21876   1.123   8.334   0.262
 7209SOL    HW121877   1.124   8.272   0.190
 7209SOL    HW221878   1.042   8.384   0.249
 7210SOL     OW21879   8.724   6.080   7.068
 7210SOL    HW121880   8.651   6.142   7.060
 7210SOL    HW221881   8.802   6.136   7.075
 7211SOL     OW21882  10.769   9.909   3.502
 7211SOL    HW121883  10.765  10.004   3.487
 7211SOL    HW221884  10.716   9.895   3.581
 7212SOL     OW21885   9.955   7.035   2.904
 7212SOL    HW121886   9.992   7.123   2.916
 7212SOL    HW221887   9.992   7.005   2.821
 7213SOL     OW21888  11.583   2.972   3.988
 7213SOL    HW121889  11.569   3.035   4.059
 7213SOL    HW221890  11.670   2.936   4.004
 7214SOL     OW21891   2.404   9.089   2.130
 7214SOL    HW121892   2.358   9.161   2.087
 7214SOL    HW221893   2.367   9.010   2.090
 7215SOL     OW21894  11.337   6.340   6.797
 7215SOL    HW121895  11.390   6.350   6.876
 7215SOL    HW221896  11.258   6.391   6.816
 7216SOL     OW21897  11.813   7.972   1.882
 7216SOL    HW121898  11.724   7.988   1.914
 7216SOL    HW221899  11.867   7.972   1.961
 7217SOL     OW21900  11.256   7.239   2.895
 7217SOL    HW121901  11.296   7.297   2.960
 7217SOL    HW221902  11.236   7.159   2.944
 7218SOL     OW21903  15.346  14.963   6.946
 7218SOL    HW121904  15.376  14.873   6.963
 7218SOL    HW221905  15.401  15.017   7.002
 7219SOL     OW21906   8.265   5.241   1.158
 7219SOL    HW121907   8.337   5.182   1.135
 7219SOL    HW221908   8.269   5.311   1.094
 7220SOL     OW21909   5.973  10.331   1.837
 7220SOL    HW121910   5.968  10.426   1.832
 7220SOL    HW221911   5.882  10.303   1.851
 7221SOL     OW21912   8.676  14.997   6.658
 7221SOL    HW121913   8.590  15.034   6.679
 7221SOL    HW221914   8.736  15.071   6.661
 7222SOL     OW21915   2.453   8.910   0.198
 7222SOL    HW121916   2.521   8.976   0.184
 7222SOL    HW221917   2.497   8.826   0.182
 7223SOL     OW21918   5.208  12.207   4.801
 7223SOL    HW121919   5.173  12.295   4.812
 7223SOL    HW221920   5.262  12.212   4.722
 7224SOL     OW21921  10.662   7.173   5.113
 7224SOL    HW121922  10.731   7.210   5.168
 7224SOL    HW221923  10.607   7.124   5.174
 7225SOL     OW21924  11.239  12.021   3.220
 7225SOL    HW121925  11.221  11.935   3.258
 7225SOL    HW221926  11.243  12.005   3.126
 7226SOL     OW21927   8.665   8.135   5.870
 7226SOL    HW121928   8.719   8.194   5.818
 7226SOL    HW221929   8.716   8.054   5.876
 7227SOL     OW21930   8.273  12.168   6.329
 7227SOL    HW121931   8.352  12.126   6.364
 7227SOL    HW221932   8.257  12.242   6.387
 7228SOL     OW21933   6.890  11.736   1.716
 7228SOL    HW121934   6.889  11.667   1.650
 7228SOL    HW221935   6.904  11.689   1.799
 7229SOL     OW21936  12.051  14.081   6.631
 7229SOL    HW121937  12.018  14.140   6.563
 7229SOL    HW221938  12.117  14.132   6.678
 7230SOL     OW21939  10.819   2.226   2.371
 7230SOL    HW121940  10.825   2.225   2.275
 7230SOL    HW221941  10.830   2.134   2.397
 7231SOL     OW21942   4.736  11.769   4.295
 7231SOL    HW121943   4.677  11.700   4.328
 7231SOL    HW221944   4.709  11.848   4.342
 7232SOL     OW21945   9.586  10.191   3.991
 7232SOL    HW121946   9.614  10.193   3.899
 7232SOL    HW221947   9.508  10.246   3.993
 7233SOL     OW21948  11.640  11.589   3.587
 7233SOL    HW121949  11.732  11.614   3.591
 7233SOL    HW221950  11.642  11.495   3.566
 7234SOL     OW21951   9.082   8.579   7.327
 7234SOL    HW121952   8.987   8.585   7.337
 7234SOL    HW221953   9.110   8.519   7.397
 7235SOL     OW21954   0.596   1.708   0.368
 7235SOL    HW121955   0.530   1.758   0.321
 7235SOL    HW221956   0.557   1.692   0.454
 7236SOL     OW21957   8.016  11.067   3.821
 7236SOL    HW121958   8.067  11.139   3.858
 7236SOL    HW221959   8.017  11.000   3.889
 7237SOL     OW21960  12.930  11.805   5.951
 7237SOL    HW121961  12.910  11.849   5.868
 7237SOL    HW221962  12.845  11.791   5.992
 7238SOL     OW21963  11.000   8.011   6.413
 7238SOL    HW121964  11.095   7.998   6.406
 7238SOL    HW221965  10.962   7.940   6.361
 7239SOL     OW21966  10.643  10.164   0.200
 7239SOL    HW121967  10.585  10.116   0.141
 7239SOL    HW221968  10.719  10.186   0.146
 7240SOL     OW21969  10.482  15.142   7.188
 7240SOL    HW121970  10.398  15.146   7.142
 7240SOL    HW221971  10.474  15.208   7.257
 7241SOL     OW21972   6.680   4.822   2.572
 7241SOL    HW121973   6.745   4.891   2.587
 7241SOL    HW221974   6.598   4.858   2.607
 7242SOL     OW21975  11.382  10.367   2.180
 7242SOL    HW121976  11.447  10.307   2.143
 7242SOL    HW221977  11.317  10.309   2.220
 7243SOL     OW21978   8.811   6.925   6.075
 7243SOL    HW121979   8.777   6.977   6.002
 7243SOL    HW221980   8.786   6.835   6.054
 7244SOL     OW21981   0.466   4.921   0.238
 7244SOL    HW121982   0.483   4.831   0.211
 7244SOL    HW221983   0.400   4.913   0.307
 7245SOL     OW21984   1.559  10.813   2.021
 7245SOL    HW121985   1.504  10.745   2.059
 7245SOL    HW221986   1.630  10.824   2.084
 7246SOL     OW21987  13.198  15.510   7.000
 7246SOL    HW121988  13.194  15.576   6.931
 7246SOL    HW221989  13.225  15.558   7.078
 7247SOL     OW21990   8.401   5.858   1.504
 7247SOL    HW121991   8.418   5.882   1.595
 7247SOL    HW221992   8.419   5.763   1.502
 7248SOL     OW21993   9.661   6.034   7.012
 7248SOL    HW121994   9.697   6.079   7.088
 7248SOL    HW221995   9.704   5.948   7.012
 7249SOL     OW21996  14.229  10.647   5.712
 7249SOL    HW121997  14.211  10.584   5.782
 7249SOL    HW221998  14.183  10.612   5.636
 7250SOL     OW21999   6.399   2.672   2.672
 7250SOL    HW122000   6.441   2.712   2.748
 7250SOL    HW222001   6.359   2.745   2.625
 7251SOL     OW22002   9.753   5.974   2.639
 7251SOL    HW122003   9.726   5.893   2.596
 7251SOL    HW222004   9.675   6.003   2.687
 7252SOL     OW22005   4.652   7.629   4.227
 7252SOL    HW122006   4.604   7.659   4.150
 7252SOL    HW222007   4.619   7.541   4.244
 7253SOL     OW22008   3.948  12.395   4.378
 7253SOL    HW122009   3.987  12.354   4.455
 7253SOL    HW222010   4.017  12.452   4.343
 7254SOL     OW22011   8.029  11.459   5.290
 7254SOL    HW122012   7.989  11.473   5.376
 7254SOL    HW222013   8.109  11.513   5.292
 7255SOL     OW22014   3.479   3.875   4.286
 7255SOL    HW122015   3.559   3.826   4.308
 7255SOL    HW222016   3.444   3.903   4.370
 7256SOL     OW22017   4.796  10.376   6.027
 7256SOL    HW122018   4.728  10.419   6.079
 7256SOL    HW222019   4.862  10.444   6.013
 7257SOL     OW22020   9.354   8.150   4.810
 7257SOL    HW122021   9.263   8.121   4.812
 7257SOL    HW222022   9.350   8.242   4.837
 7258SOL     OW22023   7.264   5.846   5.249
 7258SOL    HW122024   7.326   5.798   5.195
 7258SOL    HW222025   7.287   5.823   5.339
 7259SOL     OW22026   3.519   7.431   1.378
 7259SOL    HW122027   3.591   7.421   1.441
 7259SOL    HW222028   3.519   7.524   1.356
 7260SOL     OW22029   9.326  11.616   3.499
 7260SOL    HW122030   9.414  11.654   3.503
 7260SOL    HW222031   9.277  11.662   3.567
 7261SOL     OW22032   5.012   3.327   0.043
 7261SOL    HW122033   4.935   3.307   0.097
 7261SOL    HW222034  10.406   8.640   7.602
 7262SOL     OW22035   7.200   7.855   1.744
 7262SOL    HW122036   7.256   7.834   1.818
 7262SOL    HW222037   7.250   7.828   1.667
 7263SOL     OW22038   9.221  10.860   5.113
 7263SOL    HW122039   9.269  10.788   5.073
 7263SOL    HW222040   9.266  10.877   5.195
 7264SOL     OW22041   2.961   0.536   0.511
 7264SOL    HW122042   2.931   0.543   0.602
 7264SOL    HW222043   3.029   0.603   0.504
 7265SOL     OW22044  12.894  14.109   6.926
 7265SOL    HW122045  12.826  14.123   6.860
 7265SOL    HW222046  12.968  14.162   6.897
 7266SOL     OW22047   8.498   2.881   1.474
 7266SOL    HW122048   8.514   2.792   1.506
 7266SOL    HW222049   8.431   2.870   1.406
 7267SOL     OW22050  12.488   7.306   2.718
 7267SOL    HW122051  12.473   7.212   2.712
 7267SOL    HW222052  12.433   7.344   2.649
 7268SOL     OW22053   7.684  10.205   2.033
 7268SOL    HW122054   7.638  10.265   2.091
 7268SOL    HW222055   7.672  10.241   1.946
 7269SOL     OW22056   8.646   6.372   2.465
 7269SOL    HW122057   8.557   6.338   2.457
 7269SOL    HW222058   8.638   6.448   2.522
 7270SOL     OW22059   2.748   4.906   3.106
 7270SOL    HW122060   2.755   4.962   3.184
 7270SOL    HW222061   2.838   4.884   3.084
 7271SOL     OW22062   6.299   9.546   1.834
 7271SOL    HW122063   6.309   9.587   1.748
 7271SOL    HW222064   6.317   9.616   1.897
 7272SOL     OW22065  10.004   6.632   0.091
 7272SOL    HW122066  10.034   6.701   0.031
 7272SOL    HW222067   9.984   6.678   0.172
 7273SOL     OW22068   2.416  10.261   1.925
 7273SOL    HW122069   2.422  10.320   1.850
 7273SOL    HW222070   2.481  10.193   1.908
 7274SOL     OW22071  10.120  11.022   6.442
 7274SOL    HW122072  10.187  11.005   6.508
 7274SOL    HW222073  10.056  11.077   6.486
 7275SOL     OW22074   0.399   3.798   0.058
 7275SOL    HW122075   0.405   3.702   0.065
 7275SOL    HW222076   0.418   3.829   0.147
 7276SOL     OW22077   8.828  15.632   7.406
 7276SOL    HW122078   8.750  15.664   7.451
 7276SOL    HW222079   8.882  15.710   7.395
 7277SOL     OW22080   2.846   9.093   3.134
 7277SOL    HW122081   2.902   9.071   3.059
 7277SOL    HW222082   2.814   9.181   3.115
 7278SOL     OW22083  10.265  10.016   5.438
 7278SOL    HW122084  10.236   9.935   5.480
 7278SOL    HW222085  10.251  10.001   5.344
 7279SOL     OW22086  10.526   4.696   0.171
 7279SOL    HW122087  10.450   4.687   0.114
 7279SOL    HW222088  10.571   4.775   0.141
 7280SOL     OW22089   7.666   8.576   5.603
 7280SOL    HW122090   7.641   8.492   5.566
 7280SOL    HW222091   7.762   8.576   5.597
 7281SOL     OW22092  11.990   5.047   2.952
 7281SOL    HW122093  11.974   5.039   2.858
 7281SOL    HW222094  12.081   5.078   2.957
 7282SOL     OW22095  14.179  13.904   5.855
 7282SOL    HW122096  14.162  13.882   5.947
 7282SOL    HW222097  14.262  13.861   5.835
 7283SOL     OW22098  14.301   6.911   7.273
 7283SOL    HW122099  14.253   6.829   7.263
 7283SOL    HW222100  14.324   6.936   7.183
 7284SOL     OW22101  10.479   7.450   0.905
 7284SOL    HW122102  10.421   7.380   0.935
 7284SOL    HW222103  10.427   7.499   0.842
 7285SOL     OW22104   5.447   9.342   7.540
 7285SOL    HW122105   5.383   9.304   7.600
 7285SOL    HW222106   5.399   9.411   7.494
 7286SOL     OW22107   7.979   8.645   0.349
 7286SOL    HW122108   8.050   8.592   0.313
 7286SOL    HW222109   7.967   8.715   0.286
 7287SOL     OW22110   8.054   8.120   7.456
 7287SOL    HW122111   7.965   8.120   7.420
 7287SOL    HW222112   8.109   8.150   7.384
 7288SOL     OW22113   9.543   5.663   7.414
 7288SOL    HW122114   9.481   5.597   7.383
 7288SOL    HW222115   9.493   5.716   7.476
 7289SOL     OW22116   9.853  11.411   7.213
 7289SOL    HW122117   9.822  11.428   7.303
 7289SOL    HW222118   9.916  11.480   7.196
 7290SOL     OW22119  13.450  13.681   4.398
 7290SOL    HW122120  13.486  13.647   4.316
 7290SOL    HW222121  13.504  13.759   4.416
 7291SOL     OW22122  11.579  10.661   6.418
 7291SOL    HW122123  11.665  10.660   6.375
 7291SOL    HW222124  11.556  10.569   6.427
 7292SOL     OW22125  11.252   4.285   4.127
 7292SOL    HW122126  11.231   4.272   4.035
 7292SOL    HW222127  11.222   4.374   4.147
 7293SOL     OW22128   7.654   3.781   0.412
 7293SOL    HW122129   7.658   3.820   0.499
 7293SOL    HW222130   7.684   3.691   0.424
 7294SOL     OW22131   9.730  13.734   4.957
 7294SOL    HW122132   9.645  13.776   4.946
 7294SOL    HW222133   9.764  13.770   5.039
 7295SOL     OW22134  14.866  10.970   7.101
 7295SOL    HW122135  14.924  11.043   7.123
 7295SOL    HW222136  14.790  11.011   7.061
 7296SOL     OW22137   8.536   5.256   2.262
 7296SOL    HW122138   8.508   5.173   2.300
 7296SOL    HW222139   8.599   5.231   2.194
 7297SOL     OW22140   3.028   5.151   1.839
 7297SOL    HW122141   3.054   5.216   1.774
 7297SOL    HW222142   2.943   5.119   1.808
 7298SOL     OW22143  10.769  15.225   7.437
 7298SOL    HW122144  10.697  15.163   7.446
 7298SOL    HW222145  10.835  15.177   7.386
 7299SOL     OW22146   4.215   4.153   4.794
 7299SOL    HW122147   4.148   4.090   4.820
 7299SOL    HW222148   4.183   4.189   4.711
 7300SOL     OW22149   3.386   9.825   1.763
 7300SOL    HW122150   3.377   9.905   1.815
 7300SOL    HW222151   3.476   9.797   1.776
 7301SOL     OW22152  13.822   5.986   6.249
 7301SOL    HW122153  13.840   5.990   6.343
 7301SOL    HW222154  13.737   5.943   6.242
 7302SOL     OW22155  15.224   8.227   6.691
 7302SOL    HW122156  15.294   8.175   6.650
 7302SOL    HW222157  15.176   8.165   6.745
 7303SOL     OW22158  10.258  13.073   4.046
 7303SOL    HW122159  10.207  13.050   4.123
 7303SOL    HW222160  10.346  13.039   4.064
 7304SOL     OW22161   9.270  14.144   5.555
 7304SOL    HW122162   9.219  14.076   5.510
 7304SOL    HW222163   9.348  14.154   5.501
 7305SOL     OW22164   9.059   3.266   3.220
 7305SOL    HW122165   9.094   3.192   3.269
 7305SOL    HW222166   9.079   3.246   3.128
 7306SOL     OW22167  13.682   6.230   6.313
 7306SOL    HW122168  13.720   6.143   6.321
 7306SOL    HW222169  13.752   6.283   6.273
 7307SOL     OW22170  12.026   4.714   2.391
 7307SOL    HW122171  12.049   4.622   2.382
 7307SOL    HW222172  12.094   4.760   2.342
 7308SOL     OW22173  12.001   7.080   2.803
 7308SOL    HW122174  12.022   7.008   2.863
 7308SOL    HW222175  12.084   7.100   2.760
 7309SOL     OW22176   7.641   7.680   5.666
 7309SOL    HW122177   7.586   7.748   5.705
 7309SOL    HW222178   7.580   7.627   5.615
 7310SOL     OW22179  10.162   2.827   2.416
 7310SOL    HW122180  10.216   2.817   2.494
 7310SOL    HW222181  10.201   2.768   2.351
 7311SOL     OW22182  11.482   8.957   5.972
 7311SOL    HW122183  11.507   8.872   5.935
 7311SOL    HW222184  11.560   8.988   6.017
 7312SOL     OW22185   8.337  12.761   3.571
 7312SOL    HW122186   8.348  12.712   3.489
 7312SOL    HW222187   8.423  12.798   3.588
 7313SOL     OW22188   3.266  11.977   4.180
 7313SOL    HW122189   3.328  11.997   4.110
 7313SOL    HW222190   3.182  12.009   4.147
 7314SOL     OW22191  10.998   7.771   3.968
 7314SOL    HW122192  10.952   7.853   3.984
 7314SOL    HW222193  11.003   7.764   3.872
 7315SOL     OW22194   2.708   4.398   1.802
 7315SOL    HW122195   2.622   4.369   1.829
 7315SOL    HW222196   2.698   4.492   1.786
 7316SOL     OW22197  10.715   8.705   1.963
 7316SOL    HW122198  10.667   8.712   2.046
 7316SOL    HW222199  10.653   8.737   1.898
 7317SOL     OW22200  10.641   9.470   5.190
 7317SOL    HW122201  10.621   9.474   5.096
 7317SOL    HW222202  10.667   9.559   5.212
 7318SOL     OW22203   4.000   1.403   0.580
 7318SOL    HW122204   4.081   1.390   0.530
 7318SOL    HW222205   4.005   1.494   0.610
 7319SOL     OW22206   9.138   6.821   2.056
 7319SOL    HW122207   9.228   6.845   2.036
 7319SOL    HW222208   9.145   6.736   2.101
 7320SOL     OW22209   5.690   6.128   4.929
 7320SOL    HW122210   5.769   6.118   4.876
 7320SOL    HW222211   5.701   6.213   4.972
 7321SOL     OW22212  11.191  10.746   1.248
 7321SOL    HW122213  11.120  10.773   1.190
 7321SOL    HW222214  11.259  10.812   1.235
 7322SOL     OW22215   6.662   5.222   2.919
 7322SOL    HW122216   6.736   5.172   2.884
 7322SOL    HW222217   6.662   5.304   2.870
 7323SOL     OW22218  10.943   7.074   0.822
 7323SOL    HW122219  10.991   6.995   0.849
 7323SOL    HW222220  10.861   7.070   0.870
 7324SOL     OW22221   6.568   8.955   6.408
 7324SOL    HW122222   6.628   8.908   6.466
 7324SOL    HW222223   6.598   8.935   6.320
 7325SOL     OW22224   1.694   4.242   2.086
 7325SOL    HW122225   1.678   4.288   2.003
 7325SOL    HW222226   1.636   4.166   2.083
 7326SOL     OW22227   2.059   7.090   1.875
 7326SOL    HW122228   2.065   7.133   1.960
 7326SOL    HW222229   2.028   7.001   1.895
 7327SOL     OW22230   8.607   5.933   4.322
 7327SOL    HW122231   8.651   6.018   4.331
 7327SOL    HW222232   8.646   5.879   4.391
 7328SOL     OW22233  10.976   3.993   3.034
 7328SOL    HW122234  11.030   3.977   3.111
 7328SOL    HW222235  10.918   3.917   3.029
 7329SOL     OW22236   5.245  12.978   3.916
 7329SOL    HW122237   5.240  13.024   3.832
 7329SOL    HW222238   5.243  13.047   3.982
 7330SOL     OW22239   8.536  10.293   0.214
 7330SOL    HW122240   8.463  10.237   0.190
 7330SOL    HW222241   8.599  10.235   0.257
 7331SOL     OW22242  13.099   4.781   5.651
 7331SOL    HW122243  13.011   4.746   5.633
 7331SOL    HW222244  13.129   4.733   5.728
 7332SOL     OW22245   9.928   6.770   4.276
 7332SOL    HW122246   9.918   6.790   4.369
 7332SOL    HW222247   9.896   6.680   4.267
 7333SOL     OW22248   0.604   1.602   0.678
 7333SOL    HW122249   0.687   1.634   0.713
 7333SOL    HW222250   0.608   1.507   0.689
 7334SOL     OW22251  10.730   7.367   2.965
 7334SOL    HW122252  10.788   7.431   3.005
 7334SOL    HW222253  10.651   7.370   3.019
 7335SOL     OW22254   2.613   9.961   0.257
 7335SOL    HW122255   2.640   9.895   0.193
 7335SOL    HW222256   2.627   9.920   0.342
 7336SOL     OW22257  12.147  12.685   5.528
 7336SOL    HW122258  12.085  12.629   5.481
 7336SOL    HW222259  12.110  12.773   5.522
 7337SOL     OW22260  11.484   7.171   7.250
 7337SOL    HW122261  11.523   7.141   7.168
 7337SOL    HW222262  11.475   7.265   7.240
 7338SOL     OW22263   7.744   6.900   1.649
 7338SOL    HW122264   7.677   6.948   1.601
 7338SOL    HW222265   7.818   6.895   1.589
 7339SOL     OW22266   7.793  12.354   6.142
 7339SOL    HW122267   7.840  12.382   6.221
 7339SOL    HW222268   7.862  12.331   6.080
 7340SOL     OW22269   9.461  14.283   5.820
 7340SOL    HW122270   9.378  14.259   5.861
 7340SOL    HW222271   9.447  14.267   5.727
 7341SOL     OW22272   4.227  12.287   5.611
 7341SOL    HW122273   4.170  12.365   5.614
 7341SOL    HW222274   4.306  12.313   5.659
 7342SOL     OW22275   9.964   5.882   3.927
 7342SOL    HW122276   9.964   5.787   3.932
 7342SOL    HW222277   9.965   5.911   4.018
 7343SOL     OW22278   6.697  10.109   3.703
 7343SOL    HW122279   6.632  10.179   3.700
 7343SOL    HW222280   6.669  10.048   3.635
 7344SOL     OW22281  12.159   5.252   4.207
 7344SOL    HW122282  12.118   5.322   4.258
 7344SOL    HW222283  12.124   5.171   4.245
 7345SOL     OW22284   4.040   5.761   4.649
 7345SOL    HW122285   4.046   5.836   4.589
 7345SOL    HW222286   4.083   5.791   4.729
 7346SOL     OW22287  10.750  14.213   5.958
 7346SOL    HW122288  10.714  14.281   6.015
 7346SOL    HW222289  10.697  14.218   5.879
 7347SOL     OW22290   6.034   5.638   1.568
 7347SOL    HW122291   5.985   5.715   1.539
 7347SOL    HW222292   6.076   5.606   1.489
 7348SOL     OW22293   8.453   8.173   5.495
 7348SOL    HW122294   8.546   8.156   5.480
 7348SOL    HW222295   8.451   8.222   5.577
 7349SOL     OW22296  10.985   9.398   2.725
 7349SOL    HW122297  10.947   9.465   2.667
 7349SOL    HW222298  10.924   9.325   2.719
 7350SOL     OW22299   6.762  14.390   5.799
 7350SOL    HW122300   6.841  14.443   5.790
 7350SOL    HW222301   6.706  14.419   5.727
 7351SOL     OW22302   9.972  10.380   3.671
 7351SOL    HW122303  10.062  10.348   3.678
 7351SOL    HW222304   9.965  10.413   3.582
 7352SOL     OW22305  10.694  10.142   0.951
 7352SOL    HW122306  10.704  10.195   0.872
 7352SOL    HW222307  10.658  10.202   1.017
 7353SOL     OW22308   5.334   5.072   2.079
 7353SOL    HW122309   5.320   5.128   2.155
 7353SOL    HW222310   5.379   5.128   2.016
 7354SOL     OW22311   4.985   3.474   2.758
 7354SOL    HW122312   4.984   3.380   2.779
 7354SOL    HW222313   4.894   3.502   2.773
 7355SOL     OW22314   5.217  11.850   6.694
 7355SOL    HW122315   5.208  11.785   6.624
 7355SOL    HW222316   5.226  11.799   6.774
 7356SOL     OW22317   3.701   8.426   1.000
 7356SOL    HW122318   3.729   8.366   1.069
 7356SOL    HW222319   3.711   8.376   0.919
 7357SOL     OW22320   5.624   9.556   2.187
 7357SOL    HW122321   5.698   9.555   2.126
 7357SOL    HW222322   5.640   9.482   2.246
 7358SOL     OW22323  13.809  12.725   5.533
 7358SOL    HW122324  13.832  12.724   5.626
 7358SOL    HW222325  13.867  12.659   5.493
 7359SOL     OW22326   5.786   3.005   3.640
 7359SOL    HW122327   5.733   2.981   3.565
 7359SOL    HW222328   5.789   3.100   3.638
 7360SOL     OW22329   6.313  15.298   7.265
 7360SOL    HW122330   6.394  15.349   7.263
 7360SOL    HW222331   6.255  15.343   7.205
 7361SOL     OW22332   7.078   1.911   1.316
 7361SOL    HW122333   7.028   1.992   1.324
 7361SOL    HW222334   7.013   1.845   1.290
 7362SOL     OW22335  11.457  10.612   7.241
 7362SOL    HW122336  11.423  10.535   7.197
 7362SOL    HW222337  11.552  10.609   7.226
 7363SOL     OW22338   2.054   2.361   1.207
 7363SOL    HW122339   1.988   2.413   1.162
 7363SOL    HW222340   2.118   2.339   1.139
 7364SOL     OW22341   5.599   9.412   4.886
 7364SOL    HW122342   5.558   9.444   4.967
 7364SOL    HW222343   5.550   9.333   4.864
 7365SOL     OW22344   8.460   8.614   4.091
 7365SOL    HW122345   8.507   8.532   4.107
 7365SOL    HW222346   8.527   8.674   4.060
 7366SOL     OW22347   8.616   5.342   3.185
 7366SOL    HW122348   8.577   5.361   3.270
 7366SOL    HW222349   8.597   5.421   3.133
 7367SOL     OW22350   5.729   5.021   5.669
 7367SOL    HW122351   5.637   5.025   5.645
 7367SOL    HW222352   5.732   5.050   5.760
 7368SOL     OW22353  11.847   7.725   5.392
 7368SOL    HW122354  11.844   7.629   5.396
 7368SOL    HW222355  11.790   7.748   5.319
 7369SOL     OW22356   4.312   6.975   1.568
 7369SOL    HW122357   4.356   7.059   1.562
 7369SOL    HW222358   4.380   6.914   1.594
 7370SOL     OW22359   9.301   1.330   1.174
 7370SOL    HW122360   9.392   1.345   1.149
 7370SOL    HW222361   9.296   1.237   1.196
 7371SOL     OW22362  12.384   9.413   4.640
 7371SOL    HW122363  12.314   9.450   4.693
 7371SOL    HW222364  12.459   9.471   4.655
 7372SOL     OW22365   6.725  11.322   3.360
 7372SOL    HW122366   6.753  11.243   3.406
 7372SOL    HW222367   6.734  11.301   3.267
 7373SOL     OW22368   6.855   4.312   4.805
 7373SOL    HW122369   6.862   4.310   4.901
 7373SOL    HW222370   6.762   4.316   4.787
 7374SOL     OW22371   7.795  10.991   2.030
 7374SOL    HW122372   7.754  11.015   1.947
 7374SOL    HW222373   7.754  11.049   2.094
 7375SOL     OW22374  11.589   5.607   1.932
 7375SOL    HW122375  11.581   5.608   2.027
 7375SOL    HW222376  11.678   5.576   1.916
 7376SOL     OW22377  12.850   7.130   5.208
 7376SOL    HW122378  12.775   7.165   5.255
 7376SOL    HW222379  12.925   7.148   5.264
 7377SOL     OW22380   8.758   3.649   1.638
 7377SOL    HW122381   8.766   3.742   1.616
 7377SOL    HW222382   8.823   3.605   1.584
 7378SOL     OW22383   9.470  10.919   2.570
 7378SOL    HW122384   9.550  10.933   2.620
 7378SOL    HW222385   9.473  10.985   2.501
 7379SOL     OW22386  12.708   6.843   6.671
 7379SOL    HW122387  12.794   6.811   6.642
 7379SOL    HW222388  12.726   6.930   6.707
 7380SOL     OW22389   8.658   5.540   5.099
 7380SOL    HW122390   8.564   5.528   5.082
 7380SOL    HW222391   8.662   5.598   5.174
 7381SOL     OW22392   2.747   8.648   2.866
 7381SOL    HW122393   2.750   8.588   2.792
 7381SOL    HW222394   2.685   8.716   2.840
 7382SOL     OW22395   8.338  11.026   2.563
 7382SOL    HW122396   8.390  10.961   2.516
 7382SOL    HW222397   8.290  10.976   2.629
 7383SOL     OW22398  12.359   8.427   4.470
 7383SOL    HW122399  12.433   8.410   4.530
 7383SOL    HW222400  12.299   8.482   4.521
 7384SOL     OW22401   7.136   6.284   1.062
 7384SOL    HW122402   7.157   6.191   1.071
 7384SOL    HW222403   7.205   6.330   1.109
 7385SOL     OW22404   6.894   5.772   4.807
 7385SOL    HW122405   6.904   5.684   4.771
 7385SOL    HW222406   6.803   5.776   4.837
 7386SOL     OW22407  13.109   5.861   5.476
 7386SOL    HW122408  13.151   5.947   5.482
 7386SOL    HW222409  13.073   5.846   5.564
 7387SOL     OW22410   2.611   2.252   2.354
 7387SOL    HW122411   2.694   2.300   2.356
 7387SOL    HW222412   2.602   2.223   2.263
 7388SOL     OW22413  13.253   5.060   5.659
 7388SOL    HW122414  13.205   5.081   5.739
 7388SOL    HW222415  13.344   5.051   5.688
 7389SOL     OW22416   6.195   4.389   0.161
 7389SOL    HW122417   6.240   4.329   0.221
 7389SOL    HW222418   6.258   4.460   0.148
 7390SOL     OW22419   5.214   6.152   2.922
 7390SOL    HW122420   5.271   6.202   2.864
 7390SOL    HW222421   5.270   6.127   2.995
 7391SOL     OW22422  11.054  12.160   6.386
 7391SOL    HW122423  11.146  12.188   6.387
 7391SOL    HW222424  11.017  12.198   6.466
 7392SOL     OW22425   8.103  11.693   4.014
 7392SOL    HW122426   8.081  11.629   3.947
 7392SOL    HW222427   8.143  11.765   3.967
 7393SOL     OW22428   9.982  10.185   5.681
 7393SOL    HW122429  10.037  10.227   5.747
 7393SOL    HW222430   9.928  10.123   5.730
 7394SOL     OW22431  10.098   8.173   0.599
 7394SOL    HW122432  10.125   8.194   0.689
 7394SOL    HW222433  10.141   8.090   0.580
 7395SOL     OW22434   7.140   5.336   4.641
 7395SOL    HW122435   7.126   5.358   4.733
 7395SOL    HW222436   7.093   5.405   4.593
 7396SOL     OW22437   7.086   5.451   2.271
 7396SOL    HW122438   7.003   5.460   2.226
 7396SOL    HW222439   7.118   5.541   2.280
 7397SOL     OW22440   7.072  12.226   5.142
 7397SOL    HW122441   7.094  12.134   5.126
 7397SOL    HW222442   7.005  12.223   5.210
 7398SOL     OW22443   3.784  10.605   1.940
 7398SOL    HW122444   3.711  10.628   1.997
 7398SOL    HW222445   3.818  10.522   1.976
 7399SOL     OW22446   6.588   4.665   5.998
 7399SOL    HW122447   6.512   4.607   6.005
 7399SOL    HW222448   6.654   4.614   5.952
 7400SOL     OW22449   6.315   7.964   3.932
 7400SOL    HW122450   6.242   7.917   3.891
 7400SOL    HW222451   6.376   7.981   3.861
 7401SOL     OW22452   7.025   5.770   6.309
 7401SOL    HW122453   7.115   5.758   6.337
 7401SOL    HW222454   6.995   5.847   6.357
 7402SOL     OW22455  10.485   4.854   4.398
 7402SOL    HW122456  10.534   4.789   4.450
 7402SOL    HW222457  10.411   4.806   4.363
 7403SOL     OW22458   5.986  11.917   4.632
 7403SOL    HW122459   6.033  11.843   4.592
 7403SOL    HW222460   5.894  11.891   4.629
 7404SOL     OW22461   7.244   8.336   3.460
 7404SOL    HW122462   7.205   8.272   3.519
 7404SOL    HW222463   7.171   8.371   3.410
 7405SOL     OW22464  13.292  14.498   6.789
 7405SOL    HW122465  13.387  14.492   6.796
 7405SOL    HW222466  13.275  14.496   6.695
 7406SOL     OW22467   6.650   4.205   4.267
 7406SOL    HW122468   6.609   4.207   4.181
 7406SOL    HW222469   6.634   4.292   4.304
 7407SOL     OW22470   6.095   6.017   5.632
 7407SOL    HW122471   6.004   5.994   5.649
 7407SOL    HW222472   6.132   5.941   5.587
 7408SOL     OW22473   9.781   6.486   5.938
 7408SOL    HW122474   9.863   6.437   5.926
 7408SOL    HW222475   9.789   6.561   5.880
 7409SOL     OW22476   8.804   5.308   3.464
 7409SOL    HW122477   8.827   5.358   3.386
 7409SOL    HW222478   8.863   5.232   3.461
 7410SOL     OW22479   2.069   7.896   0.650
 7410SOL    HW122480   1.979   7.901   0.683
 7410SOL    HW222481   2.070   7.814   0.600
 7411SOL     OW22482   7.059  10.453   4.150
 7411SOL    HW122483   6.989  10.397   4.117
 7411SOL    HW222484   7.123  10.457   4.079
 7412SOL     OW22485  10.124   3.544   1.674
 7412SOL    HW122486  10.166   3.583   1.751
 7412SOL    HW222487  10.075   3.469   1.709
 7413SOL     OW22488   2.170   8.265   0.380
 7413SOL    HW122489   2.201   8.198   0.319
 7413SOL    HW222490   2.185   8.227   0.467
 7414SOL     OW22491   9.631  13.007   6.483
 7414SOL    HW122492   9.559  12.982   6.541
 7414SOL    HW222493   9.687  12.929   6.480
 7415SOL     OW22494   8.077   8.643   6.210
 7415SOL    HW122495   8.006   8.685   6.161
 7415SOL    HW222496   8.123   8.590   6.144
 7416SOL     OW22497   7.234   4.918   2.347
 7416SOL    HW122498   7.211   4.863   2.272
 7416SOL    HW222499   7.319   4.884   2.376
 7417SOL     OW22500   9.556  11.369   4.703
 7417SOL    HW122501   9.484  11.432   4.709
 7417SOL    HW222502   9.576  11.363   4.609
 7418SOL     OW22503  13.362   9.858   6.669
 7418SOL    HW122504  13.402   9.800   6.735
 7418SOL    HW222505  13.309   9.800   6.615
 7419SOL     OW22506   9.964   4.661   1.223
 7419SOL    HW122507  10.024   4.698   1.288
 7419SOL    HW222508   9.937   4.736   1.171
 7420SOL     OW22509   8.555  12.503   6.055
 7420SOL    HW122510   8.616  12.569   6.088
 7420SOL    HW222511   8.600  12.420   6.071
 7421SOL     OW22512  11.627   6.721   5.662
 7421SOL    HW122513  11.580   6.711   5.745
 7421SOL    HW222514  11.636   6.632   5.628
 7422SOL     OW22515   1.746   3.197   0.799
 7422SOL    HW122516   1.802   3.225   0.727
 7422SOL    HW222517   1.793   3.125   0.839
 7423SOL     OW22518  10.571  11.319   3.564
 7423SOL    HW122519  10.620  11.307   3.483
 7423SOL    HW222520  10.483  11.289   3.543
 7424SOL     OW22521  11.198  14.783   6.438
 7424SOL    HW122522  11.111  14.743   6.434
 7424SOL    HW222523  11.232  14.758   6.525
 7425SOL     OW22524  10.292   2.978   1.204
 7425SOL    HW122525  10.246   3.043   1.151
 7425SOL    HW222526  10.371   2.958   1.154
 7426SOL     OW22527   9.433   9.670   1.266
 7426SOL    HW122528   9.392   9.635   1.345
 7426SOL    HW222529   9.373   9.737   1.236
 7427SOL     OW22530   4.217   3.036   0.326
 7427SOL    HW122531   4.137   3.034   0.379
 7427SOL    HW222532   4.187   3.058   0.237
 7428SOL     OW22533   5.318   6.593   2.885
 7428SOL    HW122534   5.366   6.618   2.806
 7428SOL    HW222535   5.273   6.673   2.912
 7429SOL     OW22536  10.526   5.878   5.993
 7429SOL    HW122537  10.604   5.843   6.037
 7429SOL    HW222538  10.517   5.967   6.028
 7430SOL     OW22539   9.853  13.018   6.910
 7430SOL    HW122540   9.881  12.931   6.882
 7430SOL    HW222541   9.761  13.023   6.884
 7431SOL     OW22542   6.829   7.201   0.048
 7431SOL    HW122543  12.236  12.650   7.597
 7431SOL    HW222544   6.876   7.121   0.025
 7432SOL     OW22545  12.097  11.006   4.880
 7432SOL    HW122546  12.193  11.013   4.872
 7432SOL    HW222547  12.069  10.967   4.797
 7433SOL     OW22548   8.235   9.416   3.365
 7433SOL    HW122549   8.240   9.419   3.269
 7433SOL    HW222550   8.312   9.465   3.394
 7434SOL     OW22551   7.418   2.321   2.524
 7434SOL    HW122552   7.504   2.333   2.484
 7434SOL    HW222553   7.428   2.357   2.612
 7435SOL     OW22554   8.820  13.468   6.076
 7435SOL    HW122555   8.732  13.463   6.038
 7435SOL    HW222556   8.806  13.463   6.171
 7436SOL     OW22557   4.183  12.947   5.107
 7436SOL    HW122558   4.134  13.020   5.068
 7436SOL    HW222559   4.273  12.962   5.079
 7437SOL     OW22560  11.746   3.076   3.615
 7437SOL    HW122561  11.767   3.000   3.561
 7437SOL    HW222562  11.670   3.048   3.667
 7438SOL     OW22563  10.690  11.063   5.317
 7438SOL    HW122564  10.607  11.043   5.275
 7438SOL    HW222565  10.701  10.994   5.382
 7439SOL     OW22566   4.315   4.739   2.786
 7439SOL    HW122567   4.373   4.684   2.839
 7439SOL    HW222568   4.258   4.782   2.849
 7440SOL     OW22569  12.257   6.482   5.727
 7440SOL    HW122570  12.299   6.556   5.771
 7440SOL    HW222571  12.262   6.504   5.634
 7441SOL     OW22572   9.829  11.942   4.863
 7441SOL    HW122573   9.795  12.024   4.899
 7441SOL    HW222574   9.824  11.954   4.768
 7442SOL     OW22575  14.302   8.442   6.879
 7442SOL    HW122576  14.238   8.503   6.844
 7442SOL    HW222577  14.299   8.454   6.973
 7443SOL     OW22578  13.168   3.889   4.644
 7443SOL    HW122579  13.128   3.915   4.561
 7443SOL    HW222580  13.148   3.961   4.704
 7444SOL     OW22581   8.037   9.852   5.047
 7444SOL    HW122582   8.088   9.931   5.029
 7444SOL    HW222583   7.974   9.848   4.975
 7445SOL     OW22584  10.855   9.860   3.933
 7445SOL    HW122585  10.921   9.904   3.880
 7445SOL    HW222586  10.771   9.889   3.898
 7446SOL     OW22587   4.716  10.088   3.803
 7446SOL    HW122588   4.789  10.151   3.798
 7446SOL    HW222589   4.753  10.007   3.768
 7447SOL     OW22590  13.176   6.344   3.709
 7447SOL    HW122591  13.194   6.408   3.778
 7447SOL    HW222592  13.191   6.392   3.627
 7448SOL     OW22593   9.737   8.508   1.657
 7448SOL    HW122594   9.684   8.588   1.655
 7448SOL    HW222595   9.766   8.496   1.567
 7449SOL     OW22596  11.826  12.663   4.068
 7449SOL    HW122597  11.866  12.577   4.053
 7449SOL    HW222598  11.889  12.725   4.031
 7450SOL     OW22599   5.581  10.958   2.702
 7450SOL    HW122600   5.623  10.915   2.627
 7450SOL    HW222601   5.498  10.991   2.667
 7451SOL     OW22602   6.800   6.594   3.635
 7451SOL    HW122603   6.821   6.681   3.600
 7451SOL    HW222604   6.859   6.584   3.710
 7452SOL     OW22605  11.751   8.129   6.673
 7452SOL    HW122606  11.764   8.039   6.641
 7452SOL    HW222607  11.725   8.118   6.764
 7453SOL     OW22608   2.598   4.169   1.230
 7453SOL    HW122609   2.655   4.195   1.159
 7453SOL    HW222610   2.656   4.159   1.306
 7454SOL     OW22611  15.409  12.281   6.580
 7454SOL    HW122612   4.638  12.217   6.509
 7454SOL    HW222613   4.696  12.349   6.554
 7455SOL     OW22614   6.785   5.908   6.452
 7455SOL    HW122615   6.728   5.981   6.428
 7455SOL    HW222616   6.767   5.893   6.545
 7456SOL     OW22617   9.468   3.181   1.561
 7456SOL    HW122618   9.488   3.228   1.642
 7456SOL    HW222619   9.553   3.159   1.524
 7457SOL     OW22620   3.963   6.825   2.218
 7457SOL    HW122621   3.902   6.767   2.174
 7457SOL    HW222622   3.909   6.879   2.275
 7458SOL     OW22623   2.625   5.356   0.261
 7458SOL    HW122624   2.564   5.418   0.303
 7458SOL    HW222625   2.568   5.294   0.216
 7459SOL     OW22626   8.079   5.847   0.370
 7459SOL    HW122627   8.141   5.915   0.343
 7459SOL    HW222628   8.018   5.841   0.297
 7460SOL     OW22629  14.380  11.037   7.497
 7460SOL    HW122630  14.384  11.031   7.402
 7460SOL    HW222631  14.435  11.112   7.519
 7461SOL     OW22632   7.660   6.690   2.789
 7461SOL    HW122633   7.650   6.605   2.831
 7461SOL    HW222634   7.577   6.704   2.743
 7462SOL     OW22635   8.754  10.421   7.198
 7462SOL    HW122636   8.780  10.420   7.290
 7462SOL    HW222637   8.659  10.429   7.200
 7463SOL     OW22638   3.886   2.954   2.020
 7463SOL    HW122639   3.902   2.879   1.963
 7463SOL    HW222640   3.859   3.024   1.960
 7464SOL     OW22641   7.763   9.053   4.317
 7464SOL    HW122642   7.687   9.093   4.359
 7464SOL    HW222643   7.821   9.031   4.390
 7465SOL     OW22644   7.183   5.713   0.562
 7465SOL    HW122645   7.258   5.772   0.553
 7465SOL    HW222646   7.166   5.709   0.656
 7466SOL     OW22647  11.050  11.423   1.694
 7466SOL    HW122648  10.963  11.426   1.654
 7466SOL    HW222649  11.033  11.415   1.788
 7467SOL     OW22650   6.326   2.722   0.373
 7467SOL    HW122651   6.370   2.784   0.431
 7467SOL    HW222652   6.251   2.771   0.339
 7468SOL     OW22653  10.210   6.578   1.187
 7468SOL    HW122654  10.196   6.637   1.113
 7468SOL    HW222655  10.137   6.516   1.182
 7469SOL     OW22656   9.665   5.460   2.225
 7469SOL    HW122657   9.626   5.402   2.159
 7469SOL    HW222658   9.593   5.481   2.284
 7470SOL     OW22659  15.131   8.678   7.350
 7470SOL    HW122660  15.108   8.672   7.442
 7470SOL    HW222661  15.115   8.591   7.315
 7471SOL     OW22662   8.586  11.588   5.235
 7471SOL    HW122663   8.606  11.669   5.187
 7471SOL    HW222664   8.490  11.585   5.236
 7472SOL     OW22665   8.285   3.016   3.058
 7472SOL    HW122666   8.354   3.014   2.992
 7472SOL    HW222667   8.317   2.962   3.130
 7473SOL     OW22668   4.009  11.371   4.134
 7473SOL    HW122669   4.066  11.356   4.058
 7473SOL    HW222670   3.936  11.422   4.100
 7474SOL     OW22671   2.813   5.115   3.294
 7474SOL    HW122672   2.761   5.143   3.370
 7474SOL    HW222673   2.883   5.061   3.332
 7475SOL     OW22674   7.110   6.273   4.731
 7475SOL    HW122675   7.108   6.238   4.819
 7475SOL    HW222676   7.064   6.357   4.737
 7476SOL     OW22677  11.368   4.887   5.065
 7476SOL    HW122678  11.388   4.795   5.052
 7476SOL    HW222679  11.452   4.927   5.087
 7477SOL     OW22680   7.034   8.595   3.501
 7477SOL    HW122681   7.044   8.555   3.587
 7477SOL    HW222682   7.046   8.689   3.517
 7478SOL     OW22683   8.686   8.009   6.890
 7478SOL    HW122684   8.747   8.079   6.916
 7478SOL    HW222685   8.684   7.950   6.965
 7479SOL     OW22686   2.733   6.145   0.793
 7479SOL    HW122687   2.723   6.221   0.851
 7479SOL    HW222688   2.657   6.150   0.735
 7480SOL     OW22689   7.368  13.548   6.578
 7480SOL    HW122690   7.292  13.500   6.612
 7480SOL    HW222691   7.360  13.544   6.483
 7481SOL     OW22692   6.883   4.801   4.476
 7481SOL    HW122693   6.975   4.828   4.475
 7481SOL    HW222694   6.883   4.717   4.520
 7482SOL     OW22695   3.009   3.918   3.518
 7482SOL    HW122696   3.006   4.008   3.485
 7482SOL    HW222697   3.101   3.893   3.512
 7483SOL     OW22698   8.577   9.452   1.602
 7483SOL    HW122699   8.608   9.362   1.586
 7483SOL    HW222700   8.642   9.490   1.660
 7484SOL     OW22701  11.780   5.811   3.175
 7484SOL    HW122702  11.722   5.742   3.207
 7484SOL    HW222703  11.722   5.867   3.123
 7485SOL     OW22704   5.367   3.905   2.665
 7485SOL    HW122705   5.302   3.965   2.629
 7485SOL    HW222706   5.316   3.837   2.710
 7486SOL     OW22707   9.072   3.880   1.277
 7486SOL    HW122708   9.149   3.869   1.333
 7486SOL    HW222709   9.001   3.836   1.324
 7487SOL     OW22710   7.675   1.437   0.156
 7487SOL    HW122711   7.711   1.505   0.100
 7487SOL    HW222712   7.710   1.355   0.121
 7488SOL     OW22713  14.250  13.332   7.246
 7488SOL    HW122714  14.332  13.317   7.199
 7488SOL    HW222715  14.182  13.313   7.183
 7489SOL     OW22716  11.365   9.852   3.575
 7489SOL    HW122717  11.293   9.814   3.625
 7489SOL    HW222718  11.439   9.850   3.636
 7490SOL     OW22719   9.315   6.186   5.898
 7490SOL    HW122720   9.320   6.230   5.813
 7490SOL    HW222721   9.354   6.249   5.959
 7491SOL     OW22722   8.611   3.840   0.061
 7491SOL    HW122723   8.576   3.925   0.085
 7491SOL    HW222724   8.687   3.859   0.006
 7492SOL     OW22725   6.647  10.619   5.232
 7492SOL    HW122726   6.554  10.597   5.238
 7492SOL    HW222727   6.692  10.534   5.239
 7493SOL     OW22728   6.259   4.988   4.290
 7493SOL    HW122729   6.297   4.914   4.243
 7493SOL    HW222730   6.321   5.005   4.361
 7494SOL     OW22731   6.759   9.980   4.164
 7494SOL    HW122732   6.744  10.028   4.083
 7494SOL    HW222733   6.792  10.045   4.226
 7495SOL     OW22734  10.083   7.083   4.524
 7495SOL    HW122735  10.075   6.988   4.528
 7495SOL    HW222736   9.998   7.113   4.493
 7496SOL     OW22737   7.411   3.722   1.761
 7496SOL    HW122738   7.466   3.772   1.821
 7496SOL    HW222739   7.383   3.646   1.812
 7497SOL     OW22740   7.528  11.114   4.796
 7497SOL    HW122741   7.606  11.167   4.811
 7497SOL    HW222742   7.482  11.114   4.881
 7498SOL     OW22743  11.561   6.057   3.592
 7498SOL    HW122744  11.644   6.104   3.605
 7498SOL    HW222745  11.532   6.083   3.505
 7499SOL     OW22746   7.687  12.387   5.655
 7499SOL    HW122747   7.707  12.480   5.645
 7499SOL    HW222748   7.652  12.379   5.744
 7500SOL     OW22749   1.308   2.817   1.523
 7500SOL    HW122750   1.225   2.865   1.517
 7500SOL    HW222751   1.296   2.757   1.597
 7501SOL     OW22752   6.917   0.462   0.480
 7501SOL    HW122753   6.842   0.455   0.421
 7501SOL    HW222754   6.990   0.488   0.423
 7502SOL     OW22755  10.696   7.302   0.112
 7502SOL    HW122756  10.639   7.264   0.045
 7502SOL    HW222757  10.748   7.368   0.066
 7503SOL     OW22758   8.458  10.724   3.390
 7503SOL    HW122759   8.362  10.716   3.393
 7503SOL    HW222760   8.490  10.637   3.412
 7504SOL     OW22761   6.490  10.868   0.220
 7504SOL    HW122762   6.399  10.881   0.247
 7504SOL    HW222763   6.507  10.775   0.237
 7505SOL     OW22764   9.750   1.637   1.130
 7505SOL    HW122765   9.681   1.670   1.073
 7505SOL    HW222766   9.747   1.695   1.207
 7506SOL     OW22767   4.519   5.087   0.272
 7506SOL    HW122768   4.515   4.999   0.234
 7506SOL    HW222769   4.580   5.135   0.215
 7507SOL     OW22770   4.881   4.634   4.729
 7507SOL    HW122771   4.827   4.557   4.709
 7507SOL    HW222772   4.853   4.699   4.665
 7508SOL     OW22773   7.818   5.741   1.589
 7508SOL    HW122774   7.910   5.738   1.563
 7508SOL    HW222775   7.798   5.834   1.594
 7509SOL     OW22776  10.297  12.935   3.571
 7509SOL    HW122777  10.219  12.891   3.603
 7509SOL    HW222778  10.311  13.008   3.631
 7510SOL     OW22779   9.764   8.644   1.173
 7510SOL    HW122780   9.843   8.644   1.227
 7510SOL    HW222781   9.796   8.634   1.084
 7511SOL     OW22782   6.659   6.746   6.622
 7511SOL    HW122783   6.684   6.779   6.536
 7511SOL    HW222784   6.671   6.822   6.680
 7512SOL     OW22785   6.165  13.054   5.233
 7512SOL    HW122786   6.250  13.087   5.261
 7512SOL    HW222787   6.120  13.130   5.196
 7513SOL     OW22788   8.701   7.949   2.739
 7513SOL    HW122789   8.637   7.896   2.787
 7513SOL    HW222790   8.666   8.038   2.743
 7514SOL     OW22791   4.541   1.893   0.780
 7514SOL    HW122792   4.490   1.969   0.809
 7514SOL    HW222793   4.599   1.874   0.853
 7515SOL     OW22794  12.705  12.738   3.180
 7515SOL    HW122795  12.615  12.762   3.204
 7515SOL    HW222796  12.694  12.662   3.123
 7516SOL     OW22797  11.539   8.021   5.561
 7516SOL    HW122798  11.631   8.038   5.542
 7516SOL    HW222799  11.524   8.060   5.647
 7517SOL     OW22800   8.256   4.649   3.243
 7517SOL    HW122801   8.302   4.604   3.172
 7517SOL    HW222802   8.316   4.644   3.318
 7518SOL     OW22803   6.318  14.007   7.181
 7518SOL    HW122804   6.383  14.057   7.132
 7518SOL    HW222805   6.235  14.050   7.162
 7519SOL     OW22806  10.994   6.183   0.933
 7519SOL    HW122807  10.957   6.125   0.999
 7519SOL    HW222808  10.934   6.177   0.859
 7520SOL     OW22809   2.937   3.059   3.323
 7520SOL    HW122810   2.982   3.113   3.258
 7520SOL    HW222811   2.983   2.976   3.321
 7521SOL     OW22812  11.324  11.352   7.618
 7521SOL    HW122813  11.235  11.375   7.593
 7521SOL    HW222814  11.352  11.288   7.553
 7522SOL     OW22815   5.324   2.602   0.858
 7522SOL    HW122816   5.417   2.620   0.855
 7522SOL    HW222817   5.310   2.534   0.792
 7523SOL     OW22818   3.793   3.407   2.992
 7523SOL    HW122819   3.809   3.411   3.087
 7523SOL    HW222820   3.723   3.470   2.976
 7524SOL     OW22821  10.983  13.063   6.801
 7524SOL    HW122822  10.936  12.988   6.765
 7524SOL    HW222823  10.966  13.134   6.740
 7525SOL     OW22824   5.625   8.049   6.340
 7525SOL    HW122825   5.589   8.091   6.262
 7525SOL    HW222826   5.564   8.071   6.410
 7526SOL     OW22827   7.313   5.225   6.333
 7526SOL    HW122828   7.333   5.131   6.328
 7526SOL    HW222829   7.397   5.268   6.319
 7527SOL     OW22830   9.231   0.376   0.494
 7527SOL    HW122831   9.225  11.163   0.589
 7527SOL    HW222832   9.273  11.065   0.484
 7528SOL     OW22833   9.624  10.933   6.645
 7528SOL    HW122834   9.558  10.881   6.692
 7528SOL    HW222835   9.576  10.972   6.572
 7529SOL     OW22836  13.496  10.562   6.268
 7529SOL    HW122837  13.456  10.541   6.183
 7529SOL    HW222838  13.448  10.638   6.300
 7530SOL     OW22839   8.615  13.043   5.150
 7530SOL    HW122840   8.604  13.024   5.243
 7530SOL    HW222841   8.612  13.138   5.144
 7531SOL     OW22842   9.619  10.762   0.568
 7531SOL    HW122843   9.652  10.713   0.493
 7531SOL    HW222844   9.558  10.702   0.611
 7532SOL     OW22845  13.198   7.267   7.366
 7532SOL    HW122846  13.104   7.278   7.383
 7532SOL    HW222847  13.237   7.258   7.453
 7533SOL     OW22848   8.339   8.736   6.327
 7533SOL    HW122849   8.426   8.755   6.363
 7533SOL    HW222850   8.320   8.647   6.356
 7534SOL     OW22851   3.171   2.339   2.908
 7534SOL    HW122852   3.148   2.271   2.844
 7534SOL    HW222853   3.088   2.360   2.951
 7535SOL     OW22854   5.679  12.615   4.514
 7535SOL    HW122855   5.642  12.612   4.426
 7535SOL    HW222856   5.658  12.702   4.546
 7536SOL     OW22857   9.692   5.302   3.048
 7536SOL    HW122858   9.761   5.346   2.998
 7536SOL    HW222859   9.627   5.370   3.065
 7537SOL     OW22860  12.736   8.116   4.226
 7537SOL    HW122861  12.815   8.150   4.268
 7537SOL    HW222862  12.670   8.183   4.242
 7538SOL     OW22863  11.476   3.915   2.618
 7538SOL    HW122864  11.405   3.852   2.605
 7538SOL    HW222865  11.499   3.944   2.530
 7539SOL     OW22866   9.119   4.696   0.896
 7539SOL    HW122867   9.181   4.677   0.825
 7539SOL    HW222868   9.170   4.687   0.976
 7540SOL     OW22869  14.530   7.143   5.874
 7540SOL    HW122870  14.469   7.078   5.908
 7540SOL    HW222871  14.558   7.108   5.789
 7541SOL     OW22872   8.663  11.515   2.517
 7541SOL    HW122873   8.693  11.494   2.429
 7541SOL    HW222874   8.572  11.541   2.507
 7542SOL     OW22875   9.892   8.103   2.681
 7542SOL    HW122876   9.855   8.026   2.638
 7542SOL    HW222877   9.882   8.173   2.617
 7543SOL     OW22878  11.732   5.616   5.109
 7543SOL    HW122879  11.694   5.540   5.066
 7543SOL    HW222880  11.766   5.670   5.038
 7544SOL     OW22881   7.177   9.029   4.599
 7544SOL    HW122882   7.095   9.058   4.640
 7544SOL    HW222883   7.158   8.940   4.568
 7545SOL     OW22884   1.998   1.649   0.077
 7545SOL    HW122885   1.930   1.705   0.115
 7545SOL    HW222886   1.955   1.607   0.002
 7546SOL     OW22887   5.750  10.045   4.804
 7546SOL    HW122888   5.826  10.103   4.792
 7546SOL    HW222889   5.737  10.042   4.899
 7547SOL     OW22890   3.156   2.795   3.607
 7547SOL    HW122891   3.099   2.853   3.658
 7547SOL    HW222892   3.106   2.714   3.597
 7548SOL     OW22893  12.647   3.942   4.735
 7548SOL    HW122894  12.591   3.875   4.775
 7548SOL    HW222895  12.682   3.992   4.808
 7549SOL     OW22896   4.489  14.746   6.000
 7549SOL    HW122897   4.441  14.755   6.082
 7549SOL    HW222898   4.420  14.738   5.933
 7550SOL     OW22899   5.084  10.746   2.672
 7550SOL    HW122900   5.176  10.728   2.689
 7550SOL    HW222901   5.040  10.733   2.756
 7551SOL     OW22902   6.456  11.723   5.525
 7551SOL    HW122903   6.470  11.816   5.543
 7551SOL    HW222904   6.361  11.713   5.525
 7552SOL     OW22905   4.197  10.853   3.044
 7552SOL    HW122906   4.246  10.836   3.125
 7552SOL    HW222907   4.246  10.807   2.976
 7553SOL     OW22908   1.645   9.855   0.585
 7553SOL    HW122909   1.688   9.891   0.663
 7553SOL    HW222910   1.575   9.917   0.566
 7554SOL     OW22911  12.126   6.681   6.169
 7554SOL    HW122912  12.114   6.761   6.221
 7554SOL    HW222913  12.164   6.712   6.086
 7555SOL     OW22914  12.955  12.464   5.114
 7555SOL    HW122915  12.877  12.486   5.165
 7555SOL    HW222916  12.945  12.514   5.033
 7556SOL     OW22917   9.045   6.498   5.616
 7556SOL    HW122918   9.111   6.490   5.685
 7556SOL    HW222919   9.018   6.590   5.619
 7557SOL     OW22920  12.200   5.045   2.450
 7557SOL    HW122921  12.293   5.064   2.462
 7557SOL    HW222922  12.173   5.005   2.533
 7558SOL     OW22923   3.139   4.754   0.168
 7558SOL    HW122924   3.055   4.780   0.130
 7558SOL    HW222925   3.118   4.732   0.259
 7559SOL     OW22926   3.169   4.548   0.720
 7559SOL    HW122927   3.174   4.509   0.807
 7559SOL    HW222928   3.135   4.636   0.736
 7560SOL     OW22929   7.321  10.232   0.641
 7560SOL    HW122930   7.402  10.182   0.636
 7560SOL    HW222931   7.262  10.189   0.578
 7561SOL     OW22932   5.198  10.701   6.632
 7561SOL    HW122933   5.110  10.737   6.616
 7561SOL    HW222934   5.256  10.775   6.616
 7562SOL     OW22935  13.499  11.924   5.723
 7562SOL    HW122936  13.540  11.848   5.681
 7562SOL    HW222937  13.572  11.976   5.756
 7563SOL     OW22938   6.151   7.100   6.729
 7563SOL    HW122939   6.158   7.087   6.634
 7563SOL    HW222940   6.088   7.033   6.757
 7564SOL     OW22941  10.127   5.240   2.126
 7564SOL    HW122942  10.088   5.236   2.214
 7564SOL    HW222943  10.053   5.228   2.067
 7565SOL     OW22944   2.688   1.532   1.406
 7565SOL    HW122945   2.716   1.597   1.471
 7565SOL    HW222946   2.733   1.451   1.432
 7566SOL     OW22947  10.460   8.414   5.767
 7566SOL    HW122948  10.545   8.458   5.757
 7566SOL    HW222949  10.462   8.375   5.854
 7567SOL     OW22950   9.027   4.421   0.071
 7567SOL    HW122951  14.446   9.755   7.616
 7567SOL    HW222952   8.954   4.370   0.106
 7568SOL     OW22953  12.042  11.327   5.190
 7568SOL    HW122954  12.118  11.337   5.247
 7568SOL    HW222955  11.981  11.273   5.241
 7569SOL     OW22956  11.641   8.063   4.812
 7569SOL    HW122957  11.621   7.975   4.845
 7569SOL    HW222958  11.730   8.057   4.779
 7570SOL     OW22959   4.231   9.278   2.234
 7570SOL    HW122960   4.300   9.312   2.178
 7570SOL    HW222961   4.239   9.328   2.315
 7571SOL     OW22962   6.538   1.071   0.906
 7571SOL    HW122963   6.525   0.977   0.918
 7571SOL    HW222964   6.487   1.092   0.827
 7572SOL     OW22965   5.750  14.122   5.502
 7572SOL    HW122966   5.781  14.053   5.561
 7572SOL    HW222967   5.825  14.139   5.445
 7573SOL     OW22968   9.789   5.353   6.675
 7573SOL    HW122969   9.703   5.392   6.660
 7573SOL    HW222970   9.776   5.298   6.753
 7574SOL     OW22971  10.953  12.487   5.377
 7574SOL    HW122972  11.045  12.510   5.392
 7574SOL    HW222973  10.908  12.519   5.456
 7575SOL     OW22974   7.694   2.605   2.069
 7575SOL    HW122975   7.604   2.629   2.047
 7575SOL    HW222976   7.702   2.625   2.162
 7576SOL     OW22977  11.088   2.997   1.056
 7576SOL    HW122978  11.110   2.905   1.070
 7576SOL    HW222979  11.164   3.034   1.012
 7577SOL     OW22980   9.176  12.868   7.595
 7577SOL    HW122981   9.265  12.833   7.589
 7577SOL    HW222982   3.786   7.526   0.060
 7578SOL     OW22983   9.037   9.964   5.368
 7578SOL    HW122984   9.091  10.024   5.420
 7578SOL    HW222985   9.072   9.971   5.280
 7579SOL     OW22986  13.524   8.291   5.960
 7579SOL    HW122987  13.564   8.365   5.915
 7579SOL    HW222988  13.586   8.268   6.029
 7580SOL     OW22989   9.218   8.733   2.904
 7580SOL    HW122990   9.233   8.706   2.994
 7580SOL    HW222991   9.287   8.691   2.853
 7581SOL     OW22992  11.507  10.912   4.767
 7581SOL    HW122993  11.568  10.918   4.841
 7581SOL    HW222994  11.421  10.926   4.806
 7582SOL     OW22995   7.342   5.745   5.506
 7582SOL    HW122996   7.383   5.826   5.534
 7582SOL    HW222997   7.360   5.683   5.576
 7583SOL     OW22998   0.864   1.023   0.596
 7583SOL    HW122999   0.818   1.074   0.529
 7583SOL    HW223000   0.868   0.934   0.561
 7584SOL     OW23001   7.349  10.245   4.920
 7584SOL    HW123002   7.421  10.294   4.960
 7584SOL    HW223003   7.355  10.265   4.827
 7585SOL     OW23004   9.827   3.474   0.988
 7585SOL    HW123005   9.786   3.395   0.954
 7585SOL    HW223006   9.874   3.510   0.913
 7586SOL     OW23007   9.953  13.434   7.291
 7586SOL    HW123008   9.904  13.421   7.210
 7586SOL    HW223009   9.887  13.461   7.355
 7587SOL     OW23010  10.596  12.483   5.690
 7587SOL    HW123011  10.628  12.545   5.755
 7587SOL    HW223012  10.667  12.474   5.627
 7588SOL     OW23013   1.537   0.374   0.064
 7588SOL    HW123014   1.619   0.401   0.022
 7588SOL    HW223015   1.530   0.281   0.045
 7589SOL     OW23016   8.704   8.734   4.552
 7589SOL    HW123017   8.665   8.653   4.584
 7589SOL    HW223018   8.647   8.762   4.481
 7590SOL     OW23019  10.863   5.655   5.052
 7590SOL    HW123020  10.853   5.751   5.053
 7590SOL    HW223021  10.790   5.625   4.998
 7591SOL     OW23022   8.170   3.327   2.536
 7591SOL    HW123023   8.161   3.391   2.465
 7591SOL    HW223024   8.149   3.375   2.615
 7592SOL     OW23025  13.954   9.946   4.950
 7592SOL    HW123026  13.875   9.936   4.897
 7592SOL    HW223027  13.931  10.015   5.013
 7593SOL     OW23028   4.249  10.152   1.247
 7593SOL    HW123029   4.256  10.128   1.339
 7593SOL    HW223030   4.313  10.095   1.203
 7594SOL     OW23031   9.378   9.129   1.268
 7594SOL    HW123032   9.346   9.059   1.326
 7594SOL    HW223033   9.391   9.086   1.184
 7595SOL     OW23034   3.972   7.045   5.015
 7595SOL    HW123035   4.004   7.134   5.001
 7595SOL    HW223036   4.040   6.989   4.978
 7596SOL     OW23037   3.003   6.503   4.126
 7596SOL    HW123038   2.928   6.445   4.114
 7596SOL    HW223039   3.077   6.444   4.141
 7597SOL     OW23040  10.284   4.605   4.028
 7597SOL    HW123041  10.281   4.696   3.999
 7597SOL    HW223042  10.368   4.598   4.075
 7598SOL     OW23043  11.575   5.345   7.204
 7598SOL    HW123044  11.654   5.302   7.172
 7598SOL    HW223045  11.562   5.419   7.145
 7599SOL     OW23046   6.345   4.864   6.011
 7599SOL    HW123047   6.297   4.929   5.959
 7599SOL    HW223048   6.347   4.900   6.099
 7600SOL     OW23049   5.567   6.686   5.534
 7600SOL    HW123050   5.497   6.676   5.470
 7600SOL    HW223051   5.621   6.758   5.500
 7601SOL     OW23052   1.833  10.418   0.946
 7601SOL    HW123053   1.766  10.365   0.988
 7601SOL    HW223054   1.915  10.372   0.963
 7602SOL     OW23055  11.427   6.439   3.797
 7602SOL    HW123056  11.413   6.345   3.789
 7602SOL    HW223057  11.385   6.477   3.719
 7603SOL     OW23058   7.764  14.687   6.140
 7603SOL    HW123059   7.812  14.683   6.223
 7603SOL    HW223060   7.821  14.642   6.077
 7604SOL     OW23061   4.253   9.375   1.112
 7604SOL    HW123062   4.238   9.438   1.182
 7604SOL    HW223063   4.169   9.330   1.101
 7605SOL     OW23064   7.934   7.324   6.153
 7605SOL    HW123065   7.986   7.382   6.098
 7605SOL    HW223066   7.850   7.316   6.107
 7606SOL     OW23067   5.474   7.015   7.187
 7606SOL    HW123068   5.509   7.024   7.099
 7606SOL    HW223069   5.519   7.083   7.238
 7607SOL     OW23070   5.177  11.424   2.918
 7607SOL    HW123071   5.091  11.386   2.940
 7607SOL    HW223072   5.172  11.514   2.950
 7608SOL     OW23073   9.470   8.614   0.991
 7608SOL    HW123074   9.552   8.570   1.012
 7608SOL    HW223075   9.402   8.556   1.025
 7609SOL     OW23076   8.556   2.873   2.593
 7609SOL    HW123077   8.572   2.957   2.550
 7609SOL    HW223078   8.482   2.835   2.545
 7610SOL     OW23079   9.140   5.431   0.434
 7610SOL    HW123080   9.213   5.478   0.475
 7610SOL    HW223081   9.177   5.395   0.353
 7611SOL     OW23082   6.387  11.317   2.153
 7611SOL    HW123083   6.410  11.393   2.206
 7611SOL    HW223084   6.395  11.243   2.214
 7612SOL     OW23085   1.664   9.558   0.389
 7612SOL    HW123086   1.689   9.518   0.306
 7612SOL    HW223087   1.577   9.521   0.408
 7613SOL     OW23088   1.860   7.258   1.242
 7613SOL    HW123089   1.905   7.179   1.214
 7613SOL    HW223090   1.902   7.328   1.192
 7614SOL     OW23091  10.528  10.535   3.547
 7614SOL    HW123092  10.605  10.585   3.520
 7614SOL    HW223093  10.454  10.581   3.509
 7615SOL     OW23094  11.038   8.915   1.628
 7615SOL    HW123095  11.034   8.828   1.669
 7615SOL    HW223096  10.950   8.951   1.640
 7616SOL     OW23097   8.249   2.673   0.938
 7616SOL    HW123098   8.328   2.683   0.886
 7616SOL    HW223099   8.270   2.713   1.022
 7617SOL     OW23100  12.315   5.080   6.396
 7617SOL    HW123101  12.334   5.013   6.462
 7617SOL    HW223102  12.301   5.160   6.447
 7618SOL     OW23103   8.380   6.194   0.819
 7618SOL    HW123104   8.339   6.152   0.896
 7618SOL    HW223105   8.326   6.270   0.801
 7619SOL     OW23106   5.603   9.536   3.137
 7619SOL    HW123107   5.573   9.471   3.073
 7619SOL    HW223108   5.528   9.595   3.149
 7620SOL     OW23109   2.896  11.067   3.073
 7620SOL    HW123110   2.825  11.110   3.120
 7620SOL    HW223111   2.908  10.984   3.119
 7621SOL     OW23112   1.595  10.516   1.733
 7621SOL    HW123113   1.639  10.599   1.750
 7621SOL    HW223114   1.608  10.465   1.814
 7622SOL     OW23115  10.241   8.036   2.213
 7622SOL    HW123116  10.293   8.079   2.145
 7622SOL    HW223117  10.171   8.098   2.233
 7623SOL     OW23118   8.117   5.157   0.842
 7623SOL    HW123119   8.195   5.160   0.898
 7623SOL    HW223120   8.056   5.218   0.883
 7624SOL     OW23121  11.032  10.667   5.614
 7624SOL    HW123122  11.107  10.693   5.666
 7624SOL    HW223123  10.957  10.677   5.673
 7625SOL     OW23124   2.977   2.767   1.776
 7625SOL    HW123125   2.958   2.711   1.701
 7625SOL    HW223126   2.931   2.849   1.757
 7626SOL     OW23127   7.410  12.894   3.557
 7626SOL    HW123128   7.438  12.809   3.522
 7626SOL    HW223129   7.334  12.873   3.610
 7627SOL     OW23130   0.347   7.562   0.026
 7627SOL    HW123131   0.406   7.628   0.064
 7627SOL    HW223132   0.404   7.488   0.005
 7628SOL     OW23133   2.566   3.318   2.144
 7628SOL    HW123134   2.615   3.321   2.061
 7628SOL    HW223135   2.551   3.410   2.166
 7629SOL     OW23136   4.192   6.487   5.893
 7629SOL    HW123137  14.918   6.549   5.948
 7629SOL    HW223138   4.250   6.542   5.841
 7630SOL     OW23139  11.126   8.869   2.876
 7630SOL    HW123140  11.099   8.878   2.967
 7630SOL    HW223141  11.079   8.792   2.844
 7631SOL     OW23142   6.849   5.191   5.839
 7631SOL    HW123143   6.824   5.099   5.852
 7631SOL    HW223144   6.868   5.223   5.927
 7632SOL     OW23145   2.568  11.401   1.954
 7632SOL    HW123146   2.595  11.444   1.873
 7632SOL    HW223147   2.490  11.352   1.931
 7633SOL     OW23148   7.373   5.357   3.108
 7633SOL    HW123149   7.435   5.364   3.036
 7633SOL    HW223150   7.416   5.401   3.182
 7634SOL     OW23151   9.468   9.373   2.964
 7634SOL    HW123152   9.506   9.395   3.049
 7634SOL    HW223153   9.430   9.286   2.977
 7635SOL     OW23154  11.642   3.024   3.317
 7635SOL    HW123155  11.625   3.110   3.357
 7635SOL    HW223156  11.716   3.040   3.257
 7636SOL     OW23157   4.659   5.191   2.570
 7636SOL    HW123158   4.709   5.125   2.619
 7636SOL    HW223159   4.592   5.221   2.632
 7637SOL     OW23160   6.798   5.754   0.152
 7637SOL    HW123161   6.749   5.713   0.081
 7637SOL    HW223162   6.890   5.735   0.132
 7638SOL     OW23163  10.478   7.241   5.693
 7638SOL    HW123164  10.457   7.232   5.600
 7638SOL    HW223165  10.570   7.216   5.699
 7639SOL     OW23166  13.934   7.680   7.437
 7639SOL    HW123167  13.879   7.607   7.408
 7639SOL    HW223168  13.876   7.734   7.490
 7640SOL     OW23169   9.060   8.696   1.037
 7640SOL    HW123170   8.965   8.713   1.037
 7640SOL    HW223171   9.099   8.782   1.054
 7641SOL     OW23172   7.488  13.075   7.541
 7641SOL    HW123173   7.435  13.109   7.469
 7641SOL    HW223174   7.487  13.144   7.607
 7642SOL     OW23175   2.885   7.177   0.118
 7642SOL    HW123176   2.919   7.108   0.175
 7642SOL    HW223177   2.792   7.184   0.140
 7643SOL     OW23178  12.092   8.885   6.550
 7643SOL    HW123179  12.138   8.963   6.518
 7643SOL    HW223180  12.002   8.914   6.561
 7644SOL     OW23181   1.143   5.237   1.343
 7644SOL    HW123182   1.225   5.196   1.316
 7644SOL    HW223183   1.169   5.324   1.375
 7645SOL     OW23184  12.620  13.746   6.242
 7645SOL    HW123185  12.628  13.711   6.331
 7645SOL    HW223186  12.560  13.686   6.198
 7646SOL     OW23187   4.905   8.595   4.736
 7646SOL    HW123188   4.926   8.510   4.772
 7646SOL    HW223189   4.816   8.585   4.700
 7647SOL     OW23190   3.862   4.230   2.068
 7647SOL    HW123191   3.921   4.259   2.138
 7647SOL    HW223192   3.918   4.178   2.010
 7648SOL     OW23193  11.066   8.763   6.062
 7648SOL    HW123194  11.024   8.735   6.143
 7648SOL    HW223195  11.049   8.692   6.000
 7649SOL     OW23196  14.338  11.748   6.386
 7649SOL    HW123197  14.333  11.818   6.451
 7649SOL    HW223198  14.369  11.671   6.435
 7650SOL     OW23199   4.971   7.292   2.517
 7650SOL    HW123200   4.887   7.305   2.473
 7650SOL    HW223201   5.023   7.369   2.493
 7651SOL     OW23202   6.339   9.290   4.276
 7651SOL    HW123203   6.303   9.336   4.200
 7651SOL    HW223204   6.303   9.202   4.270
 7652SOL     OW23205  15.091  13.865   6.874
 7652SOL    HW123206  15.038  13.913   6.811
 7652SOL    HW223207  15.052  13.885   6.959
 7653SOL     OW23208  10.722   9.119   3.198
 7653SOL    HW123209  10.687   9.188   3.255
 7653SOL    HW223210  10.679   9.134   3.114
 7654SOL     OW23211   8.845   6.433   6.767
 7654SOL    HW123212   8.934   6.414   6.737
 7654SOL    HW223213   8.812   6.350   6.799
 7655SOL     OW23214   5.942   8.890   1.256
 7655SOL    HW123215   5.969   8.933   1.337
 7655SOL    HW223216   5.969   8.951   1.187
 7656SOL     OW23217   9.859   4.374   1.344
 7656SOL    HW123218   9.943   4.343   1.310
 7656SOL    HW223219   9.863   4.469   1.338
 7657SOL     OW23220  12.510   5.060   3.158
 7657SOL    HW123221  12.494   5.145   3.118
 7657SOL    HW223222  12.491   4.997   3.089
 7658SOL     OW23223  10.715  10.741   3.580
 7658SOL    HW123224  10.764  10.804   3.527
 7658SOL    HW223225  10.763  10.736   3.663
 7659SOL     OW23226   3.949   4.312   2.352
 7659SOL    HW123227   3.999   4.303   2.434
 7659SOL    HW223228   3.858   4.301   2.379
 7660SOL     OW23229   9.958  11.363   3.135
 7660SOL    HW123230  10.015  11.372   3.058
 7660SOL    HW223231   9.928  11.452   3.153
 7661SOL     OW23232  14.113   8.342   4.920
 7661SOL    HW123233  14.096   8.417   4.863
 7661SOL    HW223234  14.029   8.295   4.923
 7662SOL     OW23235  10.478   7.872   2.748
 7662SOL    HW123236  10.483   7.945   2.809
 7662SOL    HW223237  10.478   7.794   2.803
 7663SOL     OW23238  10.242   9.836   6.879
 7663SOL    HW123239  10.286   9.890   6.945
 7663SOL    HW223240  10.197   9.900   6.823
 7664SOL     OW23241  11.887   4.726   5.584
 7664SOL    HW123242  11.947   4.731   5.510
 7664SOL    HW223243  11.851   4.815   5.591
 7665SOL     OW23244   9.376  12.909   6.557
 7665SOL    HW123245   9.323  12.957   6.621
 7665SOL    HW223246   9.368  12.960   6.477
 7666SOL     OW23247   5.545  11.947   4.267
 7666SOL    HW123248   5.593  11.865   4.280
 7666SOL    HW223249   5.599  12.014   4.309
 7667SOL     OW23250  10.484   3.281   4.112
 7667SOL    HW123251  10.425   3.221   4.159
 7667SOL    HW223252  10.479   3.363   4.162
 7668SOL     OW23253  11.242  13.508   4.887
 7668SOL    HW123254  11.328  13.476   4.861
 7668SOL    HW223255  11.249  13.525   4.980
 7669SOL     OW23256   7.680   5.631   6.176
 7669SOL    HW123257   7.585   5.626   6.170
 7669SOL    HW223258   7.711   5.546   6.146
 7670SOL     OW23259  13.225   9.943   4.571
 7670SOL    HW123260  13.165   9.968   4.501
 7670SOL    HW223261  13.291  10.013   4.571
 7671SOL     OW23262   5.314   7.828   3.467
 7671SOL    HW123263   5.240   7.845   3.525
 7671SOL    HW223264   5.276   7.786   3.390
 7672SOL     OW23265   8.511   6.909   3.377
 7672SOL    HW123266   8.547   6.820   3.376
 7672SOL    HW223267   8.585   6.965   3.399
 7673SOL     OW23268   5.894  11.416   7.044
 7673SOL    HW123269   5.980  11.398   7.083
 7673SOL    HW223270   5.846  11.462   7.113
 7674SOL     OW23271  15.112  14.988   6.241
 7674SOL    HW123272  15.166  14.991   6.320
 7674SOL    HW223273   4.390  15.031   6.174
 7675SOL     OW23274   8.145   9.738   5.910
 7675SOL    HW123275   8.093   9.759   5.988
 7675SOL    HW223276   8.080   9.727   5.840
 7676SOL     OW23277   5.705  10.017   2.832
 7676SOL    HW123278   5.643  10.032   2.761
 7676SOL    HW223279   5.698   9.923   2.850
 7677SOL     OW23280   4.250  10.046   1.704
 7677SOL    HW123281   4.170  10.093   1.726
 7677SOL    HW223282   4.220   9.960   1.675
 7678SOL     OW23283  11.569   5.103   2.365
 7678SOL    HW123284  11.497   5.123   2.305
 7678SOL    HW223285  11.647   5.103   2.311
 7679SOL     OW23286  11.873  11.489   3.963
 7679SOL    HW123287  11.824  11.511   4.043
 7679SOL    HW223288  11.810  11.444   3.908
 7680SOL     OW23289   4.916   9.166   0.608
 7680SOL    HW123290   4.856   9.206   0.545
 7680SOL    HW223291   4.871   9.173   0.692
 7681SOL     OW23292   5.400   3.298   2.797
 7681SOL    HW123293   5.488   3.332   2.785
 7681SOL    HW223294   5.343   3.367   2.764
 7682SOL     OW23295   8.603   2.336   1.711
 7682SOL    HW123296   8.583   2.281   1.787
 7682SOL    HW223297   8.536   2.404   1.712
 7683SOL     OW23298   3.956   4.229   5.199
 7683SOL    HW123299   3.896   4.215   5.126
 7683SOL    HW223300   3.993   4.142   5.217
 7684SOL     OW23301   7.228  11.044   3.271
 7684SOL    HW123302   7.137  11.017   3.280
 7684SOL    HW223303   7.277  10.961   3.272
 7685SOL     OW23304   3.378   5.834   4.025
 7685SOL    HW123305   3.473   5.845   4.034
 7685SOL    HW223306   3.341   5.891   4.092
 7686SOL     OW23307   6.930   7.602   0.234
 7686SOL    HW123308   6.875   7.636   0.304
 7686SOL    HW223309   6.916   7.508   0.236
 7687SOL     OW23310  11.175   4.078   4.997
 7687SOL    HW123311  11.213   4.163   5.021
 7687SOL    HW223312  11.180   4.076   4.901
 7688SOL     OW23313   6.707   9.541   2.017
 7688SOL    HW123314   6.710   9.637   2.016
 7688SOL    HW223315   6.793   9.514   1.985
 7689SOL     OW23316   4.312   4.238   5.466
 7689SOL    HW123317   4.400   4.202   5.477
 7689SOL    HW223318   4.321   4.301   5.394
 7690SOL     OW23319  11.876   7.057   6.571
 7690SOL    HW123320  11.903   6.966   6.563
 7690SOL    HW223321  11.780   7.054   6.572
 7691SOL     OW23322  13.179  12.034   5.308
 7691SOL    HW123323  13.190  12.013   5.400
 7691SOL    HW223324  13.094  11.997   5.285
 7692SOL     OW23325   5.562   2.286   0.897
 7692SOL    HW123326   5.568   2.316   0.987
 7692SOL    HW223327   5.636   2.226   0.886
 7693SOL     OW23328   4.245   7.039   0.869
 7693SOL    HW123329   4.264   6.957   0.824
 7693SOL    HW223330   4.153   7.057   0.849
 7694SOL     OW23331  10.302   8.195   4.141
 7694SOL    HW123332  10.305   8.137   4.217
 7694SOL    HW223333  10.338   8.278   4.171
 7695SOL     OW23334   5.393   7.462   7.446
 7695SOL    HW123335   5.395   7.534   7.383
 7695SOL    HW223336   5.475   7.415   7.434
 7696SOL     OW23337   3.682   7.270   3.928
 7696SOL    HW123338   3.655   7.179   3.937
 7696SOL    HW223339   3.675   7.288   3.834
 7697SOL     OW23340   6.009   6.363   3.810
 7697SOL    HW123341   6.045   6.333   3.894
 7697SOL    HW223342   6.083   6.357   3.749
 7698SOL     OW23343  10.440  10.878   6.309
 7698SOL    HW123344  10.450  10.809   6.374
 7698SOL    HW223345  10.348  10.905   6.317
 7699SOL     OW23346   7.639  10.528   0.574
 7699SOL    HW123347   7.563  10.483   0.610
 7699SOL    HW223348   7.613  10.551   0.484
 7700SOL     OW23349   6.119   2.894   2.523
 7700SOL    HW123350   6.192   2.856   2.571
 7700SOL    HW223351   6.054   2.824   2.518
 7701SOL     OW23352  13.148  12.783   7.000
 7701SOL    HW123353  13.118  12.765   7.089
 7701SOL    HW223354  13.068  12.783   6.948
 7702SOL     OW23355   4.111   6.129   4.687
 7702SOL    HW123356   4.193   6.178   4.680
 7702SOL    HW223357   4.133   6.042   4.653
 7703SOL     OW23358  10.506   7.035   4.718
 7703SOL    HW123359  10.463   6.977   4.656
 7703SOL    HW223360  10.556   7.096   4.664
 7704SOL     OW23361  11.829  11.968   3.175
 7704SOL    HW123362  11.893  11.897   3.167
 7704SOL    HW223363  11.879  12.041   3.212
 7705SOL     OW23364   5.131   8.411   5.928
 7705SOL    HW123365   5.052   8.463   5.947
 7705SOL    HW223366   5.137   8.411   5.833
 7706SOL     OW23367   8.925  10.753   7.452
 7706SOL    HW123368   8.887  10.709   7.527
 7706SOL    HW223369   9.006  10.793   7.486
 7707SOL     OW23370  10.480  12.906   6.629
 7707SOL    HW123371  10.402  12.927   6.578
 7707SOL    HW223372  10.495  12.984   6.682
 7708SOL     OW23373  12.807   8.826   3.305
 7708SOL    HW123374  12.885   8.864   3.263
 7708SOL    HW223375  12.823   8.835   3.399
 7709SOL     OW23376  11.035   5.686   1.461
 7709SOL    HW123377  11.059   5.628   1.389
 7709SOL    HW223378  11.114   5.691   1.515
 7710SOL     OW23379   6.724   4.305   0.293
 7710SOL    HW123380   6.685   4.220   0.278
 7710SOL    HW223381   6.764   4.298   0.379
 7711SOL     OW23382  12.944   4.169   3.481
 7711SOL    HW123383  12.995   4.147   3.559
 7711SOL    HW223384  12.858   4.195   3.516
 7712SOL     OW23385   2.317  11.442   2.705
 7712SOL    HW123386   2.373  11.517   2.726
 7712SOL    HW223387   2.296  11.402   2.790
 7713SOL     OW23388  10.070   8.485   2.534
 7713SOL    HW123389  10.036   8.435   2.460
 7713SOL    HW223390  10.144   8.433   2.567
 7714SOL     OW23391   5.404  14.120   5.347
 7714SOL    HW123392   5.405  14.075   5.263
 7714SOL    HW223393   5.318  14.100   5.384
 7715SOL     OW23394   5.706   8.400   2.381
 7715SOL    HW123395   5.769   8.472   2.388
 7715SOL    HW223396   5.623   8.442   2.360
 7716SOL     OW23397  11.015  10.988   7.256
 7716SOL    HW123398  11.064  10.911   7.227
 7716SOL    HW223399  11.078  11.060   7.249
 7717SOL     OW23400   6.092  10.858   7.585
 7717SOL    HW123401   6.019  10.914   7.559
 7717SOL    HW223402   6.169  10.897   7.542
 7718SOL     OW23403   5.442   1.666   0.294
 7718SOL    HW123404   5.445   1.704   0.382
 7718SOL    HW223405   5.410   1.738   0.239
 7719SOL     OW23406   7.507   6.133   3.296
 7719SOL    HW123407   7.510   6.188   3.374
 7719SOL    HW223408   7.589   6.153   3.250
 7720SOL     OW23409   8.058  10.654   7.605
 7720SOL    HW123410   2.708   5.313   0.062
 7720SOL    HW223411   2.639   5.184   0.023
 7721SOL     OW23412   9.530  12.669   4.893
 7721SOL    HW123413   9.511  12.580   4.921
 7721SOL    HW223414   9.534  12.664   4.797
 7722SOL     OW23415  12.540  14.024   6.401
 7722SOL    HW123416  12.573  13.935   6.417
 7722SOL    HW223417  12.506  14.021   6.312
 7723SOL     OW23418   9.930   4.261   3.052
 7723SOL    HW123419   9.880   4.281   3.131
 7723SOL    HW223420   9.932   4.165   3.048
 7724SOL     OW23421   4.331  11.031   5.961
 7724SOL    HW123422   4.242  11.036   5.995
 7724SOL    HW223423   4.327  10.968   5.889
 7725SOL     OW23424   6.588   8.724   1.143
 7725SOL    HW123425   6.557   8.792   1.202
 7725SOL    HW223426   6.628   8.771   1.070
 7726SOL     OW23427  15.645  11.845   6.960
 7726SOL    HW123428  15.550  11.840   6.947
 7726SOL    HW223429   4.896  11.926   6.915
 7727SOL     OW23430  12.859   9.097   6.549
 7727SOL    HW123431  12.848   9.159   6.621
 7727SOL    HW223432  12.946   9.116   6.514
 7728SOL     OW23433  13.886  13.412   7.493
 7728SOL    HW123434  13.895  13.507   7.495
 7728SOL    HW223435  13.925  13.382   7.575
 7729SOL     OW23436   7.707   5.357   6.524
 7729SOL    HW123437   7.800   5.374   6.505
 7729SOL    HW223438   7.685   5.420   6.593
 7730SOL     OW23439  10.050   4.081   2.047
 7730SOL    HW123440  10.109   4.156   2.044
 7730SOL    HW223441   9.985   4.105   2.113
 7731SOL     OW23442  10.089   8.805   7.460
 7731SOL    HW123443  10.042   8.760   7.530
 7731SOL    HW223444  10.121   8.734   7.404
 7732SOL     OW23445   8.746   4.530   0.940
 7732SOL    HW123446   8.735   4.625   0.939
 7732SOL    HW223447   8.820   4.514   0.881
 7733SOL     OW23448  11.520   5.052   3.196
 7733SOL    HW123449  11.474   5.107   3.260
 7733SOL    HW223450  11.609   5.085   3.195
 7734SOL     OW23451   5.033   5.761   1.064
 7734SOL    HW123452   4.983   5.716   0.996
 7734SOL    HW223453   4.988   5.845   1.076
 7735SOL     OW23454   3.861   5.877   3.493
 7735SOL    HW123455   3.804   5.801   3.479
 7735SOL    HW223456   3.815   5.930   3.558
 7736SOL     OW23457   9.200   6.538   6.229
 7736SOL    HW123458   9.129   6.601   6.231
 7736SOL    HW223459   9.167   6.462   6.277
 7737SOL     OW23460  11.787   5.090   3.864
 7737SOL    HW123461  11.746   5.171   3.893
 7737SOL    HW223462  11.813   5.106   3.774
 7738SOL     OW23463   8.116   5.615   0.102
 7738SOL    HW123464   8.112   5.598   0.008
 7738SOL    HW223465   8.025   5.611   0.132
 7739SOL     OW23466  10.653  15.100   6.726
 7739SOL    HW123467  10.739  15.100   6.768
 7739SOL    HW223468  10.624  15.191   6.732
 7740SOL     OW23469   8.371   9.707   3.166
 7740SOL    HW123470   8.455   9.669   3.141
 7740SOL    HW223471   8.338   9.747   3.086
 7741SOL     OW23472   8.942   6.655   0.885
 7741SOL    HW123473   8.977   6.567   0.898
 7741SOL    HW223474   8.954   6.698   0.969
 7742SOL     OW23475   3.683   9.543   0.586
 7742SOL    HW123476   3.662   9.473   0.648
 7742SOL    HW223477   3.759   9.511   0.538
 7743SOL     OW23478  14.301  14.947   6.519
 7743SOL    HW123479  14.356  14.928   6.443
 7743SOL    HW223480  14.363  14.957   6.591
 7744SOL     OW23481  10.454   4.699   3.145
 7744SOL    HW123482  10.456   4.621   3.201
 7744SOL    HW223483  10.389   4.756   3.185
 7745SOL     OW23484   7.625   4.685   5.769
 7745SOL    HW123485   7.545   4.702   5.818
 7745SOL    HW223486   7.628   4.755   5.703
 7746SOL     OW23487   6.846  11.677   3.958
 7746SOL    HW123488   6.848  11.687   3.863
 7746SOL    HW223489   6.754  11.659   3.979
 7747SOL     OW23490  12.423  12.445   3.837
 7747SOL    HW123491  12.460  12.527   3.869
 7747SOL    HW223492  12.380  12.468   3.755
 7748SOL     OW23493   4.433   7.369   4.730
 7748SOL    HW123494   4.441   7.295   4.790
 7748SOL    HW223495   4.374   7.430   4.775
 7749SOL     OW23496   7.468   7.756   6.666
 7749SOL    HW123497   7.489   7.680   6.612
 7749SOL    HW223498   7.541   7.816   6.653
 7750SOL     OW23499   6.993  10.773   2.292
 7750SOL    HW123500   6.957  10.691   2.260
 7750SOL    HW223501   7.087  10.765   2.276
 7751SOL     OW23502   6.386   4.866   5.465
 7751SOL    HW123503   6.460   4.851   5.525
 7751SOL    HW223504   6.400   4.956   5.433
 7752SOL     OW23505  10.176   8.789   1.776
 7752SOL    HW123506  10.131   8.734   1.840
 7752SOL    HW223507  10.117   8.788   1.700
 7753SOL     OW23508   8.509  11.415   1.956
 7753SOL    HW123509   8.478  11.493   2.001
 7753SOL    HW223510   8.596  11.399   1.994
 7754SOL     OW23511  10.326   3.485   2.573
 7754SOL    HW123512  10.326   3.474   2.478
 7754SOL    HW223513  10.387   3.557   2.589
 7755SOL     OW23514   6.428  10.013   5.031
 7755SOL    HW123515   6.346  10.055   5.056
 7755SOL    HW223516   6.401   9.930   4.991
 7756SOL     OW23517  10.232   6.367   7.266
 7756SOL    HW123518  10.254   6.449   7.310
 7756SOL    HW223519  10.199   6.311   7.336
 7757SOL     OW23520   3.758   8.646   1.164
 7757SOL    HW123521   3.750   8.567   1.110
 7757SOL    HW223522   3.845   8.638   1.203
 7758SOL     OW23523  11.065   8.426   2.765
 7758SOL    HW123524  11.006   8.474   2.824
 7758SOL    HW223525  11.151   8.435   2.804
 7759SOL     OW23526   1.398   6.199   1.838
 7759SOL    HW123527   1.354   6.254   1.903
 7759SOL    HW223528   1.411   6.115   1.882
 7760SOL     OW23529   7.680   8.707   5.293
 7760SOL    HW123530   7.595   8.665   5.284
 7760SOL    HW223531   7.663   8.787   5.343
 7761SOL     OW23532   1.749   3.774   1.832
 7761SOL    HW123533   1.737   3.748   1.923
 7761SOL    HW223534   1.725   3.696   1.782
 7762SOL     OW23535   3.631   7.870   2.271
 7762SOL    HW123536   3.634   7.851   2.364
 7762SOL    HW223537   3.644   7.965   2.265
 7763SOL     OW23538   5.343  11.135   6.219
 7763SOL    HW123539   5.341  11.211   6.160
 7763SOL    HW223540   5.285  11.072   6.176
 7764SOL     OW23541   5.859  11.632   3.953
 7764SOL    HW123542   5.861  11.722   3.922
 7764SOL    HW223543   5.914  11.584   3.891
 7765SOL     OW23544   2.951   4.958   0.421
 7765SOL    HW123545   2.894   5.003   0.483
 7765SOL    HW223546   2.954   4.867   0.452
 7766SOL     OW23547   3.759   7.540   2.390
 7766SOL    HW123548   3.810   7.602   2.337
 7766SOL    HW223549   3.821   7.471   2.413
 7767SOL     OW23550   7.826   7.864   6.434
 7767SOL    HW123551   7.892   7.809   6.477
 7767SOL    HW223552   7.876   7.917   6.372
 7768SOL     OW23553   9.523   9.694   2.898
 7768SOL    HW123554   9.606   9.731   2.926
 7768SOL    HW223555   9.540   9.658   2.810
 7769SOL     OW23556   8.883   8.990   7.389
 7769SOL    HW123557   8.873   9.082   7.414
 7769SOL    HW223558   8.826   8.943   7.450
 7770SOL     OW23559   8.991   4.891   1.155
 7770SOL    HW123560   8.942   4.973   1.164
 7770SOL    HW223561   8.999   4.859   1.245
 7771SOL     OW23562   2.344  11.263   2.030
 7771SOL    HW123563   2.323  11.271   2.123
 7771SOL    HW223564   2.412  11.196   2.027
 7772SOL     OW23565   8.658   6.040   3.240
 7772SOL    HW123566   8.717   6.114   3.223
 7772SOL    HW223567   8.715   5.963   3.240
 7773SOL     OW23568   4.805  10.583   6.584
 7773SOL    HW123569   4.758  10.509   6.546
 7773SOL    HW223570   4.769  10.660   6.538
 7774SOL     OW23571   3.425   4.529   1.458
 7774SOL    HW123572   3.351   4.482   1.497
 7774SOL    HW223573   3.451   4.592   1.525
 7775SOL     OW23574  10.429   2.055   2.497
 7775SOL    HW123575  10.489   1.987   2.466
 7775SOL    HW223576  10.441   2.057   2.592
 7776SOL     OW23577  12.050  11.466   6.333
 7776SOL    HW123578  12.065  11.509   6.417
 7776SOL    HW223579  12.004  11.532   6.280
 7777SOL     OW23580   6.574   4.935   5.885
 7777SOL    HW123581   6.496   4.991   5.888
 7777SOL    HW223582   6.555   4.865   5.947
 7778SOL     OW23583  10.278  13.244   3.574
 7778SOL    HW123584  10.339  13.244   3.500
 7778SOL    HW223585  10.290  13.329   3.615
 7779SOL     OW23586  11.078  10.706   6.113
 7779SOL    HW123587  11.062  10.800   6.112
 7779SOL    HW223588  11.114  10.688   6.201
 7780SOL     OW23589   6.227  14.294   7.064
 7780SOL    HW123590   6.241  14.256   6.977
 7780SOL    HW223591   6.145  14.255   7.094
 7781SOL     OW23592   2.513   7.156   3.287
 7781SOL    HW123593   2.580   7.105   3.333
 7781SOL    HW223594   2.460   7.194   3.358
 7782SOL     OW23595  10.140   8.124   3.670
 7782SOL    HW123596  10.199   8.101   3.742
 7782SOL    HW223597  10.052   8.106   3.705
 7783SOL     OW23598   8.843   9.194   0.260
 7783SOL    HW123599   8.867   9.103   0.278
 7783SOL    HW223600   8.886   9.213   0.176
 7784SOL     OW23601   9.362   9.086   5.050
 7784SOL    HW123602   9.311   9.161   5.080
 7784SOL    HW223603   9.321   9.060   4.967
 7785SOL     OW23604  15.204  10.209   6.467
 7785SOL    HW123605  15.163  10.290   6.437
 7785SOL    HW223606  15.298  10.224   6.456
 7786SOL     OW23607   7.997   3.723   2.487
 7786SOL    HW123608   8.037   3.649   2.442
 7786SOL    HW223609   7.985   3.789   2.418
 7787SOL     OW23610  13.178   6.335   4.957
 7787SOL    HW123611  13.164   6.382   4.875
 7787SOL    HW223612  13.194   6.404   5.022
 7788SOL     OW23613   7.960   2.026   2.401
 7788SOL    HW123614   7.916   2.063   2.324
 7788SOL    HW223615   8.046   2.000   2.369
 7789SOL     OW23616   6.204   8.747   7.025
 7789SOL    HW123617   6.180   8.729   6.934
 7789SOL    HW223618   6.157   8.827   7.047
 7790SOL     OW23619   9.281   1.881   0.956
 7790SOL    HW123620   9.292   1.871   1.050
 7790SOL    HW223621   9.325   1.964   0.936
 7791SOL     OW23622   6.289  10.302   1.064
 7791SOL    HW123623   6.268  10.242   1.135
 7791SOL    HW223624   6.204  10.326   1.027
 7792SOL     OW23625   9.286   6.064   1.699
 7792SOL    HW123626   9.264   6.138   1.642
 7792SOL    HW223627   9.345   6.010   1.646
 7793SOL     OW23628  11.476   9.488   4.525
 7793SOL    HW123629  11.414   9.436   4.577
 7793SOL    HW223630  11.423   9.525   4.455
 7794SOL     OW23631   4.715  11.000   0.778
 7794SOL    HW123632   4.810  11.007   0.765
 7794SOL    HW223633   4.686  11.090   0.787
 7795SOL     OW23634   6.065   9.888   3.015
 7795SOL    HW123635   6.118   9.819   2.973
 7795SOL    HW223636   5.993   9.841   3.056
 7796SOL     OW23637  15.140  12.596   7.399
 7796SOL    HW123638  15.114  12.538   7.471
 7796SOL    HW223639  15.059  12.610   7.350
 7797SOL     OW23640  13.986  11.781   4.708
 7797SOL    HW123641  13.972  11.876   4.709
 7797SOL    HW223642  14.024  11.761   4.793
 7798SOL     OW23643   7.147  13.429   6.327
 7798SOL    HW123644   7.117  13.340   6.308
 7798SOL    HW223645   7.157  13.431   6.422
 7799SOL     OW23646   7.110   7.313   3.994
 7799SOL    HW123647   7.016   7.297   3.983
 7799SOL    HW223648   7.131   7.378   3.927
 7800SOL     OW23649   3.820   8.663   0.465
 7800SOL    HW123650   3.732   8.628   0.475
 7800SOL    HW223651   3.807   8.757   0.452
 7801SOL     OW23652   6.702  12.519   3.617
 7801SOL    HW123653   6.658  12.444   3.576
 7801SOL    HW223654   6.669  12.595   3.569
 7802SOL     OW23655   7.181   3.433   0.921
 7802SOL    HW123656   7.095   3.420   0.961
 7802SOL    HW223657   7.177   3.520   0.882
 7803SOL     OW23658   5.910   9.761   5.654
 7803SOL    HW123659   5.915   9.750   5.560
 7803SOL    HW223660   5.976   9.702   5.690
 7804SOL     OW23661   4.492   6.649   6.142
 7804SOL    HW123662   4.429   6.682   6.206
 7804SOL    HW223663   4.570   6.629   6.194
 7805SOL     OW23664   7.200   8.543   0.426
 7805SOL    HW123665   7.282   8.580   0.393
 7805SOL    HW223666   7.141   8.544   0.351
 7806SOL     OW23667   3.580  10.254   1.894
 7806SOL    HW123668   3.640  10.242   1.820
 7806SOL    HW223669   3.556  10.165   1.921
 7807SOL     OW23670   8.688   6.225   1.754
 7807SOL    HW123671   8.659   6.186   1.837
 7807SOL    HW223672   8.714   6.150   1.701
 7808SOL     OW23673   9.785  11.052   3.109
 7808SOL    HW123674   9.770  11.114   3.181
 7808SOL    HW223675   9.812  10.971   3.152
 7809SOL     OW23676   8.328   8.888   7.048
 7809SOL    HW123677   8.242   8.917   7.018
 7809SOL    HW223678   8.384   8.966   7.041
 7810SOL     OW23679   4.459  13.385   4.634
 7810SOL    HW123680   4.533  13.381   4.574
 7810SOL    HW223681   4.387  13.342   4.588
 7811SOL     OW23682  10.890  14.828   5.994
 7811SOL    HW123683  10.981  14.857   5.986
 7811SOL    HW223684  10.893  14.734   5.974
 7812SOL     OW23685   2.269   5.121   1.858
 7812SOL    HW123686   2.360   5.111   1.830
 7812SOL    HW223687   2.222   5.147   1.779
 7813SOL     OW23688   9.631  10.464   1.228
 7813SOL    HW123689   9.698  10.397   1.216
 7813SOL    HW223690   9.558  10.435   1.172
 7814SOL     OW23691   5.508   7.207   2.626
 7814SOL    HW123692   5.448   7.247   2.562
 7814SOL    HW223693   5.475   7.237   2.711
 7815SOL     OW23694  11.138   3.170   3.871
 7815SOL    HW123695  11.106   3.260   3.865
 7815SOL    HW223696  11.123   3.133   3.784
 7816SOL     OW23697   8.485  10.828   5.357
 7816SOL    HW123698   8.480  10.734   5.338
 7816SOL    HW223699   8.576  10.844   5.381
 7817SOL     OW23700   6.974  14.735   7.108
 7817SOL    HW123701   6.967  14.741   7.013
 7817SOL    HW223702   7.020  14.814   7.134
 7818SOL     OW23703  11.218   9.541   1.617
 7818SOL    HW123704  11.281   9.474   1.593
 7818SOL    HW223705  11.137   9.515   1.572
 7819SOL     OW23706  13.321   8.616   4.782
 7819SOL    HW123707  13.347   8.707   4.767
 7819SOL    HW223708  13.250   8.622   4.846
 7820SOL     OW23709   6.918   5.500   0.919
 7820SOL    HW123710   6.926   5.412   0.957
 7820SOL    HW223711   6.944   5.559   0.990
 7821SOL     OW23712   4.100   7.654   0.360
 7821SOL    HW123713   4.124   7.590   0.427
 7821SOL    HW223714   4.113   7.607   0.277
 7822SOL     OW23715  13.724  14.290   6.582
 7822SOL    HW123716  13.695  14.360   6.640
 7822SOL    HW223717  13.789  14.241   6.633
 7823SOL     OW23718   7.440   5.206   1.485
 7823SOL    HW123719   7.526   5.165   1.493
 7823SOL    HW223720   7.422   5.241   1.572
 7824SOL     OW23721  12.782   7.455   4.994
 7824SOL    HW123722  12.709   7.506   4.959
 7824SOL    HW223723  12.743   7.402   5.064
 7825SOL     OW23724   9.026   2.879   2.278
 7825SOL    HW123725   9.031   2.879   2.182
 7825SOL    HW223726   8.947   2.828   2.298
 7826SOL     OW23727   9.774   4.924   0.173
 7826SOL    HW123728   9.737   4.846   0.215
 7826SOL    HW223729   9.783   4.900   0.081
 7827SOL     OW23730   2.947   7.328   1.758
 7827SOL    HW123731   2.878   7.265   1.736
 7827SOL    HW223732   2.927   7.354   1.848
 7828SOL     OW23733  10.561   1.495   1.783
 7828SOL    HW123734  10.553   1.421   1.843
 7828SOL    HW223735  10.525   1.569   1.831
 7829SOL     OW23736   4.418   9.079   1.109
 7829SOL    HW123737   4.341   9.127   1.077
 7829SOL    HW223738   4.493   9.128   1.075
 7830SOL     OW23739   5.305   0.553   0.735
 7830SOL    HW123740   5.400   0.549   0.742
 7830SOL    HW223741   5.284   0.646   0.735
 7831SOL     OW23742   0.821   0.792   0.466
 7831SOL    HW123743   0.831   0.788   0.371
 7831SOL    HW223744   0.810   0.701   0.494
 7832SOL     OW23745   3.596   6.137   3.533
 7832SOL    HW123746   3.611   6.105   3.622
 7832SOL    HW223747   3.651   6.216   3.527
 7833SOL     OW23748   6.363  12.781   3.084
 7833SOL    HW123749   6.399  12.830   3.011
 7833SOL    HW223750   6.397  12.824   3.162
 7834SOL     OW23751   8.199  12.253   7.608
 7834SOL    HW123752   8.295  12.259   7.607
 7834SOL    HW223753   2.792   6.816   0.068
 7835SOL     OW23754   6.163   8.905   5.679
 7835SOL    HW123755   6.090   8.966   5.669
 7835SOL    HW223756   6.123   8.819   5.670
 7836SOL     OW23757  13.523   7.536   5.873
 7836SOL    HW123758  13.540   7.446   5.902
 7836SOL    HW223759  13.509   7.585   5.953
 7837SOL     OW23760   9.543   8.433   5.633
 7837SOL    HW123761   9.508   8.387   5.557
 7837SOL    HW223762   9.465   8.456   5.684
 7838SOL     OW23763  10.275   9.501   7.020
 7838SOL    HW123764  10.217   9.534   6.952
 7838SOL    HW223765  10.344   9.455   6.972
 7839SOL     OW23766   4.683   3.880   1.717
 7839SOL    HW123767   4.701   3.929   1.637
 7839SOL    HW223768   4.606   3.924   1.755
 7840SOL     OW23769  13.404  13.761   5.183
 7840SOL    HW123770  13.348  13.716   5.119
 7840SOL    HW223771  13.357  13.843   5.201
 7841SOL     OW23772   1.364   3.445   1.609
 7841SOL    HW123773   1.316   3.391   1.672
 7841SOL    HW223774   1.303   3.459   1.537
 7842SOL     OW23775   9.446   3.102   0.750
 7842SOL    HW123776   9.370   3.048   0.772
 7842SOL    HW223777   9.515   3.040   0.731
 7843SOL     OW23778   4.684   2.342   0.938
 7843SOL    HW123779   4.635   2.379   1.011
 7843SOL    HW223780   4.626   2.352   0.863
 7844SOL     OW23781   5.136   9.962   3.251
 7844SOL    HW123782   5.137   9.950   3.346
 7844SOL    HW223783   5.047   9.991   3.231
 7845SOL     OW23784   6.185   4.703   5.371
 7845SOL    HW123785   6.129   4.769   5.331
 7845SOL    HW223786   6.243   4.752   5.429
 7846SOL     OW23787   2.129  10.622   1.196
 7846SOL    HW123788   2.103  10.530   1.195
 7846SOL    HW223789   2.184  10.631   1.274
 7847SOL     OW23790   5.716  13.454   7.297
 7847SOL    HW123791   5.699  13.469   7.390
 7847SOL    HW223792   5.773  13.377   7.295
 7848SOL     OW23793   8.466   9.263   2.982
 7848SOL    HW123794   8.518   9.184   2.997
 7848SOL    HW223795   8.530   9.334   2.985
 7849SOL     OW23796   5.801   5.374   1.540
 7849SOL    HW123797   5.764   5.428   1.610
 7849SOL    HW223798   5.842   5.436   1.480
 7850SOL     OW23799  11.730   9.897   4.927
 7850SOL    HW123800  11.801   9.835   4.945
 7850SOL    HW223801  11.689   9.863   4.847
 7851SOL     OW23802   3.706   3.862   2.088
 7851SOL    HW123803   3.784   3.869   2.032
 7851SOL    HW223804   3.708   3.771   2.119
 7852SOL     OW23805   3.171   8.737   1.385
 7852SOL    HW123806   3.258   8.705   1.360
 7852SOL    HW223807   3.149   8.801   1.317
 7853SOL     OW23808   3.410  12.252   3.390
 7853SOL    HW123809   3.315  12.258   3.403
 7853SOL    HW223810   3.420  12.194   3.314
 7854SOL     OW23811   9.254   9.758   4.188
 7854SOL    HW123812   9.256   9.746   4.283
 7854SOL    HW223813   9.223   9.674   4.154
 7855SOL     OW23814  14.564  13.307   6.232
 7855SOL    HW123815  14.603  13.387   6.268
 7855SOL    HW223816  14.470  13.324   6.231
 7856SOL     OW23817   3.553   5.745   0.035
 7856SOL    HW123818   3.611   5.819   0.054
 7856SOL    HW223819   3.546   5.698   0.118
 7857SOL     OW23820  13.987  14.357   6.227
 7857SOL    HW123821  14.072  14.385   6.192
 7857SOL    HW223822  14.003  14.268   6.260
 7858SOL     OW23823   6.592   7.725   3.097
 7858SOL    HW123824   6.659   7.792   3.083
 7858SOL    HW223825   6.522   7.748   3.035
 7859SOL     OW23826   5.751   5.958   0.413
 7859SOL    HW123827   5.667   6.002   0.398
 7859SOL    HW223828   5.753   5.940   0.507
 7860SOL     OW23829   9.820  12.278   6.164
 7860SOL    HW123830   9.738  12.326   6.178
 7860SOL    HW223831   9.791  12.191   6.134
 7861SOL     OW23832   5.606   6.745   4.006
 7861SOL    HW123833   5.669   6.808   4.041
 7861SOL    HW223834   5.530   6.753   4.064
 7862SOL     OW23835   8.580   5.237   5.111
 7862SOL    HW123836   8.577   5.322   5.067
 7862SOL    HW223837   8.664   5.237   5.157
 7863SOL     OW23838   9.338   4.743   2.866
 7863SOL    HW123839   9.313   4.835   2.874
 7863SOL    HW223840   9.405   4.731   2.933
 7864SOL     OW23841   7.656  13.431   5.701
 7864SOL    HW123842   7.730  13.370   5.701
 7864SOL    HW223843   7.657  13.469   5.613
 7865SOL     OW23844   9.882   7.564   3.179
 7865SOL    HW123845   9.790   7.590   3.171
 7865SOL    HW223846   9.880   7.469   3.170
 7866SOL     OW23847   8.466  11.959   5.190
 7866SOL    HW123848   8.405  12.022   5.153
 7866SOL    HW223849   8.488  11.901   5.117
 7867SOL     OW23850  12.638   9.880   6.389
 7867SOL    HW123851  12.592   9.930   6.321
 7867SOL    HW223852  12.697   9.822   6.341
 7868SOL     OW23853   4.838  11.499   1.710
 7868SOL    HW123854   4.787  11.509   1.629
 7868SOL    HW223855   4.835  11.585   1.752
 7869SOL     OW23856  10.575  11.204   5.927
 7869SOL    HW123857  10.611  11.211   6.016
 7869SOL    HW223858  10.488  11.241   5.933
 7870SOL     OW23859   4.173  10.128   5.271
 7870SOL    HW123860   4.135  10.215   5.260
 7870SOL    HW223861   4.267  10.142   5.266
 7871SOL     OW23862  13.764   6.630   7.438
 7871SOL    HW123863  13.787   6.712   7.395
 7871SOL    HW223864  13.760   6.566   7.367
 7872SOL     OW23865   9.686   8.533   0.458
 7872SOL    HW123866   9.765   8.483   0.477
 7872SOL    HW223867   9.708   8.623   0.484
 7873SOL     OW23868   9.491   5.047   6.226
 7873SOL    HW123869   9.545   5.119   6.195
 7873SOL    HW223870   9.401   5.079   6.218
 7874SOL     OW23871  13.168  13.815   7.553
 7874SOL    HW123872  13.078  13.808   7.522
 7874SOL    HW223873   7.776   8.487   0.010
 7875SOL     OW23874   5.607   4.470   4.161
 7875SOL    HW123875   5.693   4.481   4.201
 7875SOL    HW223876   5.560   4.550   4.182
 7876SOL     OW23877  14.525  13.059   6.093
 7876SOL    HW123878  14.543  13.092   6.005
 7876SOL    HW223879  14.495  13.135   6.141
 7877SOL     OW23880  13.528   5.966   6.350
 7877SOL    HW123881  13.528   5.965   6.446
 7877SOL    HW223882  13.463   6.032   6.327
 7878SOL     OW23883   9.284  11.983   4.067
 7878SOL    HW123884   9.282  11.978   4.162
 7878SOL    HW223885   9.196  11.955   4.040
 7879SOL     OW23886   9.196  13.269   3.778
 7879SOL    HW123887   9.106  13.301   3.770
 7879SOL    HW223888   9.246  13.344   3.806
 7880SOL     OW23889  12.657   7.171   7.044
 7880SOL    HW123890  12.692   7.094   7.088
 7880SOL    HW223891  12.655   7.147   6.951
 7881SOL     OW23892   6.242   6.296   6.892
 7881SOL    HW123893   6.263   6.239   6.966
 7881SOL    HW223894   6.206   6.238   6.826
 7882SOL     OW23895   8.705  10.775   5.026
 7882SOL    HW123896   8.744  10.733   4.949
 7882SOL    HW223897   8.677  10.701   5.081
 7883SOL     OW23898   4.900  10.593   6.886
 7883SOL    HW123899  15.612  10.522   6.900
 7883SOL    HW223900   4.884  10.622   6.796
 7884SOL     OW23901  13.264   7.281   6.671
 7884SOL    HW123902  13.284   7.345   6.603
 7884SOL    HW223903  13.347   7.266   6.715
 7885SOL     OW23904   5.244   4.883   2.910
 7885SOL    HW123905   5.217   4.877   2.818
 7885SOL    HW223906   5.329   4.839   2.913
 7886SOL     OW23907   7.054  10.704   1.944
 7886SOL    HW123908   7.025  10.760   2.016
 7886SOL    HW223909   7.139  10.669   1.973
 7887SOL     OW23910  12.329   7.561   6.667
 7887SOL    HW123911  12.421   7.536   6.676
 7887SOL    HW223912  12.297   7.570   6.757
 7888SOL     OW23913  12.240   4.564   2.912
 7888SOL    HW123914  12.192   4.644   2.929
 7888SOL    HW223915  12.248   4.522   2.998
 7889SOL     OW23916  13.337   4.538   4.027
 7889SOL    HW123917  13.318   4.444   4.034
 7889SOL    HW223918  13.426   4.547   4.062
 7890SOL     OW23919   8.234   9.972   6.888
 7890SOL    HW123920   8.299   9.941   6.951
 7890SOL    HW223921   8.178   9.896   6.871
 7891SOL     OW23922   4.419  11.139   3.307
 7891SOL    HW123923   4.504  11.174   3.334
 7891SOL    HW223924   4.391  11.196   3.236
 7892SOL     OW23925   8.796   2.467   1.095
 7892SOL    HW123926   8.826   2.379   1.074
 7892SOL    HW223927   8.829   2.483   1.184
 7893SOL     OW23928  14.526   7.592   6.061
 7893SOL    HW123929  14.491   7.678   6.039
 7893SOL    HW223930  14.493   7.575   6.149
 7894SOL     OW23931  15.096   5.434   6.855
 7894SOL    HW123932  15.054   5.493   6.792
 7894SOL    HW223933  15.072   5.469   6.941
 7895SOL     OW23934   9.916   9.034   2.415
 7895SOL    HW123935   9.880   9.046   2.327
 7895SOL    HW223936   9.958   9.118   2.436
 7896SOL     OW23937   7.656   4.028   2.238
 7896SOL    HW123938   7.709   4.048   2.161
 7896SOL    HW223939   7.574   3.992   2.203
 7897SOL     OW23940   8.889   7.160   1.444
 7897SOL    HW123941   8.855   7.080   1.404
 7897SOL    HW223942   8.835   7.173   1.522
 7898SOL     OW23943  12.736   5.504   5.780
 7898SOL    HW123944  12.654   5.544   5.809
 7898SOL    HW223945  12.796   5.515   5.853
 7899SOL     OW23946  11.592  12.008   3.718
 7899SOL    HW123947  11.529  12.032   3.650
 7899SOL    HW223948  11.655  12.080   3.719
 7900SOL     OW23949   2.920   6.436   3.855
 7900SOL    HW123950   2.940   6.342   3.857
 7900SOL    HW223951   2.968   6.472   3.930
 7901SOL     OW23952   5.994   6.098   0.456
 7901SOL    HW123953   5.930   6.055   0.399
 7901SOL    HW223954   5.976   6.063   0.543
 7902SOL     OW23955   6.237   8.827   5.023
 7902SOL    HW123956   6.147   8.830   4.989
 7902SOL    HW223957   6.290   8.866   4.953
 7903SOL     OW23958  10.846  11.733   1.787
 7903SOL    HW123959  10.883  11.800   1.846
 7903SOL    HW223960  10.764  11.771   1.757
 7904SOL     OW23961   5.383  12.473   3.864
 7904SOL    HW123962   5.342  12.556   3.889
 7904SOL    HW223963   5.318  12.407   3.886
 7905SOL     OW23964   6.780  10.852   7.524
 7905SOL    HW123965   6.799  10.904   7.602
 7905SOL    HW223966   6.856  10.864   7.467
 7906SOL     OW23967  10.341   7.276   4.900
 7906SOL    HW123968  10.404   7.283   4.827
 7906SOL    HW223969  10.367   7.346   4.960
 7907SOL     OW23970  10.678   3.564   1.507
 7907SOL    HW123971  10.691   3.555   1.412
 7907SOL    HW223972  10.584   3.572   1.518
 7908SOL     OW23973  10.174  11.380   3.012
 7908SOL    HW123974  10.232  11.326   3.064
 7908SOL    HW223975  10.231  11.419   2.945
 7909SOL     OW23976  11.181   6.565   0.984
 7909SOL    HW123977  11.186   6.511   1.062
 7909SOL    HW223978  11.239   6.522   0.921
 7910SOL     OW23979   7.801   8.417   1.211
 7910SOL    HW123980   7.731   8.482   1.217
 7910SOL    HW223981   7.847   8.422   1.294
 7911SOL     OW23982   6.396  11.613   4.023
 7911SOL    HW123983   6.336  11.680   3.989
 7911SOL    HW223984   6.346  11.570   4.092
 7912SOL     OW23985   5.149   5.117   0.465
 7912SOL    HW123986   5.154   5.118   0.561
 7912SOL    HW223987   5.225   5.168   0.437
 7913SOL     OW23988   6.904  12.989   4.961
 7913SOL    HW123989   6.918  13.066   5.017
 7913SOL    HW223990   6.962  12.922   4.996
 7914SOL     OW23991   4.830   1.223   0.233
 7914SOL    HW123992   4.860   1.235   0.323
 7914SOL    HW223993   4.850   1.306   0.190
 7915SOL     OW23994  10.916  14.520   6.258
 7915SOL    HW123995  10.937  14.528   6.165
 7915SOL    HW223996  10.912  14.610   6.289
 7916SOL     OW23997   5.284   5.065   6.460
 7916SOL    HW123998   5.239   5.149   6.456
 7916SOL    HW223999   5.214   5.002   6.481
 7917SOL     OW24000   9.577   6.042   0.904
 7917SOL    HW124001   9.671   6.051   0.890
 7917SOL    HW224002   9.556   5.956   0.868
 7918SOL     OW24003  11.252   8.877   3.429
 7918SOL    HW124004  11.166   8.900   3.463
 7918SOL    HW224005  11.289   8.960   3.398
 7919SOL     OW24006   6.063   9.418   6.581
 7919SOL    HW124007   6.048   9.473   6.503
 7919SOL    HW224008   6.114   9.474   6.640
 7920SOL     OW24009   7.453  11.218   5.537
 7920SOL    HW124010   7.374  11.266   5.512
 7920SOL    HW224011   7.474  11.164   5.461
 7921SOL     OW24012   4.071   1.277   1.054
 7921SOL    HW124013   4.038   1.269   1.144
 7921SOL    HW224014   4.029   1.357   1.020
 7922SOL     OW24015   4.778   9.971   6.454
 7922SOL    HW124016   4.690   9.937   6.440
 7922SOL    HW224017   4.768  10.066   6.446
 7923SOL     OW24018  11.650   4.852   5.248
 7923SOL    HW124019  11.610   4.771   5.217
 7923SOL    HW224020  11.722   4.823   5.305
 7924SOL     OW24021   3.341   1.212   0.601
 7924SOL    HW124022   3.353   1.153   0.526
 7924SOL    HW224023   3.337   1.154   0.676
 7925SOL     OW24024   3.364   9.029   2.623
 7925SOL    HW124025   3.336   8.973   2.550
 7925SOL    HW224026   3.439   8.985   2.661
 7926SOL     OW24027   6.400   2.741   1.336
 7926SOL    HW124028   6.312   2.779   1.331
 7926SOL    HW224029   6.452   2.807   1.382
 7927SOL     OW24030   8.352  12.865   4.131
 7927SOL    HW124031   8.300  12.934   4.091
 7927SOL    HW224032   8.309  12.784   4.106
 7928SOL     OW24033  16.102   8.596   7.580
 7928SOL    HW124034  16.019   8.642   7.595
 7928SOL    HW224035  16.076   8.512   7.541
 7929SOL     OW24036   5.633  14.696   7.470
 7929SOL    HW124037   5.673  14.783   7.479
 7929SOL    HW224038   5.634  14.660   7.558
 7930SOL     OW24039   5.696   7.416   5.544
 7930SOL    HW124040   5.717   7.505   5.573
 7930SOL    HW224041   5.641   7.428   5.467
 7931SOL     OW24042  12.479  12.151   5.666
 7931SOL    HW124043  12.402  12.191   5.624
 7931SOL    HW224044  12.510  12.087   5.603
 7932SOL     OW24045   9.580   3.949   4.283
 7932SOL    HW124046   9.605   3.866   4.241
 7932SOL    HW224047   9.490   3.934   4.312
 7933SOL     OW24048  13.045   5.830   6.166
 7933SOL    HW124049  13.019   5.892   6.234
 7933SOL    HW224050  13.139   5.842   6.157
 7934SOL     OW24051  10.272   7.648   2.951
 7934SOL    HW124052  10.271   7.553   2.939
 7934SOL    HW224053  10.363   7.673   2.932
 7935SOL     OW24054   9.085   9.771   5.721
 7935SOL    HW124055   9.171   9.813   5.715
 7935SOL    HW224056   9.102   9.678   5.703
 7936SOL     OW24057   3.880   6.811   3.635
 7936SOL    HW124058   3.840   6.886   3.678
 7936SOL    HW224059   3.921   6.761   3.705
 7937SOL     OW24060   2.868   2.131   2.686
 7937SOL    HW124061   2.918   2.202   2.727
 7937SOL    HW224062   2.930   2.058   2.680
 7938SOL     OW24063   5.477   8.403   4.019
 7938SOL    HW124064   5.441   8.375   4.104
 7938SOL    HW224065   5.406   8.386   3.957
 7939SOL     OW24066  10.695   8.566   7.027
 7939SOL    HW124067  10.753   8.504   7.072
 7939SOL    HW224068  10.624   8.581   7.090
 7940SOL     OW24069   9.293   8.510   3.062
 7940SOL    HW124070   9.305   8.505   2.967
 7940SOL    HW224071   9.350   8.441   3.097
 7941SOL     OW24072   8.153  10.826   6.859
 7941SOL    HW124073   8.208  10.893   6.817
 7941SOL    HW224074   8.206  10.746   6.855
 7942SOL     OW24075  12.966   5.730   6.412
 7942SOL    HW124076  12.924   5.653   6.448
 7942SOL    HW224077  12.895   5.781   6.373
 7943SOL     OW24078   0.414  10.515   0.370
 7943SOL    HW124079   0.412  10.469   0.454
 7943SOL    HW224080   0.505  10.544   0.361
 7944SOL     OW24081   5.490   1.534   1.845
 7944SOL    HW124082   5.552   1.516   1.774
 7944SOL    HW224083   5.463   1.625   1.831
 7945SOL     OW24084   9.963   8.208   5.991
 7945SOL    HW124085   9.878   8.252   5.993
 7945SOL    HW224086  10.016   8.261   5.932
 7946SOL     OW24087   4.884   6.819   2.559
 7946SOL    HW124088   4.931   6.736   2.552
 7946SOL    HW224089   4.801   6.803   2.514
 7947SOL     OW24090  10.102  12.034   6.679
 7947SOL    HW124091  10.099  11.944   6.712
 7947SOL    HW224092  10.140  12.026   6.591
 7948SOL     OW24093  13.052  14.152   5.832
 7948SOL    HW124094  12.978  14.107   5.792
 7948SOL    HW224095  13.088  14.088   5.894
 7949SOL     OW24096  10.883  10.582   3.412
 7949SOL    HW124097  10.954  10.521   3.391
 7949SOL    HW224098  10.888  10.593   3.507
 7950SOL     OW24099   3.596   4.750   4.633
 7950SOL    HW124100   3.512   4.788   4.656
 7950SOL    HW224101   3.617   4.692   4.706
 7951SOL     OW24102   2.700   9.380   1.174
 7951SOL    HW124103   2.648   9.306   1.206
 7951SOL    HW224104   2.712   9.435   1.251
 7952SOL     OW24105  11.795   6.758   7.545
 7952SOL    HW124106  11.812   6.670   7.579
 7952SOL    HW224107  11.881   6.794   7.528
 7953SOL     OW24108   5.585   3.451   1.906
 7953SOL    HW124109   5.566   3.538   1.870
 7953SOL    HW224110   5.584   3.463   2.001
 7954SOL     OW24111   5.652   7.988   6.953
 7954SOL    HW124112   5.658   7.894   6.933
 7954SOL    HW224113   5.663   7.994   7.047
 7955SOL     OW24114   8.152   3.964   1.312
 7955SOL    HW124115   8.074   3.915   1.286
 7955SOL    HW224116   8.138   3.984   1.405
 7956SOL     OW24117   5.370  13.372   4.262
 7956SOL    HW124118   5.452  13.338   4.298
 7956SOL    HW224119   5.366  13.462   4.295
 7957SOL     OW24120   8.840   5.483   1.577
 7957SOL    HW124121   8.912   5.475   1.639
 7957SOL    HW224122   8.877   5.530   1.502
 7958SOL     OW24123   8.652   0.987   0.906
 7958SOL    HW124124   8.686   0.944   0.984
 7958SOL    HW224125   8.729   1.008   0.855
 7959SOL     OW24126   8.007   2.688   1.933
 7959SOL    HW124127   8.019   2.676   1.839
 7959SOL    HW224128   7.944   2.621   1.958
 7960SOL     OW24129   6.448   5.353   5.117
 7960SOL    HW124130   6.375   5.328   5.061
 7960SOL    HW224131   6.521   5.298   5.089
 7961SOL     OW24132   5.406   8.832   5.328
 7961SOL    HW124133   5.415   8.912   5.277
 7961SOL    HW224134   5.495   8.807   5.350
 7962SOL     OW24135   6.141  10.335   4.428
 7962SOL    HW124136   6.074  10.330   4.496
 7962SOL    HW224137   6.092  10.329   4.346
 7963SOL     OW24138   7.378  13.305   5.998
 7963SOL    HW124139   7.307  13.359   5.962
 7963SOL    HW224140   7.458  13.351   5.972
 7964SOL     OW24141  12.932  14.253   6.676
 7964SOL    HW124142  12.853  14.308   6.684
 7964SOL    HW224143  12.989  14.283   6.746
 7965SOL     OW24144   1.535   8.245   2.131
 7965SOL    HW124145  12.250   8.317   2.111
 7965SOL    HW224146   1.502   8.171   2.080
 7966SOL     OW24147  12.725   4.994   5.059
 7966SOL    HW124148  12.648   4.970   5.111
 7966SOL    HW224149  12.695   5.068   5.006
 7967SOL     OW24150   2.443  11.886   2.513
 7967SOL    HW124151   2.498  11.950   2.559
 7967SOL    HW224152   2.397  11.840   2.583
 7968SOL     OW24153   6.376   7.636   0.945
 7968SOL    HW124154   6.461   7.676   0.927
 7968SOL    HW224155   6.361   7.577   0.870
 7969SOL     OW24156   5.221   2.947   2.671
 7969SOL    HW124157   5.285   3.017   2.663
 7969SOL    HW224158   5.144   2.989   2.710
 7970SOL     OW24159   2.628  10.414   1.773
 7970SOL    HW124160   2.567  10.486   1.755
 7970SOL    HW224161   2.679  10.443   1.848
 7971SOL     OW24162  12.587  12.619   5.569
 7971SOL    HW124163  12.494  12.635   5.550
 7971SOL    HW224164  12.595  12.524   5.573
 7972SOL     OW24165   5.147   8.882   2.559
 7972SOL    HW124166   5.161   8.830   2.480
 7972SOL    HW224167   5.213   8.951   2.555
 7973SOL     OW24168   6.826  10.713   5.958
 7973SOL    HW124169   6.798  10.634   6.004
 7973SOL    HW224170   6.756  10.776   5.973
 7974SOL     OW24171  11.116   6.386   1.270
 7974SOL    HW124172  11.089   6.295   1.252
 7974SOL    HW224173  11.126   6.390   1.365
 7975SOL     OW24174   6.847   8.270   0.970
 7975SOL    HW124175   6.885   8.353   1.001
 7975SOL    HW224176   6.902   8.202   1.009
 7976SOL     OW24177  11.683  11.735   5.480
 7976SOL    HW124178  11.602  11.721   5.529
 7976SOL    HW224179  11.661  11.804   5.417
 7977SOL     OW24180  13.875  12.065   4.691
 7977SOL    HW124181  13.785  12.038   4.670
 7977SOL    HW224182  13.917  12.074   4.605
 7978SOL     OW24183   8.014  10.180   2.672
 7978SOL    HW124184   8.006  10.248   2.739
 7978SOL    HW224185   7.928  10.179   2.629
 7979SOL     OW24186   5.966   9.894   4.268
 7979SOL    HW124187   6.027   9.869   4.337
 7979SOL    HW224188   5.983   9.988   4.255
 7980SOL     OW24189   7.902  12.024   2.142
 7980SOL    HW124190   7.887  12.040   2.235
 7980SOL    HW224191   7.819  12.045   2.099
 7981SOL     OW24192   7.985  13.923   5.612
 7981SOL    HW124193   7.927  13.998   5.614
 7981SOL    HW224194   7.951  13.867   5.542
 7982SOL     OW24195   2.640   5.728   0.660
 7982SOL    HW124196   2.668   5.792   0.594
 7982SOL    HW224197   2.687   5.753   0.739
 7983SOL     OW24198  10.462   3.869   0.234
 7983SOL    HW124199  10.370   3.895   0.239
 7983SOL    HW224200  10.475   3.810   0.308
 7984SOL     OW24201  10.542   8.665   0.964
 7984SOL    HW124202  10.522   8.641   0.874
 7984SOL    HW224203  10.622   8.616   0.984
 7985SOL     OW24204   2.584   5.194   0.700
 7985SOL    HW124205   2.554   5.157   0.617
 7985SOL    HW224206   2.601   5.286   0.681
 7986SOL     OW24207   6.116  14.465   6.816
 7986SOL    HW124208   6.092  14.443   6.726
 7986SOL    HW224209   6.035  14.456   6.866
 7987SOL     OW24210   4.592   4.555   5.045
 7987SOL    HW124211   4.683   4.585   5.053
 7987SOL    HW224212   4.593   4.499   4.967
 7988SOL     OW24213   5.732   8.926   2.755
 7988SOL    HW124214   5.788   8.874   2.698
 7988SOL    HW224215   5.644   8.891   2.741
 7989SOL     OW24216   3.194   1.045   1.142
 7989SOL    HW124217   3.102   1.026   1.163
 7989SOL    HW224218   3.211   1.129   1.184
 7990SOL     OW24219   2.342   4.478   1.041
 7990SOL    HW124220   2.291   4.458   0.963
 7990SOL    HW224221   2.277   4.491   1.110
 7991SOL     OW24222   3.010   3.294   3.467
 7991SOL    HW124223   2.978   3.209   3.437
 7991SOL    HW224224   2.949   3.358   3.429
 7992SOL     OW24225   8.598   6.227   4.305
 7992SOL    HW124226   8.555   6.261   4.227
 7992SOL    HW224227   8.581   6.293   4.372
 7993SOL     OW24228  10.516   5.505   7.337
 7993SOL    HW124229  10.430   5.547   7.332
 7993SOL    HW224230  10.518   5.445   7.263
 7994SOL     OW24231  11.911   9.526   6.548
 7994SOL    HW124232  11.899   9.439   6.509
 7994SOL    HW224233  11.963   9.574   6.484
 7995SOL     OW24234   6.318   8.159   1.799
 7995SOL    HW124235   6.235   8.200   1.772
 7995SOL    HW224236   6.336   8.095   1.731
 7996SOL     OW24237  13.602   9.976   6.492
 7996SOL    HW124238  13.570   9.907   6.550
 7996SOL    HW224239  13.677   9.938   6.447
 7997SOL     OW24240  12.336   9.338   5.733
 7997SOL    HW124241  12.282   9.334   5.812
 7997SOL    HW224242  12.330   9.251   5.695
 7998SOL     OW24243  12.281   3.549   2.307
 7998SOL    HW124244  12.215   3.506   2.252
 7998SOL    HW224245  12.229   3.601   2.370
 7999SOL     OW24246   9.884   4.714   4.070
 7999SOL    HW124247   9.953   4.692   4.007
 7999SOL    HW224248   9.861   4.804   4.050
 8000SOL     OW24249   6.185   5.920   3.752
 8000SOL    HW124250   6.244   5.972   3.807
 8000SOL    HW224251   6.243   5.862   3.703
 8001SOL     OW24252   8.367   7.891   5.429
 8001SOL    HW124253   8.458   7.880   5.458
 8001SOL    HW224254   8.328   7.948   5.495
 8002SOL     OW24255   0.264   9.098   0.284
 8002SOL    HW124256   0.295   9.175   0.237
 8002SOL    HW224257  11.013   9.131   0.370
 8003SOL     OW24258   2.859   8.039   3.691
 8003SOL    HW124259   2.835   8.123   3.731
 8003SOL    HW224260   2.955   8.037   3.695
 8004SOL     OW24261   5.971   9.321   6.177
 8004SOL    HW124262   5.939   9.364   6.256
 8004SOL    HW224263   5.996   9.393   6.119
 8005SOL     OW24264  13.364  10.143   7.061
 8005SOL    HW124265  13.430  10.095   7.012
 8005SOL    HW224266  13.372  10.110   7.151
 8006SOL     OW24267  12.565  12.842   3.992
 8006SOL    HW124268  12.571  12.862   4.085
 8006SOL    HW224269  12.609  12.758   3.982
 8007SOL     OW24270   8.336  11.079   3.302
 8007SOL    HW124271   8.292  11.001   3.337
 8007SOL    HW224272   8.402  11.043   3.241
 8008SOL     OW24273   2.071   2.097   2.785
 8008SOL    HW124274   2.100   2.018   2.831
 8008SOL    HW224275   2.153   2.141   2.761
 8009SOL     OW24276  12.787   5.373   7.565
 8009SOL    HW124277  12.873   5.391   7.529
 8009SOL    HW224278  12.731   5.358   7.489
 8010SOL     OW24279   5.146   5.004   5.750
 8010SOL    HW124280   5.192   5.006   5.834
 8010SOL    HW224281   5.195   4.941   5.697
 8011SOL     OW24282   3.750   8.263   2.840
 8011SOL    HW124283   3.663   8.223   2.847
 8011SOL    HW224284   3.746   8.341   2.895
 8012SOL     OW24285   3.711   0.743   0.012
 8012SOL    HW124286   9.046   6.075   7.572
 8012SOL    HW224287   3.652   0.813   0.038
 8013SOL     OW24288   3.352   6.139   1.703
 8013SOL    HW124289   3.266   6.099   1.717
 8013SOL    HW224290   3.335   6.233   1.702
 8014SOL     OW24291  14.440   6.559   7.199
 8014SOL    HW124292  14.354   6.522   7.218
 8014SOL    HW224293  14.499   6.519   7.262
 8015SOL     OW24294   6.115   1.639   0.234
 8015SOL    HW124295   6.186   1.702   0.228
 8015SOL    HW224296   6.134   1.574   0.167
 8016SOL     OW24297   5.796   6.473   0.034
 8016SOL    HW124298   5.725   6.474   0.097
 8016SOL    HW224299   5.855   6.404   0.065
 8017SOL     OW24300  10.537  11.507   6.125
 8017SOL    HW124301  10.587  11.485   6.203
 8017SOL    HW224302  10.450  11.472   6.141
 8018SOL     OW24303   4.701   4.010   4.737
 8018SOL    HW124304   4.697   4.076   4.668
 8018SOL    HW224305   4.670   3.929   4.694
 8019SOL     OW24306  14.529  12.535   7.124
 8019SOL    HW124307  14.552  12.538   7.217
 8019SOL    HW224308  14.526  12.442   7.103
 8020SOL     OW24309   9.362   8.158   0.590
 8020SOL    HW124310   9.274   8.137   0.623
 8020SOL    HW224311   9.390   8.079   0.545
 8021SOL     OW24312  13.813   4.346   4.649
 8021SOL    HW124313  13.829   4.407   4.722
 8021SOL    HW224314  13.789   4.264   4.692
 8022SOL     OW24315   7.674   7.309   1.735
 8022SOL    HW124316   7.657   7.237   1.674
 8022SOL    HW224317   7.766   7.332   1.720
 8023SOL     OW24318   6.476  12.094   2.722
 8023SOL    HW124319   6.426  12.176   2.719
 8023SOL    HW224320   6.454  12.056   2.807
 8024SOL     OW24321   2.818   1.070   1.070
 8024SOL    HW124322   2.873   0.993   1.086
 8024SOL    HW224323   2.877   1.144   1.085
 8025SOL     OW24324  10.016   6.370   3.150
 8025SOL    HW124325  10.045   6.345   3.063
 8025SOL    HW224326   9.941   6.429   3.135
 8026SOL     OW24327   6.025  10.621   6.642
 8026SOL    HW124328   6.099  10.678   6.623
 8026SOL    HW224329   6.063  10.549   6.693
 8027SOL     OW24330   7.343   9.573   4.414
 8027SOL    HW124331   7.256   9.542   4.390
 8027SOL    HW224332   7.362   9.644   4.352
 8028SOL     OW24333   5.409  11.570   6.315
 8028SOL    HW124334   5.502  11.558   6.336
 8028SOL    HW224335   5.365  11.498   6.361
 8029SOL     OW24336   3.613   7.742   1.421
 8029SOL    HW124337   3.695   7.738   1.469
 8029SOL    HW224338   3.555   7.793   1.477
 8030SOL     OW24339   5.917  13.940   6.684
 8030SOL    HW124340   5.999  13.923   6.730
 8030SOL    HW224341   5.852  13.950   6.754
 8031SOL     OW24342  10.575   7.679   6.508
 8031SOL    HW124343  10.508   7.746   6.496
 8031SOL    HW224344  10.536   7.600   6.471
 8032SOL     OW24345  10.163   6.039   6.703
 8032SOL    HW124346  10.221   5.986   6.647
 8032SOL    HW224347  10.111   6.090   6.641
 8033SOL     OW24348   7.353  11.737   1.537
 8033SOL    HW124349   7.325  11.829   1.539
 8033SOL    HW224350   7.441  11.740   1.501
 8034SOL     OW24351  12.862   3.828   5.198
 8034SOL    HW124352  12.956   3.813   5.202
 8034SOL    HW224353  12.843   3.884   5.273
 8035SOL     OW24354  11.858  10.048   4.538
 8035SOL    HW124355  11.835   9.963   4.500
 8035SOL    HW224356  11.946  10.066   4.504
 8036SOL     OW24357   3.676   5.655   3.893
 8036SOL    HW124358   3.589   5.638   3.859
 8036SOL    HW224359   3.698   5.743   3.861
 8037SOL     OW24360   7.927   7.820   1.383
 8037SOL    HW124361   7.956   7.863   1.464
 8037SOL    HW224362   8.008   7.801   1.336
 8038SOL     OW24363   8.209   3.022   0.422
 8038SOL    HW124364   8.113   3.024   0.429
 8038SOL    HW224365   8.239   3.029   0.513
 8039SOL     OW24366   9.750  14.020   6.920
 8039SOL    HW124367   9.749  14.005   7.014
 8039SOL    HW224368   9.738  13.933   6.881
 8040SOL     OW24369   3.062   4.785   0.744
 8040SOL    HW124370   3.066   4.820   0.833
 8040SOL    HW224371   2.971   4.757   0.733
 8041SOL     OW24372   6.798   3.113   3.607
 8041SOL    HW124373   6.887   3.143   3.587
 8041SOL    HW224374   6.807   3.018   3.619
 8042SOL     OW24375   5.890   2.705   1.270
 8042SOL    HW124376   5.968   2.652   1.250
 8042SOL    HW224377   5.825   2.642   1.301
 8043SOL     OW24378   9.219   3.999   5.322
 8043SOL    HW124379   9.288   4.005   5.256
 8043SOL    HW224380   9.146   4.047   5.284
 8044SOL     OW24381  13.110   8.825   3.865
 8044SOL    HW124382  13.171   8.803   3.936
 8044SOL    HW224383  13.162   8.817   3.785
 8045SOL     OW24384  11.355   4.850   6.796
 8045SOL    HW124385  11.277   4.901   6.820
 8045SOL    HW224386  11.320  15.541   6.765
 8046SOL     OW24387   4.926   3.664   4.658
 8046SOL    HW124388   4.866   3.732   4.688
 8046SOL    HW224389   5.001   3.671   4.719
 8047SOL     OW24390   8.668   9.393   0.470
 8047SOL    HW124391   8.616   9.446   0.410
 8047SOL    HW224392   8.739   9.358   0.416
 8048SOL     OW24393   4.330  10.344   5.322
 8048SOL    HW124394   4.290  10.275   5.376
 8048SOL    HW224395   4.354  10.412   5.385
 8049SOL     OW24396   9.134  11.888   6.815
 8049SOL    HW124397   9.183  11.808   6.836
 8049SOL    HW224398   9.133  11.891   6.719
 8050SOL     OW24399   7.225   3.882   5.353
 8050SOL    HW124400   7.152   3.901   5.412
 8050SOL    HW224401   7.299   3.861   5.411
 8051SOL     OW24402   4.003   9.121   0.562
 8051SOL    HW124403   3.950   9.095   0.637
 8051SOL    HW224404   3.966   9.071   0.489
 8052SOL     OW24405   6.409   8.366   1.176
 8052SOL    HW124406   6.414   8.402   1.265
 8052SOL    HW224407   6.323   8.325   1.171
 8053SOL     OW24408   7.508   4.562   5.001
 8053SOL    HW124409   7.515   4.474   4.963
 8053SOL    HW224410   7.576   4.565   5.068
 8054SOL     OW24411   4.416  12.251   4.147
 8054SOL    HW124412   4.439  12.170   4.100
 8054SOL    HW224413   4.321  12.248   4.154
 8055SOL     OW24414   9.174   3.354   2.177
 8055SOL    HW124415   9.080   3.337   2.164
 8055SOL    HW224416   9.180   3.449   2.184
 8056SOL     OW24417   8.929   3.365   0.871
 8056SOL    HW124418   8.975   3.386   0.952
 8056SOL    HW224419   8.889   3.279   0.888
 8057SOL     OW24420   7.317  13.148   4.247
 8057SOL    HW124421   7.394  13.130   4.193
 8057SOL    HW224422   7.307  13.070   4.302
 8058SOL     OW24423  12.906   5.289   7.108
 8058SOL    HW124424  12.909   5.327   7.021
 8058SOL    HW224425  12.998   5.275   7.132
 8059SOL     OW24426   1.954  10.045   2.644
 8059SOL    HW124427   2.030  10.042   2.701
 8059SOL    HW224428   1.904  10.121   2.673
 8060SOL     OW24429   4.096  10.519   5.085
 8060SOL    HW124430   4.064  10.473   5.163
 8060SOL    HW224431   4.146  10.453   5.037
 8061SOL     OW24432   6.890  14.607   7.450
 8061SOL    HW124433   6.804  14.622   7.411
 8061SOL    HW224434   6.933  14.546   7.391
 8062SOL     OW24435   9.295   6.798   6.504
 8062SOL    HW124436   9.205   6.831   6.506
 8062SOL    HW224437   9.319   6.786   6.596
 8063SOL     OW24438  12.725   7.840   4.243
 8063SOL    HW124439  12.719   7.933   4.223
 8063SOL    HW224440  12.807   7.831   4.291
 8064SOL     OW24441  11.929   3.374   2.374
 8064SOL    HW124442  12.019   3.344   2.390
 8064SOL    HW224443  11.881   3.353   2.454
 8065SOL     OW24444  12.975  11.148   5.797
 8065SOL    HW124445  12.962  11.085   5.726
 8065SOL    HW224446  12.952  11.232   5.759
 8066SOL     OW24447  14.144   6.245   6.037
 8066SOL    HW124448  14.188   6.178   6.090
 8066SOL    HW224449  14.202   6.322   6.043
 8067SOL     OW24450  15.081   6.143   7.247
 8067SOL    HW124451  15.149   6.084   7.281
 8067SOL    HW224452  15.130   6.212   7.203
 8068SOL     OW24453   0.747   8.366   1.003
 8068SOL    HW124454   0.773   8.455   0.982
 8068SOL    HW224455   0.757   8.318   0.921
 8069SOL     OW24456   9.798  14.313   6.942
 8069SOL    HW124457   9.718  14.312   6.993
 8069SOL    HW224458   9.836  14.226   6.954
 8070SOL     OW24459   6.970   9.209   4.949
 8070SOL    HW124460   6.924   9.281   4.905
 8070SOL    HW224461   7.006   9.156   4.878
 8071SOL     OW24462   4.141   1.296   0.241
 8071SOL    HW124463   4.175   1.382   0.215
 8071SOL    HW224464   4.198   1.234   0.197
 8072SOL     OW24465   2.905   6.295   1.330
 8072SOL    HW124466   2.870   6.344   1.405
 8072SOL    HW224467   2.832   6.286   1.270
 8073SOL     OW24468   7.444  10.599   4.747
 8073SOL    HW124469   7.530  10.633   4.725
 8073SOL    HW224470   7.384  10.645   4.689
 8074SOL     OW24471   6.807   5.453   1.903
 8074SOL    HW124472   6.850   5.444   1.818
 8074SOL    HW224473   6.716   5.474   1.882
 8075SOL     OW24474  10.159   9.821   3.692
 8075SOL    HW124475  10.126   9.859   3.611
 8075SOL    HW224476  10.242   9.866   3.708
 8076SOL     OW24477   4.074  10.634   2.394
 8076SOL    HW124478   4.040  10.671   2.475
 8076SOL    HW224479   4.164  10.665   2.389
 8077SOL     OW24480   7.941   5.542   2.648
 8077SOL    HW124481   8.034   5.553   2.628
 8077SOL    HW224482   7.935   5.456   2.690
 8078SOL     OW24483  12.309   4.652   3.247
 8078SOL    HW124484  12.393   4.685   3.214
 8078SOL    HW224485  12.244   4.692   3.190
 8079SOL     OW24486   6.993   2.946   1.913
 8079SOL    HW124487   6.990   2.851   1.912
 8079SOL    HW224488   7.036   2.970   1.831
 8080SOL     OW24489   2.826   8.803   0.149
 8080SOL    HW124490   2.776   8.730   0.186
 8080SOL    HW224491   2.832   8.867   0.221
 8081SOL     OW24492   8.608   3.067   3.520
 8081SOL    HW124493   8.567   3.123   3.454
 8081SOL    HW224494   8.613   3.122   3.598
 8082SOL     OW24495  11.982   5.446   4.362
 8082SOL    HW124496  11.902   5.408   4.397
 8082SOL    HW224497  11.954   5.496   4.286
 8083SOL     OW24498  11.811   9.062   7.285
 8083SOL    HW124499  11.742   9.078   7.221
 8083SOL    HW224500  11.824   9.146   7.328
 8084SOL     OW24501  11.492   7.777   6.739
 8084SOL    HW124502  11.558   7.799   6.673
 8084SOL    HW224503  11.434   7.715   6.695
 8085SOL     OW24504   5.653  10.199   6.364
 8085SOL    HW124505   5.723  10.254   6.398
 8085SOL    HW224506   5.698  10.137   6.307
 8086SOL     OW24507  10.093  11.721   1.561
 8086SOL    HW124508  10.122  11.633   1.587
 8086SOL    HW224509  10.115  11.728   1.468
 8087SOL     OW24510  10.914  13.582   4.382
 8087SOL    HW124511  10.913  13.667   4.336
 8087SOL    HW224512  10.978  13.594   4.452
 8088SOL     OW24513   2.989   1.256   1.165
 8088SOL    HW124514   2.985   1.343   1.125
 8088SOL    HW224515   3.050   1.266   1.238
 8089SOL     OW24516  13.761   7.513   7.313
 8089SOL    HW124517  13.710   7.443   7.354
 8089SOL    HW224518  13.765   7.489   7.221
 8090SOL     OW24519   9.443   6.222   1.090
 8090SOL    HW124520   9.471   6.296   1.036
 8090SOL    HW224521   9.494   6.148   1.056
 8091SOL     OW24522   5.658  14.223   5.785
 8091SOL    HW124523   5.749  14.215   5.759
 8091SOL    HW224524   5.658  14.202   5.879
 8092SOL     OW24525   6.385  10.614   5.286
 8092SOL    HW124526   6.320  10.684   5.272
 8092SOL    HW224527   6.335  10.543   5.326
 8093SOL     OW24528   6.886   4.166   2.895
 8093SOL    HW124529   6.889   4.250   2.940
 8093SOL    HW224530   6.826   4.180   2.822
 8094SOL     OW24531   6.921   7.160   2.522
 8094SOL    HW124532   6.878   7.133   2.604
 8094SOL    HW224533   6.853   7.151   2.456
 8095SOL     OW24534   4.936   2.494   3.302
 8095SOL    HW124535   4.940   2.444   3.221
 8095SOL    HW224536   4.843   2.503   3.320
 8096SOL     OW24537  11.900   9.209   3.922
 8096SOL    HW124538  11.873   9.215   3.831
 8096SOL    HW224539  11.907   9.301   3.951
 8097SOL     OW24540  10.205   3.205   0.595
 8097SOL    HW124541  10.208   3.230   0.502
 8097SOL    HW224542  10.286   3.239   0.632
 8098SOL     OW24543   8.221   6.278   2.933
 8098SOL    HW124544   8.238   6.288   3.027
 8098SOL    HW224545   8.203   6.366   2.902
 8099SOL     OW24546  10.170   5.392   2.626
 8099SOL    HW124547  10.138   5.382   2.537
 8099SOL    HW224548  10.099   5.437   2.672
 8100SOL     OW24549  10.210   7.701   5.561
 8100SOL    HW124550  10.285   7.679   5.505
 8100SOL    HW224551  10.167   7.617   5.578
 8101SOL     OW24552   3.627  11.147   1.311
 8101SOL    HW124553   3.535  11.121   1.305
 8101SOL    HW224554   3.626  11.227   1.362
 8102SOL     OW24555   5.673   7.540   3.077
 8102SOL    HW124556   5.740   7.607   3.076
 8102SOL    HW224557   5.591   7.588   3.068
 8103SOL     OW24558   5.273   2.688   2.946
 8103SOL    HW124559   5.224   2.613   2.980
 8103SOL    HW224560   5.230   2.764   2.985
 8104SOL     OW24561  13.570   3.754   4.777
 8104SOL    HW124562  13.622   3.757   4.857
 8104SOL    HW224563  13.602   3.827   4.724
 8105SOL     OW24564   4.969   6.718   6.736
 8105SOL    HW124565   4.963   6.736   6.642
 8105SOL    HW224566   4.882   6.738   6.770
 8106SOL     OW24567  12.332  14.167   6.312
 8106SOL    HW124568  12.335  14.075   6.336
 8106SOL    HW224569  12.316  14.167   6.217
 8107SOL     OW24570   8.164  12.642   3.055
 8107SOL    HW124571   8.210  12.561   3.079
 8107SOL    HW224572   8.083  12.612   3.014
 8108SOL     OW24573  13.771  10.119   6.149
 8108SOL    HW124574  13.842  10.087   6.204
 8108SOL    HW224575  13.815  10.149   6.069
 8109SOL     OW24576   8.923  12.771   7.560
 8109SOL    HW124577   8.925  12.681   7.594
 8109SOL    HW224578   9.013  12.802   7.571
 8110SOL     OW24579  12.670   4.683   3.395
 8110SOL    HW124580  12.687   4.720   3.482
 8110SOL    HW224581  12.613   4.607   3.412
 8111SOL     OW24582   7.926   7.600   2.098
 8111SOL    HW124583   7.869   7.620   2.023
 8111SOL    HW224584   8.014   7.622   2.067
 8112SOL     OW24585   3.327   8.144   3.507
 8112SOL    HW124586   3.269   8.132   3.583
 8112SOL    HW224587   3.415   8.131   3.542
 8113SOL     OW24588  11.484   5.207   1.009
 8113SOL    HW124589   0.759   5.125   1.007
 8113SOL    HW224590  11.405   5.188   0.957
 8114SOL     OW24591   9.772   4.576   4.748
 8114SOL    HW124592   9.771   4.657   4.697
 8114SOL    HW224593   9.699   4.525   4.714
 8115SOL     OW24594  13.540  12.302   5.046
 8115SOL    HW124595  13.508  12.246   4.976
 8115SOL    HW224596  13.584  12.374   5.002
 8116SOL     OW24597  14.211   8.143   7.373
 8116SOL    HW124598  14.166   8.226   7.355
 8116SOL    HW224599  14.292   8.147   7.322
 8117SOL     OW24600   2.745   2.831   1.136
 8117SOL    HW124601   2.775   2.922   1.144
 8117SOL    HW224602   2.750   2.813   1.042
 8118SOL     OW24603   7.988   9.709   4.753
 8118SOL    HW124604   7.967   9.639   4.692
 8118SOL    HW224605   8.025   9.665   4.829
 8119SOL     OW24606  10.674  12.351   4.584
 8119SOL    HW124607  10.723  12.428   4.612
 8119SOL    HW224608  10.734  12.277   4.601
 8120SOL     OW24609   9.149   7.911   4.415
 8120SOL    HW124610   9.129   7.840   4.475
 8120SOL    HW224611   9.244   7.919   4.417
 8121SOL     OW24612   3.106   5.103   0.633
 8121SOL    HW124613   3.135   5.138   0.548
 8121SOL    HW224614   3.012   5.090   0.623
 8122SOL     OW24615   5.494   6.495   3.973
 8122SOL    HW124616   5.457   6.535   3.893
 8122SOL    HW224617   5.546   6.565   4.013
 8123SOL     OW24618   7.307  13.646   7.311
 8123SOL    HW124619   7.328  13.657   7.403
 8123SOL    HW224620   7.295  13.736   7.279
 8124SOL     OW24621   6.767  11.236   1.686
 8124SOL    HW124622   6.848  11.225   1.635
 8124SOL    HW224623   6.776  11.175   1.759
 8125SOL     OW24624   8.129  13.912   4.825
 8125SOL    HW124625   8.088  13.936   4.742
 8125SOL    HW224626   8.132  13.816   4.822
 8126SOL     OW24627   7.233   5.166   5.566
 8126SOL    HW124628   7.171   5.109   5.611
 8126SOL    HW224629   7.212   5.155   5.473
 8127SOL     OW24630   1.625   9.978   0.309
 8127SOL    HW124631   1.646   9.957   0.218
 8127SOL    HW224632   1.550   9.923   0.330
 8128SOL     OW24633   3.595   5.266   3.689
 8128SOL    HW124634   3.639   5.189   3.726
 8128SOL    HW224635   3.502   5.242   3.686
 8129SOL     OW24636   9.414  11.256   6.914
 8129SOL    HW124637   9.423  11.350   6.925
 8129SOL    HW224638   9.475  11.219   6.978
 8130SOL     OW24639   4.293  10.332   2.723
 8130SOL    HW124640   4.230  10.329   2.795
 8130SOL    HW224641   4.243  10.363   2.648
 8131SOL     OW24642   5.837  11.101   1.668
 8131SOL    HW124643   5.852  11.013   1.703
 8131SOL    HW224644   5.750  11.125   1.699
 8132SOL     OW24645  11.043   6.590   5.648
 8132SOL    HW124646  11.118   6.539   5.619
 8132SOL    HW224647  11.027   6.561   5.738
 8133SOL     OW24648   9.391   4.963   1.927
 8133SOL    HW124649   9.429   4.927   2.008
 8133SOL    HW224650   9.463   4.962   1.865
 8134SOL     OW24651   2.638   6.704   0.942
 8134SOL    HW124652   2.546   6.730   0.942
 8134SOL    HW224653   2.645   6.642   1.015
 8135SOL     OW24654   7.983   9.075   5.379
 8135SOL    HW124655   8.050   9.018   5.416
 8135SOL    HW224656   8.030   9.153   5.349
 8136SOL     OW24657  12.861  11.572   3.913
 8136SOL    HW124658  12.881  11.508   3.844
 8136SOL    HW224659  12.910  11.650   3.889
 8137SOL     OW24660   5.262   1.085   0.587
 8137SOL    HW124661   5.337   1.112   0.533
 8137SOL    HW224662   5.283   1.117   0.675
 8138SOL     OW24663   7.139  11.063   4.838
 8138SOL    HW124664   7.121  10.990   4.779
 8138SOL    HW224665   7.055  11.082   4.878
 8139SOL     OW24666  10.126   6.259   2.481
 8139SOL    HW124667  10.147   6.223   2.395
 8139SOL    HW224668  10.146   6.352   2.474
 8140SOL     OW24669  11.076   6.809   0.835
 8140SOL    HW124670  11.052   6.772   0.750
 8140SOL    HW224671  11.091   6.733   0.890
 8141SOL     OW24672   5.223   9.160   1.251
 8141SOL    HW124673   5.267   9.213   1.317
 8141SOL    HW224674   5.287   9.092   1.228
 8142SOL     OW24675  12.517   8.232   7.078
 8142SOL    HW124676  12.458   8.205   7.008
 8142SOL    HW224677  12.588   8.168   7.075
 8143SOL     OW24678   9.127   9.873   3.686
 8143SOL    HW124679   9.032   9.877   3.677
 8143SOL    HW224680   9.153   9.962   3.708
 8144SOL     OW24681   9.004   2.057   1.064
 8144SOL    HW124682   9.054   2.125   1.020
 8144SOL    HW224683   8.935   2.103   1.110
 8145SOL     OW24684  13.548  13.130   4.781
 8145SOL    HW124685  13.544  13.035   4.791
 8145SOL    HW224686  13.496  13.148   4.703
 8146SOL     OW24687   8.087  12.403   5.527
 8146SOL    HW124688   8.120  12.335   5.586
 8146SOL    HW224689   8.161  12.423   5.469
 8147SOL     OW24690   3.120   4.470   2.296
 8147SOL    HW124691   3.163   4.385   2.295
 8147SOL    HW224692   3.069   4.472   2.214
 8148SOL     OW24693   7.317  12.453   5.580
 8148SOL    HW124694   7.245  12.390   5.581
 8148SOL    HW224695   7.395  12.399   5.563
 8149SOL     OW24696  13.158   9.434   5.961
 8149SOL    HW124697  13.152   9.367   5.894
 8149SOL    HW224698  13.196   9.390   6.037
 8150SOL     OW24699   7.062  11.592   6.603
 8150SOL    HW124700   6.990  11.555   6.654
 8150SOL    HW224701   7.038  11.574   6.512
 8151SOL     OW24702   9.297  15.314   7.446
 8151SOL    HW124703   9.259  15.390   7.403
 8151SOL    HW224704   9.282  15.329   7.539
 8152SOL     OW24705   2.626  12.040   2.692
 8152SOL    HW124706   2.692  11.975   2.715
 8152SOL    HW224707   2.669  12.097   2.629
 8153SOL     OW24708   8.743   7.267   6.767
 8153SOL    HW124709   8.827   7.231   6.795
 8153SOL    HW224710   8.766   7.347   6.720
 8154SOL     OW24711   6.523   7.253   0.930
 8154SOL    HW124712   6.458   7.318   0.960
 8154SOL    HW224713   6.586   7.248   1.002
 8155SOL     OW24714   4.765   5.855   1.611
 8155SOL    HW124715   4.735   5.893   1.528
 8155SOL    HW224716   4.780   5.763   1.591
 8156SOL     OW24717  10.948   5.962   3.760
 8156SOL    HW124718  10.866   5.955   3.809
 8156SOL    HW224719  11.006   6.012   3.818
 8157SOL     OW24720  12.902   5.451   3.688
 8157SOL    HW124721  12.967   5.428   3.622
 8157SOL    HW224722  12.944   5.520   3.740
 8158SOL     OW24723  12.879   3.156   4.138
 8158SOL    HW124724  12.899   3.143   4.046
 8158SOL    HW224725  12.933   3.091   4.184
 8159SOL     OW24726   5.158   2.979   3.992
 8159SOL    HW124727   5.208   2.932   3.926
 8159SOL    HW224728   5.102   2.912   4.032
 8160SOL     OW24729   7.984  10.875   0.194
 8160SOL    HW124730   7.977   0.190   0.227
 8160SOL    HW224731   7.999  10.821   0.271
 8161SOL     OW24732   5.195   2.802   3.627
 8161SOL    HW124733   5.235   2.885   3.602
 8161SOL    HW224734   5.106   2.807   3.590
 8162SOL     OW24735   8.174   9.907   2.682
 8162SOL    HW124736   8.126   9.987   2.703
 8162SOL    HW224737   8.106   9.843   2.662
 8163SOL     OW24738  14.972   7.691   6.680
 8163SOL    HW124739  14.911   7.762   6.660
 8163SOL    HW224740  14.953   7.624   6.615
 8164SOL     OW24741  10.925   8.674   4.008
 8164SOL    HW124742  10.974   8.592   4.013
 8164SOL    HW224743  10.931   8.701   3.917
 8165SOL     OW24744   5.320   1.065   0.256
 8165SOL    HW124745   5.266   1.102   0.326
 8165SOL    HW224746   5.267   1.074   0.177
 8166SOL     OW24747   5.688  12.181   4.149
 8166SOL    HW124748   5.697  12.087   4.132
 8166SOL    HW224749   5.608  12.206   4.103
 8167SOL     OW24750   7.025   2.804   2.798
 8167SOL    HW124751   7.090   2.852   2.850
 8167SOL    HW224752   7.051   2.820   2.707
 8168SOL     OW24753   8.955  10.403   4.190
 8168SOL    HW124754   9.044  10.392   4.223
 8168SOL    HW224755   8.905  10.332   4.229
 8169SOL     OW24756  11.058   2.554   1.802
 8169SOL    HW124757  11.119   2.480   1.807
 8169SOL    HW224758  10.972   2.514   1.796
 8170SOL     OW24759   7.476  12.472   3.368
 8170SOL    HW124760   7.565  12.452   3.339
 8170SOL    HW224761   7.485  12.554   3.417
 8171SOL     OW24762  12.178   6.316   3.604
 8171SOL    HW124763  12.141   6.330   3.517
 8171SOL    HW224764  12.110   6.268   3.652
 8172SOL     OW24765   9.120   7.720   6.640
 8172SOL    HW124766   9.086   7.804   6.609
 8172SOL    HW224767   9.061   7.695   6.711
 8173SOL     OW24768   8.535   8.829   2.312
 8173SOL    HW124769   8.460   8.888   2.297
 8173SOL    HW224770   8.609   8.888   2.326
 8174SOL     OW24771   3.763   9.216   0.988
 8174SOL    HW124772   3.757   9.121   0.989
 8174SOL    HW224773   3.704   9.243   0.918
 8175SOL     OW24774  10.024   7.021   0.160
 8175SOL    HW124775  10.047   7.095   0.104
 8175SOL    HW224776   9.997   7.061   0.243
 8176SOL     OW24777   8.453   8.138   3.636
 8176SOL    HW124778   8.426   8.054   3.673
 8176SOL    HW224779   8.537   8.157   3.677
 8177SOL     OW24780  10.876  12.465   7.429
 8177SOL    HW124781  10.931  12.414   7.368
 8177SOL    HW224782  10.835  12.399   7.485
 8178SOL     OW24783   6.932  13.110   5.817
 8178SOL    HW124784   7.023  13.141   5.820
 8178SOL    HW224785   6.914  13.082   5.907
 8179SOL     OW24786  10.300  11.525   3.274
 8179SOL    HW124787  10.245  11.461   3.320
 8179SOL    HW224788  10.357  11.471   3.218
 8180SOL     OW24789   3.103   6.295   2.063
 8180SOL    HW124790   3.064   6.208   2.071
 8180SOL    HW224791   3.140   6.312   2.150
 8181SOL     OW24792   9.793   2.530   2.722
 8181SOL    HW124793   9.812   2.452   2.671
 8181SOL    HW224794   9.853   2.524   2.797
 8182SOL     OW24795  13.108  12.081   4.437
 8182SOL    HW124796  13.195  12.118   4.424
 8182SOL    HW224797  13.078  12.060   4.348
 8183SOL     OW24798   5.085   3.248   4.316
 8183SOL    HW124799   5.106   3.219   4.228
 8183SOL    HW224800   5.013   3.192   4.344
 8184SOL     OW24801  11.243  12.961   5.923
 8184SOL    HW124802  11.154  12.985   5.950
 8184SOL    HW224803  11.238  12.953   5.828
 8185SOL     OW24804  12.419   4.835   2.965
 8185SOL    HW124805  12.346   4.815   2.907
 8185SOL    HW224806  12.497   4.826   2.910
 8186SOL     OW24807   8.629  11.530   5.836
 8186SOL    HW124808   8.660  11.586   5.765
 8186SOL    HW224809   8.678  11.560   5.913
 8187SOL     OW24810  11.772   5.087   4.510
 8187SOL    HW124811  11.778   5.168   4.562
 8187SOL    HW224812  11.784   5.017   4.574
 8188SOL     OW24813  13.018  11.729   6.507
 8188SOL    HW124814  13.108  11.759   6.522
 8188SOL    HW224815  13.026  11.661   6.440
 8189SOL     OW24816   7.492   5.600   2.896
 8189SOL    HW124817   7.507   5.667   2.963
 8189SOL    HW224818   7.478   5.649   2.815
 8190SOL     OW24819   6.376   6.440   1.077
 8190SOL    HW124820   6.338   6.462   0.992
 8190SOL    HW224821   6.380   6.344   1.078
 8191SOL     OW24822  10.517  13.690   5.514
 8191SOL    HW124823  10.611  13.696   5.532
 8191SOL    HW224824  10.487  13.614   5.565
 8192SOL     OW24825   9.991  10.465   2.035
 8192SOL    HW124826  10.012  10.537   2.094
 8192SOL    HW224827  10.075  10.427   2.012
 8193SOL     OW24828   4.394   7.383   3.374
 8193SOL    HW124829   4.348   7.460   3.340
 8193SOL    HW224830   4.330   7.312   3.368
 8194SOL     OW24831   7.224   4.398   2.100
 8194SOL    HW124832   7.162   4.461   2.063
 8194SOL    HW224833   7.175   4.355   2.169
 8195SOL     OW24834   8.407  13.388   6.153
 8195SOL    HW124835   8.376  13.314   6.101
 8195SOL    HW224836   8.365  13.377   6.238
 8196SOL     OW24837  14.332  11.328   6.349
 8196SOL    HW124838  14.275  11.264   6.393
 8196SOL    HW224839  14.291  11.342   6.264
 8197SOL     OW24840  12.250   3.740   3.603
 8197SOL    HW124841  12.188   3.694   3.547
 8197SOL    HW224842  12.333   3.693   3.591
 8198SOL     OW24843  13.047   8.438   3.456
 8198SOL    HW124844  13.113   8.502   3.427
 8198SOL    HW224845  12.999   8.483   3.525
 8199SOL     OW24846   5.597  15.421   6.649
 8199SOL    HW124847   5.558  15.334   6.641
 8199SOL    HW224848   5.615   4.673   6.559
 8200SOL     OW24849   5.586   6.217   0.037
 8200SOL    HW124850  10.949  11.553   7.580
 8200SOL    HW224851   5.538   6.299   0.027
 8201SOL     OW24852   5.679   3.147   2.608
 8201SOL    HW124853   5.702   3.059   2.578
 8201SOL    HW224854   5.747   3.169   2.671
 8202SOL     OW24855   7.876   8.973   2.057
 8202SOL    HW124856   7.941   8.909   2.087
 8202SOL    HW224857   7.903   9.055   2.099
 8203SOL     OW24858   8.636   4.943   4.522
 8203SOL    HW124859   8.639   4.856   4.563
 8203SOL    HW224860   8.611   5.002   4.593
 8204SOL     OW24861   6.861   8.024   6.343
 8204SOL    HW124862   6.854   7.976   6.425
 8204SOL    HW224863   6.794   8.093   6.350
 8205SOL     OW24864   5.826   4.217   2.368
 8205SOL    HW124865   5.760   4.168   2.418
 8205SOL    HW224866   5.876   4.150   2.323
 8206SOL     OW24867  13.560  10.598   4.080
 8206SOL    HW124868  13.465  10.606   4.072
 8206SOL    HW224869  13.585  10.537   4.011
 8207SOL     OW24870   3.869   4.484   0.665
 8207SOL    HW124871   3.843   4.541   0.593
 8207SOL    HW224872   3.926   4.419   0.624
 8208SOL     OW24873   6.799   9.243   5.828
 8208SOL    HW124874   6.747   9.300   5.771
 8208SOL    HW224875   6.844   9.304   5.887
 8209SOL     OW24876   8.117   4.935   4.363
 8209SOL    HW124877   8.035   4.915   4.317
 8209SOL    HW224878   8.173   4.975   4.297
 8210SOL     OW24879  12.191   5.441   5.736
 8210SOL    HW124880  12.198   5.503   5.808
 8210SOL    HW224881  12.186   5.355   5.779
 8211SOL     OW24882   0.403   2.153   0.175
 8211SOL    HW124883   0.409   2.241   0.211
 8211SOL    HW224884   0.320   2.151   0.129
 8212SOL     OW24885   7.035   7.421   5.885
 8212SOL    HW124886   7.105   7.359   5.904
 8212SOL    HW224887   7.046   7.491   5.949
 8213SOL     OW24888   1.121   0.748   0.558
 8213SOL    HW124889   1.033   0.763   0.592
 8213SOL    HW224890   1.161   0.685   0.618
 8214SOL     OW24891  13.147  14.359   7.277
 8214SOL    HW124892  13.125  14.340   7.368
 8214SOL    HW224893  13.239  14.384   7.278
 8215SOL     OW24894   3.090   9.691   2.999
 8215SOL    HW124895   3.080   9.763   3.062
 8215SOL    HW224896   3.071   9.612   3.049
 8216SOL     OW24897   3.352   2.725   2.122
 8216SOL    HW124898   3.357   2.647   2.067
 8216SOL    HW224899   3.333   2.796   2.061
 8217SOL     OW24900  13.640  15.833   7.384
 8217SOL    HW124901  13.608  15.918   7.356
 8217SOL    HW224902  13.690  15.850   7.464
 8218SOL     OW24903   2.944   7.510   0.405
 8218SOL    HW124904   2.990   7.525   0.323
 8218SOL    HW224905   2.913   7.420   0.399
 8219SOL     OW24906   5.668   9.195   2.715
 8219SOL    HW124907   5.745   9.224   2.764
 8219SOL    HW224908   5.686   9.104   2.693
 8220SOL     OW24909   8.984   6.057   0.190
 8220SOL    HW124910   8.889   6.050   0.184
 8220SOL    HW224911   9.005   6.036   0.281
 8221SOL     OW24912  14.278   9.237   6.992
 8221SOL    HW124913  14.336   9.308   6.966
 8221SOL    HW224914  14.279   9.177   6.918
 8222SOL     OW24915   9.992   9.565   7.320
 8222SOL    HW124916  10.074   9.529   7.354
 8222SOL    HW224917   9.936   9.489   7.306
 8223SOL     OW24918   3.531   6.619   1.348
 8223SOL    HW124919   3.612   6.602   1.396
 8223SOL    HW224920   3.534   6.713   1.328
 8224SOL     OW24921   6.233  14.564   7.054
 8224SOL    HW124922   6.236  14.574   6.959
 8224SOL    HW224923   6.224  14.470   7.068
 8225SOL     OW24924  11.646  10.133   2.199
 8225SOL    HW124925  11.667  10.051   2.244
 8225SOL    HW224926  11.645  10.111   2.106
 8226SOL     OW24927  12.745   4.754   5.235
 8226SOL    HW124928  12.694   4.741   5.155
 8226SOL    HW224929  12.704   4.695   5.298
 8227SOL     OW24930  12.155   4.913   6.214
 8227SOL    HW124931  12.218   4.867   6.159
 8227SOL    HW224932  12.203   4.987   6.251
 8228SOL     OW24933   6.519  12.381   6.905
 8228SOL    HW124934   6.527  12.298   6.952
 8228SOL    HW224935   6.501  12.354   6.814
 8229SOL     OW24936   8.449  12.472   4.614
 8229SOL    HW124937   8.422  12.381   4.601
 8229SOL    HW224938   8.474  12.502   4.526
 8230SOL     OW24939   8.057   1.850   1.633
 8230SOL    HW124940   8.064   1.920   1.698
 8230SOL    HW224941   7.998   1.786   1.673
 8231SOL     OW24942   8.903  10.609   6.975
 8231SOL    HW124943   8.810  10.628   6.988
 8231SOL    HW224944   8.917  10.528   7.025
 8232SOL     OW24945   7.601   6.213   6.289
 8232SOL    HW124946   7.573   6.121   6.289
 8232SOL    HW224947   7.696   6.209   6.301
 8233SOL     OW24948   7.685   7.054   1.916
 8233SOL    HW124949   7.663   6.978   1.969
 8233SOL    HW224950   7.652   7.033   1.829
 8234SOL     OW24951  12.406   4.152   3.887
 8234SOL    HW124952  12.331   4.120   3.937
 8234SOL    HW224953  12.369   4.213   3.823
 8235SOL     OW24954   9.827  11.110   0.505
 8235SOL    HW124955   9.811   0.421   0.464
 8235SOL    HW224956   9.912  11.119   0.546
 8236SOL     OW24957   7.197   8.376   1.263
 8236SOL    HW124958   7.127   8.419   1.311
 8236SOL    HW224959   7.165   8.372   1.173
 8237SOL     OW24960   6.995   3.157   1.465
 8237SOL    HW124961   6.988   3.128   1.374
 8237SOL    HW224962   6.937   3.233   1.470
 8238SOL     OW24963   4.083  11.513   2.529
 8238SOL    HW124964   4.078  11.489   2.437
 8238SOL    HW224965   3.994  11.539   2.552
 8239SOL     OW24966  12.652   6.333   3.941
 8239SOL    HW124967  12.667   6.250   3.896
 8239SOL    HW224968  12.666   6.313   4.034
 8240SOL     OW24969  13.332   7.013   6.007
 8240SOL    HW124970  13.252   7.047   6.047
 8240SOL    HW224971  13.402   7.044   6.064
 8241SOL     OW24972   6.304   4.887   3.013
 8241SOL    HW124973   6.293   4.942   3.091
 8241SOL    HW224974   6.318   4.799   3.048
 8242SOL     OW24975   7.326  11.617   5.951
 8242SOL    HW124976   7.345  11.674   6.026
 8242SOL    HW224977   7.324  11.676   5.876
 8243SOL     OW24978   6.538  10.342   2.516
 8243SOL    HW124979   6.524  10.387   2.599
 8243SOL    HW224980   6.631  10.319   2.516
 8244SOL     OW24981   4.705   9.728   0.498
 8244SOL    HW124982   4.715   9.736   0.593
 8244SOL    HW224983   4.683   9.817   0.468
 8245SOL     OW24984   6.611  13.627   6.321
 8245SOL    HW124985   6.625  13.535   6.299
 8245SOL    HW224986   6.618  13.673   6.237
 8246SOL     OW24987  12.824   9.970   7.267
 8246SOL    HW124988  12.807   9.908   7.337
 8246SOL    HW224989  12.754   9.953   7.203
 8247SOL     OW24990   2.879   6.535   2.027
 8247SOL    HW124991   2.865   6.548   1.933
 8247SOL    HW224992   2.940   6.461   2.032
 8248SOL     OW24993  13.104  13.511   6.984
 8248SOL    HW124994  13.114  13.605   6.970
 8248SOL    HW224995  13.009  13.497   6.986
 8249SOL     OW24996  12.114  13.436   7.373
 8249SOL    HW124997  12.039  13.495   7.377
 8249SOL    HW224998  12.076  13.348   7.382
 8250SOL     OW24999   8.635  15.786   7.565
 8250SOL    HW125000   3.256  10.369   0.037
 8250SOL    HW225001   8.541  15.794   7.551
 8251SOL     OW25002   8.481  11.118   6.540
 8251SOL    HW125003   8.508  11.121   6.448
 8251SOL    HW225004   8.509  11.031   6.570
 8252SOL     OW25005  12.074   3.786   2.153
 8252SOL    HW125006  12.046   3.805   2.064
 8252SOL    HW225007  12.005   3.729   2.188
 8253SOL     OW25008  12.309   7.154   4.286
 8253SOL    HW125009  12.214   7.141   4.294
 8253SOL    HW225010  12.327   7.139   4.193
 8254SOL     OW25011   6.504   6.577   7.529
 8254SOL    HW125012   6.582   6.542   7.485
 8254SOL    HW225013   6.466   6.638   7.467
 8255SOL     OW25014  13.489  14.753   5.635
 8255SOL    HW125015  13.465  14.742   5.727
 8255SOL    HW225016  13.458   4.066   5.613
 8256SOL     OW25017   7.945   6.671   3.320
 8256SOL    HW125018   7.966   6.737   3.254
 8256SOL    HW225019   8.021   6.613   3.321
 8257SOL     OW25020   9.332   3.822   0.491
 8257SOL    HW125021   9.336   3.902   0.439
 8257SOL    HW225022   9.423   3.808   0.519
 8258SOL     OW25023  10.450   9.112   0.746
 8258SOL    HW125024  10.498   9.194   0.741
 8258SOL    HW225025  10.489   9.067   0.822
 8259SOL     OW25026   9.595   7.145   4.427
 8259SOL    HW125027   9.618   7.091   4.503
 8259SOL    HW225028   9.677   7.190   4.405
 8260SOL     OW25029   8.269   6.994   2.473
 8260SOL    HW125030   8.264   7.004   2.378
 8260SOL    HW225031   8.221   6.913   2.491
 8261SOL     OW25032   6.334   4.511   5.931
 8261SOL    HW125033   6.379   4.427   5.930
 8261SOL    HW225034   6.318   4.529   6.024
 8262SOL     OW25035   8.018   3.079   0.137
 8262SOL    HW125036   8.083   3.139   0.172
 8262SOL    HW225037   7.937   3.099   0.185
 8263SOL     OW25038  11.009   2.038   1.558
 8263SOL    HW125039  10.915   2.022   1.567
 8263SOL    HW225040  11.039   1.972   1.496
 8264SOL     OW25041   3.407   4.339   0.818
 8264SOL    HW125042   3.420   4.319   0.725
 8264SOL    HW225043   3.334   4.401   0.819
 8265SOL     OW25044  10.552   9.426   3.597
 8265SOL    HW125045  10.517   9.337   3.590
 8265SOL    HW225046  10.647   9.415   3.596
 8266SOL     OW25047   2.940   8.596   4.058
 8266SOL    HW125048   2.942   8.558   4.146
 8266SOL    HW225049   2.900   8.528   4.004
 8267SOL     OW25050  10.892  11.792   4.861
 8267SOL    HW125051  10.799  11.784   4.881
 8267SOL    HW225052  10.933  11.724   4.914
 8268SOL     OW25053   6.447   5.964   1.548
 8268SOL    HW125054   6.530   5.970   1.501
 8268SOL    HW225055   6.468   5.918   1.629
 8269SOL     OW25056   6.976   4.617   3.617
 8269SOL    HW125057   6.881   4.625   3.610
 8269SOL    HW225058   6.995   4.526   3.595
 8270SOL     OW25059  15.434  14.356   7.274
 8270SOL    HW125060  15.525  14.344   7.301
 8270SOL    HW225061  15.427  14.450   7.257
 8271SOL     OW25062  10.144  11.666   2.834
 8271SOL    HW125063  10.127  11.755   2.803
 8271SOL    HW225064  10.109  11.665   2.923
 8272SOL     OW25065  10.758  12.457   6.464
 8272SOL    HW125066  10.682  12.473   6.408
 8272SOL    HW225067  10.779  12.543   6.499
 8273SOL     OW25068   4.611   5.990   5.437
 8273SOL    HW125069   4.672   6.008   5.366
 8273SOL    HW225070   4.630   6.058   5.502
 8274SOL     OW25071   3.277  10.541   3.829
 8274SOL    HW125072   3.278  10.446   3.842
 8274SOL    HW225073   3.363  10.570   3.860
 8275SOL     OW25074   7.651   9.749   5.123
 8275SOL    HW125075   7.709   9.749   5.048
 8275SOL    HW225076   7.691   9.688   5.185
 8276SOL     OW25077   5.925   7.561   5.766
 8276SOL    HW125078   6.000   7.504   5.754
 8276SOL    HW225079   5.941   7.605   5.850
 8277SOL     OW25080   9.885   7.595   1.142
 8277SOL    HW125081   9.847   7.662   1.200
 8277SOL    HW225082   9.871   7.513   1.188
 8278SOL     OW25083  11.078  12.162   3.414
 8278SOL    HW125084  11.000  12.194   3.369
 8278SOL    HW225085  11.134  12.129   3.343
 8279SOL     OW25086  11.433   8.218   6.854
 8279SOL    HW125087  11.485   8.296   6.835
 8279SOL    HW225088  11.495   8.158   6.897
 8280SOL     OW25089   8.172  10.746   3.364
 8280SOL    HW125090   8.086  10.726   3.329
 8280SOL    HW225091   8.162  10.736   3.459
 8281SOL     OW25092   5.778  14.418   6.035
 8281SOL    HW125093   5.694  14.382   6.006
 8281SOL    HW225094   5.818  14.454   5.956
 8282SOL     OW25095   3.771   8.359   0.490
 8282SOL    HW125096   3.846   8.384   0.437
 8282SOL    HW225097   3.720   8.440   0.500
 8283SOL     OW25098   6.401  11.261   3.457
 8283SOL    HW125099   6.418  11.335   3.516
 8283SOL    HW225100   6.420  11.183   3.510
 8284SOL     OW25101  11.285  11.161   3.669
 8284SOL    HW125102  11.287  11.098   3.597
 8284SOL    HW225103  11.260  11.244   3.628
 8285SOL     OW25104  14.261  13.911   7.478
 8285SOL    HW125105  14.307  13.930   7.560
 8285SOL    HW225106  14.306  13.964   7.412
 8286SOL     OW25107  13.308  11.772   7.524
 8286SOL    HW125108  13.290  11.739   7.436
 8286SOL    HW225109  13.236  11.832   7.542
 8287SOL     OW25110  11.325   6.622   4.559
 8287SOL    HW125111  11.395   6.610   4.496
 8287SOL    HW225112  11.369   6.651   4.639
 8288SOL     OW25113   6.466   2.002   1.627
 8288SOL    HW125114   6.382   1.956   1.630
 8288SOL    HW225115   6.490   2.001   1.534
 8289SOL     OW25116  12.838   6.829   3.346
 8289SOL    HW125117  12.904   6.868   3.289
 8289SOL    HW225118  12.863   6.858   3.434
 8290SOL     OW25119  14.030  11.794   5.758
 8290SOL    HW125120  14.072  11.740   5.691
 8290SOL    HW225121  14.092  11.865   5.776
 8291SOL     OW25122   8.369  10.012   3.715
 8291SOL    HW125123   8.445  10.066   3.694
 8291SOL    HW225124   8.304  10.074   3.748
 8292SOL     OW25125   2.360   5.307   3.236
 8292SOL    HW125126  13.076   5.379   3.258
 8292SOL    HW225127   2.435   5.348   3.195
 8293SOL     OW25128   8.412   1.906   2.093
 8293SOL    HW125129   8.446   1.868   2.012
 8293SOL    HW225130   8.487   1.908   2.152
 8294SOL     OW25131   6.656   7.362   3.738
 8294SOL    HW125132   6.646   7.417   3.815
 8294SOL    HW225133   6.598   7.402   3.673
 8295SOL     OW25134   9.872  14.543   6.478
 8295SOL    HW125135   9.900  14.625   6.519
 8295SOL    HW225136   9.873  14.479   6.549
 8296SOL     OW25137   8.772   9.674   4.056
 8296SOL    HW125138   8.791   9.650   3.966
 8296SOL    HW225139   8.751   9.591   4.099
 8297SOL     OW25140   1.275   1.829   0.187
 8297SOL    HW125141   1.238   1.852   0.272
 8297SOL    HW225142   1.249   1.738   0.173
 8298SOL     OW25143   6.117  11.029   4.871
 8298SOL    HW125144   6.076  11.072   4.946
 8298SOL    HW225145   6.081  10.940   4.871
 8299SOL     OW25146  10.927   9.384   5.796
 8299SOL    HW125147  10.880   9.307   5.763
 8299SOL    HW225148  11.018   9.355   5.803
 8300SOL     OW25149   4.361  14.308   5.684
 8300SOL    HW125150   4.372  14.401   5.703
 8300SOL    HW225151   4.401  14.296   5.598
 8301SOL     OW25152   6.122  12.465   5.501
 8301SOL    HW125153   6.164  12.473   5.586
 8301SOL    HW225154   6.048  12.526   5.505
 8302SOL     OW25155   9.075   4.993   0.569
 8302SOL    HW125156   9.113   5.049   0.636
 8302SOL    HW225157   9.114   4.907   0.583
 8303SOL     OW25158   8.416  10.498   1.625
 8303SOL    HW125159   8.367  10.514   1.706
 8303SOL    HW225160   8.396  10.572   1.569
 8304SOL     OW25161   4.389   3.714   1.883
 8304SOL    HW125162   4.301   3.717   1.922
 8304SOL    HW225163   4.436   3.786   1.924
 8305SOL     OW25164   5.310   4.986   5.982
 8305SOL    HW125165   5.397   4.979   5.944
 8305SOL    HW225166   5.325   5.010   6.073
 8306SOL     OW25167   5.947  13.140   5.877
 8306SOL    HW125168   5.963  13.138   5.971
 8306SOL    HW225169   5.857  13.170   5.868
 8307SOL     OW25170   3.160  11.325   1.244
 8307SOL    HW125171   3.113  11.302   1.164
 8307SOL    HW225172   3.115  11.403   1.276
 8308SOL     OW25173  12.808  11.099   5.126
 8308SOL    HW125174  12.782  11.075   5.215
 8308SOL    HW225175  12.854  11.182   5.135
 8309SOL     OW25176   4.733   8.976   4.455
 8309SOL    HW125177   4.664   8.922   4.416
 8309SOL    HW225178   4.687   9.032   4.517
 8310SOL     OW25179   4.165   8.943   5.302
 8310SOL    HW125180   4.236   9.003   5.280
 8310SOL    HW225181   4.099   8.959   5.235
 8311SOL     OW25182   5.422  10.676   7.429
 8311SOL    HW125183   5.396  10.725   7.351
 8311SOL    HW225184   5.384  10.725   7.502
 8312SOL     OW25185  11.536   8.555   5.000
 8312SOL    HW125186  11.450   8.586   5.029
 8312SOL    HW225187  11.518   8.502   4.923
 8313SOL     OW25188   7.865   9.202   6.273
 8313SOL    HW125189   7.776   9.167   6.276
 8313SOL    HW225190   7.866   9.257   6.194
 8314SOL     OW25191   7.286   8.647   3.678
 8314SOL    HW125192   7.307   8.573   3.621
 8314SOL    HW225193   7.296   8.613   3.766
 8315SOL     OW25194   7.647   3.496   0.722
 8315SOL    HW125195   7.680   3.430   0.662
 8315SOL    HW225196   7.667   3.462   0.809
 8316SOL     OW25197  11.408  10.748   2.802
 8316SOL    HW125198  11.463  10.710   2.870
 8316SOL    HW225199  11.452  10.828   2.777
 8317SOL     OW25200   9.418  10.689   4.984
 8317SOL    HW125201   9.442  10.693   4.891
 8317SOL    HW225202   9.501  10.701   5.031
 8318SOL     OW25203   4.869   5.509   0.988
 8318SOL    HW125204   4.963   5.503   1.007
 8318SOL    HW225205   4.848   5.426   0.946
 8319SOL     OW25206   2.103  12.081   1.900
 8319SOL    HW125207   2.190   1.346   1.903
 8319SOL    HW225208   2.057   1.355   1.832
 8320SOL     OW25209   7.777  10.487   0.300
 8320SOL    HW125210   7.792  10.575   0.264
 8320SOL    HW225211   7.860  10.463   0.341
 8321SOL     OW25212   1.769   2.874   0.985
 8321SOL    HW125213   1.753   2.943   1.049
 8321SOL    HW225214   1.682   2.851   0.951
 8322SOL     OW25215  10.169   3.311   1.440
 8322SOL    HW125216  10.126   3.254   1.504
 8322SOL    HW225217  10.112   3.387   1.435
 8323SOL     OW25218  10.295   7.598   7.248
 8323SOL    HW125219  10.306   7.522   7.191
 8323SOL    HW225220  10.315   7.565   7.335
 8324SOL     OW25221  10.557   9.879   0.743
 8324SOL    HW125222  10.524   9.959   0.701
 8324SOL    HW225223  10.572   9.905   0.834
 8325SOL     OW25224   6.145  14.189   6.652
 8325SOL    HW125225   6.071  14.214   6.707
 8325SOL    HW225226   6.105  14.147   6.575
 8326SOL     OW25227   7.445  10.203   6.324
 8326SOL    HW125228   7.447  10.107   6.316
 8326SOL    HW225229   7.385  10.232   6.256
 8327SOL     OW25230   9.794   8.961   6.614
 8327SOL    HW125231   9.883   8.962   6.650
 8327SOL    HW225232   9.740   8.925   6.685
 8328SOL     OW25233   4.532   6.320   0.583
 8328SOL    HW125234   4.508   6.379   0.511
 8328SOL    HW225235   4.490   6.236   0.561
 8329SOL     OW25236   5.793   3.826   4.879
 8329SOL    HW125237   5.879   3.785   4.869
 8329SOL    HW225238   5.730   3.755   4.865
 8330SOL     OW25239   7.741   5.233   5.553
 8330SOL    HW125240   7.653   5.204   5.527
 8330SOL    HW225241   7.749   5.321   5.516
 8331SOL     OW25242   5.383  10.020   3.977
 8331SOL    HW125243   5.305   9.968   3.993
 8331SOL    HW225244   5.375  10.094   4.037
 8332SOL     OW25245   4.276  12.001   4.466
 8332SOL    HW125246   4.323  11.960   4.393
 8332SOL    HW225247   4.321  11.969   4.544
 8333SOL     OW25248   3.429   5.259   2.268
 8333SOL    HW125249   3.335   5.248   2.255
 8333SOL    HW225250   3.444   5.354   2.259
 8334SOL     OW25251  11.998  10.815   5.127
 8334SOL    HW125252  11.936  10.747   5.102
 8334SOL    HW225253  12.081  10.787   5.089
 8335SOL     OW25254  12.855  11.494   7.484
 8335SOL    HW125255  12.869  11.438   7.407
 8335SOL    HW225256  12.869  11.435   7.558
 8336SOL     OW25257   8.930  12.435   3.960
 8336SOL    HW125258   8.899  12.364   3.903
 8336SOL    HW225259   8.866  12.506   3.946
 8337SOL     OW25260  10.033   6.827   7.063
 8337SOL    HW125261   9.988   6.752   7.102
 8337SOL    HW225262   9.975   6.901   7.080
 8338SOL     OW25263   7.142  11.873   1.806
 8338SOL    HW125264   7.131  11.943   1.742
 8338SOL    HW225265   7.080  11.805   1.779
 8339SOL     OW25266   3.659  11.051   2.639
 8339SOL    HW125267   3.615  11.089   2.715
 8339SOL    HW225268   3.736  11.107   2.627
 8340SOL     OW25269   5.736  11.269   7.377
 8340SOL    HW125270   5.742  11.352   7.329
 8340SOL    HW225271   5.783  11.286   7.459
 8341SOL     OW25272   5.992  11.506   1.458
 8341SOL    HW125273   5.969  11.519   1.550
 8341SOL    HW225274   5.927  11.444   1.426
 8342SOL     OW25275   8.015   6.607   5.859
 8342SOL    HW125276   7.976   6.544   5.920
 8342SOL    HW225277   7.942   6.639   5.808
 8343SOL     OW25278  12.261  11.023   2.577
 8343SOL    HW125279  12.305  11.086   2.633
 8343SOL    HW225280  12.327  10.956   2.558
 8344SOL     OW25281  12.652  11.145   6.104
 8344SOL    HW125282  12.652  11.073   6.167
 8344SOL    HW225283  12.696  11.217   6.149
 8345SOL     OW25284   4.073   5.625   5.135
 8345SOL    HW125285   4.115   5.631   5.221
 8345SOL    HW225286   4.128   5.563   5.086
 8346SOL     OW25287   9.228  10.102   6.776
 8346SOL    HW125288   9.168  10.169   6.808
 8346SOL    HW225289   9.209  10.097   6.682
 8347SOL     OW25290   7.868   4.265   1.531
 8347SOL    HW125291   7.949   4.290   1.575
 8347SOL    HW225292   7.814   4.344   1.533
 8348SOL     OW25293   2.794   3.163   0.426
 8348SOL    HW125294   2.815   3.256   0.419
 8348SOL    HW225295   2.823   3.125   0.343
 8349SOL     OW25296   8.211   9.825   2.958
 8349SOL    HW125297   8.132   9.869   2.927
 8349SOL    HW225298   8.276   9.841   2.890
 8350SOL     OW25299   9.650   5.333   2.726
 8350SOL    HW125300   9.607   5.405   2.771
 8350SOL    HW225301   9.730   5.317   2.776
 8351SOL     OW25302   9.844  10.888   0.662
 8351SOL    HW125303   9.839  10.979   0.631
 8351SOL    HW225304   9.753  10.864   0.681
 8352SOL     OW25305  12.306  10.821   7.614
 8352SOL    HW125306   6.949   5.509   0.045
 8352SOL    HW225307  12.260  10.858   7.539
 8353SOL     OW25308   9.627   9.033   6.416
 8353SOL    HW125309   9.676   9.013   6.496
 8353SOL    HW225310   9.550   9.082   6.447
 8354SOL     OW25311   8.621   1.536   1.728
 8354SOL    HW125312   8.671   1.483   1.666
 8354SOL    HW225313   8.577   1.473   1.784
 8355SOL     OW25314   5.886  11.058   7.087
 8355SOL    HW125315   5.792  11.053   7.067
 8355SOL    HW225316   5.911  10.968   7.107
 8356SOL     OW25317   3.225   9.407   0.760
 8356SOL    HW125318   3.259   9.495   0.744
 8356SOL    HW225319   3.253   9.386   0.849
 8357SOL     OW25320   8.324   6.384   4.653
 8357SOL    HW125321   8.408   6.418   4.623
 8357SOL    HW225322   8.277   6.360   4.573
 8358SOL     OW25323  14.686  13.535   6.276
 8358SOL    HW125324  14.741  13.491   6.340
 8358SOL    HW225325  14.743  13.602   6.237
 8359SOL     OW25326  10.567   9.585   7.347
 8359SOL    HW125327  10.499   9.647   7.321
 8359SOL    HW225328  10.554   9.574   7.442
 8360SOL     OW25329  10.544  10.960   1.298
 8360SOL    HW125330  10.487  10.888   1.272
 8360SOL    HW225331  10.546  11.018   1.222
 8361SOL     OW25332   3.022   5.183   2.970
 8361SOL    HW125333   2.957   5.115   2.954
 8361SOL    HW225334   3.094   5.137   3.014
 8362SOL     OW25335  11.916   5.053   6.850
 8362SOL    HW125336  11.835   5.089   6.886
 8362SOL    HW225337  11.887   4.988   6.786
 8363SOL     OW25338  10.956  11.394   4.039
 8363SOL    HW125339  10.915  11.409   3.953
 8363SOL    HW225340  11.006  11.473   4.056
 8364SOL     OW25341   2.748   9.060   1.388
 8364SOL    HW125342   2.720   9.006   1.314
 8364SOL    HW225343   2.736   9.004   1.465
 8365SOL     OW25344   2.768   8.332   1.633
 8365SOL    HW125345   2.812   8.416   1.621
 8365SOL    HW225346   2.839   8.271   1.654
 8366SOL     OW25347   0.624   5.038   0.526
 8366SOL    HW125348   0.641   4.980   0.453
 8366SOL    HW225349   0.607   5.123   0.486
 8367SOL     OW25350   4.562   8.258   2.722
 8367SOL    HW125351   4.570   8.171   2.683
 8367SOL    HW225352   4.493   8.301   2.672
 8368SOL     OW25353   6.496   6.217   6.661
 8368SOL    HW125354   6.533   6.208   6.573
 8368SOL    HW225355   6.451   6.302   6.660
 8369SOL     OW25356   5.670   8.497   2.748
 8369SOL    HW125357   5.648   8.497   2.841
 8369SOL    HW225358   5.655   8.407   2.720
 8370SOL     OW25359   6.715   5.825   7.348
 8370SOL    HW125360   6.628   5.840   7.312
 8370SOL    HW225361   6.729   5.898   7.409
 8371SOL     OW25362  11.141  11.455   4.776
 8371SOL    HW125363  11.057  11.460   4.730
 8371SOL    HW225364  11.202  11.422   4.710
 8372SOL     OW25365   0.798   1.829   0.734
 8372SOL    HW125366   0.768   1.918   0.713
 8372SOL    HW225367   0.894   1.836   0.732
 8373SOL     OW25368   3.426  10.681   0.470
 8373SOL    HW125369   3.453  10.640   0.388
 8373SOL    HW225370   3.446  10.774   0.458
 8374SOL     OW25371  10.824  15.466   6.739
 8374SOL    HW125372  10.771  15.484   6.816
 8374SOL    HW225373  10.874  15.387   6.762
 8375SOL     OW25374   2.022   6.165   0.387
 8375SOL    HW125375   2.083   6.154   0.314
 8375SOL    HW225376   2.019   6.260   0.401
 8376SOL     OW25377  10.089   1.122   0.629
 8376SOL    HW125378  10.076   1.136   0.723
 8376SOL    HW225379  10.144   1.045   0.624
 8377SOL     OW25380   5.629  12.832   4.761
 8377SOL    HW125381   5.706  12.881   4.789
 8377SOL    HW225382   5.656  12.740   4.767
 8378SOL     OW25383   1.300   2.337   1.721
 8378SOL    HW125384   1.275   2.247   1.745
 8378SOL    HW225385   1.286   2.341   1.626
 8379SOL     OW25386  10.604  11.347   2.469
 8379SOL    HW125387  10.627  11.256   2.451
 8379SOL    HW225388  10.576  11.348   2.560
 8380SOL     OW25389  13.207  12.247   6.835
 8380SOL    HW125390  13.239  12.166   6.795
 8380SOL    HW225391  13.123  12.223   6.873
 8381SOL     OW25392  12.149  14.252   5.679
 8381SOL    HW125393  12.125  14.255   5.772
 8381SOL    HW225394  12.213  14.322   5.668
 8382SOL     OW25395   5.748  15.120   6.226
 8382SOL    HW125396   5.760  15.110   6.132
 8382SOL    HW225397   5.837  15.128   6.261
 8383SOL     OW25398   2.852   3.404   3.259
 8383SOL    HW125399   2.774   3.418   3.205
 8383SOL    HW225400   2.891   3.491   3.267
 8384SOL     OW25401  11.918   6.825   6.896
 8384SOL    HW125402  11.985   6.809   6.830
 8384SOL    HW225403  11.882   6.738   6.915
 8385SOL     OW25404  10.128  13.746   6.059
 8385SOL    HW125405  10.165  13.816   6.006
 8385SOL    HW225406  10.042  13.780   6.086
 8386SOL     OW25407  13.988   7.019   6.244
 8386SOL    HW125408  14.063   6.962   6.259
 8386SOL    HW225409  13.912   6.961   6.252
 8387SOL     OW25410   6.720   5.221   3.885
 8387SOL    HW125411   6.804   5.243   3.844
 8387SOL    HW225412   6.654   5.249   3.821
 8388SOL     OW25413   9.243   1.089   1.242
 8388SOL    HW125414   9.212   1.065   1.330
 8388SOL    HW225415   9.165   1.090   1.188
 8389SOL     OW25416   2.543   8.788   3.152
 8389SOL    HW125417   2.472   8.830   3.200
 8389SOL    HW225418   2.620   8.797   3.209
 8390SOL     OW25419   2.306   0.909   0.416
 8390SOL    HW125420   2.286   0.989   0.368
 8390SOL    HW225421   2.381   0.932   0.471
 8391SOL     OW25422   9.558   8.280   1.614
 8391SOL    HW125423   9.631   8.320   1.663
 8391SOL    HW225424   9.484   8.285   1.675
 8392SOL     OW25425   5.876   6.951   4.762
 8392SOL    HW125426   5.842   7.038   4.741
 8392SOL    HW225427   5.955   6.943   4.709
 8393SOL     OW25428   0.427   0.885   0.352
 8393SOL    HW125429   0.468   0.798   0.354
 8393SOL    HW225430   0.472   0.934   0.421
 8394SOL     OW25431   5.654   3.122   3.195
 8394SOL    HW125432   5.587   3.061   3.227
 8394SOL    HW225433   5.612   3.208   3.198
 8395SOL     OW25434   5.744   6.610   3.139
 8395SOL    HW125435   5.659   6.569   3.155
 8395SOL    HW225436   5.750   6.680   3.204
 8396SOL     OW25437   4.181  12.442   3.033
 8396SOL    HW125438   4.159  12.527   3.073
 8396SOL    HW225439   4.277  12.443   3.028
 8397SOL     OW25440   8.453  12.054   4.311
 8397SOL    HW125441   8.412  11.976   4.273
 8397SOL    HW225442   8.497  12.096   4.237
 8398SOL     OW25443   6.617   6.822   2.133
 8398SOL    HW125444   6.566   6.763   2.078
 8398SOL    HW225445   6.554   6.856   2.197
 8399SOL     OW25446   6.438  11.228   5.199
 8399SOL    HW125447   6.367  11.213   5.137
 8399SOL    HW225448   6.471  11.315   5.178
 8400SOL     OW25449   4.601  10.212   4.652
 8400SOL    HW125450   4.661  10.141   4.676
 8400SOL    HW225451   4.564  10.184   4.568
 8401SOL     OW25452  12.621  14.633   7.349
 8401SOL    HW125453  12.586  14.679   7.273
 8401SOL    HW225454  12.565  14.555   7.358
 8402SOL     OW25455  15.487  12.584   7.600
 8402SOL    HW125456  15.581  12.571   7.588
 8402SOL    HW225457  15.459  12.626   7.519
 8403SOL     OW25458   6.963  13.623   5.824
 8403SOL    HW125459   6.916  13.703   5.802
 8403SOL    HW225460   6.935  13.602   5.913
 8404SOL     OW25461   9.287   6.803   3.841
 8404SOL    HW125462   9.196   6.830   3.852
 8404SOL    HW225463   9.336   6.861   3.898
 8405SOL     OW25464  14.687   7.295   5.591
 8405SOL    HW125465  14.719   7.296   5.681
 8405SOL    HW225466   3.991   7.307   5.537
 8406SOL     OW25467  14.398   7.658   5.220
 8406SOL    HW125468  14.407   7.659   5.316
 8406SOL    HW225469  14.326   7.719   5.202
 8407SOL     OW25470   8.250   6.740   3.459
 8407SOL    HW125471   8.316   6.753   3.392
 8407SOL    HW225472   8.290   6.679   3.521
 8408SOL     OW25473   7.227   3.965   4.701
 8408SOL    HW125474   7.307   3.916   4.720
 8408SOL    HW225475   7.180   3.910   4.639
 8409SOL     OW25476   7.351  12.391   7.464
 8409SOL    HW125477   7.258  12.371   7.456
 8409SOL    HW225478   7.368  12.451   7.391
 8410SOL     OW25479   6.708   7.036   6.680
 8410SOL    HW125480   6.799   7.021   6.703
 8410SOL    HW225481   6.676   7.097   6.747
 8411SOL     OW25482   9.055   7.579   0.179
 8411SOL    HW125483   9.023   7.656   0.133
 8411SOL    HW225484   9.150   7.588   0.179
 8412SOL     OW25485  13.932   4.607   4.714
 8412SOL    HW125486  13.931   4.570   4.802
 8412SOL    HW225487  13.997   4.555   4.667
 8413SOL     OW25488  13.984   4.321   5.891
 8413SOL    HW125489  13.992   4.378   5.967
 8413SOL    HW225490  13.914   4.360   5.839
 8414SOL     OW25491   9.236   4.236   4.261
 8414SOL    HW125492   9.265   4.163   4.316
 8414SOL    HW225493   9.194   4.194   4.186
 8415SOL     OW25494   5.471   5.156   0.151
 8415SOL    HW125495   5.455   5.248   0.129
 8415SOL    HW225496   5.431   5.106   0.080
 8416SOL     OW25497   7.364   8.844   2.082
 8416SOL    HW125498   7.445   8.888   2.056
 8416SOL    HW225499   7.295   8.907   2.063
 8417SOL     OW25500   6.723   9.002   5.777
 8417SOL    HW125501   6.640   9.032   5.739
 8417SOL    HW225502   6.770   9.083   5.798
 8418SOL     OW25503   9.416   3.438   4.329
 8418SOL    HW125504   9.433   3.354   4.372
 8418SOL    HW225505   9.443   3.425   4.238
 8419SOL     OW25506  13.867  13.370   5.246
 8419SOL    HW125507  13.802  13.340   5.310
 8419SOL    HW225508  13.923  13.430   5.295
 8420SOL     OW25509  12.306   5.187   5.461
 8420SOL    HW125510  12.381   5.154   5.510
 8420SOL    HW225511  12.243   5.214   5.528
 8421SOL     OW25512   5.774   1.355   1.049
 8421SOL    HW125513   5.804   1.279   1.000
 8421SOL    HW225514   5.711   1.398   0.991
 8422SOL     OW25515   9.396  10.232   1.290
 8422SOL    HW125516   9.364  10.296   1.352
 8422SOL    HW225517   9.417  10.282   1.211
 8423SOL     OW25518   9.879  13.522   6.406
 8423SOL    HW125519   9.822  13.469   6.349
 8423SOL    HW225520   9.888  13.605   6.360
 8424SOL     OW25521   8.860   4.807   0.914
 8424SOL    HW125522   8.861   4.851   0.999
 8424SOL    HW225523   8.952   4.793   0.892
 8425SOL     OW25524   4.893   4.877   6.247
 8425SOL    HW125525   4.979   4.905   6.280
 8425SOL    HW225526   4.898   4.890   6.152
 8426SOL     OW25527   6.988   8.884   6.615
 8426SOL    HW125528   6.953   8.809   6.664
 8426SOL    HW225529   7.075   8.898   6.651
 8427SOL     OW25530   6.728   9.099   3.550
 8427SOL    HW125531   6.675   9.068   3.477
 8427SOL    HW225532   6.720   9.030   3.616
 8428SOL     OW25533  10.286   8.053   3.881
 8428SOL    HW125534  10.306   7.960   3.895
 8428SOL    HW225535  10.283   8.090   3.969
 8429SOL     OW25536  10.170   8.534   0.256
 8429SOL    HW125537  10.127   8.530   0.170
 8429SOL    HW225538  10.252   8.485   0.244
 8430SOL     OW25539  12.886   5.464   3.388
 8430SOL    HW125540  12.906   5.554   3.362
 8430SOL    HW225541  12.876   5.417   3.305
 8431SOL     OW25542   2.742  11.680   2.899
 8431SOL    HW125543   2.762  11.599   2.946
 8431SOL    HW225544   2.699  11.735   2.964
 8432SOL     OW25545  11.622   7.433   7.001
 8432SOL    HW125546  11.573   7.354   6.981
 8432SOL    HW225547  11.682   7.407   7.070
 8433SOL     OW25548   1.318   5.932   0.653
 8433SOL    HW125549   1.274   5.859   0.696
 8433SOL    HW225550   1.247   5.987   0.620
 8434SOL     OW25551   3.595   4.027   4.615
 8434SOL    HW125552   3.632   4.062   4.534
 8434SOL    HW225553   3.521   4.084   4.634
 8435SOL     OW25554   6.892   7.648   7.487
 8435SOL    HW125555   6.983   7.620   7.484
 8435SOL    HW225556   6.841   7.569   7.469
 8436SOL     OW25557  11.443   8.939   1.361
 8436SOL    HW125558  11.348   8.947   1.349
 8436SOL    HW225559  11.470   8.875   1.295
 8437SOL     OW25560   7.734  10.872   4.073
 8437SOL    HW125561   7.686  10.902   3.996
 8437SOL    HW225562   7.700  10.784   4.089
 8438SOL     OW25563  10.920  10.000   5.270
 8438SOL    HW125564  10.956   9.942   5.203
 8438SOL    HW225565  10.979  10.075   5.272
 8439SOL     OW25566   7.487   7.559   5.457
 8439SOL    HW125567   7.508   7.540   5.366
 8439SOL    HW225568   7.395   7.535   5.466
 8440SOL     OW25569  10.997  13.447   6.792
 8440SOL    HW125570  10.993  13.468   6.885
 8440SOL    HW225571  11.030  13.527   6.751
 8441SOL     OW25572   9.257   7.255   5.398
 8441SOL    HW125573   9.249   7.214   5.312
 8441SOL    HW225574   9.329   7.316   5.389
 8442SOL     OW25575  12.298  11.584   2.210
 8442SOL    HW125576   1.605  11.535   2.219
 8442SOL    HW225577   1.551  11.667   2.170
 8443SOL     OW25578  10.463   8.502   1.379
 8443SOL    HW125579  10.503   8.417   1.361
 8443SOL    HW225580  10.500   8.561   1.313
 8444SOL     OW25581   6.561  10.855   4.720
 8444SOL    HW125582   6.487  10.859   4.781
 8444SOL    HW225583   6.599  10.943   4.723
 8445SOL     OW25584   8.428   9.760   3.647
 8445SOL    HW125585   8.426   9.854   3.666
 8445SOL    HW225586   8.464   9.721   3.727
 8446SOL     OW25587   8.839  14.753   5.974
 8446SOL    HW125588   8.908  14.751   5.908
 8446SOL    HW225589   8.833  14.845   5.999
 8447SOL     OW25590  12.620   6.674   5.694
 8447SOL    HW125591  12.597   6.594   5.646
 8447SOL    HW225592  12.550   6.736   5.672
 8448SOL     OW25593   4.586   6.882   3.768
 8448SOL    HW125594   4.643   6.902   3.694
 8448SOL    HW225595   4.497   6.890   3.732
 8449SOL     OW25596  10.679   3.410   3.428
 8449SOL    HW125597  10.592   3.442   3.450
 8449SOL    HW225598  10.670   3.373   3.340
 8450SOL     OW25599  14.265  10.530   7.094
 8450SOL    HW125600  14.307  10.562   7.014
 8450SOL    HW225601  14.270  10.604   7.154
 8451SOL     OW25602  10.795  13.097   3.747
 8451SOL    HW125603  10.843  13.062   3.671
 8451SOL    HW225604  10.729  13.155   3.708
 8452SOL     OW25605  10.673   3.616   4.854
 8452SOL    HW125606  10.630   3.622   4.939
 8452SOL    HW225607  10.675   3.522   4.835
 8453SOL     OW25608  11.230  11.292   5.383
 8453SOL    HW125609  11.322  11.313   5.367
 8453SOL    HW225610  11.189  11.375   5.407
 8454SOL     OW25611   5.443  12.558   3.327
 8454SOL    HW125612   5.474  12.482   3.277
 8454SOL    HW225613   5.420  12.623   3.260
 8455SOL     OW25614   5.039   7.429   3.403
 8455SOL    HW125615   5.013   7.380   3.482
 8455SOL    HW225616   4.964   7.485   3.384
 8456SOL     OW25617   0.364   1.789   0.223
 8456SOL    HW125618   0.347   1.849   0.150
 8456SOL    HW225619   0.278   1.755   0.247
 8457SOL     OW25620   9.278  11.534   1.398
 8457SOL    HW125621   9.355  11.567   1.352
 8457SOL    HW225622   9.231  11.482   1.332
 8458SOL     OW25623  10.560   5.097   4.035
 8458SOL    HW125624  10.614   5.029   3.995
 8458SOL    HW225625  10.588   5.178   3.994
 8459SOL     OW25626   8.376   6.107   5.473
 8459SOL    HW125627   8.372   6.040   5.541
 8459SOL    HW225628   8.408   6.061   5.395
 8460SOL     OW25629  13.201   5.444   6.105
 8460SOL    HW125630  13.124   5.400   6.142
 8460SOL    HW225631  13.178   5.459   6.013
 8461SOL     OW25632   7.975   7.189   6.407
 8461SOL    HW125633   8.001   7.236   6.327
 8461SOL    HW225634   8.035   7.114   6.410
 8462SOL     OW25635   5.109  12.602   3.333
 8462SOL    HW125636   5.160  12.650   3.267
 8462SOL    HW225637   5.132  12.645   3.415
 8463SOL     OW25638  13.230   4.077   3.840
 8463SOL    HW125639  13.275   4.013   3.895
 8463SOL    HW225640  13.283   4.083   3.761
 8464SOL     OW25641   7.908   8.501   1.475
 8464SOL    HW125642   7.854   8.483   1.552
 8464SOL    HW225643   7.889   8.593   1.454
 8465SOL     OW25644  11.887  12.111   7.045
 8465SOL    HW125645  11.858  12.137   6.958
 8465SOL    HW225646  11.818  12.143   7.104
 8466SOL     OW25647   9.152  10.732   7.151
 8466SOL    HW125648   9.098  10.667   7.105
 8466SOL    HW225649   9.141  10.711   7.244
 8467SOL     OW25650   9.436  12.454   5.811
 8467SOL    HW125651   9.463  12.546   5.818
 8467SOL    HW225652   9.402  12.433   5.899
 8468SOL     OW25653   6.870  12.202   5.319
 8468SOL    HW125654   6.825  12.171   5.241
 8468SOL    HW225655   6.822  12.160   5.392
 8469SOL     OW25656   5.319   8.895   3.843
 8469SOL    HW125657   5.308   8.974   3.897
 8469SOL    HW225658   5.293   8.922   3.755
 8470SOL     OW25659   8.583   3.422   3.789
 8470SOL    HW125660   8.678   3.419   3.793
 8470SOL    HW225661   8.554   3.397   3.877
 8471SOL     OW25662   4.868   8.570   1.464
 8471SOL    HW125663   4.842   8.614   1.545
 8471SOL    HW225664   4.797   8.507   1.447
 8472SOL     OW25665  10.507   5.925   4.785
 8472SOL    HW125666  10.426   5.940   4.737
 8472SOL    HW225667  10.547   5.849   4.742
 8473SOL     OW25668   6.365   4.706   3.224
 8473SOL    HW125669   6.378   4.659   3.306
 8473SOL    HW225670   6.376   4.640   3.156
 8474SOL     OW25671  13.599  10.740   5.591
 8474SOL    HW125672  13.548  10.686   5.530
 8474SOL    HW225673  13.535  10.802   5.626
 8475SOL     OW25674   3.515  11.165   3.602
 8475SOL    HW125675   3.437  11.168   3.658
 8475SOL    HW225676   3.588  11.183   3.662
 8476SOL     OW25677  12.838   8.687   4.031
 8476SOL    HW125678  12.820   8.752   4.099
 8476SOL    HW225679  12.755   8.641   4.019
 8477SOL     OW25680   7.434   5.650   7.384
 8477SOL    HW125681   7.397   5.681   7.301
 8477SOL    HW225682   7.476   5.727   7.422
 8478SOL     OW25683  11.162  10.136   1.326
 8478SOL    HW125684  11.204  10.202   1.270
 8478SOL    HW225685  11.087  10.106   1.275
 8479SOL     OW25686   6.777   7.098   2.772
 8479SOL    HW125687   6.708   7.037   2.745
 8479SOL    HW225688   6.730   7.174   2.806
 8480SOL     OW25689   6.180  11.094   2.858
 8480SOL    HW125690   6.274  11.080   2.858
 8480SOL    HW225691   6.156  11.096   2.951
 8481SOL     OW25692  11.996   9.782   4.885
 8481SOL    HW125693  12.063   9.850   4.899
 8481SOL    HW225694  11.989   9.775   4.790
 8482SOL     OW25695   6.967  11.142   6.151
 8482SOL    HW125696   6.923  11.128   6.068
 8482SOL    HW225697   6.915  11.093   6.215
 8483SOL     OW25698   3.332   3.895   2.363
 8483SOL    HW125699   3.416   3.910   2.406
 8483SOL    HW225700   3.351   3.833   2.293
 8484SOL     OW25701   3.803   1.233   0.521
 8484SOL    HW125702   3.716   1.252   0.555
 8484SOL    HW225703   3.859   1.301   0.557
 8485SOL     OW25704  10.968   4.797   1.009
 8485SOL    HW125705  11.054   4.826   1.039
 8485SOL    HW225706  10.907   4.834   1.073
 8486SOL     OW25707   0.310   8.821   0.345
 8486SOL    HW125708   0.286   8.908   0.315
 8486SOL    HW225709   0.406   8.819   0.338
 8487SOL     OW25710   4.260   5.173   0.711
 8487SOL    HW125711   4.328   5.129   0.659
 8487SOL    HW225712   4.179   5.130   0.684
 8488SOL     OW25713  11.758  10.709   4.669
 8488SOL    HW125714  11.809  10.652   4.611
 8488SOL    HW225715  11.669  10.675   4.663
 8489SOL     OW25716  13.690   5.151   4.908
 8489SOL    HW125717  13.645   5.099   4.842
 8489SOL    HW225718  13.701   5.237   4.868
 8490SOL     OW25719  13.849   9.663   7.401
 8490SOL    HW125720  13.904   9.584   7.398
 8490SOL    HW225721  13.890   9.723   7.338
 8491SOL     OW25722  12.982   6.834   6.585
 8491SOL    HW125723  13.071   6.850   6.619
 8491SOL    HW225724  12.995   6.817   6.492
 8492SOL     OW25725   5.897  12.646   4.039
 8492SOL    HW125726   5.860  12.730   4.068
 8492SOL    HW225727   5.968  12.628   4.100
 8493SOL     OW25728   1.441   7.700   0.677
 8493SOL    HW125729   1.453   7.681   0.770
 8493SOL    HW225730   1.504   7.644   0.633
 8494SOL     OW25731   7.870   4.168   3.819
 8494SOL    HW125732   7.801   4.183   3.884
 8494SOL    HW225733   7.934   4.113   3.866
 8495SOL     OW25734  10.936  14.635   7.488
 8495SOL    HW125735  10.946  14.715   7.437
 8495SOL    HW225736  10.863  14.590   7.446
 8496SOL     OW25737  13.378  12.118   4.823
 8496SOL    HW125738  13.350  12.138   4.912
 8496SOL    HW225739  13.333  12.182   4.768
 8497SOL     OW25740   6.707   7.008   5.879
 8497SOL    HW125741   6.700   6.916   5.855
 8497SOL    HW225742   6.632   7.050   5.837
 8498SOL     OW25743   7.399   5.219   3.951
 8498SOL    HW125744   7.392   5.314   3.956
 8498SOL    HW225745   7.472   5.197   4.008
 8499SOL     OW25746   8.352   5.020   5.384
 8499SOL    HW125747   8.355   4.930   5.351
 8499SOL    HW225748   8.272   5.023   5.437
 8500SOL     OW25749   8.172   1.956   2.233
 8500SOL    HW125750   8.259   1.947   2.194
 8500SOL    HW225751   8.118   1.891   2.188
 8501SOL     OW25752  11.014   6.070   6.175
 8501SOL    HW125753  10.972   6.133   6.117
 8501SOL    HW225754  10.977   5.985   6.149
 8502SOL     OW25755  15.286  13.477   7.554
 8502SOL    HW125756   9.839   8.060   0.004
 8502SOL    HW225757  15.342  13.401   7.537
 8503SOL     OW25758   2.917   5.676   3.258
 8503SOL    HW125759   2.877   5.683   3.171
 8503SOL    HW225760   3.010   5.663   3.241
 8504SOL     OW25761  14.755  12.033   7.192
 8504SOL    HW125762  14.774  12.103   7.255
 8504SOL    HW225763  14.660  12.041   7.177
 8505SOL     OW25764   2.105   3.809   2.086
 8505SOL    HW125765   2.016   3.775   2.095
 8505SOL    HW225766   2.095   3.904   2.093
 8506SOL     OW25767   8.650  13.588   4.931
 8506SOL    HW125768   8.560  13.564   4.907
 8506SOL    HW225769   8.699  13.584   4.849
 8507SOL     OW25770   4.488  10.198   0.233
 8507SOL    HW125771   4.575  10.238   0.237
 8507SOL    HW225772   4.437  10.246   0.297
 8508SOL     OW25773   4.195  11.087   0.758
 8508SOL    HW125774   4.153  11.146   0.694
 8508SOL    HW225775   4.125  11.027   0.783
 8509SOL     OW25776   1.063   9.936   0.254
 8509SOL    HW125777   1.095  10.022   0.283
 8509SOL    HW225778   1.064   9.941   0.159
 8510SOL     OW25779   9.921  10.040   5.373
 8510SOL    HW125780   9.940  10.101   5.301
 8510SOL    HW225781   9.969  10.076   5.448
 8511SOL     OW25782   4.055   3.939   3.072
 8511SOL    HW125783   4.070   3.891   3.154
 8511SOL    HW225784   4.086   4.027   3.090
 8512SOL     OW25785  13.071   8.003   7.253
 8512SOL    HW125786  13.116   7.988   7.335
 8512SOL    HW225787  13.112   8.082   7.217
 8513SOL     OW25788   9.480  10.916   0.828
 8513SOL    HW125789   9.533  10.838   0.842
 8513SOL    HW225790   9.400  10.900   0.877
 8514SOL     OW25791  11.252   4.920   5.830
 8514SOL    HW125792  11.265   4.875   5.747
 8514SOL    HW225793  11.289   4.861   5.895
 8515SOL     OW25794   4.776   9.501   6.656
 8515SOL    HW125795  15.459   9.498   6.684
 8515SOL    HW225796   4.811   9.416   6.684
 8516SOL     OW25797   6.184   6.113   5.892
 8516SOL    HW125798   6.096   6.110   5.928
 8516SOL    HW225799   6.174   6.083   5.801
 8517SOL     OW25800   4.464   3.197   0.033
 8517SOL    HW125801   9.798   8.587   7.572
 8517SOL    HW225802   4.402   3.219   0.103
 8518SOL     OW25803   8.241   5.710   4.015
 8518SOL    HW125804   8.238   5.802   3.990
 8518SOL    HW225805   8.263   5.664   3.934
 8519SOL     OW25806   9.965   7.950   5.854
 8519SOL    HW125807  10.010   7.935   5.771
 8519SOL    HW225808   9.999   8.033   5.886
 8520SOL     OW25809   6.022   6.860   3.888
 8520SOL    HW125810   5.987   6.857   3.978
 8520SOL    HW225811   6.064   6.775   3.876
 8521SOL     OW25812  11.375   4.053   4.181
 8521SOL    HW125813  11.342   4.139   4.207
 8521SOL    HW225814  11.343   4.040   4.092
 8522SOL     OW25815   9.112   4.108   2.405
 8522SOL    HW125816   9.178   4.172   2.376
 8522SOL    HW225817   9.069   4.151   2.479
 8523SOL     OW25818   7.956  13.437   5.930
 8523SOL    HW125819   7.911  13.395   6.004
 8523SOL    HW225820   7.894  13.504   5.901
 8524SOL     OW25821  10.730   6.894   2.674
 8524SOL    HW125822  10.716   6.820   2.733
 8524SOL    HW225823  10.643   6.918   2.643
 8525SOL     OW25824   4.949   8.977   0.393
 8525SOL    HW125825   5.032   9.001   0.352
 8525SOL    HW225826   4.935   9.043   0.461
 8526SOL     OW25827  13.332   7.289   4.934
 8526SOL    HW125828  13.379   7.271   4.853
 8526SOL    HW225829  13.252   7.237   4.928
 8527SOL     OW25830   8.966  13.403   3.760
 8527SOL    HW125831   9.000   2.712   3.793
 8527SOL    HW225832   8.873  13.403   3.785
 8528SOL     OW25833  10.998   9.895   5.537
 8528SOL    HW125834  10.931   9.960   5.557
 8528SOL    HW225835  11.034   9.923   5.452
 8529SOL     OW25836   4.171  11.703   4.547
 8529SOL    HW125837   4.081  11.731   4.529
 8529SOL    HW225838   4.202  11.667   4.464
 8530SOL     OW25839   7.040  15.103   6.161
 8530SOL    HW125840   7.044   4.419   6.193
 8530SOL    HW225841   7.043  15.050   6.241
 8531SOL     OW25842   5.251  11.306   1.048
 8531SOL    HW125843   5.301  11.374   1.093
 8531SOL    HW225844   5.161  11.320   1.076
 8532SOL     OW25845   0.185   7.217   0.219
 8532SOL    HW125846  10.870   7.186   0.226
 8532SOL    HW225847   0.177   7.312   0.210
 8533SOL     OW25848  12.314   3.080   3.692
 8533SOL    HW125849  12.338   2.989   3.679
 8533SOL    HW225850  12.223   3.086   3.663
 8534SOL     OW25851   7.405   7.334   0.786
 8534SOL    HW125852   7.368   7.396   0.723
 8534SOL    HW225853   7.366   7.250   0.762
 8535SOL     OW25854  11.788  11.188   1.488
 8535SOL    HW125855  11.762  11.237   1.567
 8535SOL    HW225856  11.719  11.205   1.425
 8536SOL     OW25857   4.451   8.671   5.157
 8536SOL    HW125858   4.480   8.760   5.141
 8536SOL    HW225859   4.531   8.624   5.183
 8537SOL     OW25860  11.741   6.546   6.059
 8537SOL    HW125861  11.812   6.519   6.000
 8537SOL    HW225862  11.712   6.465   6.100
 8538SOL     OW25863  11.632   5.148   6.948
 8538SOL    HW125864  11.656   5.210   6.879
 8538SOL    HW225865  11.602   5.070   6.901
 8539SOL     OW25866   9.702   8.801   4.065
 8539SOL    HW125867   9.791   8.826   4.043
 8539SOL    HW225868   9.679   8.736   3.998
 8540SOL     OW25869   8.271   6.425   1.156
 8540SOL    HW125870   8.330   6.444   1.084
 8540SOL    HW225871   8.237   6.337   1.136
 8541SOL     OW25872  10.455   8.317   7.054
 8541SOL    HW125873  10.368   8.285   7.030
 8541SOL    HW225874  10.514   8.264   7.000
 8542SOL     OW25875   6.039  10.914   6.753
 8542SOL    HW125876   5.983  10.837   6.752
 8542SOL    HW225877   5.979  10.987   6.770
 8543SOL     OW25878   8.292  12.149   5.915
 8543SOL    HW125879   8.285  12.207   5.991
 8543SOL    HW225880   8.387  12.137   5.903
 8544SOL     OW25881   9.821  11.128   4.599
 8544SOL    HW125882   9.767  11.147   4.523
 8544SOL    HW225883   9.911  11.144   4.570
 8545SOL     OW25884   5.621   5.706   7.222
 8545SOL    HW125885   5.631   5.652   7.301
 8545SOL    HW225886   5.705   5.749   7.211
 8546SOL     OW25887   4.697   6.479   4.706
 8546SOL    HW125888   4.713   6.385   4.706
 8546SOL    HW225889   4.769   6.516   4.758
 8547SOL     OW25890  10.831   7.021   6.234
 8547SOL    HW125891  10.915   7.032   6.278
 8547SOL    HW225892  10.788   6.950   6.281
 8548SOL     OW25893   2.136   1.429   0.039
 8548SOL    HW125894   2.225   1.462   0.039
 8548SOL    HW225895   2.083   1.501   0.072
 8549SOL     OW25896   6.155  12.357   7.219
 8549SOL    HW125897   6.150  12.291   7.288
 8549SOL    HW225898   6.078  12.340   7.165
 8550SOL     OW25899   7.098   7.860   7.226
 8550SOL    HW125900   7.099   7.918   7.150
 8550SOL    HW225901   7.012   7.818   7.223
 8551SOL     OW25902   5.190  12.198   3.955
 8551SOL    HW125903   5.130  12.259   3.998
 8551SOL    HW225904   5.163  12.111   3.985
 8552SOL     OW25905   9.144   5.891   6.518
 8552SOL    HW125906   9.215   5.924   6.573
 8552SOL    HW225907   9.187   5.829   6.459
 8553SOL     OW25908   3.679   5.622   0.534
 8553SOL    HW125909   3.680   5.696   0.595
 8553SOL    HW225910   3.738   5.558   0.573
 8554SOL     OW25911   4.014  11.059   4.387
 8554SOL    HW125912   3.960  11.137   4.397
 8554SOL    HW225913   4.057  11.049   4.472
 8555SOL     OW25914   8.562   7.367   5.802
 8555SOL    HW125915   8.486   7.347   5.747
 8555SOL    HW225916   8.619   7.420   5.745
 8556SOL     OW25917   9.619  10.108   5.309
 8556SOL    HW125918   9.653  10.095   5.220
 8556SOL    HW225919   9.674  10.178   5.345
 8557SOL     OW25920  10.628   7.990   4.034
 8557SOL    HW125921  10.539   7.956   4.023
 8557SOL    HW225922  10.684   7.926   3.991
 8558SOL     OW25923   2.969   8.230   1.230
 8558SOL    HW125924   2.942   8.171   1.159
 8558SOL    HW225925   2.891   8.283   1.248
 8559SOL     OW25926   6.607   9.095   7.316
 8559SOL    HW125927   6.686   9.097   7.370
 8559SOL    HW225928   6.628   9.151   7.241
 8560SOL     OW25929  14.059   7.238   6.060
 8560SOL    HW125930  14.054   7.166   5.997
 8560SOL    HW225931  14.078   7.195   6.143
 8561SOL     OW25932  12.803   8.032   7.290
 8561SOL    HW125933  12.857   8.059   7.363
 8561SOL    HW225934  12.863   8.027   7.215
 8562SOL     OW25935   5.992  10.579   7.424
 8562SOL    HW125936   5.947  10.503   7.459
 8562SOL    HW225937   6.064  10.594   7.484
 8563SOL     OW25938   7.891   9.677   2.274
 8563SOL    HW125939   7.924   9.762   2.245
 8563SOL    HW225940   7.831   9.650   2.205
 8564SOL     OW25941   1.611   4.402   0.172
 8564SOL    HW125942   1.628   4.446   0.255
 8564SOL    HW225943   1.551   4.330   0.195
 8565SOL     OW25944   3.856   5.140   2.199
 8565SOL    HW125945   3.891   5.051   2.198
 8565SOL    HW225946   3.852   5.165   2.107
 8566SOL     OW25947   4.002  10.342   5.269
 8566SOL    HW125948   3.912  10.344   5.237
 8566SOL    HW225949   3.995  10.362   5.362
 8567SOL     OW25950   9.724   9.260   1.810
 8567SOL    HW125951   9.741   9.230   1.721
 8567SOL    HW225952   9.805   9.242   1.858
 8568SOL     OW25953  11.005   5.896   1.107
 8568SOL    HW125954  10.936   5.830   1.111
 8568SOL    HW225955  11.063   5.866   1.037
 8569SOL     OW25956  12.486   7.565   2.869
 8569SOL    HW125957  12.510   7.490   2.816
 8569SOL    HW225958  12.554   7.630   2.851
 8570SOL     OW25959   7.302   3.468   1.769
 8570SOL    HW125960   7.227   3.415   1.796
 8570SOL    HW225961   7.296   3.471   1.673
 8571SOL     OW25962   9.466   8.697   5.695
 8571SOL    HW125963   9.487   8.790   5.689
 8571SOL    HW225964   9.378   8.690   5.658
 8572SOL     OW25965   2.559   9.565   1.708
 8572SOL    HW125966   2.507   9.494   1.746
 8572SOL    HW225967   2.650   9.542   1.729
 8573SOL     OW25968   8.256   7.906   3.421
 8573SOL    HW125969   8.202   7.961   3.478
 8573SOL    HW225970   8.216   7.915   3.335
 8574SOL     OW25971   5.073   2.610   1.029
 8574SOL    HW125972   5.006   2.633   1.094
 8574SOL    HW225973   5.106   2.694   0.998
 8575SOL     OW25974   5.966   9.179   6.589
 8575SOL    HW125975   6.045   9.145   6.548
 8575SOL    HW225976   5.982   9.273   6.597
 8576SOL     OW25977  13.422  10.449   7.585
 8576SOL    HW125978  13.492  10.501   7.546
 8576SOL    HW225979   8.003   5.115   0.039
 8577SOL     OW25980   3.826   2.226   0.687
 8577SOL    HW125981   3.809   2.148   0.739
 8577SOL    HW225982   3.740   2.268   0.678
 8578SOL     OW25983   5.181  10.753   3.692
 8578SOL    HW125984   5.275  10.755   3.678
 8578SOL    HW225985   5.147  10.702   3.618
 8579SOL     OW25986  10.875   4.718   4.892
 8579SOL    HW125987  10.863   4.647   4.955
 8579SOL    HW225988  10.920   4.678   4.818
 8580SOL     OW25989   6.989   3.966   5.481
 8580SOL    HW125990   6.898   3.970   5.452
 8580SOL    HW225991   6.990   4.018   5.561
 8581SOL     OW25992  11.846   9.958   4.236
 8581SOL    HW125993  11.872   9.870   4.262
 8581SOL    HW225994  11.876   9.966   4.146
 8582SOL     OW25995  10.211   5.716   4.814
 8582SOL    HW125996  10.160   5.776   4.868
 8582SOL    HW225997  10.198   5.630   4.853
 8583SOL     OW25998   8.698   7.054   1.211
 8583SOL    HW125999   8.638   7.113   1.258
 8583SOL    HW226000   8.697   6.973   1.263
 8584SOL     OW26001   4.939  10.861   3.805
 8584SOL    HW126002   4.940  10.810   3.886
 8584SOL    HW226003   4.984  10.806   3.741
 8585SOL     OW26004   7.970  10.238   3.074
 8585SOL    HW126005   7.963  10.227   3.169
 8585SOL    HW226006   7.946  10.329   3.058
 8586SOL     OW26007   9.915   8.711   2.847
 8586SOL    HW126008   9.968   8.750   2.916
 8586SOL    HW226009   9.856   8.652   2.893
 8587SOL     OW26010   6.799   4.618   0.566
 8587SOL    HW126011   6.736   4.627   0.494
 8587SOL    HW226012   6.792   4.700   0.615
 8588SOL     OW26013   7.843  11.531   6.345
 8588SOL    HW126014   7.907  11.580   6.396
 8588SOL    HW226015   7.800  11.596   6.290
 8589SOL     OW26016   7.096  12.671   6.339
 8589SOL    HW126017   7.172  12.721   6.367
 8589SOL    HW226018   7.098  12.675   6.243
 8590SOL     OW26019   3.425   3.159   3.465
 8590SOL    HW126020   3.392   3.096   3.529
 8590SOL    HW226021   3.513   3.181   3.495
 8591SOL     OW26022   6.364  12.853   3.881
 8591SOL    HW126023   6.344  12.814   3.796
 8591SOL    HW226024   6.458  12.841   3.891
 8592SOL     OW26025  10.185   8.721   0.741
 8592SOL    HW126026  10.212   8.791   0.682
 8592SOL    HW226027  10.162   8.766   0.822
 8593SOL     OW26028   8.534   3.147   0.151
 8593SOL    HW126029   8.618   3.135   0.194
 8593SOL    HW226030   8.508   3.236   0.175
 8594SOL     OW26031   9.721   5.025   2.573
 8594SOL    HW126032   9.794   5.051   2.630
 8594SOL    HW226033   9.735   4.931   2.559
 8595SOL     OW26034  10.232   6.930   5.768
 8595SOL    HW126035  10.294   6.894   5.832
 8595SOL    HW226036  10.237   6.868   5.695
 8596SOL     OW26037  10.520   3.493   0.991
 8596SOL    HW126038  10.577   3.500   0.915
 8596SOL    HW226039  10.470   3.575   0.991
 8597SOL     OW26040  10.986   8.514   0.623
 8597SOL    HW126041  10.947   8.433   0.590
 8597SOL    HW226042  10.956   8.582   0.562
 8598SOL     OW26043   8.862   7.699   3.124
 8598SOL    HW126044   8.920   7.742   3.061
 8598SOL    HW226045   8.884   7.606   3.118
 8599SOL     OW26046  12.465  10.174   4.833
 8599SOL    HW126047  12.419  10.165   4.917
 8599SOL    HW226048  12.530  10.243   4.849
 8600SOL     OW26049   6.269   7.586   3.603
 8600SOL    HW126050   6.264   7.597   3.508
 8600SOL    HW226051   6.181   7.557   3.628
 8601SOL     OW26052   7.464   3.329   2.926
 8601SOL    HW126053   7.376   3.309   2.958
 8601SOL    HW226054   7.454   3.338   2.831
 8602SOL     OW26055   8.927   3.959   4.334
 8602SOL    HW126056   8.858   4.023   4.315
 8602SOL    HW226057   8.970   3.944   4.250
 8603SOL     OW26058   8.382  12.070   2.303
 8603SOL    HW126059   8.419  12.154   2.330
 8603SOL    HW226060   8.330  12.090   2.225
 8604SOL     OW26061   4.717  13.291   5.025
 8604SOL    HW126062   4.629  13.262   5.002
 8604SOL    HW226063   4.759  13.308   4.941
 8605SOL     OW26064   8.306   0.593   0.074
 8605SOL    HW126065   8.274   0.519   0.125
 8605SOL    HW226066   8.339   0.655   0.139
 8606SOL     OW26067   5.728  12.325   5.894
 8606SOL    HW126068   5.795  12.264   5.925
 8606SOL    HW226069   5.649  12.300   5.943
 8607SOL     OW26070  10.790   6.249   2.458
 8607SOL    HW126071  10.839   6.326   2.430
 8607SOL    HW226072  10.767   6.204   2.376
 8608SOL     OW26073   9.781  12.982   3.675
 8608SOL    HW126074   9.715  12.920   3.706
 8608SOL    HW226075   9.739  13.030   3.604
 8609SOL     OW26076  11.669  11.884   2.414
 8609SOL    HW126077  11.736  11.849   2.472
 8609SOL    HW226078  11.623  11.949   2.467
 8610SOL     OW26079   4.893   9.445   2.899
 8610SOL    HW126080   4.839   9.420   2.974
 8610SOL    HW226081   4.865   9.387   2.828
 8611SOL     OW26082   1.769  11.475   2.265
 8611SOL    HW126083   1.823  11.438   2.335
 8611SOL    HW226084   1.825  11.542   2.225
 8612SOL     OW26085   7.611   7.604   6.179
 8612SOL    HW126086   7.618   7.602   6.084
 8612SOL    HW226087   7.622   7.513   6.206
 8613SOL     OW26088   8.798   9.229   4.838
 8613SOL    HW126089   8.870   9.200   4.894
 8613SOL    HW226090   8.784   9.321   4.863
 8614SOL     OW26091   6.846  11.476   2.280
 8614SOL    HW126092   6.818  11.553   2.230
 8614SOL    HW226093   6.767  11.421   2.285
 8615SOL     OW26094  11.248  14.287   5.848
 8615SOL    HW126095  11.156  14.280   5.823
 8615SOL    HW226096  11.257  14.376   5.881
 8616SOL     OW26097   7.493   5.344   0.666
 8616SOL    HW126098   7.413   5.323   0.618
 8616SOL    HW226099   7.491   5.286   0.742
 8617SOL     OW26100  12.154   9.528   4.779
 8617SOL    HW126101  12.203   9.582   4.841
 8617SOL    HW226102  12.072   9.508   4.824
 8618SOL     OW26103  13.456   7.583   6.803
 8618SOL    HW126104  13.473   7.595   6.896
 8618SOL    HW226105  13.428   7.492   6.795
 8619SOL     OW26106   3.732   6.702   2.142
 8619SOL    HW126107   3.665   6.635   2.131
 8619SOL    HW226108   3.685   6.785   2.144
 8620SOL     OW26109   4.229   7.892   5.373
 8620SOL    HW126110   4.174   7.970   5.370
 8620SOL    HW226111   4.183   7.829   5.317
 8621SOL     OW26112   5.649   7.692   3.350
 8621SOL    HW126113   5.638   7.647   3.434
 8621SOL    HW226114   5.685   7.626   3.291
 8622SOL     OW26115  10.721   5.352   1.921
 8622SOL    HW126116  10.740   5.306   1.840
 8622SOL    HW226117  10.627   5.341   1.935
 8623SOL     OW26118   9.017   6.973   3.806
 8623SOL    HW126119   8.937   6.935   3.840
 8623SOL    HW226120   9.058   7.015   3.882
 8624SOL     OW26121   8.258   3.039   3.564
 8624SOL    HW126122   8.292   3.094   3.493
 8624SOL    HW226123   8.180   3.085   3.595
 8625SOL     OW26124   7.163   5.423   1.969
 8625SOL    HW126125   7.099   5.487   2.001
 8625SOL    HW226126   7.236   5.475   1.937
 8626SOL     OW26127   4.832   7.817   0.013
 8626SOL    HW126128  10.296  13.165   7.589
 8626SOL    HW226129   4.867   7.893   0.059
 8627SOL     OW26130   7.320   5.804   0.280
 8627SOL    HW126131   7.339   5.752   0.202
 8627SOL    HW226132   7.389   5.780   0.342
 8628SOL     OW26133   8.307   6.644   4.498
 8628SOL    HW126134   8.317   6.599   4.415
 8628SOL    HW226135   8.364   6.721   4.491
 8629SOL     OW26136  14.512  15.283   6.540
 8629SOL    HW126137  14.461  15.301   6.462
 8629SOL    HW226138  14.468  15.333   6.609
 8630SOL     OW26139   7.449  10.285   3.145
 8630SOL    HW126140   7.488  10.324   3.223
 8630SOL    HW226141   7.482  10.337   3.072
 8631SOL     OW26142   2.152   4.771   3.009
 8631SOL    HW126143  12.886   4.799   3.091
 8631SOL    HW226144   2.106   4.819   2.941
 8632SOL     OW26145   8.683  12.499   6.374
 8632SOL    HW126146   8.724  12.496   6.460
 8632SOL    HW226147   8.677  12.593   6.354
 8633SOL     OW26148   5.513   7.640   1.211
 8633SOL    HW126149   5.556   7.587   1.278
 8633SOL    HW226150   5.456   7.700   1.261
 8634SOL     OW26151  14.357  13.661   5.184
 8634SOL    HW126152  14.304  13.740   5.196
 8634SOL    HW226153  14.335  13.629   5.097
 8635SOL     OW26154   3.845   4.079   1.411
 8635SOL    HW126155   3.827   4.172   1.424
 8635SOL    HW226156   3.933   4.077   1.374
 8636SOL     OW26157   7.959  11.370   5.875
 8636SOL    HW126158   7.869  11.365   5.910
 8636SOL    HW226159   7.957  11.316   5.796
 8637SOL     OW26160   1.812   6.267   0.552
 8637SOL    HW126161   1.868   6.344   0.550
 8637SOL    HW226162   1.873   6.193   0.549
 8638SOL     OW26163  13.719   3.353   4.310
 8638SOL    HW126164  13.789   3.400   4.265
 8638SOL    HW226165  13.640   3.374   4.260
 8639SOL     OW26166   9.164  13.422   4.938
 8639SOL    HW126167   9.215  13.491   4.897
 8639SOL    HW226168   9.118  13.379   4.866
 8640SOL     OW26169   8.297   9.737   1.201
 8640SOL    HW126170   8.387   9.714   1.221
 8640SOL    HW226171   8.248   9.716   1.280
 8641SOL     OW26172   2.900  11.162   2.212
 8641SOL    HW126173   2.821  11.213   2.198
 8641SOL    HW226174   2.940  11.154   2.126
 8642SOL     OW26175  10.763  11.051   3.029
 8642SOL    HW126176  10.824  10.997   3.078
 8642SOL    HW226177  10.806  11.065   2.945
 8643SOL     OW26178  10.249  11.722   3.637
 8643SOL    HW126179  10.294  11.641   3.611
 8643SOL    HW226180  10.201  11.698   3.716
 8644SOL     OW26181   8.523   1.522   0.868
 8644SOL    HW126182   8.575   1.472   0.805
 8644SOL    HW226183   8.542   1.614   0.848
 8645SOL     OW26184   3.194   2.193   1.669
 8645SOL    HW126185   3.141   2.273   1.668
 8645SOL    HW226186   3.209   2.176   1.762
 8646SOL     OW26187  10.148  10.134   3.717
 8646SOL    HW126188  10.072  10.075   3.720
 8646SOL    HW226189  10.219  10.082   3.755
 8647SOL     OW26190   9.480  13.802   4.996
 8647SOL    HW126191   9.491  13.861   5.070
 8647SOL    HW226192   9.456  13.718   5.036
 8648SOL     OW26193   9.853   8.924   1.884
 8648SOL    HW126194   9.874   8.837   1.849
 8648SOL    HW226195   9.759   8.921   1.902
 8649SOL     OW26196   3.604   9.207   3.091
 8649SOL    HW126197   3.510   9.222   3.095
 8649SOL    HW226198   3.613   9.131   3.033
 8650SOL     OW26199   4.623  10.434   3.721
 8650SOL    HW126200   4.583  10.348   3.715
 8650SOL    HW226201   4.662  10.436   3.808
 8651SOL     OW26202   8.054   4.866   0.224
 8651SOL    HW126203   8.057   4.799   0.293
 8651SOL    HW226204   8.098   4.941   0.262
 8652SOL     OW26205   5.982  10.762   4.820
 8652SOL    HW126206   6.025  10.692   4.771
 8652SOL    HW226207   5.889  10.748   4.806
 8653SOL     OW26208  11.305   8.564   5.566
 8653SOL    HW126209  11.307   8.635   5.502
 8653SOL    HW226210  11.330   8.606   5.649
 8654SOL     OW26211  15.435   6.706   6.816
 8654SOL    HW126212  15.381   6.675   6.889
 8654SOL    HW226213  15.503   6.640   6.807
 8655SOL     OW26214   4.673   9.818   4.209
 8655SOL    HW126215   4.591   9.850   4.171
 8655SOL    HW226216   4.699   9.886   4.270
 8656SOL     OW26217   6.488   4.303   2.186
 8656SOL    HW126218   6.526   4.227   2.141
 8656SOL    HW226219   6.544   4.315   2.263
 8657SOL     OW26220  10.947   9.658   5.053
 8657SOL    HW126221  10.926   9.567   5.030
 8657SOL    HW226222  10.915   9.668   5.143
 8658SOL     OW26223   9.393   7.505   2.026
 8658SOL    HW126224   9.421   7.421   2.062
 8658SOL    HW226225   9.298   7.497   2.019
 8659SOL     OW26226  10.038   4.213   0.531
 8659SOL    HW126227  10.127   4.210   0.567
 8659SOL    HW226228   9.982   4.192   0.606
 8660SOL     OW26229   1.991   5.242   0.061
 8660SOL    HW126230   2.058   5.310   0.059
 8660SOL    HW226231   7.359  10.612   7.588
 8661SOL     OW26232  10.142  11.156   5.725
 8661SOL    HW126233  10.094  11.073   5.724
 8661SOL    HW226234  10.232  11.131   5.744
 8662SOL     OW26235  14.796  10.712   6.987
 8662SOL    HW126236  14.789  10.806   7.004
 8662SOL    HW226237  14.765  10.671   7.067
 8663SOL     OW26238  10.200   8.307   1.280
 8663SOL    HW126239  10.177   8.375   1.344
 8663SOL    HW226240  10.225   8.232   1.333
 8664SOL     OW26241  12.379   8.625   2.383
 8664SOL    HW126242  12.385   8.677   2.464
 8664SOL    HW226243  12.302   8.658   2.338
 8665SOL     OW26244  10.545   7.944   6.812
 8665SOL    HW126245  10.572   7.855   6.836
 8665SOL    HW226246  10.567   7.951   6.719
 8666SOL     OW26247  10.073   9.406   3.993
 8666SOL    HW126248  10.076   9.501   4.006
 8666SOL    HW226249  10.006   9.394   3.925
 8667SOL     OW26250   3.830   8.988   1.540
 8667SOL    HW126251   3.832   8.949   1.452
 8667SOL    HW226252   3.847   8.915   1.599
 8668SOL     OW26253  11.131   9.270   7.031
 8668SOL    HW126254  11.198   9.237   6.971
 8668SOL    HW226255  11.172   9.345   7.075
 8669SOL     OW26256   6.726  11.913   1.965
 8669SOL    HW126257   6.765  11.894   2.050
 8669SOL    HW226258   6.713  11.828   1.923
 8670SOL     OW26259   8.081  10.343   6.974
 8670SOL    HW126260   8.152  10.355   6.911
 8670SOL    HW226261   8.017  10.411   6.951
 8671SOL     OW26262  13.989  10.586   4.739
 8671SOL    HW126263  13.978  10.555   4.829
 8671SOL    HW226264  14.030  10.512   4.694
 8672SOL     OW26265   3.032   6.252   2.960
 8672SOL    HW126266   2.995   6.191   2.895
 8672SOL    HW226267   3.051   6.197   3.036
 8673SOL     OW26268   6.588   3.682   0.580
 8673SOL    HW126269   6.517   3.668   0.643
 8673SOL    HW226270   6.551   3.743   0.515
 8674SOL     OW26271   3.653  11.072   4.364
 8674SOL    HW126272   3.714  11.140   4.391
 8674SOL    HW226273   3.567  11.104   4.390
 8675SOL     OW26274   4.021  10.918   4.832
 8675SOL    HW126275   4.109  10.921   4.871
 8675SOL    HW226276   4.014  10.829   4.796
 8676SOL     OW26277   5.288   5.910   3.714
 8676SOL    HW126278   5.373   5.945   3.741
 8676SOL    HW226279   5.301   5.815   3.711
 8677SOL     OW26280  10.156   7.484   6.466
 8677SOL    HW126281  10.091   7.414   6.476
 8677SOL    HW226282  10.237   7.439   6.446
 8678SOL     OW26283   4.152   0.765   0.842
 8678SOL    HW126284   4.237   0.808   0.849
 8678SOL    HW226285   4.164   0.698   0.775
 8679SOL     OW26286   7.324   6.379   1.509
 8679SOL    HW126287   7.346   6.471   1.525
 8679SOL    HW226288   7.329   6.338   1.596
 8680SOL     OW26289  11.858   2.317   2.863
 8680SOL    HW126290  11.781   2.350   2.816
 8680SOL    HW226291  11.912   2.395   2.878
 8681SOL     OW26292   8.310  14.578   5.884
 8681SOL    HW126293   8.316  14.516   5.956
 8681SOL    HW226294   8.360  14.538   5.813
 8682SOL     OW26295   8.032   2.707   0.219
 8682SOL    HW126296   8.058   2.734   0.307
 8682SOL    HW226297   8.073   2.621   0.208
 8683SOL     OW26298   5.506   5.959   5.802
 8683SOL    HW126299   5.547   5.925   5.882
 8683SOL    HW226300   5.501   5.883   5.743
 8684SOL     OW26301   8.349   5.035   1.484
 8684SOL    HW126302   8.331   5.121   1.521
 8684SOL    HW226303   8.372   4.981   1.559
 8685SOL     OW26304   3.973   1.493   0.827
 8685SOL    HW126305   3.976   1.408   0.784
 8685SOL    HW226306   3.898   1.487   0.887
 8686SOL     OW26307   9.832   2.873   0.237
 8686SOL    HW126308   9.736   2.871   0.237
 8686SOL    HW226309   9.858   2.791   0.196
 8687SOL     OW26310  11.619   7.108   4.973
 8687SOL    HW126311  11.677   7.110   5.049
 8687SOL    HW226312  11.577   7.022   4.977
 8688SOL     OW26313  14.984  11.724   6.822
 8688SOL    HW126314  14.891  11.702   6.832
 8688SOL    HW226315  15.030  11.661   6.877
 8689SOL     OW26316   6.990   7.179   6.461
 8689SOL    HW126317   6.971   7.266   6.496
 8689SOL    HW226318   6.929   7.169   6.388
 8690SOL     OW26319   9.529   7.069   3.019
 8690SOL    HW126320   9.441   7.071   2.983
 8690SOL    HW226321   9.522   7.116   3.103
 8691SOL     OW26322   7.594  13.294   4.883
 8691SOL    HW126323   7.562  13.209   4.911
 8691SOL    HW226324   7.687  13.280   4.864
 8692SOL     OW26325   6.620  13.248   7.616
 8692SOL    HW126326   6.537  13.269   7.573
 8692SOL    HW226327   6.669  13.199   7.551
 8693SOL     OW26328  10.015   8.689   1.215
 8693SOL    HW126329   9.984   8.636   1.142
 8693SOL    HW226330  10.110   8.697   1.200
 8694SOL     OW26331   6.926   5.694   7.167
 8694SOL    HW126332   6.886   5.732   7.246
 8694SOL    HW226333   6.869   5.620   7.146
 8695SOL     OW26334   9.451   4.610   3.216
 8695SOL    HW126335   9.459   4.566   3.131
 8695SOL    HW226336   9.508   4.687   3.208
 8696SOL     OW26337   3.597   4.116   2.002
 8696SOL    HW126338   3.611   4.022   2.006
 8696SOL    HW226339   3.685   4.153   1.995
 8697SOL     OW26340   0.566   4.765   0.598
 8697SOL    HW126341   0.508   4.791   0.527
 8697SOL    HW226342   0.525   4.799   0.677
 8698SOL     OW26343  13.227   8.690   6.751
 8698SOL    HW126344  13.281   8.765   6.724
 8698SOL    HW226345  13.147   8.698   6.698
 8699SOL     OW26346   6.230   5.882   0.420
 8699SOL    HW126347   6.137   5.880   0.397
 8699SOL    HW226348   6.275   5.847   0.343
 8700SOL     OW26349  13.809  11.345   5.985
 8700SOL    HW126350  13.800  11.290   5.907
 8700SOL    HW226351  13.751  11.420   5.967
 8701SOL     OW26352   8.390   2.558   2.592
 8701SOL    HW126353   8.378   2.463   2.592
 8701SOL    HW226354   8.422   2.578   2.680
 8702SOL     OW26355  12.048  12.810   3.792
 8702SOL    HW126356  12.029  12.750   3.719
 8702SOL    HW226357  11.964  12.851   3.812
 8703SOL     OW26358  11.305   2.788   3.028
 8703SOL    HW126359  11.273   2.721   3.088
 8703SOL    HW226360  11.263   2.869   3.058
 8704SOL     OW26361  13.642  10.297   7.014
 8704SOL    HW126362  13.671  10.386   6.994
 8704SOL    HW226363  13.609  10.263   6.931
 8705SOL     OW26364   9.149   8.241   6.528
 8705SOL    HW126365   9.166   8.214   6.438
 8705SOL    HW226366   9.057   8.221   6.542
 8706SOL     OW26367   5.498   9.953   1.678
 8706SOL    HW126368   5.589   9.926   1.677
 8706SOL    HW226369   5.491  10.009   1.756
 8707SOL     OW26370   8.634   3.967   5.033
 8707SOL    HW126371   8.649   3.972   4.939
 8707SOL    HW226372   8.579   3.889   5.045
 8708SOL     OW26373   3.774   4.454   4.451
 8708SOL    HW126374   3.801   4.500   4.530
 8708SOL    HW226375   3.718   4.517   4.405
 8709SOL     OW26376  13.761  12.579   7.282
 8709SOL    HW126377  13.716  12.651   7.327
 8709SOL    HW226378  13.854  12.601   7.288
 8710SOL     OW26379   5.760   3.966   2.914
 8710SOL    HW126380   5.727   3.900   2.975
 8710SOL    HW226381   5.852   3.978   2.939
 8711SOL     OW26382   9.862  11.229   0.805
 8711SOL    HW126383   9.898  11.140   0.803
 8711SOL    HW226384   9.767  11.216   0.800
 8712SOL     OW26385   7.641   2.731   0.752
 8712SOL    HW126386   7.576   2.664   0.773
 8712SOL    HW226387   7.722   2.682   0.738
 8713SOL     OW26388  14.353   6.518   5.554
 8713SOL    HW126389  14.320   6.527   5.465
 8713SOL    HW226390  14.391   6.603   5.574
 8714SOL     OW26391   6.219  16.019   7.502
 8714SOL    HW126392   6.298  16.043   7.455
 8714SOL    HW226393   6.213  15.924   7.493
 8715SOL     OW26394   8.347   5.723   2.503
 8715SOL    HW126395   8.420   5.736   2.443
 8715SOL    HW226396   8.278   5.685   2.449
 8716SOL     OW26397   2.891   8.052   0.699
 8716SOL    HW126398   2.922   7.983   0.640
 8716SOL    HW226399   2.969   8.080   0.746
 8717SOL     OW26400   2.842   2.712   2.323
 8717SOL    HW126401   2.892   2.718   2.242
 8717SOL    HW226402   2.878   2.781   2.379
 8718SOL     OW26403   6.968   5.662   6.745
 8718SOL    HW126404   6.941   5.570   6.744
 8718SOL    HW226405   7.033   5.669   6.675
 8719SOL     OW26406   5.295   6.037   1.707
 8719SOL    HW126407   5.385   6.003   1.704
 8719SOL    HW226408   5.257   6.012   1.623
 8720SOL     OW26409  14.416   6.076   5.559
 8720SOL    HW126410  14.372   6.105   5.479
 8720SOL    HW226411  14.346   6.069   5.624
 8721SOL     OW26412  10.375   1.867   1.492
 8721SOL    HW126413  10.330   1.933   1.440
 8721SOL    HW226414  10.467   1.877   1.469
 8722SOL     OW26415  14.623   4.419   5.994
 8722SOL    HW126416  14.590   4.504   5.966
 8722SOL    HW226417  14.545   4.371   6.022
 8723SOL     OW26418   3.116  11.688   2.993
 8723SOL    HW126419   3.211  11.675   2.988
 8723SOL    HW226420   3.086  11.622   3.056
 8724SOL     OW26421  12.391  10.831   4.517
 8724SOL    HW126422  12.424  10.920   4.515
 8724SOL    HW226423  12.468  10.777   4.534
 8725SOL     OW26424   5.381  14.625   7.346
 8725SOL    HW126425   5.465  14.661   7.375
 8725SOL    HW226426   5.404  14.546   7.298
 8726SOL     OW26427  14.034   6.184   7.313
 8726SOL    HW126428  13.942   6.168   7.331
 8726SOL    HW226429  14.063   6.107   7.265
 8727SOL     OW26430   6.340  10.549   2.133
 8727SOL    HW126431   6.326  10.544   2.039
 8727SOL    HW226432   6.435  10.559   2.143
 8728SOL     OW26433   7.395   6.841   3.620
 8728SOL    HW126434   7.341   6.904   3.667
 8728SOL    HW226435   7.396   6.873   3.530
 8729SOL     OW26436  12.375   9.701   2.315
 8729SOL    HW126437  12.307   9.768   2.307
 8729SOL    HW226438  12.393   9.697   2.409
 8730SOL     OW26439   4.489  11.729   2.344
 8730SOL    HW126440   4.468  11.708   2.435
 8730SOL    HW226441   4.404  11.733   2.300
 8731SOL     OW26442   9.253   2.080   1.543
 8731SOL    HW126443   9.256   2.105   1.451
 8731SOL    HW226444   9.213   2.156   1.587
 8732SOL     OW26445   3.354   5.261   0.440
 8732SOL    HW126446   3.316   5.177   0.414
 8732SOL    HW226447   3.401   5.292   0.363
 8733SOL     OW26448  11.795   6.469   4.204
 8733SOL    HW126449  11.795   6.373   4.196
 8733SOL    HW226450  11.703   6.491   4.216
 8734SOL     OW26451  10.956   6.919   4.762
 8734SOL    HW126452  11.004   7.002   4.758
 8734SOL    HW226453  10.904   6.924   4.842
 8735SOL     OW26454  12.320  10.606   5.706
 8735SOL    HW126455  12.266  10.674   5.748
 8735SOL    HW226456  12.405  10.614   5.749
 8736SOL     OW26457  14.743   6.322   7.616
 8736SOL    HW126458  14.712   6.233   7.600
 8736SOL    HW226459   9.352   0.946   0.092
 8737SOL     OW26460   7.595  13.456   6.701
 8737SOL    HW126461   7.557  13.369   6.717
 8737SOL    HW226462   7.531  13.500   6.646
 8738SOL     OW26463  12.262   6.539   3.400
 8738SOL    HW126464  12.218   6.460   3.369
 8738SOL    HW226465  12.293   6.515   3.488
 8739SOL     OW26466   7.108   8.019   5.531
 8739SOL    HW126467   7.030   7.993   5.579
 8739SOL    HW226468   7.080   8.093   5.477
 8740SOL     OW26469   3.958   7.998   3.559
 8740SOL    HW126470   3.984   8.065   3.622
 8740SOL    HW226471   3.985   7.916   3.600
 8741SOL     OW26472  13.679  13.721   5.499
 8741SOL    HW126473  13.613  13.784   5.470
 8741SOL    HW226474  13.712  13.681   5.418
 8742SOL     OW26475   8.478   8.155   4.283
 8742SOL    HW126476   8.571   8.141   4.270
 8742SOL    HW226477   8.470   8.182   4.375
 8743SOL     OW26478   6.183  14.125   5.798
 8743SOL    HW126479   6.246  14.086   5.738
 8743SOL    HW226480   6.235  14.153   5.873
 8744SOL     OW26481   8.918   5.502   3.952
 8744SOL    HW126482   8.986   5.517   3.887
 8744SOL    HW226483   8.933   5.569   4.019
 8745SOL     OW26484  11.753   7.117   4.474
 8745SOL    HW126485  11.774   7.085   4.387
 8745SOL    HW226486  11.687   7.184   4.460
 8746SOL     OW26487  12.019  11.257   2.741
 8746SOL    HW126488  12.101  11.285   2.781
 8746SOL    HW226489  12.045  11.220   2.657
 8747SOL     OW26490  10.055   9.801   0.439
 8747SOL    HW126491  10.078   9.788   0.347
 8747SOL    HW226492  10.139   9.815   0.483
 8748SOL     OW26493   7.280   4.136   0.695
 8748SOL    HW126494   7.330   4.125   0.776
 8748SOL    HW226495   7.199   4.179   0.722
 8749SOL     OW26496   6.368   3.886   1.208
 8749SOL    HW126497   6.403   3.875   1.296
 8749SOL    HW226498   6.302   3.955   1.217
 8750SOL     OW26499  11.491  13.814   5.108
 8750SOL    HW126500  11.396  13.827   5.100
 8750SOL    HW226501  11.500  13.725   5.141
 8751SOL     OW26502   8.153   9.730   4.261
 8751SOL    HW126503   8.173   9.641   4.233
 8751SOL    HW226504   8.194   9.786   4.195
 8752SOL     OW26505   9.555   8.388   2.675
 8752SOL    HW126506   9.527   8.310   2.627
 8752SOL    HW226507   9.538   8.460   2.615
 8753SOL     OW26508  11.126  11.086   1.984
 8753SOL    HW126509  11.196  11.131   1.936
 8753SOL    HW226510  11.116  11.136   2.064
 8754SOL     OW26511  10.235   4.887   3.566
 8754SOL    HW126512  10.219   4.796   3.591
 8754SOL    HW226513  10.192   4.939   3.635
 8755SOL     OW26514   6.868  11.037   4.944
 8755SOL    HW126515   6.815  11.043   4.864
 8755SOL    HW226516   6.904  10.948   4.942
 8756SOL     OW26517   2.779  12.523   3.649
 8756SOL    HW126518   2.841  12.526   3.722
 8756SOL    HW226519   2.700  12.485   3.687
 8757SOL     OW26520   7.431   8.261   6.910
 8757SOL    HW126521   7.337   8.242   6.900
 8757SOL    HW226522   7.474   8.202   6.849
 8758SOL     OW26523   4.705   3.907   2.248
 8758SOL    HW126524   4.610   3.908   2.242
 8758SOL    HW226525   4.734   3.873   2.163
 8759SOL     OW26526   4.688  10.758   3.679
 8759SOL    HW126527   4.754  10.820   3.709
 8759SOL    HW226528   4.677  10.777   3.586
 8760SOL     OW26529   1.939   2.669   1.033
 8760SOL    HW126530   1.866   2.610   1.053
 8760SOL    HW226531   1.897   2.750   1.006
 8761SOL     OW26532   5.756   9.644   6.759
 8761SOL    HW126533   5.662   9.661   6.768
 8761SOL    HW226534   5.763   9.549   6.752
 8762SOL     OW26535  11.179   4.540   1.643
 8762SOL    HW126536  11.157   4.629   1.616
 8762SOL    HW226537  11.112   4.517   1.707
 8763SOL     OW26538  11.433  10.539   1.762
 8763SOL    HW126539  11.367  10.472   1.775
 8763SOL    HW226540  11.406  10.611   1.819
 8764SOL     OW26541   9.554   8.626   2.835
 8764SOL    HW126542   9.483   8.562   2.831
 8764SOL    HW226543   9.624   8.582   2.884
 8765SOL     OW26544   3.504   4.995   4.507
 8765SOL    HW126545   3.551   5.037   4.579
 8765SOL    HW226546   3.423   4.963   4.547
 8766SOL     OW26547   9.817  11.613   1.858
 8766SOL    HW126548   9.767  11.584   1.781
 8766SOL    HW226549   9.908  11.616   1.827
 8767SOL     OW26550   0.823   4.586   0.396
 8767SOL    HW126551   0.746   4.578   0.453
 8767SOL    HW226552   0.886   4.635   0.448
 8768SOL     OW26553   6.909   7.346   5.557
 8768SOL    HW126554   6.987   7.324   5.506
 8768SOL    HW226555   6.913   7.287   5.633
 8769SOL     OW26556  13.103   5.241   4.502
 8769SOL    HW126557  13.169   5.220   4.436
 8769SOL    HW226558  13.153   5.252   4.583
 8770SOL     OW26559  13.771   8.128   5.386
 8770SOL    HW126560  13.802   8.051   5.433
 8770SOL    HW226561  13.850   8.178   5.367
 8771SOL     OW26562  12.879  12.179   3.676
 8771SOL    HW126563  12.830  12.138   3.747
 8771SOL    HW226564  12.834  12.151   3.597
 8772SOL     OW26565   8.463   2.929   0.996
 8772SOL    HW126566   8.530   2.974   1.047
 8772SOL    HW226567   8.384   2.935   1.051
 8773SOL     OW26568   6.115   8.264   6.416
 8773SOL    HW126569   6.026   8.265   6.380
 8773SOL    HW226570   6.107   8.309   6.500
 8774SOL     OW26571  10.526   5.576   2.698
 8774SOL    HW126572  10.612   5.594   2.660
 8774SOL    HW226573  10.507   5.486   2.671
 8775SOL     OW26574   8.606   0.746   0.393
 8775SOL    HW126575   8.603   0.822   0.336
 8775SOL    HW226576   8.515   0.716   0.399
 8776SOL     OW26577   7.777  13.582   5.192
 8776SOL    HW126578   7.721  13.552   5.121
 8776SOL    HW226579   7.855  13.527   5.187
 8777SOL     OW26580   5.263   6.938   3.381
 8777SOL    HW126581   5.226   6.878   3.316
 8777SOL    HW226582   5.307   7.005   3.329
 8778SOL     OW26583   4.858  14.062   5.585
 8778SOL    HW126584   4.888  13.976   5.616
 8778SOL    HW226585   4.822  14.044   5.498
 8779SOL     OW26586   4.501   2.118   2.361
 8779SOL    HW126587   4.563   2.177   2.403
 8779SOL    HW226588   4.515   2.033   2.403
 8780SOL     OW26589   8.854   5.323   1.900
 8780SOL    HW126590   8.892   5.340   1.814
 8780SOL    HW226591   8.882   5.234   1.921
 8781SOL     OW26592   9.674   7.230   0.304
 8781SOL    HW126593   9.623   7.282   0.366
 8781SOL    HW226594   9.762   7.268   0.308
 8782SOL     OW26595   2.590   5.011   2.454
 8782SOL    HW126596   2.603   5.059   2.536
 8782SOL    HW226597   2.581   4.920   2.481
 8783SOL     OW26598   9.118  10.878   1.640
 8783SOL    HW126599   9.182  10.812   1.666
 8783SOL    HW226600   9.126  10.946   1.706
 8784SOL     OW26601   8.925   9.536   4.776
 8784SOL    HW126602   8.858   9.503   4.715
 8784SOL    HW226603   8.981   9.460   4.792
 8785SOL     OW26604  12.758   7.409   6.490
 8785SOL    HW126605  12.728   7.346   6.425
 8785SOL    HW226606  12.688   7.413   6.555
 8786SOL     OW26607   7.663   6.033   5.443
 8786SOL    HW126608   7.638   5.941   5.435
 8786SOL    HW226609   7.674   6.047   5.537
 8787SOL     OW26610   6.226   7.743   6.205
 8787SOL    HW126611   6.304   7.746   6.149
 8787SOL    HW226612   6.177   7.822   6.181
 8788SOL     OW26613   2.658   6.059   1.676
 8788SOL    HW126614   2.738   6.019   1.641
 8788SOL    HW226615   2.675   6.153   1.671
 8789SOL     OW26616  11.440   8.329   4.865
 8789SOL    HW126617  11.347   8.327   4.846
 8789SOL    HW226618  11.480   8.369   4.788
 8790SOL     OW26619   5.985   8.150   5.133
 8790SOL    HW126620   5.977   8.233   5.181
 8790SOL    HW226621   5.915   8.095   5.169
 8791SOL     OW26622   7.072   2.296   1.757
 8791SOL    HW126623   7.047   2.228   1.820
 8791SOL    HW226624   6.992   2.314   1.708
 8792SOL     OW26625   5.543  11.219   5.005
 8792SOL    HW126626   5.464  11.254   5.047
 8792SOL    HW226627   5.543  11.126   5.028
 8793SOL     OW26628  10.661  11.170   6.190
 8793SOL    HW126629  10.646  11.179   6.284
 8793SOL    HW226630  10.757  11.165   6.182
 8794SOL     OW26631   2.237   7.652   0.995
 8794SOL    HW126632   2.156   7.702   0.985
 8794SOL    HW226633   2.209   7.564   1.017
 8795SOL     OW26634   5.484   3.932   5.546
 8795SOL    HW126635   5.515   4.017   5.578
 8795SOL    HW226636   5.547  14.643   5.581
 8796SOL     OW26637   2.219   3.297   2.135
 8796SOL    HW126638   2.299   3.343   2.161
 8796SOL    HW226639   2.163   3.301   2.213
 8797SOL     OW26640  10.372   5.896   5.765
 8797SOL    HW126641  10.430   5.867   5.835
 8797SOL    HW226642  10.363   5.991   5.779
 8798SOL     OW26643  11.612   9.099   2.778
 8798SOL    HW126644  11.567   9.162   2.835
 8798SOL    HW226645  11.687   9.147   2.744
 8799SOL     OW26646   5.290   2.420   1.931
 8799SOL    HW126647   5.212   2.382   1.971
 8799SOL    HW226648   5.362   2.362   1.957
 8800SOL     OW26649   5.516   5.443   3.367
 8800SOL    HW126650   5.526   5.359   3.412
 8800SOL    HW226651   5.480   5.502   3.433
 8801SOL     OW26652   4.768   5.074   4.737
 8801SOL    HW126653   4.679   5.088   4.705
 8801SOL    HW226654   4.820   5.062   4.658
 8802SOL     OW26655   9.919   6.909   3.161
 8802SOL    HW126656   9.933   6.814   3.154
 8802SOL    HW226657   9.918   6.940   3.071
 8803SOL     OW26658   4.267   2.698   3.386
 8803SOL    HW126659   4.206   2.698   3.460
 8803SOL    HW226660   4.336   2.637   3.412
 8804SOL     OW26661  10.811   8.872   5.793
 8804SOL    HW126662  10.773   8.925   5.723
 8804SOL    HW226663  10.792   8.782   5.767
 8805SOL     OW26664   5.778   8.191   4.231
 8805SOL    HW126665   5.761   8.122   4.295
 8805SOL    HW226666   5.842   8.248   4.273
 8806SOL     OW26667   2.665   4.385   3.397
 8806SOL    HW126668   2.584   4.337   3.414
 8806SOL    HW226669   2.690   4.421   3.482
 8807SOL     OW26670  12.404  15.123   7.038
 8807SOL    HW126671  12.341  15.189   7.067
 8807SOL    HW226672  12.364  15.084   6.960
 8808SOL     OW26673   8.481   8.633   7.299
 8808SOL    HW126674   8.511   8.719   7.327
 8808SOL    HW226675   8.560   8.579   7.297
 8809SOL     OW26676   9.223   3.034   0.239
 8809SOL    HW126677   9.299   3.076   0.279
 8809SOL    HW226678   9.164   3.107   0.218
 8810SOL     OW26679   4.308   6.887   3.305
 8810SOL    HW126680   4.218   6.897   3.336
 8810SOL    HW226681   4.317   6.953   3.236
 8811SOL     OW26682   3.715   4.331   3.576
 8811SOL    HW126683   3.664   4.358   3.652
 8811SOL    HW226684   3.735   4.239   3.592
 8812SOL     OW26685   8.238  11.004   4.980
 8812SOL    HW126686   8.271  11.018   4.892
 8812SOL    HW226687   8.316  11.005   5.036
 8813SOL     OW26688   7.318   7.935   4.355
 8813SOL    HW126689   7.312   8.027   4.330
 8813SOL    HW226690   7.395   7.931   4.412
 8814SOL     OW26691  11.400   4.098   1.449
 8814SOL    HW126692  11.343   4.107   1.372
 8814SOL    HW226693  11.472   4.042   1.420
 8815SOL     OW26694   9.268   6.203   5.329
 8815SOL    HW126695   9.265   6.271   5.396
 8815SOL    HW226696   9.301   6.248   5.251
 8816SOL     OW26697  12.772  10.346   5.808
 8816SOL    HW126698  12.857  10.312   5.782
 8816SOL    HW226699  12.719  10.344   5.728
 8817SOL     OW26700  12.693   2.922   3.211
 8817SOL    HW126701  12.616   2.878   3.248
 8817SOL    HW226702  12.768   2.880   3.255
 8818SOL     OW26703   5.447   2.875   0.609
 8818SOL    HW126704   5.493   2.881   0.693
 8818SOL    HW226705   5.514   2.847   0.547
 8819SOL     OW26706   1.656   2.333   0.599
 8819SOL    HW126707   1.680   2.270   0.531
 8819SOL    HW226708   1.731   2.392   0.604
 8820SOL     OW26709   9.329   9.302   3.330
 8820SOL    HW126710   9.348   9.246   3.406
 8820SOL    HW226711   9.315   9.389   3.367
 8821SOL     OW26712   9.454   7.674   1.802
 8821SOL    HW126713   9.448   7.580   1.818
 8821SOL    HW226714   9.436   7.684   1.708
 8822SOL     OW26715   5.251  10.647   4.956
 8822SOL    HW126716   5.227  10.555   4.960
 8822SOL    HW226717   5.183  10.691   5.008
 8823SOL     OW26718  12.370  13.408   6.519
 8823SOL    HW126719  12.460  13.389   6.546
 8823SOL    HW226720  12.323  13.423   6.601
 8824SOL     OW26721  12.432   7.088   7.215
 8824SOL    HW126722  12.474   7.003   7.220
 8824SOL    HW226723  12.499   7.145   7.177
 8825SOL     OW26724   3.796   8.020   0.724
 8825SOL    HW126725   3.752   8.018   0.808
 8825SOL    HW226726   3.775   8.106   0.687
 8826SOL     OW26727   8.507   7.464   4.887
 8826SOL    HW126728   8.562   7.465   4.966
 8826SOL    HW226729   8.538   7.389   4.838
 8827SOL     OW26730  14.215   7.611   7.478
 8827SOL    HW126731  14.194   7.704   7.473
 8827SOL    HW226732  14.144   7.567   7.433
 8828SOL     OW26733   6.183   2.556   2.256
 8828SOL    HW126734   6.134   2.630   2.219
 8828SOL    HW226735   6.274   2.575   2.233
 8829SOL     OW26736  10.927  11.806   3.072
 8829SOL    HW126737  10.952  11.714   3.069
 8829SOL    HW226738  10.902  11.821   3.164
 8830SOL     OW26739   6.929   8.697   7.128
 8830SOL    HW126740   6.975   8.751   7.064
 8830SOL    HW226741   6.836   8.709   7.107
 8831SOL     OW26742   6.488  11.359   5.990
 8831SOL    HW126743   6.499  11.439   5.940
 8831SOL    HW226744   6.429  11.305   5.937
 8832SOL     OW26745  13.161  11.563   4.985
 8832SOL    HW126746  13.227  11.611   5.036
 8832SOL    HW226747  13.112  11.632   4.940
 8833SOL     OW26748   6.662   4.591   2.199
 8833SOL    HW126749   6.697   4.680   2.191
 8833SOL    HW226750   6.607   4.593   2.277
 8834SOL     OW26751   4.031   1.083   0.456
 8834SOL    HW126752   4.056   1.124   0.373
 8834SOL    HW226753   3.955   1.133   0.485
 8835SOL     OW26754   7.553   7.573   7.072
 8835SOL    HW126755   7.624   7.595   7.012
 8835SOL    HW226756   7.537   7.653   7.122
 8836SOL     OW26757   3.935   9.737   4.244
 8836SOL    HW126758   3.982   9.817   4.220
 8836SOL    HW226759   3.983   9.703   4.319
 8837SOL     OW26760   2.438   4.416   1.318
 8837SOL    HW126761   2.364   4.427   1.259
 8837SOL    HW226762   2.477   4.332   1.294
 8838SOL     OW26763   5.128   3.253   4.019
 8838SOL    HW126764   5.164   3.280   3.934
 8838SOL    HW226765   5.137   3.158   4.020
 8839SOL     OW26766   3.739   9.812   1.670
 8839SOL    HW126767   3.805   9.860   1.719
 8839SOL    HW226768   3.732   9.727   1.714
 8840SOL     OW26769   9.903   8.492   3.322
 8840SOL    HW126770   9.882   8.401   3.346
 8840SOL    HW226771   9.849   8.545   3.382
 8841SOL     OW26772   1.556   6.267   1.611
 8841SOL    HW126773   1.499   6.322   1.557
 8841SOL    HW226774   1.510   6.261   1.695
 8842SOL     OW26775  13.079  15.397   7.279
 8842SOL    HW126776  13.023  15.414   7.204
 8842SOL    HW226777  13.102  15.484   7.312
 8843SOL     OW26778   7.738  14.892   5.941
 8843SOL    HW126779   7.741  14.823   6.008
 8843SOL    HW226780   7.794  14.859   5.870
 8844SOL     OW26781  10.982   6.704   4.593
 8844SOL    HW126782  10.991   6.630   4.654
 8844SOL    HW226783  10.960   6.778   4.649
 8845SOL     OW26784   8.516   9.076   7.031
 8845SOL    HW126785   8.582   9.127   6.984
 8845SOL    HW226786   8.531   9.096   7.123
 8846SOL     OW26787  14.928   9.953   7.528
 8846SOL    HW126788  14.878   9.954   7.609
 8846SOL    HW226789  14.945   9.861   7.512
 8847SOL     OW26790   5.297   1.885   2.330
 8847SOL    HW126791   5.295   1.895   2.425
 8847SOL    HW226792   5.337   1.799   2.316
 8848SOL     OW26793  14.295  11.650   7.571
 8848SOL    HW126794   8.939   6.186   0.001
 8848SOL    HW226795  14.348  11.723   7.606
 8849SOL     OW26796   9.249   7.553   5.625
 8849SOL    HW126797   9.165   7.554   5.579
 8849SOL    HW226798   9.301   7.486   5.579
 8850SOL     OW26799   4.218  13.376   5.282
 8850SOL    HW126800   4.266  13.328   5.214
 8850SOL    HW226801   4.270  13.455   5.295
 8851SOL     OW26802   9.956   5.138   6.063
 8851SOL    HW126803  10.036   5.189   6.049
 8851SOL    HW226804   9.885   5.197   6.037
 8852SOL     OW26805  10.254  14.170   5.980
 8852SOL    HW126806  10.285  14.147   6.067
 8852SOL    HW226807  10.181  14.231   5.995
 8853SOL     OW26808  12.500   6.230   2.815
 8853SOL    HW126809  12.424   6.204   2.763
 8853SOL    HW226810  12.575   6.194   2.768
 8854SOL     OW26811   7.326   9.867   3.691
 8854SOL    HW126812   7.238   9.829   3.693
 8854SOL    HW226813   7.352   9.871   3.783
 8855SOL     OW26814   8.442   8.399   0.959
 8855SOL    HW126815   8.511   8.366   1.017
 8855SOL    HW226816   8.391   8.321   0.936
 8856SOL     OW26817   2.158   0.329   0.320
 8856SOL    HW126818   2.088   0.276   0.358
 8856SOL    HW226819   2.219   0.343   0.392
 8857SOL     OW26820   7.298   8.605   0.065
 8857SOL    HW126821   7.262   8.521   0.036
 8857SOL    HW226822   7.243   8.671   0.022
 8858SOL     OW26823  12.827   9.561   3.559
 8858SOL    HW126824  12.755   9.593   3.505
 8858SOL    HW226825  12.878   9.639   3.580
 8859SOL     OW26826   7.621   8.917   1.961
 8859SOL    HW126827   7.693   8.949   2.016
 8859SOL    HW226828   7.659   8.843   1.913
 8860SOL     OW26829   7.818  11.043   2.814
 8860SOL    HW126830   7.830  11.103   2.888
 8860SOL    HW226831   7.899  11.050   2.764
 8861SOL     OW26832  13.814   7.388   7.066
 8861SOL    HW126833  13.722   7.388   7.039
 8861SOL    HW226834  13.863   7.391   6.984
 8862SOL     OW26835  15.454  13.481   7.352
 8862SOL    HW126836  15.374  13.508   7.397
 8862SOL    HW226837  15.425  13.459   7.263
 8863SOL     OW26838   8.600   5.092   1.905
 8863SOL    HW126839   8.514   5.055   1.927
 8863SOL    HW226840   8.581   5.182   1.876
 8864SOL     OW26841   6.583   9.051   3.332
 8864SOL    HW126842   6.648   9.056   3.262
 8864SOL    HW226843   6.538   8.968   3.318
 8865SOL     OW26844   7.999  13.653   4.487
 8865SOL    HW126845   7.986  13.559   4.474
 8865SOL    HW226846   7.990  13.691   4.400
 8866SOL     OW26847  11.565   9.125   1.526
 8866SOL    HW126848  11.538   9.187   1.458
 8866SOL    HW226849  11.506   9.050   1.514
 8867SOL     OW26850   3.783  11.508   4.294
 8867SOL    HW126851   3.860  11.514   4.351
 8867SOL    HW226852   3.770  11.597   4.262
 8868SOL     OW26853   9.190   8.215   6.828
 8868SOL    HW126854   9.201   8.125   6.856
 8868SOL    HW226855   9.166   8.209   6.735
 8869SOL     OW26856   5.914  10.399   0.906
 8869SOL    HW126857   5.851  10.336   0.871
 8869SOL    HW226858   5.958  10.434   0.828
 8870SOL     OW26859   9.819   5.278   7.027
 8870SOL    HW126860   9.798   5.370   7.042
 8870SOL    HW226861   9.736   5.237   7.006
 8871SOL     OW26862   5.284   3.998   3.184
 8871SOL    HW126863   5.327   3.971   3.102
 8871SOL    HW226864   5.244   4.083   3.163
 8872SOL     OW26865   2.536   7.559   1.861
 8872SOL    HW126866   2.479   7.578   1.786
 8872SOL    HW226867   2.482   7.505   1.918
 8873SOL     OW26868   6.602   8.984   7.608
 8873SOL    HW126869   6.551   9.047   7.557
 8873SOL    HW226870   1.241   3.646   0.067
 8874SOL     OW26871   9.083   9.332   3.150
 8874SOL    HW126872   9.089   9.425   3.174
 8874SOL    HW226873   9.170   9.298   3.167
 8875SOL     OW26874  11.515   8.433   3.353
 8875SOL    HW126875  11.564   8.433   3.271
 8875SOL    HW226876  11.428   8.466   3.329
 8876SOL     OW26877   1.665   1.563   0.620
 8876SOL    HW126878   1.620   1.643   0.590
 8876SOL    HW226879   1.598   1.495   0.614
 8877SOL     OW26880   7.806   8.792   1.521
 8877SOL    HW126881   7.788   8.821   1.431
 8877SOL    HW226882   7.899   8.809   1.533
 8878SOL     OW26883   3.529  13.770   4.436
 8878SOL    HW126884   3.538  13.844   4.376
 8878SOL    HW226885   3.474  13.708   4.389
 8879SOL     OW26886  12.904   9.664   7.391
 8879SOL    HW126887  12.808   9.666   7.390
 8879SOL    HW226888  12.928   9.620   7.309
 8880SOL     OW26889  10.106   8.702   6.120
 8880SOL    HW126890  10.053   8.625   6.140
 8880SOL    HW226891  10.068   8.772   6.173
 8881SOL     OW26892   5.577   7.253   0.000
 8881SOL    HW126893   5.582   7.191   0.073
 8881SOL    HW226894  10.943  12.587   7.543
 8882SOL     OW26895   5.849  10.369   7.561
 8882SOL    HW126896   5.873  10.289   7.513
 8882SOL    HW226897   0.500   4.971   0.029
 8883SOL     OW26898  10.478   4.064   4.753
 8883SOL    HW126899  10.557   4.011   4.758
 8883SOL    HW226900  10.408   4.001   4.733
 8884SOL     OW26901  14.765   9.195   6.235
 8884SOL    HW126902  14.811   9.278   6.222
 8884SOL    HW226903  14.834   9.129   6.240
 8885SOL     OW26904  13.177   9.270   5.280
 8885SOL    HW126905  13.094   9.309   5.252
 8885SOL    HW226906  13.153   9.214   5.355
 8886SOL     OW26907   8.393  10.599   3.032
 8886SOL    HW126908   8.449  10.522   3.025
 8886SOL    HW226909   8.313  10.566   3.074
 8887SOL     OW26910   7.517   9.171   2.876
 8887SOL    HW126911   7.426   9.199   2.878
 8887SOL    HW226912   7.538   9.160   2.783
 8888SOL     OW26913  10.038  13.824   7.283
 8888SOL    HW126914  10.077  13.815   7.370
 8888SOL    HW226915  10.109  13.802   7.222
 8889SOL     OW26916   4.488   4.348   1.402
 8889SOL    HW126917   4.507   4.284   1.334
 8889SOL    HW226918   4.399   4.329   1.430
 8890SOL     OW26919  14.674   6.293   5.664
 8890SOL    HW126920  14.658   6.299   5.570
 8890SOL    HW226921  14.726   6.371   5.685
 8891SOL     OW26922   3.958  11.790   4.697
 8891SOL    HW126923   3.879  11.745   4.669
 8891SOL    HW226924   3.988  11.741   4.774
 8892SOL     OW26925   6.426   4.923   1.207
 8892SOL    HW126926   6.459   4.885   1.126
 8892SOL    HW226927   6.332   4.904   1.207
 8893SOL     OW26928  10.994  10.660   6.545
 8893SOL    HW126929  10.927  10.619   6.490
 8893SOL    HW226930  10.993  10.608   6.625
 8894SOL     OW26931  10.805   9.347   4.347
 8894SOL    HW126932  10.740   9.384   4.287
 8894SOL    HW226933  10.834   9.422   4.399
 8895SOL     OW26934  12.921  12.628   7.150
 8895SOL    HW126935  12.859  12.555   7.142
 8895SOL    HW226936  13.001  12.587   7.183
 8896SOL     OW26937   1.740   1.624   2.160
 8896SOL    HW126938   1.669   1.634   2.096
 8896SOL    HW226939   1.697   1.588   2.238
 8897SOL     OW26940   1.068   4.507   0.540
 8897SOL    HW126941   1.124   4.539   0.469
 8897SOL    HW226942   1.048   4.416   0.516
 8898SOL     OW26943  11.888   5.356   7.173
 8898SOL    HW126944  11.836   5.436   7.170
 8898SOL    HW226945  11.975   5.382   7.144
 8899SOL     OW26946   1.891  11.547   1.854
 8899SOL    HW126947   1.910  11.632   1.892
 8899SOL    HW226948   1.861  11.494   1.927
 8900SOL     OW26949   4.915   4.740   3.180
 8900SOL    HW126950   4.900   4.742   3.274
 8900SOL    HW226951   5.010   4.751   3.171
 8901SOL     OW26952   5.113  10.597   5.544
 8901SOL    HW126953   5.151  10.514   5.575
 8901SOL    HW226954   5.030  10.571   5.504
 8902SOL     OW26955  14.097   8.645   6.810
 8902SOL    HW126956  14.129   8.700   6.881
 8902SOL    HW226957  14.084   8.705   6.737
 8903SOL     OW26958   7.021   7.273   6.796
 8903SOL    HW126959   7.102   7.236   6.761
 8903SOL    HW226960   7.046   7.362   6.824
 8904SOL     OW26961   7.125  12.267   5.536
 8904SOL    HW126962   7.036  12.244   5.563
 8904SOL    HW226963   7.173  12.185   5.538
 8905SOL     OW26964   1.853   9.249   0.379
 8905SOL    HW126965   1.828   9.341   0.378
 8905SOL    HW226966   1.935   9.246   0.428
 8906SOL     OW26967   3.503   0.948   0.678
 8906SOL    HW126968   3.597   0.945   0.696
 8906SOL    HW226969   3.468   1.010   0.742
 8907SOL     OW26970  14.073   9.153   7.154
 8907SOL    HW126971  14.077   9.132   7.060
 8907SOL    HW226972  14.155   9.199   7.171
 8908SOL     OW26973   9.157  11.285   3.140
 8908SOL    HW126974   9.109  11.340   3.201
 8908SOL    HW226975   9.096  11.269   3.068
 8909SOL     OW26976   9.055   6.026   0.473
 8909SOL    HW126977   9.003   6.009   0.552
 8909SOL    HW226978   9.113   5.951   0.465
 8910SOL     OW26979   7.177   8.767   4.651
 8910SOL    HW126980   7.097   8.735   4.691
 8910SOL    HW226981   7.247   8.723   4.698
 8911SOL     OW26982   1.075  10.078   0.928
 8911SOL    HW126983   1.103   9.989   0.949
 8911SOL    HW226984   1.096  10.089   0.835
 8912SOL     OW26985   8.913   1.725   2.046
 8912SOL    HW126986   8.991   1.711   2.099
 8912SOL    HW226987   8.945   1.764   1.965
 8913SOL     OW26988  12.384  12.554   6.052
 8913SOL    HW126989  12.294  12.586   6.058
 8913SOL    HW226990  12.412  12.577   5.964
 8914SOL     OW26991   4.799   9.088   6.508
 8914SOL    HW126992   4.790   9.043   6.425
 8914SOL    HW226993   4.717   9.073   6.554
 8915SOL     OW26994   7.656  11.127   2.222
 8915SOL    HW126995   7.572  11.172   2.235
 8915SOL    HW226996   7.715  11.168   2.285
 8916SOL     OW26997   8.443   5.965   1.766
 8916SOL    HW126998   8.419   5.953   1.858
 8916SOL    HW226999   8.526   6.013   1.770
 8917SOL     OW27000   5.435   8.998   6.246
 8917SOL    HW127001   5.477   9.070   6.199
 8917SOL    HW227002   5.488   8.921   6.224
 8918SOL     OW27003   9.135   6.562   2.141
 8918SOL    HW127004   9.149   6.562   2.236
 8918SOL    HW227005   9.194   6.495   2.108
 8919SOL     OW27006  14.291   4.516   5.463
 8919SOL    HW127007  14.234   4.570   5.409
 8919SOL    HW227008  14.338   4.460   5.401
 8920SOL     OW27009   6.559   5.913   5.638
 8920SOL    HW127010   6.549   5.969   5.715
 8920SOL    HW227011   6.575   5.974   5.566
 8921SOL     OW27012   9.627  10.312   6.392
 8921SOL    HW127013   9.647  10.236   6.447
 8921SOL    HW227014   9.592  10.377   6.453
 8922SOL     OW27015  14.097  12.562   7.451
 8922SOL    HW127016  14.087  12.605   7.536
 8922SOL    HW227017  14.096  12.634   7.388
 8923SOL     OW27018   5.689   9.005   0.735
 8923SOL    HW127019   5.680   9.090   0.778
 8923SOL    HW227020   5.734   8.951   0.799
 8924SOL     OW27021  13.360  13.641   4.640
 8924SOL    HW127022  13.438  13.697   4.635
 8924SOL    HW227023  13.335  13.626   4.549
 8925SOL     OW27024   7.953   7.025   4.876
 8925SOL    HW127025   7.917   7.113   4.864
 8925SOL    HW227026   7.881   6.966   4.853
 8926SOL     OW27027   5.693   8.446   4.405
 8926SOL    HW127028   5.676   8.403   4.489
 8926SOL    HW227029   5.612   8.432   4.355
 8927SOL     OW27030  10.822   8.513   5.084
 8927SOL    HW127031  10.887   8.570   5.042
 8927SOL    HW227032  10.870   8.432   5.102
 8928SOL     OW27033   9.492   9.698   3.528
 8928SOL    HW127034   9.504   9.623   3.586
 8928SOL    HW227035   9.402   9.691   3.497
 8929SOL     OW27036  12.246  14.068   6.024
 8929SOL    HW127037  12.227  13.981   6.059
 8929SOL    HW227038  12.287  14.051   5.939
 8930SOL     OW27039   6.900   4.406   4.338
 8930SOL    HW127040   6.921   4.402   4.431
 8930SOL    HW227041   6.816   4.452   4.334
 8931SOL     OW27042   9.263  10.989   1.062
 8931SOL    HW127043   9.341  10.954   1.104
 8931SOL    HW227044   9.215  11.033   1.132
 8932SOL     OW27045  11.120   4.059   3.926
 8932SOL    HW127046  11.063   3.990   3.959
 8932SOL    HW227047  11.205   4.016   3.915
 8933SOL     OW27048   9.221   7.647   1.204
 8933SOL    HW127049   9.292   7.704   1.175
 8933SOL    HW227050   9.165   7.704   1.257
 8934SOL     OW27051   3.573   7.750   0.494
 8934SOL    HW127052   3.638   7.683   0.514
 8934SOL    HW227053   3.515   7.751   0.570
 8935SOL     OW27054   7.424   6.554   3.528
 8935SOL    HW127055   7.456   6.553   3.438
 8935SOL    HW227056   7.420   6.647   3.551
 8936SOL     OW27057  10.299   2.703   0.990
 8936SOL    HW127058  10.264   2.740   0.909
 8936SOL    HW227059  10.226   2.705   1.051
 8937SOL     OW27060   4.955   5.933   0.316
 8937SOL    HW127061   5.013   5.939   0.392
 8937SOL    HW227062   4.895   5.862   0.337
 8938SOL     OW27063  13.128  13.675   5.280
 8938SOL    HW127064  13.039  13.651   5.254
 8938SOL    HW227065  13.117  13.751   5.336
 8939SOL     OW27066   9.607  13.793   6.591
 8939SOL    HW127067   9.662  13.717   6.611
 8939SOL    HW227068   9.666  13.855   6.548
 8940SOL     OW27069   5.695   9.152   0.469
 8940SOL    HW127070   5.635   9.123   0.400
 8940SOL    HW227071   5.679   9.091   0.541
 8941SOL     OW27072  11.614   5.737   1.648
 8941SOL    HW127073  11.671   5.798   1.601
 8941SOL    HW227074  11.544   5.717   1.587
 8942SOL     OW27075  11.289   3.081   0.845
 8942SOL    HW127076  11.231   3.075   0.769
 8942SOL    HW227077  11.267   3.165   0.885
 8943SOL     OW27078  10.163  12.349   7.452
 8943SOL    HW127079  10.122  12.263   7.459
 8943SOL    HW227080  10.092  12.411   7.465
 8944SOL     OW27081   6.923  13.190   5.140
 8944SOL    HW127082   6.887  13.162   5.223
 8944SOL    HW227083   7.012  13.220   5.161
 8945SOL     OW27084  14.628  10.553   7.158
 8945SOL    HW127085  14.639  10.546   7.253
 8945SOL    HW227086  14.585  10.472   7.132
 8946SOL     OW27087   5.640   5.711   3.397
 8946SOL    HW127088   5.584   5.714   3.474
 8946SOL    HW227089   5.661   5.803   3.380
 8947SOL     OW27090   5.848  12.444   3.787
 8947SOL    HW127091   5.878  12.369   3.735
 8947SOL    HW227092   5.923  12.467   3.842
 8948SOL     OW27093   8.462  10.093   2.393
 8948SOL    HW127094   8.414  10.118   2.471
 8948SOL    HW227095   8.517  10.168   2.372
 8949SOL     OW27096  13.414   7.512   3.770
 8949SOL    HW127097  13.437   7.604   3.778
 8949SOL    HW227098   2.712   7.474   3.719
 8950SOL     OW27099   6.852  10.799   1.096
 8950SOL    HW127100   6.795  10.742   1.043
 8950SOL    HW227101   6.834  10.773   1.186
 8951SOL     OW27102   3.534  10.130   4.696
 8951SOL    HW127103   3.602  10.153   4.759
 8951SOL    HW227104   3.554  10.184   4.619
 8952SOL     OW27105   1.994   7.793   2.056
 8952SOL    HW127106   1.976   7.754   2.142
 8952SOL    HW227107   2.089   7.786   2.046
 8953SOL     OW27108   9.352   3.934   3.611
 8953SOL    HW127109   9.312   3.998   3.552
 8953SOL    HW227110   9.385   3.985   3.684
 8954SOL     OW27111  14.982  12.303   7.588
 8954SOL    HW127112  15.049  12.237   7.572
 8954SOL    HW227113   9.642   6.989   0.008
 8955SOL     OW27114  10.326   5.385   0.419
 8955SOL    HW127115  10.320   5.291   0.402
 8955SOL    HW227116  10.412   5.410   0.387
 8956SOL     OW27117   6.143  11.511   6.894
 8956SOL    HW127118   6.118  11.435   6.841
 8956SOL    HW227119   6.175  11.474   6.976
 8957SOL     OW27120   5.023  11.622   6.952
 8957SOL    HW127121   4.990  11.709   6.974
 8957SOL    HW227122   4.983  11.564   7.016
 8958SOL     OW27123  10.953   9.234   3.703
 8958SOL    HW127124  10.954   9.194   3.789
 8958SOL    HW227125  10.860   9.246   3.683
 8959SOL     OW27126   8.598   6.349   4.630
 8959SOL    HW127127   8.617   6.436   4.665
 8959SOL    HW227128   8.681   6.321   4.591
 8960SOL     OW27129  11.135   8.136   4.666
 8960SOL    HW127130  11.088   8.122   4.748
 8960SOL    HW227131  11.183   8.218   4.680
 8961SOL     OW27132  12.106   7.728   2.398
 8961SOL    HW127133  12.122   7.715   2.491
 8961SOL    HW227134  12.178   7.785   2.369
 8962SOL     OW27135   6.378  10.866   7.571
 8962SOL    HW127136   6.350  10.940   7.516
 8962SOL    HW227137   6.424  10.808   7.510
 8963SOL     OW27138   1.525  10.056   1.053
 8963SOL    HW127139   1.617  10.042   1.032
 8963SOL    HW227140   1.525  10.094   1.141
 8964SOL     OW27141   6.477  14.585   5.881
 8964SOL    HW127142   6.383  14.571   5.878
 8964SOL    HW227143   6.506  14.576   5.790
 8965SOL     OW27144  14.460   9.326   7.263
 8965SOL    HW127145  14.407   9.354   7.188
 8965SOL    HW227146  14.550   9.330   7.230
 8966SOL     OW27147   3.302   5.854   1.871
 8966SOL    HW127148   3.268   5.764   1.875
 8966SOL    HW227149   3.225   5.907   1.849
 8967SOL     OW27150  11.874   7.342   6.841
 8967SOL    HW127151  11.924   7.262   6.827
 8967SOL    HW227152  11.843   7.336   6.932
 8968SOL     OW27153   6.613   4.296   1.559
 8968SOL    HW127154   6.604   4.322   1.650
 8968SOL    HW227155   6.645   4.206   1.563
 8969SOL     OW27156   9.931  12.316   3.479
 8969SOL    HW127157   9.879  12.373   3.422
 8969SOL    HW227158   9.877  12.303   3.557
 8970SOL     OW27159   4.070   3.933   1.898
 8970SOL    HW127160   4.092   3.905   1.809
 8970SOL    HW227161   4.004   4.001   1.886
 8971SOL     OW27162   8.234  13.841   5.430
 8971SOL    HW127163   8.208  13.933   5.431
 8971SOL    HW227164   8.329  13.843   5.431
 8972SOL     OW27165   8.007  12.632   6.909
 8972SOL    HW127166   8.091  12.609   6.869
 8972SOL    HW227167   8.017  12.610   7.002
 8973SOL     OW27168   5.607   9.309   1.219
 8973SOL    HW127169   5.522   9.268   1.233
 8973SOL    HW227170   5.588   9.403   1.212
 8974SOL     OW27171   6.241   8.422   6.893
 8974SOL    HW127172   6.189   8.457   6.965
 8974SOL    HW227173   6.328   8.459   6.907
 8975SOL     OW27174   9.079  12.027   6.399
 8975SOL    HW127175   9.155  12.046   6.344
 8975SOL    HW227176   9.097  11.941   6.436
 8976SOL     OW27177  13.797  12.486   5.925
 8976SOL    HW127178  13.744  12.541   5.983
 8976SOL    HW227179  13.871  12.458   5.980
 8977SOL     OW27180   9.868   6.347   6.653
 8977SOL    HW127181   9.912   6.427   6.681
 8977SOL    HW227182   9.933   6.302   6.598
 8978SOL     OW27183   9.306  10.062   5.372
 8978SOL    HW127184   9.388  10.024   5.403
 8978SOL    HW227185   9.297  10.030   5.282
 8979SOL     OW27186   8.934  10.215   0.134
 8979SOL    HW127187   8.909  10.226   0.042
 8979SOL    HW227188   9.029  10.205   0.132
 8980SOL     OW27189   6.450   8.725   0.078
 8980SOL    HW127190   6.367   8.771   0.088
 8980SOL    HW227191   6.516   8.793   0.082
 8981SOL     OW27192   3.505  10.535   2.390
 8981SOL    HW127193   3.505  10.529   2.486
 8981SOL    HW227194   3.552  10.457   2.361
 8982SOL     OW27195   8.164   9.306   5.688
 8982SOL    HW127196   8.171   9.235   5.752
 8982SOL    HW227197   8.193   9.384   5.736
 8983SOL     OW27198  12.405   8.878   3.627
 8983SOL    HW127199  12.347   8.802   3.634
 8983SOL    HW227200  12.412   8.911   3.717
 8984SOL     OW27201   2.067   8.475   0.500
 8984SOL    HW127202   2.105   8.403   0.449
 8984SOL    HW227203   2.101   8.554   0.457
 8985SOL     OW27204   8.104   6.689   7.102
 8985SOL    HW127205   8.126   6.603   7.064
 8985SOL    HW227206   8.178   6.709   7.159
 8986SOL     OW27207  15.531   8.901   6.894
 8986SOL    HW127208  15.516   8.864   6.981
 8986SOL    HW227209  15.572   8.830   6.844
 8987SOL     OW27210  10.023   7.257   1.751
 8987SOL    HW127211   9.952   7.263   1.687
 8987SOL    HW227212  10.049   7.164   1.750
 8988SOL     OW27213  10.152   3.902   0.110
 8988SOL    HW127214  10.159   3.951   0.028
 8988SOL    HW227215  10.127   3.968   0.174
 8989SOL     OW27216   5.823   1.406   0.088
 8989SOL    HW127217  11.188   6.791   7.613
 8989SOL    HW227218   5.831   1.499   0.108
 8990SOL     OW27219   8.440  10.706   5.663
 8990SOL    HW127220   8.442  10.666   5.750
 8990SOL    HW227221   8.413  10.634   5.605
 8991SOL     OW27222   9.983  13.756   5.301
 8991SOL    HW127223  10.008  13.844   5.327
 8991SOL    HW227224   9.892  13.764   5.273
 8992SOL     OW27225   5.235   5.684   5.790
 8992SOL    HW127226   5.309   5.641   5.747
 8992SOL    HW227227   5.240   5.653   5.881
 8993SOL     OW27228   5.419   4.452   2.301
 8993SOL    HW127229   5.507   4.452   2.338
 8993SOL    HW227230   5.395   4.544   2.296
 8994SOL     OW27231   8.082  11.343   7.135
 8994SOL    HW127232   8.084  11.268   7.194
 8994SOL    HW227233   8.002  11.390   7.157
 8995SOL     OW27234   4.584   2.526   0.171
 8995SOL    HW127235   4.577   2.582   0.249
 8995SOL    HW227236   4.554   2.581   0.099
 8996SOL     OW27237   4.887  13.228   3.950
 8996SOL    HW127238   4.864  13.137   3.968
 8996SOL    HW227239   4.971  13.241   3.994
 8997SOL     OW27240  10.172   4.700   0.728
 8997SOL    HW127241  10.244   4.729   0.785
 8997SOL    HW227242  10.202   4.719   0.640
 8998SOL     OW27243   6.665   0.500   0.365
 8998SOL    HW127244   6.657   0.562   0.438
 8998SOL    HW227245   6.618   0.422   0.394
 8999SOL     OW27246  11.912   8.465   4.806
 8999SOL    HW127247  11.839   8.411   4.836
 8999SOL    HW227248  11.922   8.533   4.873
 9000SOL     OW27249   6.681  13.226   5.798
 9000SOL    HW127250   6.638  13.142   5.815
 9000SOL    HW227251   6.774  13.207   5.803
 9001SOL     OW27252   8.279   7.632   3.376
 9001SOL    HW127253   8.260   7.723   3.354
 9001SOL    HW227254   8.262   7.627   3.470
 9002SOL     OW27255  14.527   5.304   5.967
 9002SOL    HW127256  14.578   5.385   5.968
 9002SOL    HW227257  14.529   5.275   5.876
 9003SOL     OW27258   6.378   8.596   4.775
 9003SOL    HW127259   6.283   8.593   4.769
 9003SOL    HW227260   6.398   8.689   4.788
 9004SOL     OW27261  13.270   8.128   3.722
 9004SOL    HW127262  13.209   8.202   3.730
 9004SOL    HW227263  13.269   8.107   3.629
 9005SOL     OW27264   6.597   8.504   6.414
 9005SOL    HW127265   6.558   8.503   6.502
 9005SOL    HW227266   6.547   8.571   6.367
 9006SOL     OW27267   2.092   6.965   0.093
 9006SOL    HW127268   2.068   6.978   0.001
 9006SOL    HW227269   2.009   6.955   0.139
 9007SOL     OW27270  13.450   7.138   6.305
 9007SOL    HW127271  13.512   7.204   6.273
 9007SOL    HW227272  13.460   7.139   6.400
 9008SOL     OW27273  10.687   8.650   6.048
 9008SOL    HW127274  10.751   8.580   6.062
 9008SOL    HW227275  10.657   8.638   5.958
 9009SOL     OW27276  10.390   3.974   4.235
 9009SOL    HW127277  10.360   3.961   4.145
 9009SOL    HW227278  10.454   4.045   4.229
 9010SOL     OW27279   3.977   7.395   3.482
 9010SOL    HW127280   3.905   7.436   3.434
 9010SOL    HW227281   3.937   7.364   3.563
 9011SOL     OW27282   2.375  12.011   1.995
 9011SOL    HW127283   2.406  11.938   1.942
 9011SOL    HW227284   2.451  12.039   2.045
 9012SOL     OW27285   6.320   7.703   4.501
 9012SOL    HW127286   6.403   7.748   4.511
 9012SOL    HW227287   6.254   7.770   4.520
 9013SOL     OW27288  13.766  11.244   5.416
 9013SOL    HW127289  13.833  11.261   5.350
 9013SOL    HW227290  13.688  11.291   5.384
 9014SOL     OW27291   4.125   9.662   4.628
 9014SOL    HW127292   4.184   9.633   4.698
 9014SOL    HW227293   4.056   9.596   4.626
 9015SOL     OW27294   1.593   0.734   0.115
 9015SOL    HW127295   1.659   0.665   0.106
 9015SOL    HW227296   1.523   0.692   0.165
 9016SOL     OW27297   7.628   1.858   1.416
 9016SOL    HW127298   7.570   1.895   1.483
 9016SOL    HW227299   7.715   1.863   1.456
 9017SOL     OW27300   8.197   6.412   0.847
 9017SOL    HW127301   8.197   6.478   0.916
 9017SOL    HW227302   8.172   6.460   0.768
 9018SOL     OW27303   8.768   4.868   2.335
 9018SOL    HW127304   8.805   4.844   2.250
 9018SOL    HW227305   8.763   4.786   2.383
 9019SOL     OW27306  12.780  13.084   4.741
 9019SOL    HW127307  12.866  13.068   4.779
 9019SOL    HW227308  12.782  13.040   4.656
 9020SOL     OW27309   7.111   2.022   2.556
 9020SOL    HW127310   7.171   2.001   2.484
 9020SOL    HW227311   7.078   1.936   2.584
 9021SOL     OW27312   3.559  11.388   5.020
 9021SOL    HW127313  14.282  11.429   5.090
 9021SOL    HW227314   3.639  11.358   5.064
 9022SOL     OW27315   7.392   5.001   0.245
 9022SOL    HW127316   7.317   5.035   0.294
 9022SOL    HW227317   7.364   4.915   0.215
 9023SOL     OW27318   1.546   8.105   1.664
 9023SOL    HW127319   1.553   8.009   1.662
 9023SOL    HW227320   1.588   8.133   1.583
 9024SOL     OW27321   9.872   4.809   4.597
 9024SOL    HW127322   9.822   4.890   4.582
 9024SOL    HW227323   9.958   4.840   4.624
 9025SOL     OW27324  10.347  10.016   4.872
 9025SOL    HW127325  10.393  10.084   4.824
 9025SOL    HW227326  10.260  10.013   4.833
 9026SOL     OW27327   5.046  10.530   2.248
 9026SOL    HW127328   5.137  10.546   2.224
 9026SOL    HW227329   5.032  10.436   2.231
 9027SOL     OW27330   9.435   4.589   4.890
 9027SOL    HW127331   9.369   4.528   4.856
 9027SOL    HW227332   9.516   4.538   4.893
 9028SOL     OW27333   4.354   9.481   4.390
 9028SOL    HW127334   4.362   9.397   4.346
 9028SOL    HW227335   4.443   9.503   4.416
 9029SOL     OW27336   7.029   5.836   0.028
 9029SOL    HW127337  12.393  11.191   7.560
 9029SOL    HW227338   7.065   5.923   0.012
 9030SOL     OW27339   4.323   5.195   2.995
 9030SOL    HW127340   4.383   5.196   2.920
 9030SOL    HW227341   4.375   5.159   3.067
 9031SOL     OW27342   6.961   7.176   0.748
 9031SOL    HW127343   6.867   7.188   0.731
 9031SOL    HW227344   6.967   7.090   0.790
 9032SOL     OW27345  10.074   3.638   2.703
 9032SOL    HW127346  10.137   3.595   2.645
 9032SOL    HW227347   9.990   3.627   2.660
 9033SOL     OW27348   8.983   6.859   7.599
 9033SOL    HW127349   8.937   6.799   7.540
 9033SOL    HW227350   9.076   6.840   7.585
 9034SOL     OW27351  13.751  10.741   6.181
 9034SOL    HW127352  13.795  10.826   6.193
 9034SOL    HW227353  13.812  10.690   6.128
 9035SOL     OW27354   1.594   7.460   2.143
 9035SOL    HW127355   1.632   7.492   2.225
 9035SOL    HW227356  12.306   7.393   2.170
 9036SOL     OW27357   7.584   8.567   1.261
 9036SOL    HW127358   7.645   8.641   1.257
 9036SOL    HW227359   7.497   8.608   1.255
 9037SOL     OW27360   9.092   9.781   1.859
 9037SOL    HW127361   9.153   9.707   1.863
 9037SOL    HW227362   9.114   9.824   1.776
 9038SOL     OW27363   5.331  13.189   5.851
 9038SOL    HW127364   5.250  13.161   5.893
 9038SOL    HW227365   5.352  13.119   5.789
 9039SOL     OW27366   9.463  12.926   7.511
 9039SOL    HW127367   9.404  12.910   7.437
 9039SOL    HW227368   9.510  13.005   7.486
 9040SOL     OW27369   8.705   2.457   0.393
 9040SOL    HW127370   8.674   2.533   0.343
 9040SOL    HW227371   8.665   2.467   0.480
 9041SOL     OW27372   6.819   8.287   3.497
 9041SOL    HW127373   6.827   8.360   3.559
 9041SOL    HW227374   6.902   8.241   3.503
 9042SOL     OW27375   8.082   7.276   0.947
 9042SOL    HW127376   8.112   7.197   0.903
 9042SOL    HW227377   8.098   7.347   0.884
 9043SOL     OW27378   6.143   6.223   1.024
 9043SOL    HW127379   6.130   6.217   1.119
 9043SOL    HW227380   6.208   6.156   1.004
 9044SOL     OW27381  10.663   7.103   6.020
 9044SOL    HW127382  10.610   7.092   6.098
 9044SOL    HW227383  10.753   7.093   6.051
 9045SOL     OW27384   2.637   7.833   0.438
 9045SOL    HW127385   2.597   7.792   0.514
 9045SOL    HW227386   2.582   7.910   0.420
 9046SOL     OW27387  14.456  11.094   7.238
 9046SOL    HW127388  14.367  11.092   7.203
 9046SOL    HW227389  14.481  11.187   7.236
 9047SOL     OW27390   3.654   7.220   1.729
 9047SOL    HW127391   3.687   7.282   1.664
 9047SOL    HW227392   3.574   7.185   1.691
 9048SOL     OW27393  11.953   5.963   6.499
 9048SOL    HW127394  11.957   5.879   6.454
 9048SOL    HW227395  12.032   6.010   6.470
 9049SOL     OW27396  12.088   8.427   2.817
 9049SOL    HW127397  12.127   8.339   2.810
 9049SOL    HW227398  12.145   8.482   2.763
 9050SOL     OW27399   7.635  13.904   4.996
 9050SOL    HW127400   7.583  13.914   4.916
 9050SOL    HW227401   7.635  13.992   5.035
 9051SOL     OW27402   5.383   2.609   3.460
 9051SOL    HW127403   5.476   2.611   3.439
 9051SOL    HW227404   5.377   2.562   3.543
 9052SOL     OW27405  13.073   9.448   6.743
 9052SOL    HW127406  13.052   9.538   6.767
 9052SOL    HW227407  13.057   9.444   6.648
 9053SOL     OW27408  10.790   8.960   5.485
 9053SOL    HW127409  10.758   8.887   5.432
 9053SOL    HW227410  10.851   8.920   5.547
 9054SOL     OW27411  11.293   5.517   0.816
 9054SOL    HW127412   0.612   5.510   0.799
 9054SOL    HW227413  11.268   5.603   0.781
 9055SOL     OW27414   7.471  10.167   6.972
 9055SOL    HW127415   7.552  10.207   7.005
 9055SOL    HW227416   7.501  10.096   6.915
 9056SOL     OW27417   3.622  11.419   4.584
 9056SOL    HW127418   3.540  11.396   4.628
 9056SOL    HW227419   3.604  11.502   4.541
 9057SOL     OW27420  12.362  12.285   3.537
 9057SOL    HW127421  12.383  12.273   3.444
 9057SOL    HW227422  12.349  12.379   3.546
 9058SOL     OW27423  10.081   4.269   0.007
 9058SOL    HW127424  15.538   9.720   7.612
 9058SOL    HW227425  10.092   4.240   0.097
 9059SOL     OW27426   3.121  10.196   1.997
 9059SOL    HW127427   3.027  10.208   1.983
 9059SOL    HW227428   3.132  10.211   2.091
 9060SOL     OW27429   9.154  10.546   5.671
 9060SOL    HW127430   9.137  10.477   5.735
 9060SOL    HW227431   9.079  10.543   5.612
 9061SOL     OW27432   6.410  12.044   4.196
 9061SOL    HW127433   6.473  12.115   4.211
 9061SOL    HW227434   6.448  11.993   4.125
 9062SOL     OW27435  11.792   8.329   4.037
 9062SOL    HW127436  11.726   8.268   4.004
 9062SOL    HW227437  11.806   8.301   4.128
 9063SOL     OW27438   8.858   6.838   2.878
 9063SOL    HW127439   8.802   6.838   2.801
 9063SOL    HW227440   8.824   6.909   2.933
 9064SOL     OW27441  15.454   5.467   6.691
 9064SOL    HW127442  15.447   5.379   6.727
 9064SOL    HW227443  15.373   5.511   6.718
 9065SOL     OW27444  12.642   8.317   7.405
 9065SOL    HW127445  12.558   8.310   7.358
 9065SOL    HW227446  12.707   8.292   7.340
 9066SOL     OW27447   9.941  11.374   3.755
 9066SOL    HW127448   9.911  11.301   3.700
 9066SOL    HW227449   9.988  11.331   3.827
 9067SOL     OW27450  10.590  11.145   0.735
 9067SOL    HW127451  10.641  11.206   0.682
 9067SOL    HW227452  10.499  11.168   0.718
 9068SOL     OW27453   7.370   6.810   1.531
 9068SOL    HW127454   7.310   6.872   1.490
 9068SOL    HW227455   7.335   6.724   1.508
 9069SOL     OW27456   9.441   9.444   0.097
 9069SOL    HW127457   9.531   9.447   0.064
 9069SOL    HW227458   9.411   9.535   0.092
 9070SOL     OW27459   3.786   4.241   0.486
 9070SOL    HW127460   3.712   4.218   0.430
 9070SOL    HW227461   3.796   4.335   0.476
 9071SOL     OW27462  15.188  15.240   7.348
 9071SOL    HW127463  15.171  15.194   7.266
 9071SOL    HW227464  15.124  15.312   7.349
 9072SOL     OW27465   5.700   8.566   5.925
 9072SOL    HW127466   5.607   8.590   5.919
 9072SOL    HW227467   5.742   8.641   5.966
 9073SOL     OW27468   6.340   8.370   6.240
 9073SOL    HW127469   6.354   8.465   6.240
 9073SOL    HW227470   6.264   8.357   6.296
 9074SOL     OW27471   8.792  14.727   6.618
 9074SOL    HW127472   8.709  14.746   6.661
 9074SOL    HW227473   8.832  14.813   6.605
 9075SOL     OW27474   5.751   6.640   6.370
 9075SOL    HW127475   5.779   6.712   6.427
 9075SOL    HW227476   5.745   6.678   6.283
 9076SOL     OW27477  14.343   8.740   7.329
 9076SOL    HW127478  14.300   8.824   7.345
 9076SOL    HW227479  14.370   8.710   7.416
 9077SOL     OW27480  12.884  10.108   5.311
 9077SOL    HW127481  12.922  10.083   5.395
 9077SOL    HW227482  12.912  10.040   5.250
 9078SOL     OW27483   6.432   6.621   0.513
 9078SOL    HW127484   6.528   6.626   0.508
 9078SOL    HW227485   6.411   6.533   0.483
 9079SOL     OW27486   9.210   7.623   1.597
 9079SOL    HW127487   9.167   7.662   1.673
 9079SOL    HW227488   9.142   7.569   1.557
 9080SOL     OW27489   9.163   7.782   4.733
 9080SOL    HW127490   9.071   7.790   4.708
 9080SOL    HW227491   9.185   7.691   4.714
 9081SOL     OW27492   8.750  14.428   5.290
 9081SOL    HW127493   8.783  14.518   5.301
 9081SOL    HW227494   8.798  14.395   5.214
 9082SOL     OW27495   4.830  15.115   6.700
 9082SOL    HW127496   4.845  15.155   6.786
 9082SOL    HW227497   4.842  15.021   6.715
 9083SOL     OW27498   5.881  10.355   4.542
 9083SOL    HW127499   5.857  10.398   4.459
 9083SOL    HW227500   5.826  10.277   4.544
 9084SOL     OW27501   3.848   7.359   2.136
 9084SOL    HW127502   3.859   7.419   2.209
 9084SOL    HW227503   3.760   7.378   2.103
 9085SOL     OW27504  12.640  11.338   4.546
 9085SOL    HW127505  12.668  11.257   4.589
 9085SOL    HW227506  12.588  11.384   4.612
 9086SOL     OW27507   9.294  10.988   4.409
 9086SOL    HW127508   9.233  11.024   4.345
 9086SOL    HW227509   9.315  11.061   4.467
 9087SOL     OW27510   4.725   0.914   0.920
 9087SOL    HW127511   4.731   0.836   0.864
 9087SOL    HW227512   4.794   0.901   0.985
 9088SOL     OW27513  12.208   9.135   5.869
 9088SOL    HW127514  12.253   9.146   5.952
 9088SOL    HW227515  12.216   9.042   5.849
 9089SOL     OW27516   8.041   9.170   2.168
 9089SOL    HW127517   8.064   9.192   2.078
 9089SOL    HW227518   8.001   9.250   2.202
 9090SOL     OW27519   5.539   6.273   6.967
 9090SOL    HW127520   5.557   6.184   6.997
 9090SOL    HW227521   5.625   6.308   6.942
 9091SOL     OW27522   9.936   9.376   2.074
 9091SOL    HW127523  10.008   9.401   2.016
 9091SOL    HW227524   9.962   9.409   2.160
 9092SOL     OW27525  11.928   3.759   2.787
 9092SOL    HW127526  11.835   3.778   2.797
 9092SOL    HW227527  11.942   3.754   2.693
 9093SOL     OW27528   9.310   2.974   1.748
 9093SOL    HW127529   9.339   2.906   1.688
 9093SOL    HW227530   9.382   3.038   1.748
 9094SOL     OW27531  10.413   4.859   0.886
 9094SOL    HW127532  10.453   4.943   0.866
 9094SOL    HW227533  10.484   4.806   0.921
 9095SOL     OW27534  10.918   6.649   2.367
 9095SOL    HW127535  10.995   6.610   2.408
 9095SOL    HW227536  10.907   6.734   2.409
 9096SOL     OW27537   7.605   6.659   5.398
 9096SOL    HW127538   7.667   6.587   5.402
 9096SOL    HW227539   7.529   6.629   5.448
 9097SOL     OW27540   6.362  10.477   4.542
 9097SOL    HW127541   6.344  10.509   4.453
 9097SOL    HW227542   6.294  10.413   4.558
 9098SOL     OW27543   9.727  10.223   2.788
 9098SOL    HW127544   9.777  10.305   2.796
 9098SOL    HW227545   9.785  10.157   2.827
 9099SOL     OW27546   6.612   6.432   1.298
 9099SOL    HW127547   6.620   6.478   1.381
 9099SOL    HW227548   6.542   6.477   1.252
 9100SOL     OW27549  11.354  11.635   2.241
 9100SOL    HW127550  11.340  11.558   2.296
 9100SOL    HW227551  11.367  11.599   2.153
 9101SOL     OW27552   5.576   6.037   1.204
 9101SOL    HW127553   5.562   6.128   1.177
 9101SOL    HW227554   5.621   5.997   1.129
 9102SOL     OW27555  11.162   5.770   6.999
 9102SOL    HW127556  11.202   5.815   6.925
 9102SOL    HW227557  11.135   5.685   6.964
 9103SOL     OW27558   8.698   7.784   0.698
 9103SOL    HW127559   8.610   7.807   0.728
 9103SOL    HW227560   8.693   7.691   0.678
 9104SOL     OW27561  11.657   6.029   3.008
 9104SOL    HW127562  11.601   6.047   3.084
 9104SOL    HW227563  11.612   5.959   2.961
 9105SOL     OW27564   5.830   3.956   3.390
 9105SOL    HW127565   5.885   3.878   3.381
 9105SOL    HW227566   5.881   4.013   3.448
 9106SOL     OW27567   2.301   2.004   2.117
 9106SOL    HW127568   2.394   2.010   2.093
 9106SOL    HW227569   2.300   1.942   2.190
 9107SOL     OW27570   5.121   4.674   5.440
 9107SOL    HW127571   5.061   4.650   5.510
 9107SOL    HW227572   5.069   4.669   5.360
 9108SOL     OW27573   4.154   3.162   1.617
 9108SOL    HW127574   4.231   3.183   1.565
 9108SOL    HW227575   4.081   3.163   1.555
 9109SOL     OW27576  11.294  10.961   7.027
 9109SOL    HW127577  11.293  11.055   7.008
 9109SOL    HW227578  11.359  10.952   7.097
 9110SOL     OW27579   7.592  14.462   6.385
 9110SOL    HW127580   7.534  14.482   6.458
 9110SOL    HW227581   7.586  14.538   6.327
 9111SOL     OW27582  10.905   4.818   3.430
 9111SOL    HW127583  10.824   4.866   3.412
 9111SOL    HW227584  10.906   4.748   3.364
 9112SOL     OW27585  10.728   4.049   4.545
 9112SOL    HW127586  10.734   4.004   4.461
 9112SOL    HW227587  10.643   4.093   4.543
 9113SOL     OW27588  10.850   9.423   3.506
 9113SOL    HW127589  10.864   9.517   3.496
 9113SOL    HW227590  10.903   9.399   3.581
 9114SOL     OW27591   5.971   6.111   5.329
 9114SOL    HW127592   5.992   6.021   5.306
 9114SOL    HW227593   5.948   6.153   5.246
 9115SOL     OW27594  11.804  11.969   5.514
 9115SOL    HW127595  11.802  11.886   5.467
 9115SOL    HW227596  11.858  12.026   5.459
 9116SOL     OW27597  12.291   8.838   5.915
 9116SOL    HW127598  12.206   8.816   5.952
 9116SOL    HW227599  12.275   8.846   5.821
 9117SOL     OW27600   2.410   3.026   0.887
 9117SOL    HW127601   2.369   3.018   0.973
 9117SOL    HW227602   2.361   2.967   0.831
 9118SOL     OW27603  10.958  11.617   7.192
 9118SOL    HW127604  10.999  11.624   7.106
 9118SOL    HW227605  10.947  11.523   7.205
 9119SOL     OW27606   5.833   7.139   0.731
 9119SOL    HW127607   5.755   7.084   0.740
 9119SOL    HW227608   5.890   7.089   0.673
 9120SOL     OW27609  11.548   6.954   7.524
 9120SOL    HW127610  11.616   6.975   7.588
 9120SOL    HW227611  11.589   6.970   7.439
 9121SOL     OW27612   7.791   6.640   2.037
 9121SOL    HW127613   7.768   6.733   2.041
 9121SOL    HW227614   7.886   6.639   2.030
 9122SOL     OW27615  12.534  11.384   2.886
 9122SOL    HW127616  12.562  11.456   2.830
 9122SOL    HW227617  12.598  11.315   2.870
 9123SOL     OW27618   9.359   6.165   2.865
 9123SOL    HW127619   9.280   6.191   2.818
 9123SOL    HW227620   9.356   6.216   2.946
 9124SOL     OW27621  10.405   7.082   4.143
 9124SOL    HW127622  10.345   7.044   4.080
 9124SOL    HW227623  10.353   7.092   4.223
 9125SOL     OW27624   4.130   2.640   0.680
 9125SOL    HW127625   4.201   2.598   0.631
 9125SOL    HW227626   4.052   2.623   0.628
 9126SOL     OW27627   5.155   8.300   0.176
 9126SOL    HW127628   5.228   8.240   0.159
 9126SOL    HW227629   5.127   8.328   0.089
 9127SOL     OW27630   8.132  14.574   5.685
 9127SOL    HW127631   8.163  14.594   5.773
 9127SOL    HW227632   8.042  14.605   5.683
 9128SOL     OW27633   3.496  10.910   0.376
 9128SOL    HW127634   3.576  10.953   0.345
 9128SOL    HW227635   3.428  10.938   0.314
 9129SOL     OW27636   7.904   4.932   0.822
 9129SOL    HW127637   7.952   4.959   0.901
 9129SOL    HW227638   7.972   4.919   0.756
 9130SOL     OW27639   6.924  10.695   0.380
 9130SOL    HW127640   6.866  10.620   0.387
 9130SOL    HW227641   6.875  10.759   0.328
 9131SOL     OW27642   2.686   9.686   0.127
 9131SOL    HW127643   2.678   9.624   0.055
 9131SOL    HW227644   2.738   9.640   0.193
 9132SOL     OW27645   5.725  10.780   4.953
 9132SOL    HW127646   5.696  10.807   5.040
 9132SOL    HW227647   5.649  10.737   4.914
 9133SOL     OW27648   6.361   3.577   2.632
 9133SOL    HW127649   6.405   3.610   2.710
 9133SOL    HW227650   6.425   3.590   2.561
 9134SOL     OW27651   7.495   3.913   4.905
 9134SOL    HW127652   7.542   3.995   4.923
 9134SOL    HW227653   7.560   3.845   4.919
 9135SOL     OW27654  10.475   6.666   2.860
 9135SOL    HW127655  10.475   6.759   2.880
 9135SOL    HW227656  10.440   6.624   2.939
 9136SOL     OW27657   7.350   6.158   2.740
 9136SOL    HW127658   7.444   6.161   2.720
 9136SOL    HW227659   7.318   6.080   2.694
 9137SOL     OW27660  10.036  10.893   4.450
 9137SOL    HW127661   9.999  10.812   4.416
 9137SOL    HW227662  10.052  10.875   4.543
 9138SOL     OW27663   8.987   8.201   7.521
 9138SOL    HW127664   9.042   8.268   7.561
 9138SOL    HW227665   9.049   8.146   7.473
 9139SOL     OW27666  11.060   4.643   5.956
 9139SOL    HW127667  11.136   4.622   6.010
 9139SOL    HW227668  11.070   4.588   5.878
 9140SOL     OW27669   5.219  10.881   1.683
 9140SOL    HW127670   5.160  10.907   1.613
 9140SOL    HW227671   5.166  10.889   1.763
 9141SOL     OW27672   2.391   4.347   0.617
 9141SOL    HW127673   2.461   4.324   0.677
 9141SOL    HW227674   2.383   4.271   0.559
 9142SOL     OW27675   4.889   3.593   1.917
 9142SOL    HW127676   4.931   3.571   2.000
 9142SOL    HW227677   4.910   3.519   1.859
 9143SOL     OW27678   9.595   2.732   0.219
 9143SOL    HW127679   9.548   2.786   0.155
 9143SOL    HW227680   9.582   2.642   0.190
 9144SOL     OW27681   8.398  10.113   4.822
 9144SOL    HW127682   8.444  10.196   4.815
 9144SOL    HW227683   8.305  10.135   4.814
 9145SOL     OW27684  10.753  14.562   6.611
 9145SOL    HW127685  10.757  14.522   6.698
 9145SOL    HW227686  10.766  14.655   6.627
 9146SOL     OW27687   9.625  10.609   5.445
 9146SOL    HW127688   9.556  10.550   5.414
 9146SOL    HW227689   9.593  10.642   5.529
 9147SOL     OW27690   9.564   8.022   4.367
 9147SOL    HW127691   9.497   8.086   4.390
 9147SOL    HW227692   9.518   7.956   4.316
 9148SOL     OW27693  11.039  14.643   7.177
 9148SOL    HW127694  11.092  14.607   7.106
 9148SOL    HW227695  11.043  14.738   7.165
 9149SOL     OW27696   7.865  11.343   2.237
 9149SOL    HW127697   7.816  11.419   2.205
 9149SOL    HW227698   7.950  11.349   2.194
 9150SOL     OW27699   9.217   6.632   7.258
 9150SOL    HW127700   9.239   6.550   7.215
 9150SOL    HW227701   9.200   6.608   7.349
 9151SOL     OW27702   7.753   6.515   6.303
 9151SOL    HW127703   7.738   6.587   6.366
 9151SOL    HW227704   7.721   6.437   6.348
 9152SOL     OW27705  14.845   9.675   6.355
 9152SOL    HW127706  14.827   9.725   6.276
 9152SOL    HW227707  14.822   9.585   6.333
 9153SOL     OW27708   8.972   8.118   4.412
 9153SOL    HW127709   9.032   8.047   4.390
 9153SOL    HW227710   8.949   8.103   4.504
 9154SOL     OW27711   6.972  10.503   5.800
 9154SOL    HW127712   6.974  10.419   5.754
 9154SOL    HW227713   7.024  10.489   5.879
 9155SOL     OW27714  10.906   8.670   2.803
 9155SOL    HW127715  10.831   8.624   2.841
 9155SOL    HW227716  10.898   8.760   2.836
 9156SOL     OW27717   6.712   1.674   1.546
 9156SOL    HW127718   6.649   1.745   1.552
 9156SOL    HW227719   6.744   1.677   1.456
 9157SOL     OW27720   7.689   3.312   2.121
 9157SOL    HW127721   7.668   3.362   2.042
 9157SOL    HW227722   7.710   3.379   2.186
 9158SOL     OW27723  13.154  13.595   5.815
 9158SOL    HW127724  13.087  13.527   5.814
 9158SOL    HW227725  13.199  13.583   5.898
 9159SOL     OW27726   3.092  10.939   1.248
 9159SOL    HW127727   3.006  10.935   1.289
 9159SOL    HW227728   3.082  11.001   1.176
 9160SOL     OW27729   5.823  13.967   6.073
 9160SOL    HW127730   5.752  13.963   6.008
 9160SOL    HW227731   5.903  13.952   6.022
 9161SOL     OW27732   3.262   4.841   4.027
 9161SOL    HW127733   3.343   4.881   3.996
 9161SOL    HW227734   3.193   4.898   3.992
 9162SOL     OW27735   9.530   6.905   1.126
 9162SOL    HW127736   9.531   6.871   1.216
 9162SOL    HW227737   9.439   6.898   1.099
 9163SOL     OW27738   8.034   9.849   0.135
 9163SOL    HW127739   8.074   9.936   0.144
 9163SOL    HW227740   7.984   9.854   0.053
 9164SOL     OW27741  12.296   7.177   5.572
 9164SOL    HW127742  12.284   7.141   5.660
 9164SOL    HW227743  12.388   7.204   5.570
 9165SOL     OW27744  13.756  13.965   4.956
 9165SOL    HW127745  13.814  13.889   4.952
 9165SOL    HW227746  13.812  14.037   4.984
 9166SOL     OW27747   3.002   7.914   3.981
 9166SOL    HW127748   2.955   7.925   3.898
 9166SOL    HW227749   2.968   7.984   4.037
 9167SOL     OW27750   3.680  11.529   1.115
 9167SOL    HW127751   3.731   0.830   1.145
 9167SOL    HW227752   3.734  11.488   1.049
 9168SOL     OW27753  11.018   3.231   1.735
 9168SOL    HW127754  11.028   3.294   1.663
 9168SOL    HW227755  10.995   3.149   1.692
 9169SOL     OW27756   4.687  13.088   6.044
 9169SOL    HW127757   4.692  13.176   6.008
 9169SOL    HW227758   4.721  13.096   6.134
 9170SOL     OW27759   9.087  10.548   2.778
 9170SOL    HW127760   9.103  10.635   2.815
 9170SOL    HW227761   9.095  10.489   2.852
 9171SOL     OW27762   4.332   1.050   0.142
 9171SOL    HW127763   4.363   1.119   0.084
 9171SOL    HW227764   4.244   1.029   0.110
 9172SOL     OW27765   7.696   2.764   3.842
 9172SOL    HW127766   7.616  13.485   3.846
 9172SOL    HW227767   7.675   2.833   3.779
 9173SOL     OW27768   4.333   3.097   3.549
 9173SOL    HW127769   4.374   3.018   3.584
 9173SOL    HW227770   4.335   3.086   3.454
 9174SOL     OW27771   6.662   2.487   2.026
 9174SOL    HW127772   6.737   2.428   2.016
 9174SOL    HW227773   6.591   2.444   1.978
 9175SOL     OW27774   8.898  15.151   6.379
 9175SOL    HW127775   8.872  15.066   6.415
 9175SOL    HW227776   8.866  15.150   6.289
 9176SOL     OW27777   8.926   6.935   5.349
 9176SOL    HW127778   8.836   6.930   5.381
 9176SOL    HW227779   8.925   6.887   5.266
 9177SOL     OW27780   6.953   3.800   2.425
 9177SOL    HW127781   6.971   3.892   2.407
 9177SOL    HW227782   6.859   3.797   2.445
 9178SOL     OW27783   3.703   3.539   4.626
 9178SOL    HW127784   3.761   3.514   4.555
 9178SOL    HW227785   3.632   3.475   4.623
 9179SOL     OW27786  11.974  12.558   5.768
 9179SOL    HW127787  12.020  12.474   5.762
 9179SOL    HW227788  11.950  12.578   5.677
 9180SOL     OW27789   2.921   8.864   2.006
 9180SOL    HW127790   3.005   8.903   1.980
 9180SOL    HW227791   2.943   8.773   2.027
 9181SOL     OW27792   5.849  11.367   6.695
 9181SOL    HW127793   5.919  11.348   6.758
 9181SOL    HW227794   5.798  11.436   6.736
 9182SOL     OW27795   6.380   9.118   0.682
 9182SOL    HW127796   6.361   9.072   0.764
 9182SOL    HW227797   6.361   9.210   0.701
 9183SOL     OW27798   4.521  11.044   4.189
 9183SOL    HW127799   4.534  11.022   4.096
 9183SOL    HW227800   4.434  11.011   4.210
 9184SOL     OW27801   8.441   8.912   0.184
 9184SOL    HW127802   8.506   8.845   0.203
 9184SOL    HW227803   8.415   8.946   0.270
 9185SOL     OW27804   4.284   4.059   4.149
 9185SOL    HW127805   4.347   3.987   4.155
 9185SOL    HW227806   4.332   4.130   4.106
 9186SOL     OW27807   8.740  14.644   5.626
 9186SOL    HW127808   8.720  14.702   5.700
 9186SOL    HW227809   8.716  14.557   5.656
 9187SOL     OW27810  10.808   8.053   6.935
 9187SOL    HW127811  10.851   8.134   6.908
 9187SOL    HW227812  10.771   8.017   6.854
 9188SOL     OW27813   6.296  12.627   6.896
 9188SOL    HW127814   6.382  12.632   6.855
 9188SOL    HW227815   6.314  12.628   6.990
 9189SOL     OW27816   6.855   6.377   1.108
 9189SOL    HW127817   6.885   6.457   1.065
 9189SOL    HW227818   6.764   6.396   1.132
 9190SOL     OW27819  15.556  15.770   7.187
 9190SOL    HW127820  15.581   5.080   7.148
 9190SOL    HW227821  15.506  15.794   7.265
 9191SOL     OW27822   1.268  11.313   1.260
 9191SOL    HW127823   1.282  11.388   1.318
 9191SOL    HW227824   1.216  11.252   1.312
 9192SOL     OW27825   1.580   3.793   2.121
 9192SOL    HW127826   1.635   3.756   2.190
 9192SOL    HW227827  12.265   3.785   2.155
 9193SOL     OW27828  12.897   5.679   4.871
 9193SOL    HW127829  12.810   5.709   4.848
 9193SOL    HW227830  12.952   5.757   4.864
 9194SOL     OW27831   7.148   5.776   7.358
 9194SOL    HW127832   7.184   5.691   7.384
 9194SOL    HW227833   7.062   5.756   7.322
 9195SOL     OW27834   7.911   2.085   0.775
 9195SOL    HW127835   7.834   2.141   0.785
 9195SOL    HW227836   7.875   1.996   0.780
 9196SOL     OW27837   3.428   4.770   1.924
 9196SOL    HW127838   3.347   4.729   1.955
 9196SOL    HW227839   3.498   4.718   1.963
 9197SOL     OW27840  13.290   3.650   4.696
 9197SOL    HW127841  13.379   3.660   4.661
 9197SOL    HW227842  13.257   3.740   4.701
 9198SOL     OW27843   8.638   0.468   0.223
 9198SOL    HW127844   8.583   0.404   0.178
 9198SOL    HW227845   8.653   0.536   0.158
 9199SOL     OW27846  10.341   7.730   3.850
 9199SOL    HW127847  10.305   7.724   3.761
 9199SOL    HW227848  10.390   7.648   3.862
 9200SOL     OW27849   4.825   7.367   1.744
 9200SOL    HW127850   4.797   7.344   1.655
 9200SOL    HW227851   4.909   7.324   1.755
 9201SOL     OW27852   7.665  10.999   6.415
 9201SOL    HW127853   7.601  10.985   6.345
 9201SOL    HW227854   7.735  11.050   6.374
 9202SOL     OW27855   1.520   3.181   1.505
 9202SOL    HW127856   1.524   3.211   1.414
 9202SOL    HW227857   1.489   3.257   1.555
 9203SOL     OW27858   9.697   7.615   5.078
 9203SOL    HW127859   9.750   7.544   5.116
 9203SOL    HW227860   9.622   7.570   5.040
 9204SOL     OW27861   8.880  10.374   0.804
 9204SOL    HW127862   8.811  10.436   0.829
 9204SOL    HW227863   8.886  10.315   0.880
 9205SOL     OW27864   4.007   1.863   2.617
 9205SOL    HW127865   4.073  12.653   2.685
 9205SOL    HW227866   4.056   1.862   2.535
 9206SOL     OW27867   7.632   9.403   0.161
 9206SOL    HW127868   7.603   9.470   0.098
 9206SOL    HW227869   7.724   9.389   0.140
 9207SOL     OW27870  12.047   8.278   4.216
 9207SOL    HW127871  12.094   8.339   4.159
 9207SOL    HW227872  12.020   8.332   4.290
 9208SOL     OW27873   1.225   9.676   0.195
 9208SOL    HW127874   1.149   9.721   0.233
 9208SOL    HW227875   1.218   9.586   0.227
 9209SOL     OW27876   4.211   3.575   0.541
 9209SOL    HW127877   4.299   3.602   0.515
 9209SOL    HW227878   4.162   3.569   0.459
 9210SOL     OW27879   7.937   6.057   4.462
 9210SOL    HW127880   7.906   6.145   4.445
 9210SOL    HW227881   7.858   6.006   4.480
 9211SOL     OW27882   3.832   7.106   2.809
 9211SOL    HW127883   3.835   7.024   2.761
 9211SOL    HW227884   3.754   7.099   2.864
 9212SOL     OW27885   6.919   5.127   2.820
 9212SOL    HW127886   6.923   5.032   2.827
 9212SOL    HW227887   6.977   5.159   2.888
 9213SOL     OW27888   4.674  14.653   5.623
 9213SOL    HW127889   4.690  14.574   5.571
 9213SOL    HW227890   4.753  14.705   5.612
 9214SOL     OW27891   6.191   9.373   2.729
 9214SOL    HW127892   6.114   9.401   2.778
 9214SOL    HW227893   6.217   9.450   2.679
 9215SOL     OW27894   6.633   4.284   0.044
 9215SOL    HW127895   6.672   4.296   0.131
 9215SOL    HW227896  12.060   9.739   7.609
 9216SOL     OW27897  13.471   9.428   4.675
 9216SOL    HW127898  13.455   9.427   4.581
 9216SOL    HW227899  13.394   9.386   4.713
 9217SOL     OW27900   8.363  11.347   2.406
 9217SOL    HW127901   8.425  11.276   2.424
 9217SOL    HW227902   8.397  11.389   2.327
 9218SOL     OW27903   8.887   5.876   4.821
 9218SOL    HW127904   8.978   5.856   4.846
 9218SOL    HW227905   8.843   5.791   4.825
 9219SOL     OW27906   5.653   4.668   2.094
 9219SOL    HW127907   5.688   4.595   2.044
 9219SOL    HW227908   5.569   4.688   2.052
 9220SOL     OW27909   2.763   5.204   2.217
 9220SOL    HW127910   2.790   5.145   2.288
 9220SOL    HW227911   2.843   5.250   2.193
 9221SOL     OW27912   4.616   6.499   5.681
 9221SOL    HW127913   4.589   6.551   5.757
 9221SOL    HW227914   4.626   6.564   5.611
 9222SOL     OW27915   7.338   9.636   6.202
 9222SOL    HW127916   7.373   9.548   6.219
 9222SOL    HW227917   7.249   9.634   6.236
 9223SOL     OW27918   8.888   7.408   3.078
 9223SOL    HW127919   8.815   7.386   3.020
 9223SOL    HW227920   8.852   7.397   3.166
 9224SOL     OW27921   6.499  11.953   3.274
 9224SOL    HW127922   6.460  11.866   3.281
 9224SOL    HW227923   6.462  11.990   3.194
 9225SOL     OW27924   9.296   2.814   2.215
 9225SOL    HW127925   9.266   2.831   2.126
 9225SOL    HW227926   9.218   2.785   2.262
 9226SOL     OW27927   2.330   9.845   1.140
 9226SOL    HW127928   2.393   9.863   1.070
 9226SOL    HW227929   2.336   9.750   1.153
 9227SOL     OW27930   8.664   5.184   6.151
 9227SOL    HW127931   8.622   5.237   6.219
 9227SOL    HW227932   8.715   5.247   6.101
 9228SOL     OW27933   5.324  11.334   2.720
 9228SOL    HW127934   5.405  11.304   2.760
 9228SOL    HW227935   5.270  11.362   2.793
 9229SOL     OW27936  12.251   5.968   5.718
 9229SOL    HW127937  12.288   5.942   5.803
 9229SOL    HW227938  12.162   5.997   5.738
 9230SOL     OW27939   6.829  10.239   6.389
 9230SOL    HW127940   6.832  10.333   6.372
 9230SOL    HW227941   6.896  10.202   6.331
 9231SOL     OW27942   9.537   3.116   2.687
 9231SOL    HW127943   9.555   3.124   2.593
 9231SOL    HW227944   9.622   3.121   2.729
 9232SOL     OW27945   8.949   2.188   1.854
 9232SOL    HW127946   9.024   2.210   1.909
 9232SOL    HW227947   8.899   2.269   1.847
 9233SOL     OW27948  10.428   7.370   6.161
 9233SOL    HW127949  10.443   7.349   6.069
 9233SOL    HW227950  10.514   7.395   6.194
 9234SOL     OW27951  12.787   5.974   5.119
 9234SOL    HW127952  12.833   5.898   5.154
 9234SOL    HW227953  12.695   5.948   5.116
 9235SOL     OW27954   8.401   9.209   1.985
 9235SOL    HW127955   8.326   9.150   1.984
 9235SOL    HW227956   8.384   9.269   2.058
 9236SOL     OW27957  11.724  14.648   5.716
 9236SOL    HW127958  11.688  14.673   5.801
 9236SOL    HW227959  11.769  14.565   5.732
 9237SOL     OW27960   6.570  10.435   0.335
 9237SOL    HW127961   6.657  10.456   0.370
 9237SOL    HW227962   6.511  10.451   0.408
 9238SOL     OW27963   4.684   3.209   2.743
 9238SOL    HW127964   4.668   3.115   2.741
 9238SOL    HW227965   4.753   3.223   2.679
 9239SOL     OW27966   1.345   8.028   1.876
 9239SOL    HW127967   1.398   8.070   1.808
 9239SOL    HW227968   1.409   7.980   1.929
 9240SOL     OW27969   3.634   8.277   1.408
 9240SOL    HW127970   3.617   8.352   1.352
 9240SOL    HW227971   3.566   8.282   1.476
 9241SOL     OW27972   2.567   2.583   0.478
 9241SOL    HW127973   2.487   2.611   0.434
 9241SOL    HW227974   2.637   2.607   0.417
 9242SOL     OW27975   8.570   5.931   2.661
 9242SOL    HW127976   8.662   5.932   2.635
 9242SOL    HW227977   8.566   5.866   2.731
 9243SOL     OW27978  11.072  10.928   4.282
 9243SOL    HW127979  11.153  10.905   4.236
 9243SOL    HW227980  11.003  10.891   4.227
 9244SOL     OW27981   6.296   2.941   2.958
 9244SOL    HW127982   6.256   2.991   3.030
 9244SOL    HW227983   6.381   2.914   2.992
 9245SOL     OW27984   3.017   3.042   4.037
 9245SOL    HW127985   3.092   2.994   4.003
 9245SOL    HW227986   3.053   3.126   4.065
 9246SOL     OW27987   1.046   4.180   0.119
 9246SOL    HW127988   1.053   4.272   0.145
 9246SOL    HW227989   1.088   4.131   0.190
 9247SOL     OW27990  14.860   9.768   6.085
 9247SOL    HW127991  14.903   9.835   6.138
 9247SOL    HW227992  14.932   9.727   6.036
 9248SOL     OW27993  14.401  11.369   7.115
 9248SOL    HW127994  14.350  11.322   7.050
 9248SOL    HW227995  14.474  11.407   7.065
 9249SOL     OW27996   9.797   8.649   0.732
 9249SOL    HW127997   9.810   8.590   0.657
 9249SOL    HW227998   9.810   8.736   0.696
 9250SOL     OW27999   8.735  15.129   6.922
 9250SOL    HW128000   8.828  15.133   6.946
 9250SOL    HW228001   8.703  15.048   6.962
 9251SOL     OW28002  10.624   0.974   1.145
 9251SOL    HW128003  10.628   1.061   1.106
 9251SOL    HW228004  10.699   0.927   1.108
 9252SOL     OW28005   7.646   9.762   3.104
 9252SOL    HW128006   7.714   9.785   3.040
 9252SOL    HW228007   7.636   9.840   3.158
 9253SOL     OW28008   9.958   5.409   4.833
 9253SOL    HW128009   9.897   5.476   4.801
 9253SOL    HW228010  10.022   5.399   4.763
 9254SOL     OW28011  11.329  11.991   7.361
 9254SOL    HW128012  11.245  11.992   7.408
 9254SOL    HW228013  11.320  12.060   7.296
 9255SOL     OW28014  10.835   4.811   2.670
 9255SOL    HW128015  10.895   4.882   2.652
 9255SOL    HW228016  10.757   4.853   2.707
 9256SOL     OW28017   6.037   9.315   3.902
 9256SOL    HW128018   6.095   9.255   3.949
 9256SOL    HW228019   6.093   9.353   3.834
 9257SOL     OW28020   5.362   5.283   5.941
 9257SOL    HW128021   5.332   5.364   5.983
 9257SOL    HW228022   5.284   5.228   5.937
 9258SOL     OW28023  13.595   7.326   6.019
 9258SOL    HW128024  13.672   7.323   5.963
 9258SOL    HW228025  13.585   7.237   6.053
 9259SOL     OW28026   3.308  12.406   3.622
 9259SOL    HW128027   3.358  12.347   3.566
 9259SOL    HW228028   3.290  12.482   3.566
 9260SOL     OW28029  10.560   6.010   5.329
 9260SOL    HW128030  10.506   5.935   5.355
 9260SOL    HW228031  10.610   5.978   5.254
 9261SOL     OW28032   5.891   3.852   5.132
 9261SOL    HW128033   5.855   3.855   5.043
 9261SOL    HW228034   5.828   3.900   5.185
 9262SOL     OW28035  13.163   6.081   3.755
 9262SOL    HW128036  13.185   6.175   3.756
 9262SOL    HW228037  13.192   6.050   3.669
 9263SOL     OW28038   1.726   2.129   0.408
 9263SOL    HW128039   1.660   2.061   0.391
 9263SOL    HW228040   1.809   2.081   0.412
 9264SOL     OW28041   6.447   9.095   6.110
 9264SOL    HW128042   6.422   9.148   6.186
 9264SOL    HW228043   6.540   9.075   6.126
 9265SOL     OW28044   5.324   5.472   0.757
 9265SOL    HW128045   5.262   5.455   0.828
 9265SOL    HW228046   5.410   5.472   0.800
 9266SOL     OW28047   6.440  11.164   2.631
 9266SOL    HW128048   6.471  11.253   2.645
 9266SOL    HW228049   6.443  11.124   2.718
 9267SOL     OW28050   5.129  11.928   3.139
 9267SOL    HW128051   5.167  11.856   3.089
 9267SOL    HW228052   5.066  11.886   3.198
 9268SOL     OW28053   2.348   5.926   0.147
 9268SOL    HW128054   2.348   5.844   0.197
 9268SOL    HW228055   2.365   5.899   0.057
 9269SOL     OW28056   5.817  15.155   6.527
 9269SOL    HW128057   5.869  15.200   6.461
 9269SOL    HW228058   5.805  15.067   6.492
 9270SOL     OW28059   1.354   7.188   1.639
 9270SOL    HW128060   1.340   7.283   1.643
 9270SOL    HW228061   1.409   7.168   1.715
 9271SOL     OW28062  10.055   4.557   4.660
 9271SOL    HW128063  10.081   4.648   4.675
 9271SOL    HW228064   9.962   4.555   4.681
 9272SOL     OW28065   6.673   5.177   6.147
 9272SOL    HW128066   6.623   5.129   6.081
 9272SOL    HW228067   6.608   5.207   6.210
 9273SOL     OW28068   7.263   5.369   3.583
 9273SOL    HW128069   7.257   5.394   3.491
 9273SOL    HW228070   7.261   5.273   3.581
 9274SOL     OW28071   8.021  14.977   7.062
 9274SOL    HW128072   7.993  15.067   7.079
 9274SOL    HW228073   8.088  14.959   7.128
 9275SOL     OW28074   6.001  10.762   3.624
 9275SOL    HW128075   6.018  10.840   3.571
 9275SOL    HW228076   5.950  10.705   3.566
 9276SOL     OW28077  11.508   5.307   4.606
 9276SOL    HW128078  11.494   5.400   4.620
 9276SOL    HW228079  11.433   5.265   4.648
 9277SOL     OW28080   6.538   8.615   2.194
 9277SOL    HW128081   6.451   8.655   2.188
 9277SOL    HW228082   6.599   8.688   2.184
 9278SOL     OW28083  11.891  14.781   6.862
 9278SOL    HW128084  11.889  14.697   6.817
 9278SOL    HW228085  11.820  14.776   6.925
 9279SOL     OW28086  14.063   9.321   5.366
 9279SOL    HW128087  13.971   9.345   5.373
 9279SOL    HW228088  14.068   9.264   5.290
 9280SOL     OW28089   9.691   6.752   3.430
 9280SOL    HW128090   9.598   6.770   3.417
 9280SOL    HW228091   9.698   6.657   3.427
 9281SOL     OW28092   4.377   9.445   5.150
 9281SOL    HW128093   4.433   9.426   5.226
 9281SOL    HW228094   4.328   9.364   5.136
 9282SOL     OW28095  10.193   7.757   1.594
 9282SOL    HW128096  10.130   7.823   1.563
 9282SOL    HW228097  10.202   7.697   1.520
 9283SOL     OW28098   8.086   8.551   0.691
 9283SOL    HW128099   8.070   8.613   0.762
 9283SOL    HW228100   8.017   8.568   0.628
 9284SOL     OW28101   5.181  12.350   2.278
 9284SOL    HW128102   5.174  12.258   2.251
 9284SOL    HW228103   5.222   1.619   2.203
 9285SOL     OW28104  14.168   7.592   6.342
 9285SOL    HW128105  14.208   7.650   6.278
 9285SOL    HW228106  14.076   7.616   6.343
 9286SOL     OW28107   8.752  12.628   3.934
 9286SOL    HW128108   8.777  12.624   3.842
 9286SOL    HW228109   8.691  12.702   3.939
 9287SOL     OW28110   8.274   2.803   3.734
 9287SOL    HW128111   8.187   2.798   3.772
 9287SOL    HW228112   8.275   2.886   3.685
 9288SOL     OW28113   5.614   4.631   0.685
 9288SOL    HW128114   5.590   4.592   0.601
 9288SOL    HW228115   5.565   4.714   0.687
 9289SOL     OW28116  12.570   7.969   5.538
 9289SOL    HW128117  12.585   7.902   5.605
 9289SOL    HW228118  12.584   8.052   5.584
 9290SOL     OW28119   8.195   9.481   1.136
 9290SOL    HW128120   8.273   9.453   1.184
 9290SOL    HW228121   8.211   9.574   1.118
 9291SOL     OW28122  11.216   2.420   2.234
 9291SOL    HW128123  11.290   2.478   2.251
 9291SOL    HW228124  11.170   2.414   2.318
 9292SOL     OW28125   8.898   5.131   0.104
 9292SOL    HW128126   8.860   5.215   0.130
 9292SOL    HW228127   8.885   5.128   0.009
 9293SOL     OW28128   3.939  14.203   5.493
 9293SOL    HW128129  14.646  14.194   5.560
 9293SOL    HW228130   4.020  14.176   5.537
 9294SOL     OW28131   7.762   5.985   1.196
 9294SOL    HW128132   7.688   5.948   1.148
 9294SOL    HW228133   7.723   6.029   1.271
 9295SOL     OW28134   7.601   8.090   7.282
 9295SOL    HW128135   7.634   8.155   7.221
 9295SOL    HW228136   7.662   8.093   7.356
 9296SOL     OW28137   8.887   1.045   1.469
 9296SOL    HW128138   8.911   1.107   1.538
 9296SOL    HW228139   8.928  11.738   1.495
 9297SOL     OW28140   8.659  10.899   0.401
 9297SOL    HW128141   8.709  10.927   0.324
 9297SOL    HW228142   8.675  10.967   0.466
 9298SOL     OW28143   9.656   3.890   1.073
 9298SOL    HW128144   9.679   3.982   1.064
 9298SOL    HW228145   9.737   3.843   1.055
 9299SOL     OW28146   8.194   6.770   5.607
 9299SOL    HW128147   8.197   6.693   5.551
 9299SOL    HW228148   8.101   6.787   5.620
 9300SOL     OW28149   8.753  14.380   6.332
 9300SOL    HW128150   8.694  14.441   6.376
 9300SOL    HW228151   8.697  14.330   6.273
 9301SOL     OW28152   9.772   5.274   4.348
 9301SOL    HW128153   9.751   5.358   4.389
 9301SOL    HW228154   9.689   5.225   4.348
 9302SOL     OW28155   9.050  10.691   3.791
 9302SOL    HW128156   9.069  10.666   3.881
 9302SOL    HW228157   9.129  10.738   3.762
 9303SOL     OW28158  11.109   6.219   5.030
 9303SOL    HW128159  11.042   6.233   5.096
 9303SOL    HW228160  11.152   6.137   5.055
 9304SOL     OW28161   4.028   6.287   2.349
 9304SOL    HW128162   3.968   6.349   2.390
 9304SOL    HW228163   4.007   6.203   2.390
 9305SOL     OW28164   4.841  13.215   3.649
 9305SOL    HW128165   4.779  13.192   3.719
 9305SOL    HW228166   4.927  13.199   3.687
 9306SOL     OW28167   8.455   5.338   1.915
 9306SOL    HW128168   8.371   5.379   1.893
 9306SOL    HW228169   8.491   5.394   1.985
 9307SOL     OW28170   9.364  12.876   4.368
 9307SOL    HW128171   9.325  12.797   4.331
 9307SOL    HW228172   9.290  12.926   4.402
 9308SOL     OW28173  10.765   2.877   1.430
 9308SOL    HW128174  10.787   2.947   1.491
 9308SOL    HW228175  10.672   2.862   1.443
 9309SOL     OW28176   3.366  11.704   4.258
 9309SOL    HW128177   3.328  11.750   4.183
 9309SOL    HW228178   3.314  11.624   4.266
 9310SOL     OW28179   4.302  10.809   3.924
 9310SOL    HW128180   4.226  10.797   3.982
 9310SOL    HW228181   4.276  10.766   3.842
 9311SOL     OW28182   7.931   1.883   0.023
 9311SOL    HW128183   7.853   1.937   0.029
 9311SOL    HW228184   7.945   1.850   0.112
 9312SOL     OW28185   9.407   6.878   4.070
 9312SOL    HW128186   9.327   6.845   4.112
 9312SOL    HW228187   9.477   6.822   4.103
 9313SOL     OW28188   7.925   8.270   5.735
 9313SOL    HW128189   8.007   8.225   5.713
 9313SOL    HW228190   7.952   8.360   5.753
 9314SOL     OW28191   5.936   9.174   3.385
 9314SOL    HW128192   6.031   9.189   3.385
 9314SOL    HW228193   5.918   9.138   3.472
 9315SOL     OW28194   7.602  13.428   7.505
 9315SOL    HW128195   7.584  13.516   7.537
 9315SOL    HW228196   7.642  13.441   7.419
 9316SOL     OW28197   4.995  10.455   0.457
 9316SOL    HW128198   5.063  10.520   0.474
 9316SOL    HW228199   4.921  10.483   0.509
 9317SOL     OW28200   5.112   1.565   1.005
 9317SOL    HW128201   5.166   1.522   0.939
 9317SOL    HW228202   5.174   1.612   1.060
 9318SOL     OW28203   5.872  10.748   4.081
 9318SOL    HW128204   5.793  10.745   4.028
 9318SOL    HW228205   5.909  10.834   4.064
 9319SOL     OW28206  10.197  12.993   6.989
 9319SOL    HW128207  10.263  12.935   7.027
 9319SOL    HW228208  10.178  12.955   6.903
 9320SOL     OW28209   8.948   3.773   3.410
 9320SOL    HW128210   8.939   3.806   3.499
 9320SOL    HW228211   8.965   3.851   3.357
 9321SOL     OW28212  12.179   6.148   5.179
 9321SOL    HW128213  12.184   6.081   5.247
 9321SOL    HW228214  12.123   6.216   5.217
 9322SOL     OW28215   4.963  11.167   3.600
 9322SOL    HW128216   4.933  11.219   3.526
 9322SOL    HW228217   5.030  11.108   3.564
 9323SOL     OW28218   8.107   0.509   0.403
 9323SOL    HW128219   8.159   0.466   0.335
 9323SOL    HW228220   8.172   0.550   0.460
 9324SOL     OW28221   4.698  11.603   1.409
 9324SOL    HW128222   4.791  11.590   1.389
 9324SOL    HW228223   4.664  11.652   1.334
 9325SOL     OW28224  12.021   4.522   3.220
 9325SOL    HW128225  12.095   4.464   3.203
 9325SOL    HW228226  11.953   4.494   3.158
 9326SOL     OW28227   6.530  13.116   6.112
 9326SOL    HW128228   6.442  13.137   6.080
 9326SOL    HW228229   6.533  13.153   6.200
 9327SOL     OW28230   6.188   8.338   0.475
 9327SOL    HW128231   6.281   8.360   0.475
 9327SOL    HW228232   6.145   8.418   0.446
 9328SOL     OW28233  10.181  13.272   4.370
 9328SOL    HW128234  10.100  13.234   4.335
 9328SOL    HW228235  10.236  13.285   4.293
 9329SOL     OW28236  11.174   5.322   2.904
 9329SOL    HW128237  11.244   5.385   2.884
 9329SOL    HW228238  11.146   5.345   2.993
 9330SOL     OW28239   4.795   4.948   5.514
 9330SOL    HW128240   4.814   5.003   5.590
 9330SOL    HW228241   4.819   4.859   5.542
 9331SOL     OW28242  13.827  13.031   6.476
 9331SOL    HW128243  13.769  12.976   6.530
 9331SOL    HW228244  13.876  13.083   6.539
 9332SOL     OW28245   7.302  15.115   7.312
 9332SOL    HW128246   7.323  15.140   7.222
 9332SOL    HW228247   7.250  15.188   7.346
 9333SOL     OW28248   1.511   9.948   0.013
 9333SOL    HW128249   6.963  15.268   7.611
 9333SOL    HW228250   1.562  10.026   0.033
 9334SOL     OW28251   6.853  10.439   0.185
 9334SOL    HW128252   6.910  10.431   0.261
 9334SOL    HW228253   6.805  10.357   0.181
 9335SOL     OW28254  13.029   9.249   7.353
 9335SOL    HW128255  13.059   9.175   7.405
 9335SOL    HW228256  13.087   9.251   7.277
 9336SOL     OW28257   4.890  11.398   2.596
 9336SOL    HW128258   4.844  11.482   2.596
 9336SOL    HW228259   4.819  11.333   2.599
 9337SOL     OW28260   5.494  13.000   4.540
 9337SOL    HW128261   5.410  12.961   4.564
 9337SOL    HW228262   5.559  12.953   4.593
 9338SOL     OW28263   8.673   5.587   0.566
 9338SOL    HW128264   8.716   5.672   0.557
 9338SOL    HW228265   8.580   5.606   0.563
 9339SOL     OW28266   6.366   6.641   3.308
 9339SOL    HW128267   6.448   6.612   3.349
 9339SOL    HW228268   6.371   6.736   3.309
 9340SOL     OW28269  10.217  12.196   6.893
 9340SOL    HW128270  10.241  12.140   6.820
 9340SOL    HW228271  10.201  12.282   6.854
 9341SOL     OW28272   4.685   9.075   3.989
 9341SOL    HW128273   4.604   9.098   3.945
 9341SOL    HW228274   4.677   8.982   4.008
 9342SOL     OW28275   8.639   8.152   7.255
 9342SOL    HW128276   8.709   8.087   7.244
 9342SOL    HW228277   8.575   8.129   7.189
 9343SOL     OW28278  10.986   8.506   3.036
 9343SOL    HW128279  11.081   8.510   3.031
 9343SOL    HW228280  10.965   8.537   3.124
 9344SOL     OW28281   7.205   9.242   0.622
 9344SOL    HW128282   7.214   9.221   0.715
 9344SOL    HW228283   7.249   9.170   0.576
 9345SOL     OW28284  10.418   8.828   1.552
 9345SOL    HW128285  10.454   8.912   1.579
 9345SOL    HW228286  10.339   8.851   1.502
 9346SOL     OW28287   9.313   7.965   6.888
 9346SOL    HW128288   9.396   7.981   6.931
 9346SOL    HW228289   9.268   7.901   6.943
 9347SOL     OW28290   9.556   6.950   5.617
 9347SOL    HW128291   9.465   6.963   5.589
 9347SOL    HW228292   9.553   6.963   5.711
 9348SOL     OW28293   1.936   4.016   1.555
 9348SOL    HW128294   2.011   3.957   1.546
 9348SOL    HW228295   1.859   3.960   1.542
 9349SOL     OW28296   2.143  10.247   0.365
 9349SOL    HW128297   2.084  10.248   0.290
 9349SOL    HW228298   2.195  10.167   0.354
 9350SOL     OW28299   8.726   7.048   2.270
 9350SOL    HW128300   8.753   7.120   2.214
 9350SOL    HW228301   8.776   6.972   2.238
 9351SOL     OW28302   2.117   4.505   2.965
 9351SOL    HW128303   2.129   4.599   2.953
 9351SOL    HW228304  12.877   4.494   3.059
 9352SOL     OW28305  13.243   9.396   6.284
 9352SOL    HW128306  13.236   9.492   6.284
 9352SOL    HW228307  13.333   9.379   6.312
 9353SOL     OW28308  13.825  12.205   7.526
 9353SOL    HW128309  13.822  12.238   7.436
 9353SOL    HW228310  13.852  12.113   7.517
 9354SOL     OW28311   6.647  12.869   6.557
 9354SOL    HW128312   6.687  12.927   6.493
 9354SOL    HW228313   6.585  12.925   6.604
 9355SOL     OW28314   5.923   5.688   2.805
 9355SOL    HW128315   5.958   5.720   2.722
 9355SOL    HW228316   5.982   5.618   2.831
 9356SOL     OW28317   2.511   1.007   1.417
 9356SOL    HW128318   2.433  11.800   1.469
 9356SOL    HW228319   2.573   1.076   1.442
 9357SOL     OW28320   8.177   6.734   6.733
 9357SOL    HW128321   8.117   6.809   6.729
 9357SOL    HW228322   8.121   6.660   6.757
 9358SOL     OW28323  13.615  12.719   6.677
 9358SOL    HW128324  13.525  12.736   6.649
 9358SOL    HW228325  13.624  12.766   6.759
 9359SOL     OW28326  11.504   6.262   6.571
 9359SOL    HW128327  11.564   6.187   6.566
 9359SOL    HW228328  11.477   6.265   6.662
 9360SOL     OW28329   4.307   9.125   2.519
 9360SOL    HW128330   4.240   9.070   2.478
 9360SOL    HW228331   4.260   9.174   2.587
 9361SOL     OW28332   5.295   9.879   1.495
 9361SOL    HW128333   5.343   9.920   1.568
 9361SOL    HW228334   5.363   9.836   1.443
 9362SOL     OW28335   2.654  10.427   3.652
 9362SOL    HW128336   2.694  10.476   3.724
 9362SOL    HW228337   2.693  10.339   3.658
 9363SOL     OW28338   3.278  11.639   1.346
 9363SOL    HW128339   3.261   0.933   1.281
 9363SOL    HW228340   3.190  11.612   1.374
 9364SOL     OW28341   4.662   9.742   6.286
 9364SOL    HW128342   4.582   9.692   6.300
 9364SOL    HW228343   4.636   9.813   6.227
 9365SOL     OW28344   3.861   7.368   1.603
 9365SOL    HW128345   3.828   7.456   1.617
 9365SOL    HW228346   3.920   7.352   1.676
 9366SOL     OW28347   8.323   5.469   2.616
 9366SOL    HW128348   8.321   5.561   2.642
 9366SOL    HW228349   8.405   5.460   2.567
 9367SOL     OW28350   5.676  11.944   6.007
 9367SOL    HW128351   5.711  11.882   6.072
 9367SOL    HW228352   5.671  12.027   6.054
 9368SOL     OW28353  11.195  10.740   6.355
 9368SOL    HW128354  11.125  10.708   6.413
 9368SOL    HW228355  11.267  10.762   6.415
 9369SOL     OW28356  14.062   7.535   4.901
 9369SOL    HW128357  14.045   7.571   4.813
 9369SOL    HW228358  14.155   7.552   4.916
 9370SOL     OW28359  12.253  14.720   6.771
 9370SOL    HW128360  12.164  14.718   6.734
 9370SOL    HW228361  12.259  14.640   6.823
 9371SOL     OW28362  12.294   3.108   4.115
 9371SOL    HW128363  12.283   3.197   4.146
 9371SOL    HW228364  12.370   3.075   4.163
 9372SOL     OW28365  13.195   8.484   4.447
 9372SOL    HW128366  13.136   8.418   4.483
 9372SOL    HW228367  13.205   8.548   4.517
 9373SOL     OW28368   8.591   4.053   2.866
 9373SOL    HW128369   8.661   4.021   2.809
 9373SOL    HW228370   8.535   3.977   2.879
 9374SOL     OW28371  10.121   4.170   2.514
 9374SOL    HW128372  10.180   4.245   2.508
 9374SOL    HW228373  10.073   4.183   2.596
 9375SOL     OW28374   7.601  11.825   3.987
 9375SOL    HW128375   7.691  11.834   3.955
 9375SOL    HW228376   7.609  11.779   4.071
 9376SOL     OW28377   7.871   3.932   0.667
 9376SOL    HW128378   7.779   3.940   0.641
 9376SOL    HW228379   7.895   3.843   0.643
 9377SOL     OW28380  11.217   8.369   2.254
 9377SOL    HW128381  11.168   8.407   2.181
 9377SOL    HW228382  11.180   8.282   2.266
 9378SOL     OW28383   6.635   7.290   6.816
 9378SOL    HW128384   6.689   7.292   6.896
 9378SOL    HW228385   6.560   7.346   6.837
 9379SOL     OW28386   2.355   5.482   1.324
 9379SOL    HW128387   2.310   5.565   1.310
 9379SOL    HW228388   2.298   5.417   1.282
 9380SOL     OW28389  11.565  11.634   4.997
 9380SOL    HW128390  11.517  11.613   5.077
 9380SOL    HW228391  11.541  11.566   4.935
 9381SOL     OW28392   0.884  10.485   0.529
 9381SOL    HW128393   0.947  10.459   0.461
 9381SOL    HW228394   0.832  10.554   0.489
 9382SOL     OW28395   8.473   6.779   5.802
 9382SOL    HW128396   8.437   6.807   5.718
 9382SOL    HW228397   8.402   6.795   5.865
 9383SOL     OW28398   7.147   6.776   3.498
 9383SOL    HW128399   7.072   6.818   3.540
 9383SOL    HW228400   7.115   6.689   3.475
 9384SOL     OW28401  11.201   5.764   0.726
 9384SOL    HW128402  11.194   5.781   0.820
 9384SOL    HW228403  11.111   5.769   0.694
 9385SOL     OW28404   8.578   8.391   2.107
 9385SOL    HW128405   8.580   8.302   2.070
 9385SOL    HW228406   8.559   8.377   2.200
 9386SOL     OW28407  11.446   5.520   5.001
 9386SOL    HW128408  11.454   5.487   5.091
 9386SOL    HW228409  11.363   5.567   5.001
 9387SOL     OW28410  11.936  13.646   5.223
 9387SOL    HW128411  11.879  13.583   5.178
 9387SOL    HW228412  12.019  13.641   5.176
 9388SOL     OW28413   7.606   5.918   2.550
 9388SOL    HW128414   7.685   5.882   2.589
 9388SOL    HW228415   7.556   5.842   2.521
 9389SOL     OW28416   8.422   6.301   5.150
 9389SOL    HW128417   8.406   6.376   5.093
 9389SOL    HW228418   8.490   6.251   5.106
 9390SOL     OW28419   5.369   2.629   0.533
 9390SOL    HW128420   5.426   2.694   0.575
 9390SOL    HW228421   5.326   2.585   0.606
 9391SOL     OW28422   6.409  13.428   6.977
 9391SOL    HW128423   6.360  13.372   7.036
 9391SOL    HW228424   6.341  13.474   6.926
 9392SOL     OW28425   8.837   2.363   0.840
 9392SOL    HW128426   8.870   2.336   0.755
 9392SOL    HW228427   8.746   2.388   0.824
 9393SOL     OW28428   4.772   8.597   1.881
 9393SOL    HW128429   4.816   8.679   1.905
 9393SOL    HW228430   4.770   8.599   1.785
 9394SOL     OW28431   6.217  10.384   6.514
 9394SOL    HW128432   6.128  10.415   6.497
 9394SOL    HW228433   6.209  10.289   6.516
 9395SOL     OW28434  10.893   3.400   4.053
 9395SOL    HW128435  10.842   3.322   4.073
 9395SOL    HW228436  10.951   3.373   3.982
 9396SOL     OW28437   6.932  13.646   6.626
 9396SOL    HW128438   6.966  13.683   6.707
 9396SOL    HW228439   6.976  13.561   6.618
 9397SOL     OW28440  13.032  10.668   4.602
 9397SOL    HW128441  13.127  10.669   4.594
 9397SOL    HW228442  13.003  10.605   4.537
 9398SOL     OW28443  11.501   3.583   3.481
 9398SOL    HW128444  11.489   3.534   3.399
 9398SOL    HW228445  11.530   3.518   3.544
 9399SOL     OW28446   8.350   5.830   5.982
 9399SOL    HW128447   8.329   5.739   5.959
 9399SOL    HW228448   8.357   5.829   6.078
 9400SOL     OW28449   7.898   7.911   3.814
 9400SOL    HW128450   7.911   8.000   3.783
 9400SOL    HW228451   7.832   7.918   3.883
 9401SOL     OW28452   2.959   9.057   0.036
 9401SOL    HW128453   2.924   9.119   0.100
 9401SOL    HW228454   3.052   9.051   0.056
 9402SOL     OW28455   1.448   5.678   0.546
 9402SOL    HW128456   1.397   5.600   0.565
 9402SOL    HW228457   1.384   5.750   0.547
 9403SOL     OW28458   9.912  11.802   6.674
 9403SOL    HW128459   9.819  11.787   6.692
 9403SOL    HW228460   9.913  11.882   6.621
 9404SOL     OW28461   8.297  11.307   6.946
 9404SOL    HW128462   8.221  11.351   6.983
 9404SOL    HW228463   8.260  11.244   6.884
 9405SOL     OW28464   5.283   7.590   0.197
 9405SOL    HW128465   5.302   7.514   0.252
 9405SOL    HW228466   5.301   7.560   0.108
 9406SOL     OW28467   7.884   8.450   6.587
 9406SOL    HW128468   7.837   8.466   6.669
 9406SOL    HW228469   7.840   8.373   6.549
 9407SOL     OW28470  15.506   7.807   7.587
 9407SOL    HW128471  15.461   7.862   7.524
 9407SOL    HW228472  15.599   7.828   7.576
 9408SOL     OW28473   4.510   3.356   0.537
 9408SOL    HW128474   4.595   3.399   0.547
 9408SOL    HW228475   4.481   3.340   0.627
 9409SOL     OW28476   3.629   9.151   3.375
 9409SOL    HW128477   3.630   9.161   3.280
 9409SOL    HW228478   3.720   9.131   3.398
 9410SOL     OW28479   6.885   4.948   0.381
 9410SOL    HW128480   6.925   4.882   0.325
 9410SOL    HW228481   6.819   4.990   0.325
 9411SOL     OW28482   6.146   4.284   4.457
 9411SOL    HW128483   6.196   4.254   4.381
 9411SOL    HW228484   6.204   4.267   4.531
 9412SOL     OW28485  10.859  10.411   7.414
 9412SOL    HW128486  10.913  10.340   7.446
 9412SOL    HW228487  10.776  10.402   7.461
 9413SOL     OW28488   1.391  10.294   1.672
 9413SOL    HW128489   1.301  10.323   1.686
 9413SOL    HW228490   1.443  10.374   1.674
 9414SOL     OW28491  10.832   5.733   0.414
 9414SOL    HW128492  10.762   5.713   0.477
 9414SOL    HW228493  10.894   5.786   0.464
 9415SOL     OW28494  13.942  13.296   6.803
 9415SOL    HW128495  14.023  13.299   6.751
 9415SOL    HW228496  13.957  13.356   6.876
 9416SOL     OW28497  10.788  14.290   5.562
 9416SOL    HW128498  10.803  14.371   5.610
 9416SOL    HW228499  10.875  14.259   5.538
 9417SOL     OW28500  10.890   1.191   1.540
 9417SOL    HW128501  10.807   1.143   1.538
 9417SOL    HW228502  10.942   1.145   1.606
 9418SOL     OW28503   9.742  10.404   7.305
 9418SOL    HW128504   9.814  10.465   7.288
 9418SOL    HW228505   9.707  10.432   7.390
 9419SOL     OW28506   4.252   5.104   2.063
 9419SOL    HW128507   4.288   5.191   2.046
 9419SOL    HW228508   4.328   5.051   2.086
 9420SOL     OW28509   3.575   1.829   0.408
 9420SOL    HW128510   3.527   1.905   0.375
 9420SOL    HW228511   3.507   1.767   0.434
 9421SOL     OW28512   3.881  11.695   1.747
 9421SOL    HW128513   3.884  11.601   1.728
 9421SOL    HW228514   3.949  11.708   1.813
 9422SOL     OW28515   5.472   8.242   5.557
 9422SOL    HW128516   5.482   8.333   5.527
 9422SOL    HW228517   5.512   8.241   5.644
 9423SOL     OW28518   6.965  11.457   1.000
 9423SOL    HW128519   6.988  11.487   1.088
 9423SOL    HW228520   7.049  11.435   0.959
 9424SOL     OW28521  12.692   9.961   4.854
 9424SOL    HW128522  12.606   9.973   4.815
 9424SOL    HW228523  12.750   9.943   4.780
 9425SOL     OW28524  15.793   5.465   7.306
 9425SOL    HW128525  15.748   5.382   7.294
 9425SOL    HW228526  15.837   5.481   7.222
 9426SOL     OW28527  14.590  11.152   6.318
 9426SOL    HW128528  14.551  11.239   6.308
 9426SOL    HW228529  14.552  11.118   6.398
 9427SOL     OW28530  13.939   6.858   5.258
 9427SOL    HW128531  13.931   6.763   5.263
 9427SOL    HW228532  13.906   6.879   5.170
 9428SOL     OW28533   8.927   5.916   1.252
 9428SOL    HW128534   8.889   5.865   1.181
 9428SOL    HW228535   8.975   5.986   1.208
 9429SOL     OW28536   3.844  11.491   2.364
 9429SOL    HW128537   3.821  11.549   2.436
 9429SOL    HW228538   3.809  11.406   2.391
 9430SOL     OW28539   5.715   8.063   3.959
 9430SOL    HW128540   5.807   8.090   3.958
 9430SOL    HW228541   5.684   8.088   4.046
 9431SOL     OW28542   6.085   6.817   5.357
 9431SOL    HW128543   6.050   6.790   5.441
 9431SOL    HW228544   6.153   6.881   5.378
 9432SOL     OW28545  14.140   8.108   6.586
 9432SOL    HW128546  14.097   8.187   6.619
 9432SOL    HW228547  14.225   8.106   6.630
 9433SOL     OW28548  12.161   7.419   2.960
 9433SOL    HW128549  12.166   7.497   2.904
 9433SOL    HW228550  12.098   7.443   3.028
 9434SOL     OW28551  10.717   9.100   3.584
 9434SOL    HW128552  10.725   9.144   3.499
 9434SOL    HW228553  10.643   9.040   3.573
 9435SOL     OW28554  13.183  10.469   4.223
 9435SOL    HW128555  13.135  10.395   4.260
 9435SOL    HW228556  13.274  10.455   4.252
 9436SOL     OW28557   9.039   9.447   2.888
 9436SOL    HW128558   8.961   9.412   2.844
 9436SOL    HW228559   9.040   9.405   2.974
 9437SOL     OW28560   3.407   7.212   3.649
 9437SOL    HW128561   3.408   7.199   3.744
 9437SOL    HW228562   3.369   7.132   3.613
 9438SOL     OW28563  13.023  13.460   4.103
 9438SOL    HW128564  13.116  13.478   4.116
 9438SOL    HW228565  12.981  13.546   4.112
 9439SOL     OW28566  13.600  11.983   7.127
 9439SOL    HW128567  13.688  11.999   7.095
 9439SOL    HW228568  13.596  11.888   7.139
 9440SOL     OW28569   4.613   7.982   4.259
 9440SOL    HW128570   4.704   7.954   4.248
 9440SOL    HW228571   4.562   7.901   4.247
 9441SOL     OW28572  13.085  12.433   3.888
 9441SOL    HW128573  13.014  12.472   3.836
 9441SOL    HW228574  13.056  12.343   3.905
 9442SOL     OW28575   4.568  10.227   6.198
 9442SOL    HW128576   4.632  10.208   6.267
 9442SOL    HW228577   4.576  10.153   6.137
 9443SOL     OW28578   5.296   7.669   6.476
 9443SOL    HW128579   5.362   7.739   6.478
 9443SOL    HW228580   5.343   7.591   6.504
 9444SOL     OW28581  11.163   9.675   1.302
 9444SOL    HW128582  11.098   9.724   1.251
 9444SOL    HW228583  11.178   9.729   1.379
 9445SOL     OW28584   4.343   7.440   3.853
 9445SOL    HW128585   4.367   7.450   3.761
 9445SOL    HW228586   4.247   7.442   3.853
 9446SOL     OW28587   2.081   7.697   1.348
 9446SOL    HW128588   2.070   7.759   1.276
 9446SOL    HW228589   1.992   7.673   1.373
 9447SOL     OW28590   2.273  10.351   1.679
 9447SOL    HW128591   2.178  10.348   1.662
 9447SOL    HW228592   2.310  10.288   1.618
 9448SOL     OW28593   5.520  10.547   5.471
 9448SOL    HW128594   5.464  10.472   5.454
 9448SOL    HW228595   5.549  10.575   5.384
 9449SOL     OW28596   8.773   9.399   1.014
 9449SOL    HW128597   8.820   9.343   1.076
 9449SOL    HW228598   8.730   9.338   0.955
 9450SOL     OW28599   8.298   9.228   5.397
 9450SOL    HW128600   8.298   9.250   5.491
 9450SOL    HW228601   8.315   9.134   5.394
 9451SOL     OW28602  11.736  10.538   4.367
 9451SOL    HW128603  11.731  10.474   4.438
 9451SOL    HW228604  11.646  10.546   4.335
 9452SOL     OW28605   9.633   8.447   2.135
 9452SOL    HW128606   9.708   8.492   2.098
 9452SOL    HW228607   9.557   8.498   2.105
 9453SOL     OW28608  10.937  12.623   7.200
 9453SOL    HW128609  10.927  12.559   7.271
 9453SOL    HW228610  10.860  12.679   7.208
 9454SOL     OW28611   9.733   5.331   2.465
 9454SOL    HW128612   9.666   5.370   2.408
 9454SOL    HW228613   9.692   5.331   2.552
 9455SOL     OW28614  13.324  12.416   4.499
 9455SOL    HW128615  13.372  12.341   4.465
 9455SOL    HW228616  13.262  12.439   4.430
 9456SOL     OW28617   3.869   7.147   2.334
 9456SOL    HW128618   3.921   7.160   2.254
 9456SOL    HW228619   3.779   7.138   2.303
 9457SOL     OW28620  10.083   4.368   5.840
 9457SOL    HW128621   9.989   4.353   5.846
 9457SOL    HW228622  10.108   4.397   5.928
 9458SOL     OW28623   7.721   4.460   4.514
 9458SOL    HW128624   7.694   4.495   4.599
 9458SOL    HW228625   7.661   4.501   4.452
 9459SOL     OW28626   6.349   8.372   0.116
 9459SOL    HW128627   6.421   8.425   0.150
 9459SOL    HW228628   6.284   8.436   0.088
 9460SOL     OW28629  15.143  11.484   6.871
 9460SOL    HW128630  15.101  11.400   6.854
 9460SOL    HW228631  15.215  11.463   6.930
 9461SOL     OW28632   4.514   4.800   3.773
 9461SOL    HW128633   4.469   4.857   3.711
 9461SOL    HW228634   4.455   4.794   3.848
 9462SOL     OW28635   7.903  12.663   6.643
 9462SOL    HW128636   7.964  12.690   6.574
 9462SOL    HW228637   7.957  12.660   6.722
 9463SOL     OW28638   7.362   9.979   2.525
 9463SOL    HW128639   7.381   9.887   2.504
 9463SOL    HW228640   7.290  10.002   2.467
 9464SOL     OW28641  14.631  12.694   6.935
 9464SOL    HW128642  14.629  12.618   6.993
 9464SOL    HW228643  14.721  12.698   6.903
 9465SOL     OW28644  12.724   7.229   5.927
 9465SOL    HW128645  12.768   7.168   5.868
 9465SOL    HW228646  12.652   7.265   5.876
 9466SOL     OW28647   9.690   8.268   7.454
 9466SOL    HW128648   9.743   8.188   7.464
 9466SOL    HW228649   9.624   8.244   7.389
 9467SOL     OW28650   2.685   9.825   1.198
 9467SOL    HW128651   2.723   9.913   1.196
 9467SOL    HW228652   2.596   9.837   1.165
 9468SOL     OW28653   6.628   1.415   1.407
 9468SOL    HW128654   6.547   1.384   1.449
 9468SOL    HW228655   6.656   1.488   1.462
 9469SOL     OW28656  12.561   4.682   4.410
 9469SOL    HW128657  12.647   4.661   4.374
 9469SOL    HW228658  12.561   4.778   4.416
 9470SOL     OW28659   7.073  15.284   7.299
 9470SOL    HW128660   7.077  15.354   7.235
 9470SOL    HW228661   6.998  15.305   7.354
 9471SOL     OW28662  14.922  12.073   6.433
 9471SOL    HW128663  14.834  12.047   6.407
 9471SOL    HW228664  14.949  12.005   6.495
 9472SOL     OW28665  11.709   7.473   4.587
 9472SOL    HW128666  11.678   7.412   4.654
 9472SOL    HW228667  11.795   7.501   4.617
 9473SOL     OW28668  13.412   4.269   4.059
 9473SOL    HW128669  13.438   4.259   3.967
 9473SOL    HW228670  13.401   4.179   4.090
 9474SOL     OW28671   3.590   9.660   3.623
 9474SOL    HW128672   3.630   9.715   3.556
 9474SOL    HW228673   3.662   9.634   3.680
 9475SOL     OW28674   4.446   2.820   2.592
 9475SOL    HW128675   4.468   2.842   2.502
 9475SOL    HW228676   4.418   2.729   2.588
 9476SOL     OW28677   9.850  10.385   1.637
 9476SOL    HW128678   9.852  10.291   1.617
 9476SOL    HW228679   9.760  10.411   1.619
 9477SOL     OW28680   6.823  12.192   7.213
 9477SOL    HW128681   6.849  12.129   7.280
 9477SOL    HW228682   6.743  12.232   7.247
 9478SOL     OW28683   7.563  12.722   3.215
 9478SOL    HW128684   7.614  12.796   3.248
 9478SOL    HW228685   7.578  12.722   3.121
 9479SOL     OW28686   3.321   6.395   4.518
 9479SOL    HW128687   3.393   6.428   4.572
 9479SOL    HW228688   3.247   6.387   4.579
 9480SOL     OW28689   4.079   5.654   1.665
 9480SOL    HW128690   4.047   5.680   1.579
 9480SOL    HW228691   4.092   5.736   1.712
 9481SOL     OW28692  11.871  10.276   1.751
 9481SOL    HW128693  11.884  10.223   1.829
 9481SOL    HW228694  11.893  10.365   1.778
 9482SOL     OW28695   7.928  10.099   2.016
 9482SOL    HW128696   7.936  10.098   1.921
 9482SOL    HW228697   7.867  10.171   2.034
 9483SOL     OW28698   8.265   6.115   7.337
 9483SOL    HW128699   8.240   6.094   7.248
 9483SOL    HW228700   8.184   6.108   7.388
 9484SOL     OW28701   9.935  12.222   3.942
 9484SOL    HW128702   9.843  12.250   3.939
 9484SOL    HW228703   9.933  12.143   3.996
 9485SOL     OW28704  12.004  12.045   2.275
 9485SOL    HW128705  12.062  12.107   2.230
 9485SOL    HW228706  12.064  11.982   2.316
 9486SOL     OW28707  10.901   5.151   3.534
 9486SOL    HW128708  10.930   5.153   3.443
 9486SOL    HW228709  10.882   5.242   3.556
 9487SOL     OW28710  11.293   7.408   7.443
 9487SOL    HW128711  11.224   7.429   7.380
 9487SOL    HW228712  11.285   7.313   7.456
 9488SOL     OW28713  12.715   5.546   7.128
 9488SOL    HW128714  12.626   5.577   7.112
 9488SOL    HW228715  12.765   5.578   7.052
 9489SOL     OW28716  11.649  13.448   4.098
 9489SOL    HW128717  11.684  13.527   4.056
 9489SOL    HW228718  11.719  13.420   4.157
 9490SOL     OW28719   3.422   9.573   2.343
 9490SOL    HW128720   3.419   9.620   2.259
 9490SOL    HW228721   3.494   9.511   2.333
 9491SOL     OW28722   8.616  10.397   2.837
 9491SOL    HW128723   8.598  10.378   2.929
 9491SOL    HW228724   8.633  10.312   2.797
 9492SOL     OW28725   8.629   5.795   0.256
 9492SOL    HW128726   8.628   5.833   0.344
 9492SOL    HW228727   8.722   5.781   0.238
 9493SOL     OW28728   5.169  10.118   4.200
 9493SOL    HW128729   5.221  10.193   4.173
 9493SOL    HW228730   5.098  10.156   4.252
 9494SOL     OW28731   3.766  10.542   0.352
 9494SOL    HW128732   3.805  10.612   0.300
 9494SOL    HW228733   3.725  10.587   0.426
 9495SOL     OW28734   8.103   6.169   3.554
 9495SOL    HW128735   8.053   6.249   3.567
 9495SOL    HW228736   8.176   6.176   3.616
 9496SOL     OW28737   1.242  10.651   1.165
 9496SOL    HW128738   1.254  10.572   1.217
 9496SOL    HW228739   1.298  10.716   1.207
 9497SOL     OW28740  11.123  13.507   5.502
 9497SOL    HW128741  11.072  13.458   5.437
 9497SOL    HW228742  11.214  13.484   5.484
 9498SOL     OW28743   6.658   4.825   5.643
 9498SOL    HW128744   6.726   4.887   5.618
 9498SOL    HW228745   6.617   4.864   5.720
 9499SOL     OW28746   6.643  10.893   4.184
 9499SOL    HW128747   6.647  10.819   4.123
 9499SOL    HW228748   6.610  10.856   4.265
 9500SOL     OW28749   3.520  12.294   4.120
 9500SOL    HW128750   3.477  12.319   4.039
 9500SOL    HW228751   3.601  12.251   4.093
 9501SOL     OW28752   7.291   4.895   0.798
 9501SOL    HW128753   7.308   4.810   0.757
 9501SOL    HW228754   7.262   4.873   0.887
 9502SOL     OW28755   7.005   9.379   5.541
 9502SOL    HW128756   6.975   9.349   5.627
 9502SOL    HW228757   7.048   9.302   5.502
 9503SOL     OW28758   8.045   4.738   0.521
 9503SOL    HW128759   8.029   4.671   0.588
 9503SOL    HW228760   8.109   4.797   0.561
 9504SOL     OW28761   1.221   4.888   0.001
 9504SOL    HW128762   6.600  10.369   7.603
 9504SOL    HW228763   1.269   4.882   0.083
 9505SOL     OW28764   9.409  13.351   5.747
 9505SOL    HW128765   9.323  13.311   5.763
 9505SOL    HW228766   9.402  13.438   5.785
 9506SOL     OW28767  10.824  14.209   6.892
 9506SOL    HW128768  10.902  14.218   6.836
 9506SOL    HW228769  10.762  14.159   6.838
 9507SOL     OW28770   2.351  10.075   0.436
 9507SOL    HW128771   2.430  10.028   0.410
 9507SOL    HW228772   2.281  10.011   0.425
 9508SOL     OW28773   7.217   9.824   6.043
 9508SOL    HW128774   7.277   9.756   6.013
 9508SOL    HW228775   7.270   9.880   6.100
 9509SOL     OW28776   8.641   5.697   4.548
 9509SOL    HW128777   8.584   5.746   4.607
 9509SOL    HW228778   8.595   5.615   4.533
 9510SOL     OW28779  10.543  11.116   2.035
 9510SOL    HW128780  10.582  11.172   2.103
 9510SOL    HW228781  10.617  11.093   1.979
 9511SOL     OW28782   5.904  13.286   6.092
 9511SOL    HW128783   5.973  13.344   6.061
 9511SOL    HW228784   5.826  13.342   6.095
 9512SOL     OW28785  10.961   5.482   4.226
 9512SOL    HW128786  10.951   5.522   4.139
 9512SOL    HW228787  11.046   5.513   4.257
 9513SOL     OW28788   7.253   7.300   0.513
 9513SOL    HW128789   7.296   7.221   0.480
 9513SOL    HW228790   7.178   7.268   0.563
 9514SOL     OW28791   7.851   8.107   1.762
 9514SOL    HW128792   7.823   8.022   1.729
 9514SOL    HW228793   7.816   8.112   1.851
 9515SOL     OW28794   3.669   5.040   0.441
 9515SOL    HW128795   3.691   5.010   0.529
 9515SOL    HW228796   3.654   5.134   0.450
 9516SOL     OW28797  11.877   7.114   2.164
 9516SOL    HW128798  11.817   7.180   2.200
 9516SOL    HW228799  11.854   7.033   2.211
 9517SOL     OW28800   8.342  10.280   6.553
 9517SOL    HW128801   8.328  10.279   6.458
 9517SOL    HW228802   8.309  10.366   6.581
 9518SOL     OW28803   4.698   5.768   4.424
 9518SOL    HW128804   4.739   5.717   4.354
 9518SOL    HW228805   4.750   5.849   4.427
 9519SOL     OW28806   3.766  10.452   1.139
 9519SOL    HW128807   3.775  10.490   1.051
 9519SOL    HW228808   3.804  10.365   1.132
 9520SOL     OW28809   3.583  10.783   2.833
 9520SOL    HW128810   3.622  10.866   2.859
 9520SOL    HW228811   3.491  10.804   2.818
 9521SOL     OW28812  10.451   6.203   5.755
 9521SOL    HW128813  10.390   6.231   5.687
 9521SOL    HW228814  10.403   6.218   5.837
 9522SOL     OW28815   8.093   2.572   3.398
 9522SOL    HW128816   8.135   2.556   3.313
 9522SOL    HW228817   8.158   2.547   3.463
 9523SOL     OW28818  11.986  12.312   5.999
 9523SOL    HW128819  11.997  12.276   5.911
 9523SOL    HW228820  12.012  12.240   6.057
 9524SOL     OW28821   7.893   6.458   2.216
 9524SOL    HW128822   7.870   6.445   2.124
 9524SOL    HW228823   7.823   6.513   2.251
 9525SOL     OW28824  11.657   8.017   1.678
 9525SOL    HW128825  11.684   7.962   1.604
 9525SOL    HW228826  11.709   7.985   1.751
 9526SOL     OW28827   2.145   5.271   1.541
 9526SOL    HW128828   2.134   5.310   1.454
 9526SOL    HW228829   2.080   5.315   1.595
 9527SOL     OW28830   5.757   7.364   1.119
 9527SOL    HW128831   5.740   7.426   1.191
 9527SOL    HW228832   5.785   7.419   1.046
 9528SOL     OW28833  14.831   7.129   6.574
 9528SOL    HW128834  14.890   7.163   6.641
 9528SOL    HW228835  14.818   7.201   6.514
 9529SOL     OW28836   7.482   7.905   7.025
 9529SOL    HW128837   7.517   7.968   7.089
 9529SOL    HW228838   7.558   7.879   6.973
 9530SOL     OW28839  13.076  10.342   3.889
 9530SOL    HW128840  13.053  10.403   3.959
 9530SOL    HW228841  13.148  10.385   3.843
 9531SOL     OW28842   3.419  10.010   1.981
 9531SOL    HW128843   3.479   9.988   2.052
 9531SOL    HW228844   3.350  10.061   2.022
 9532SOL     OW28845  10.250   8.176   0.160
 9532SOL    HW128846  10.157   8.160   0.171
 9532SOL    HW228847  10.289   8.088   0.155
 9533SOL     OW28848   5.742   3.615   2.772
 9533SOL    HW128849   5.650   3.593   2.787
 9533SOL    HW228850   5.740   3.703   2.734
 9534SOL     OW28851   4.977  14.884   6.825
 9534SOL    HW128852   5.056  14.885   6.772
 9534SOL    HW228853   5.002  14.929   6.906
 9535SOL     OW28854   4.866   3.220   0.612
 9535SOL    HW128855   4.872   3.185   0.523
 9535SOL    HW228856   4.866   3.315   0.601
 9536SOL     OW28857   6.229   6.088   4.012
 9536SOL    HW128858   6.216   6.016   4.074
 9536SOL    HW228859   6.163   6.153   4.037
 9537SOL     OW28860   4.900   3.519   2.431
 9537SOL    HW128861   4.921   3.577   2.504
 9537SOL    HW228862   4.983   3.510   2.384
 9538SOL     OW28863   6.077   7.311   2.039
 9538SOL    HW128864   6.018   7.318   1.964
 9538SOL    HW228865   6.027   7.347   2.112
 9539SOL     OW28866  11.391   9.744   2.750
 9539SOL    HW128867  11.437   9.677   2.700
 9539SOL    HW228868  11.461   9.801   2.783
 9540SOL     OW28869   3.296  12.957   3.764
 9540SOL    HW128870   3.376  12.933   3.717
 9540SOL    HW228871   3.226  12.915   3.715
 9541SOL     OW28872   3.347   8.571   2.874
 9541SOL    HW128873   3.402   8.627   2.929
 9541SOL    HW228874   3.259   8.582   2.908
 9542SOL     OW28875  12.082   7.983   5.371
 9542SOL    HW128876  12.176   7.997   5.359
 9542SOL    HW228877  12.045   8.070   5.380
 9543SOL     OW28878   6.831   7.817   0.403
 9543SOL    HW128879   6.915   7.850   0.371
 9543SOL    HW228880   6.806   7.877   0.473
 9544SOL     OW28881   9.169  13.957   5.397
 9544SOL    HW128882   9.161  14.011   5.319
 9544SOL    HW228883   9.260  13.926   5.395
 9545SOL     OW28884   8.306  12.916   6.001
 9545SOL    HW128885   8.220  12.875   6.007
 9545SOL    HW228886   8.350  12.893   6.083
 9546SOL     OW28887   4.258   4.557   4.719
 9546SOL    HW128888   4.166   4.557   4.694
 9546SOL    HW228889   4.302   4.509   4.649
 9547SOL     OW28890   8.256   7.673   4.055
 9547SOL    HW128891   8.277   7.758   4.094
 9547SOL    HW228892   8.330   7.654   3.997
 9548SOL     OW28893   5.612   7.952   4.320
 9548SOL    HW128894   5.528   7.947   4.274
 9548SOL    HW228895   5.661   7.876   4.289
 9549SOL     OW28896   0.199   6.939   0.237
 9549SOL    HW128897   0.286   6.902   0.254
 9549SOL    HW228898   0.216   7.028   0.207
 9550SOL     OW28899  13.223   6.557   7.591
 9550SOL    HW128900  13.190   6.603   7.514
 9550SOL    HW228901  13.190   6.468   7.582
 9551SOL     OW28902   4.877   9.109   1.783
 9551SOL    HW128903   4.894   9.191   1.829
 9551SOL    HW228904   4.782   9.098   1.787
 9552SOL     OW28905   5.018   1.823   0.984
 9552SOL    HW128906   4.936   1.792   1.024
 9552SOL    HW228907   5.034   1.761   0.913
 9553SOL     OW28908   5.675  15.804   7.301
 9553SOL    HW128909   5.679  15.893   7.336
 9553SOL    HW228910   5.662  15.748   7.378
 9554SOL     OW28911   6.977   5.834   1.753
 9554SOL    HW128912   7.003   5.800   1.667
 9554SOL    HW228913   6.881   5.836   1.750
 9555SOL     OW28914  12.710  14.360   7.368
 9555SOL    HW128915  12.635  14.313   7.405
 9555SOL    HW228916  12.726  14.431   7.430
 9556SOL     OW28917  15.760   8.337   7.530
 9556SOL    HW128918  15.758   8.411   7.469
 9556SOL    HW228919  15.832   8.283   7.500
 9557SOL     OW28920   9.363  15.262   7.173
 9557SOL    HW128921   9.404  15.335   7.219
 9557SOL    HW228922   9.432  15.196   7.165
 9558SOL     OW28923  12.238  11.406   5.731
 9558SOL    HW128924  12.290  11.487   5.728
 9558SOL    HW228925  12.175  11.415   5.660
 9559SOL     OW28926   9.404  10.418   2.243
 9559SOL    HW128927   9.402  10.503   2.198
 9559SOL    HW228928   9.408  10.354   2.172
 9560SOL     OW28929   2.381   5.159   1.437
 9560SOL    HW128930   2.332   5.129   1.361
 9560SOL    HW228931   2.320   5.218   1.483
 9561SOL     OW28932   4.237   9.568   5.415
 9561SOL    HW128933   4.326   9.596   5.393
 9561SOL    HW228934   4.190   9.568   5.332
 9562SOL     OW28935   7.124   9.462   1.233
 9562SOL    HW128936   7.169   9.427   1.155
 9562SOL    HW228937   7.188   9.520   1.274
 9563SOL     OW28938   8.702  11.621   3.175
 9563SOL    HW128939   8.795  11.622   3.194
 9563SOL    HW228940   8.682  11.530   3.155
 9564SOL     OW28941  11.313   7.728   3.777
 9564SOL    HW128942  11.398   7.686   3.764
 9564SOL    HW228943  11.258   7.693   3.707
 9565SOL     OW28944  11.531   7.510   1.849
 9565SOL    HW128945  11.600   7.448   1.873
 9565SOL    HW228946  11.554   7.537   1.760
 9566SOL     OW28947   6.838  10.059   7.121
 9566SOL    HW128948   6.801  10.070   7.034
 9566SOL    HW228949   6.932  10.055   7.107
 9567SOL     OW28950  13.870   8.806   6.276
 9567SOL    HW128951  13.900   8.833   6.190
 9567SOL    HW228952  13.778   8.781   6.263
 9568SOL     OW28953   1.491   2.176   1.992
 9568SOL    HW128954   1.449   2.240   1.935
 9568SOL    HW228955  12.193   2.122   2.025
 9569SOL     OW28956  10.039   6.632   0.847
 9569SOL    HW128957  10.111   6.570   0.858
 9569SOL    HW228958  10.062   6.706   0.904
 9570SOL     OW28959   6.149   8.766   2.622
 9570SOL    HW128960   6.114   8.719   2.697
 9570SOL    HW228961   6.169   8.698   2.558
 9571SOL     OW28962  12.645  10.373   4.906
 9571SOL    HW128963  12.628  10.464   4.928
 9571SOL    HW228964  12.698  10.339   4.979
 9572SOL     OW28965  13.994  15.103   7.584
 9572SOL    HW128966   8.534   9.756   0.013
 9572SOL    HW228967  13.966  15.105   7.493
 9573SOL     OW28968   3.910  12.111   4.802
 9573SOL    HW128969   3.987  12.129   4.856
 9573SOL    HW228970   3.913  12.016   4.787
 9574SOL     OW28971   4.785   8.330   4.217
 9574SOL    HW128972   4.750   8.247   4.186
 9574SOL    HW228973   4.830   8.308   4.299
 9575SOL     OW28974   8.323   7.779   1.044
 9575SOL    HW128975   8.416   7.776   1.026
 9575SOL    HW228976   8.303   7.873   1.054
 9576SOL     OW28977  10.882   2.468   2.488
 9576SOL    HW128978  10.840   2.402   2.433
 9576SOL    HW228979  10.945   2.418   2.541
 9577SOL     OW28980   8.763   2.877   3.161
 9577SOL    HW128981   8.714   2.809   3.115
 9577SOL    HW228982   8.844   2.834   3.189
 9578SOL     OW28983   3.198   6.270   4.285
 9578SOL    HW128984   3.251   6.319   4.348
 9578SOL    HW228985   3.162   6.198   4.336
 9579SOL     OW28986   7.279   9.042   7.550
 9579SOL    HW128987   7.368   9.027   7.520
 9579SOL    HW228988   7.280   9.131   7.588
 9580SOL     OW28989   8.485   3.373   0.619
 9580SOL    HW128990   8.549   3.443   0.619
 9580SOL    HW228991   8.485   3.339   0.709
 9581SOL     OW28992   6.322  15.024   6.972
 9581SOL    HW128993   6.289  14.984   6.892
 9581SOL    HW228994   6.256  15.090   6.994
 9582SOL     OW28995  11.181  10.413   6.220
 9582SOL    HW128996  11.117  10.378   6.157
 9582SOL    HW228997  11.266  10.397   6.178
 9583SOL     OW28998   9.616   5.373   1.597
 9583SOL    HW128999   9.539   5.316   1.605
 9583SOL    HW229000   9.617   5.399   1.505
 9584SOL     OW29001  12.737  14.715   7.605
 9584SOL    HW129002  12.745  14.620   7.597
 9584SOL    HW229003  12.706  14.744   7.520
 9585SOL     OW29004   4.426   9.612   5.741
 9585SOL    HW129005   4.420   9.688   5.684
 9585SOL    HW229006   4.504   9.565   5.710
 9586SOL     OW29007   6.470  13.275   4.252
 9586SOL    HW129008   6.526  13.267   4.175
 9586SOL    HW229009   6.526  13.251   4.326
 9587SOL     OW29010   4.635   6.643   2.482
 9587SOL    HW129011   4.649   6.628   2.389
 9587SOL    HW229012   4.569   6.578   2.507
 9588SOL     OW29013  10.055   4.231   1.164
 9588SOL    HW129014  10.099   4.307   1.127
 9588SOL    HW229015  10.126   4.168   1.178
 9589SOL     OW29016  12.643  10.965   6.284
 9589SOL    HW129017  12.558  10.919   6.288
 9589SOL    HW229018  12.669  10.974   6.375
 9590SOL     OW29019   5.906   4.513   3.950
 9590SOL    HW129020   5.828   4.529   3.896
 9590SOL    HW229021   5.959   4.452   3.899
 9591SOL     OW29022   0.635   0.994   0.754
 9591SOL    HW129023   0.574   1.044   0.699
 9591SOL    HW229024   0.716   0.991   0.703
 9592SOL     OW29025   9.336  10.337   4.443
 9592SOL    HW129026   9.411  10.281   4.462
 9592SOL    HW229027   9.370  10.426   4.447
 9593SOL     OW29028   2.505   6.012   3.454
 9593SOL    HW129029   2.493   6.084   3.391
 9593SOL    HW229030   2.580   6.039   3.507
 9594SOL     OW29031   7.622   6.610   2.262
 9594SOL    HW129032   7.535   6.594   2.226
 9594SOL    HW229033   7.678   6.623   2.185
 9595SOL     OW29034  13.072  14.618   7.538
 9595SOL    HW129035  13.032  14.700   7.568
 9595SOL    HW229036  13.081  14.630   7.443
 9596SOL     OW29037   6.286   7.586   2.381
 9596SOL    HW129038   6.374   7.614   2.358
 9596SOL    HW229039   6.241   7.665   2.408
 9597SOL     OW29040   5.509  11.140   6.460
 9597SOL    HW129041   5.544  11.066   6.509
 9597SOL    HW229042   5.502  11.107   6.370
 9598SOL     OW29043   4.807   7.975   6.383
 9598SOL    HW129044   4.818   8.015   6.297
 9598SOL    HW229045   4.823   8.046   6.445
 9599SOL     OW29046   6.267   4.658   2.098
 9599SOL    HW129047   6.254   4.567   2.123
 9599SOL    HW229048   6.283   4.656   2.004
 9600SOL     OW29049   9.228   7.229   4.768
 9600SOL    HW129050   9.306   7.249   4.717
 9600SOL    HW229051   9.259   7.174   4.840
 9601SOL     OW29052   9.874   6.431   4.943
 9601SOL    HW129053   9.913   6.408   5.027
 9601SOL    HW229054   9.884   6.526   4.937
 9602SOL     OW29055  10.014  15.650   7.357
 9602SOL    HW129056  10.073  15.699   7.414
 9602SOL    HW229057   9.939  15.627   7.413
 9603SOL     OW29058  10.580   9.479   2.864
 9603SOL    HW129059  10.586   9.436   2.950
 9603SOL    HW229060  10.633   9.425   2.806
 9604SOL     OW29061  10.107  13.019   6.726
 9604SOL    HW129062  10.120  13.113   6.738
 9604SOL    HW229063  10.013  13.010   6.708
 9605SOL     OW29064  10.591  11.264   6.471
 9605SOL    HW129065  10.585  11.265   6.566
 9605SOL    HW229066  10.614  11.354   6.448
 9606SOL     OW29067   2.800   8.801   3.255
 9606SOL    HW129068   2.872   8.851   3.216
 9606SOL    HW229069   2.805   8.715   3.215
 9607SOL     OW29070   7.758   8.352   3.843
 9607SOL    HW129071   7.851   8.343   3.863
 9607SOL    HW229072   7.751   8.327   3.751
 9608SOL     OW29073   8.486   1.361   0.335
 9608SOL    HW129074   8.517   1.273   0.356
 9608SOL    HW229075   8.507   1.372   0.242
 9609SOL     OW29076   1.640   1.390   0.848
 9609SOL    HW129077   1.687   1.447   0.787
 9609SOL    HW229078   1.644   1.303   0.807
 9610SOL     OW29079   6.242  10.632   3.143
 9610SOL    HW129080   6.284  10.686   3.076
 9610SOL    HW229081   6.287  10.548   3.138
 9611SOL     OW29082   9.486   5.440   5.844
 9611SOL    HW129083   9.503   5.530   5.817
 9611SOL    HW229084   9.475   5.392   5.762
 9612SOL     OW29085   8.642  12.147   7.336
 9612SOL    HW129086   8.596  12.099   7.404
 9612SOL    HW229087   8.714  12.090   7.309
 9613SOL     OW29088   5.719   7.861   1.367
 9613SOL    HW129089   5.713   7.949   1.332
 9613SOL    HW229090   5.633   7.844   1.407
 9614SOL     OW29091  10.273  14.918   7.004
 9614SOL    HW129092  10.287  14.913   7.098
 9614SOL    HW229093  10.300  15.007   6.981
 9615SOL     OW29094   7.075   9.440   7.122
 9615SOL    HW129095   7.071   9.438   7.026
 9615SOL    HW229096   7.123   9.521   7.143
 9616SOL     OW29097   8.543   8.291   0.517
 9616SOL    HW129098   8.606   8.349   0.475
 9616SOL    HW229099   8.596   8.217   0.548
 9617SOL     OW29100   8.630   6.722   6.895
 9617SOL    HW129101   8.602   6.806   6.931
 9617SOL    HW229102   8.610   6.659   6.964
 9618SOL     OW29103  14.346  15.390   6.715
 9618SOL    HW129104  14.344  15.467   6.773
 9618SOL    HW229105  14.261  15.392   6.670
 9619SOL     OW29106   5.989   6.285   0.125
 9619SOL    HW129107   5.956   6.246   0.044
 9619SOL    HW229108   6.074   6.323   0.100
 9620SOL     OW29109  14.597   6.531   5.786
 9620SOL    HW129110  14.672   6.575   5.746
 9620SOL    HW229111  14.572   6.464   5.722
 9621SOL     OW29112  11.220   3.318   2.762
 9621SOL    HW129113  11.137   3.272   2.745
 9621SOL    HW229114  11.207   3.405   2.724
 9622SOL     OW29115   8.256   5.540   7.031
 9622SOL    HW129116   8.237   5.491   7.112
 9622SOL    HW229117   8.236   5.478   6.961
 9623SOL     OW29118   3.467  10.336   1.118
 9623SOL    HW129119   3.512  10.262   1.158
 9623SOL    HW229120   3.526  10.410   1.133
 9624SOL     OW29121  15.844  15.573   7.354
 9624SOL    HW129122  15.772  15.589   7.416
 9624SOL    HW229123  15.918  15.622   7.390
 9625SOL     OW29124   6.314  11.643   1.656
 9625SOL    HW129125   6.333  11.728   1.617
 9625SOL    HW229126   6.322  11.658   1.750
 9626SOL     OW29127  10.868  14.861   7.026
 9626SOL    HW129128  10.783  14.818   7.017
 9626SOL    HW229129  10.849  14.954   7.018
 9627SOL     OW29130  10.640  12.904   6.391
 9627SOL    HW129131  10.587  12.873   6.463
 9627SOL    HW229132  10.730  12.901   6.424
 9628SOL     OW29133  10.761  11.271   7.406
 9628SOL    HW129134  10.721  11.219   7.337
 9628SOL    HW229135  10.705  11.348   7.414
 9629SOL     OW29136  14.845  10.977   6.018
 9629SOL    HW129137  14.852  10.929   6.101
 9629SOL    HW229138  14.753  11.002   6.013
 9630SOL     OW29139  10.516   8.186   1.671
 9630SOL    HW129140  10.508   8.127   1.746
 9630SOL    HW229141  10.466   8.264   1.696
 9631SOL     OW29142  13.973  11.903   5.131
 9631SOL    HW129143  14.010  11.884   5.218
 9631SOL    HW229144  14.018  11.982   5.102
 9632SOL     OW29145   6.926   4.853   2.862
 9632SOL    HW129146   6.908   4.771   2.816
 9632SOL    HW229147   7.012   4.839   2.903
 9633SOL     OW29148   3.697  11.982   4.572
 9633SOL    HW129149   3.677  11.892   4.597
 9633SOL    HW229150   3.791  11.992   4.589
 9634SOL     OW29151   3.012   9.863   0.347
 9634SOL    HW129152   2.960   9.909   0.280
 9634SOL    HW229153   3.071   9.807   0.298
 9635SOL     OW29154   7.046  10.100   0.751
 9635SOL    HW129155   6.967  10.125   0.702
 9635SOL    HW229156   7.084  10.183   0.778
 9636SOL     OW29157   7.191   4.070   5.124
 9636SOL    HW129158   7.261   4.094   5.063
 9636SOL    HW229159   7.236   4.025   5.196
 9637SOL     OW29160  12.615  10.873   7.411
 9637SOL    HW129161  12.601  10.942   7.475
 9637SOL    HW229162  12.707  10.848   7.422
 9638SOL     OW29163   7.855   2.595   0.697
 9638SOL    HW129164   7.904   2.584   0.616
 9638SOL    HW229165   7.899   2.538   0.759
 9639SOL     OW29166   9.631   5.198   4.913
 9639SOL    HW129167   9.592   5.140   4.848
 9639SOL    HW229168   9.725   5.182   4.905
 9640SOL     OW29169   4.389   2.943   3.293
 9640SOL    HW129170   4.311   2.887   3.299
 9640SOL    HW229171   4.453   2.902   3.352
 9641SOL     OW29172   9.155  12.253   3.729
 9641SOL    HW129173   9.067  12.218   3.735
 9641SOL    HW229174   9.212  12.177   3.739
 9642SOL     OW29175   4.000   8.033   0.205
 9642SOL    HW129176   3.947   7.995   0.135
 9642SOL    HW229177   3.980   7.981   0.282
 9643SOL     OW29178  10.424   7.512   2.588
 9643SOL    HW129179  10.384   7.582   2.538
 9643SOL    HW229180  10.467   7.456   2.523
 9644SOL     OW29181   3.942  11.623   2.152
 9644SOL    HW129182   4.017  11.666   2.193
 9644SOL    HW229183   3.899  11.576   2.223
 9645SOL     OW29184   4.076   7.481   0.149
 9645SOL    HW129185   4.145   7.421   0.174
 9645SOL    HW229186   4.085   7.492   0.055
 9646SOL     OW29187   4.445   7.037   0.197
 9646SOL    HW129188   4.536   7.050   0.224
 9646SOL    HW229189   4.446   7.050   0.102
 9647SOL     OW29190   3.842   2.747   2.222
 9647SOL    HW129191   3.832   2.839   2.199
 9647SOL    HW229192   3.908   2.714   2.161
 9648SOL     OW29193   4.134   5.820   4.942
 9648SOL    HW129194   4.148   5.901   4.992
 9648SOL    HW229195   4.081   5.766   5.000
 9649SOL     OW29196   6.038  10.633   1.725
 9649SOL    HW129197   6.070  10.703   1.782
 9649SOL    HW229198   6.082  10.646   1.642
 9650SOL     OW29199   0.915   2.365   0.471
 9650SOL    HW129200   0.933   2.320   0.388
 9650SOL    HW229201   0.824   2.394   0.462
 9651SOL     OW29202   9.264   7.245   1.994
 9651SOL    HW129203   9.176   7.247   2.033
 9651SOL    HW229204   9.260   7.173   1.931
 9652SOL     OW29205   7.578   4.617   0.667
 9652SOL    HW129206   7.490   4.579   0.663
 9652SOL    HW229207   7.564   4.711   0.659
 9653SOL     OW29208   9.061   4.178   0.206
 9653SOL    HW129209   8.987   4.223   0.247
 9653SOL    HW229210   9.057   4.088   0.239
 9654SOL     OW29211   5.019   7.440   5.811
 9654SOL    HW129212   5.087   7.390   5.765
 9654SOL    HW229213   5.053   7.449   5.900
 9655SOL     OW29214  11.621   4.385   3.113
 9655SOL    HW129215  11.643   4.386   3.020
 9655SOL    HW229216  11.700   4.353   3.156
 9656SOL     OW29217  12.526   6.873   6.915
 9656SOL    HW129218  12.616   6.892   6.890
 9656SOL    HW229219  12.486   6.839   6.835
 9657SOL     OW29220  12.588   4.764   4.721
 9657SOL    HW129221  12.644   4.687   4.712
 9657SOL    HW229222  12.635   4.833   4.674
 9658SOL     OW29223   5.871  12.237   5.371
 9658SOL    HW129224   5.848  12.233   5.464
 9658SOL    HW229225   5.961  12.205   5.367
 9659SOL     OW29226   6.704  13.596   5.470
 9659SOL    HW129227   6.724  13.511   5.432
 9659SOL    HW229228   6.771  13.654   5.435
 9660SOL     OW29229   2.417   6.208   1.724
 9660SOL    HW129230   2.481   6.147   1.688
 9660SOL    HW229231   2.333   6.178   1.690
 9661SOL     OW29232   2.353   2.200   2.403
 9661SOL    HW129233   2.340   2.166   2.315
 9661SOL    HW229234   2.448   2.213   2.410
 9662SOL     OW29235   9.283  10.183   6.417
 9662SOL    HW129236   9.258  10.092   6.435
 9662SOL    HW229237   9.368  10.193   6.459
 9663SOL     OW29238   5.193   9.544   4.793
 9663SOL    HW129239   5.163   9.630   4.823
 9663SOL    HW229240   5.231   9.561   4.707
 9664SOL     OW29241   4.565   5.663   0.168
 9664SOL    HW129242   4.612   5.645   0.249
 9664SOL    HW229243   4.498   5.726   0.193
 9665SOL     OW29244  10.277  14.303   6.985
 9665SOL    HW129245  10.215  14.364   6.944
 9665SOL    HW229246  10.359  14.318   6.939
 9666SOL     OW29247   9.078   6.274   6.843
 9666SOL    HW129248   9.151   6.314   6.796
 9666SOL    HW229249   9.102   6.182   6.851
 9667SOL     OW29250  12.558  10.669   5.794
 9667SOL    HW129251  12.569  10.738   5.859
 9667SOL    HW229252  12.641  10.667   5.747
 9668SOL     OW29253   5.903   5.484   0.482
 9668SOL    HW129254   5.872   5.458   0.569
 9668SOL    HW229255   5.980   5.539   0.499
 9669SOL     OW29256   5.186   7.992   5.880
 9669SOL    HW129257   5.124   7.926   5.848
 9669SOL    HW229258   5.197   8.052   5.806
 9670SOL     OW29259   5.766   7.276   2.559
 9670SOL    HW129260   5.782   7.347   2.621
 9670SOL    HW229261   5.692   7.228   2.596
 9671SOL     OW29262   1.314   4.124   1.551
 9671SOL    HW129263   1.342   4.095   1.638
 9671SOL    HW229264   1.388   4.176   1.519
 9672SOL     OW29265   3.927   7.550   5.237
 9672SOL    HW129266   3.852   7.515   5.284
 9672SOL    HW229267   3.994   7.481   5.244
 9673SOL     OW29268   1.918   8.832   1.003
 9673SOL    HW129269   1.940   8.924   0.987
 9673SOL    HW229270   1.978   8.783   0.946
 9674SOL     OW29271  12.158   5.081   4.768
 9674SOL    HW129272  12.100   5.017   4.727
 9674SOL    HW229273  12.236   5.082   4.713
 9675SOL     OW29274  10.773   3.965   4.053
 9675SOL    HW129275  10.716   4.007   3.989
 9675SOL    HW229276  10.838   3.919   4.000
 9676SOL     OW29277  10.809  10.492   2.538
 9676SOL    HW129278  10.830  10.510   2.629
 9676SOL    HW229279  10.715  10.473   2.538
 9677SOL     OW29280  10.715  11.576   6.935
 9677SOL    HW129281  10.667  11.542   7.011
 9677SOL    HW229282  10.662  11.649   6.904
 9678SOL     OW29283   8.688   7.129   5.900
 9678SOL    HW129284   8.781   7.147   5.889
 9678SOL    HW229285   8.644   7.204   5.862
 9679SOL     OW29286   4.996   4.027   1.368
 9679SOL    HW129287   5.052   4.036   1.291
 9679SOL    HW229288   5.056   4.021   1.441
 9680SOL     OW29289   7.997  11.580   2.703
 9680SOL    HW129290   8.030  11.491   2.704
 9680SOL    HW229291   7.983  11.600   2.610
 9681SOL     OW29292   6.044  13.086   6.213
 9681SOL    HW129293   6.007  13.163   6.169
 9681SOL    HW229294   6.040  13.107   6.306
 9682SOL     OW29295   5.926   1.664   2.327
 9682SOL    HW129296   5.937   1.745   2.277
 9682SOL    HW229297   5.995  12.381   2.294
 9683SOL     OW29298  13.649  11.843   6.675
 9683SOL    HW129299  13.715  11.818   6.609
 9683SOL    HW229300  13.699  11.882   6.746
 9684SOL     OW29301   2.426   4.540   0.242
 9684SOL    HW129302   2.492   4.483   0.281
 9684SOL    HW229303   2.379   4.485   0.179
 9685SOL     OW29304  10.793   4.396   4.583
 9685SOL    HW129305  10.714   4.362   4.541
 9685SOL    HW229306  10.794   4.489   4.559
 9686SOL     OW29307   6.828  11.981   7.572
 9686SOL    HW129308   6.882  12.046   7.527
 9686SOL    HW229309   6.864  11.897   7.545
 9687SOL     OW29310   7.035  13.195   5.385
 9687SOL    HW129311   7.024  13.267   5.446
 9687SOL    HW229312   7.120  13.210   5.345
 9688SOL     OW29313   6.190   6.251   2.836
 9688SOL    HW129314   6.248   6.189   2.881
 9688SOL    HW229315   6.230   6.336   2.850
 9689SOL     OW29316   9.690   7.566   3.768
 9689SOL    HW129317   9.729   7.580   3.681
 9689SOL    HW229318   9.677   7.471   3.772
 9690SOL     OW29319   5.470  11.936   2.627
 9690SOL    HW129320   5.495  11.951   2.536
 9690SOL    HW229321   5.552  11.937   2.675
 9691SOL     OW29322   5.373   6.597   5.346
 9691SOL    HW129323   5.315   6.521   5.335
 9691SOL    HW229324   5.403   6.617   5.257
 9692SOL     OW29325   3.651   8.743   1.620
 9692SOL    HW129326   3.575   8.725   1.565
 9692SOL    HW229327   3.618   8.738   1.709
 9693SOL     OW29328   6.761   3.834   2.846
 9693SOL    HW129329   6.743   3.827   2.753
 9693SOL    HW229330   6.850   3.870   2.851
 9694SOL     OW29331   9.106  13.027   5.875
 9694SOL    HW129332   9.096  13.122   5.885
 9694SOL    HW229333   9.016  12.996   5.861
 9695SOL     OW29334  10.029   6.775   1.553
 9695SOL    HW129335   9.978   6.695   1.570
 9695SOL    HW229336  10.115   6.743   1.526
 9696SOL     OW29337  13.736   6.286   7.608
 9696SOL    HW129338   8.328   0.813   0.025
 9696SOL    HW229339   8.370   0.953   0.066
 9697SOL     OW29340  11.593   9.405   6.269
 9697SOL    HW129341  11.557   9.318   6.253
 9697SOL    HW229342  11.560   9.458   6.197
 9698SOL     OW29343   7.106  13.076   4.676
 9698SOL    HW129344   7.105  13.158   4.625
 9698SOL    HW229345   7.195  13.071   4.712
 9699SOL     OW29346  14.464   8.845   5.881
 9699SOL    HW129347  14.514   8.901   5.939
 9699SOL    HW229348  14.500   8.757   5.895
 9700SOL     OW29349  12.229  10.439   6.979
 9700SOL    HW129350  12.208  10.500   6.908
 9700SOL    HW229351  12.170  10.366   6.965
 9701SOL     OW29352  12.014  10.415   4.078
 9701SOL    HW129353  12.096  10.464   4.080
 9701SOL    HW229354  11.963  10.450   4.150
 9702SOL     OW29355   4.980   1.014   0.386
 9702SOL    HW129356   5.025   1.091   0.350
 9702SOL    HW229357   4.921   0.987   0.315
 9703SOL     OW29358  11.314   5.436   5.264
 9703SOL    HW129359  11.394   5.446   5.316
 9703SOL    HW229360  11.286   5.526   5.247
 9704SOL     OW29361   2.307   9.193   0.763
 9704SOL    HW129362   2.248   9.118   0.766
 9704SOL    HW229363   2.339   9.196   0.673
 9705SOL     OW29364  13.029   9.584   7.169
 9705SOL    HW129365  12.985   9.499   7.167
 9705SOL    HW229366  13.103   9.571   7.229
 9706SOL     OW29367  10.122  10.728   7.041
 9706SOL    HW129368  10.207  10.716   6.999
 9706SOL    HW229369  10.093  10.815   7.013
 9707SOL     OW29370   8.506  12.661   4.990
 9707SOL    HW129371   8.582  12.718   4.975
 9707SOL    HW229372   8.514  12.634   5.082
 9708SOL     OW29373  13.430   5.675   5.821
 9708SOL    HW129374  13.513   5.709   5.785
 9708SOL    HW229375  13.457   5.618   5.893
 9709SOL     OW29376   6.257   7.305   2.475
 9709SOL    HW129377   6.343   7.346   2.473
 9709SOL    HW229378   6.202   7.365   2.525
 9710SOL     OW29379   9.724   8.402   6.091
 9710SOL    HW129380   9.696   8.476   6.038
 9710SOL    HW229381   9.759   8.442   6.171
 9711SOL     OW29382   7.322  14.118   6.155
 9711SOL    HW129383   7.296  14.200   6.112
 9711SOL    HW229384   7.343  14.059   6.083
 9712SOL     OW29385   7.577   9.227   2.587
 9712SOL    HW129386   7.626   9.277   2.522
 9712SOL    HW229387   7.486   9.255   2.574
 9713SOL     OW29388   9.694   9.874   1.779
 9713SOL    HW129389   9.663   9.888   1.869
 9713SOL    HW229390   9.632   9.813   1.741
 9714SOL     OW29391  13.634   9.651   6.037
 9714SOL    HW129392  13.623   9.683   5.948
 9714SOL    HW229393  13.625   9.729   6.092
 9715SOL     OW29394  12.716  12.784   4.900
 9715SOL    HW129395  12.673  12.784   4.814
 9715SOL    HW229396  12.786  12.850   4.891
 9716SOL     OW29397   8.343  10.101   0.237
 9716SOL    HW129398   8.300  10.021   0.268
 9716SOL    HW229399   8.307  10.115   0.150
 9717SOL     OW29400   6.033  11.317   7.439
 9717SOL    HW129401   6.026  11.256   7.512
 9717SOL    HW229402   6.029  11.403   7.479
 9718SOL     OW29403   5.639   0.928   0.917
 9718SOL    HW129404   5.579   0.925   0.843
 9718SOL    HW229405   5.687   0.845   0.912
 9719SOL     OW29406   8.155   5.145   5.185
 9719SOL    HW129407   8.130   5.054   5.201
 9719SOL    HW229408   8.250   5.142   5.175
 9720SOL     OW29409   8.999   7.653   2.473
 9720SOL    HW129410   8.942   7.652   2.550
 9720SOL    HW229411   8.956   7.595   2.411
 9721SOL     OW29412   4.996   8.916   3.767
 9721SOL    HW129413   4.911   8.910   3.811
 9721SOL    HW229414   5.009   9.010   3.753
 9722SOL     OW29415   8.268   4.865   2.297
 9722SOL    HW129416   8.288   4.771   2.291
 9722SOL    HW229417   8.343   4.908   2.255
 9723SOL     OW29418   6.270   8.031   0.805
 9723SOL    HW129419   6.257   8.005   0.714
 9723SOL    HW229420   6.212   8.106   0.817
 9724SOL     OW29421   8.653   5.725   1.860
 9724SOL    HW129422   8.671   5.671   1.937
 9724SOL    HW229423   8.633   5.662   1.790
 9725SOL     OW29424  13.753   7.752   6.595
 9725SOL    HW129425  13.728   7.792   6.678
 9725SOL    HW229426  13.670   7.726   6.554
 9726SOL     OW29427   1.275   3.377   0.875
 9726SOL    HW129428   1.205   3.342   0.930
 9726SOL    HW229429   1.347   3.394   0.936
 9727SOL     OW29430  12.353  12.156   4.616
 9727SOL    HW129431  12.355  12.063   4.639
 9727SOL    HW229432  12.436  12.191   4.649
 9728SOL     OW29433   3.226  11.427   2.677
 9728SOL    HW129434   3.312  11.407   2.712
 9728SOL    HW229435   3.180  11.343   2.677
 9729SOL     OW29436  10.267   9.258   0.030
 9729SOL    HW129437  10.269   9.181   0.087
 9729SOL    HW229438  10.353   9.299   0.042
 9730SOL     OW29439   3.780   9.616   5.312
 9730SOL    HW129440  14.479   9.565   5.281
 9730SOL    HW229441   3.854   9.580   5.264
 9731SOL     OW29442  12.574   3.116   4.191
 9731SOL    HW129443  12.600   3.076   4.108
 9731SOL    HW229444  12.631   3.192   4.200
 9732SOL     OW29445   4.931  10.125   4.321
 9732SOL    HW129446   4.844  10.139   4.359
 9732SOL    HW229447   4.953  10.034   4.344
 9733SOL     OW29448  11.090  10.086   2.587
 9733SOL    HW129449  11.037  10.112   2.511
 9733SOL    HW229450  11.102  10.167   2.636
 9734SOL     OW29451   6.297   6.285   6.100
 9734SOL    HW129452   6.282   6.215   6.037
 9734SOL    HW229453   6.209   6.321   6.117
 9735SOL     OW29454   9.488   8.824   1.292
 9735SOL    HW129455   9.550   8.772   1.342
 9735SOL    HW229456   9.404   8.780   1.303
 9736SOL     OW29457  11.258   3.735   3.206
 9736SOL    HW129458  11.322   3.667   3.185
 9736SOL    HW229459  11.197   3.733   3.132
 9737SOL     OW29460   5.112  11.060   2.129
 9737SOL    HW129461   5.032  11.066   2.181
 9737SOL    HW229462   5.171  11.125   2.168
 9738SOL     OW29463   4.948  10.105   2.727
 9738SOL    HW129464   5.024  10.104   2.669
 9738SOL    HW229465   4.905  10.189   2.709
 9739SOL     OW29466   8.194  14.793   6.769
 9739SOL    HW129467   8.130  14.863   6.757
 9739SOL    HW229468   8.242  14.790   6.686
 9740SOL     OW29469   7.603  14.158   5.958
 9740SOL    HW129470   7.636  14.072   5.934
 9740SOL    HW229471   7.640  14.174   6.046
 9741SOL     OW29472   7.183  12.633   4.567
 9741SOL    HW129473   7.149  12.686   4.640
 9741SOL    HW229474   7.274  12.659   4.559
 9742SOL     OW29475   4.831   8.215   3.499
 9742SOL    HW129476   4.864   8.185   3.583
 9742SOL    HW229477   4.906   8.207   3.440
 9743SOL     OW29478   5.815  12.939   4.458
 9743SOL    HW129479   5.895  12.895   4.488
 9743SOL    HW229480   5.828  13.031   4.479
 9744SOL     OW29481  10.412  13.928   5.585
 9744SOL    HW129482  10.426  13.839   5.553
 9744SOL    HW229483  10.500  13.965   5.593
 9745SOL     OW29484   5.757   9.687   0.230
 9745SOL    HW129485   5.752   9.667   0.136
 9745SOL    HW229486   5.678   9.737   0.248
 9746SOL     OW29487   8.705   5.897   0.770
 9746SOL    HW129488   8.646   5.895   0.845
 9746SOL    HW229489   8.719   5.991   0.753
 9747SOL     OW29490   4.889   9.699   3.429
 9747SOL    HW129491   4.976   9.734   3.409
 9747SOL    HW229492   4.831   9.740   3.365
 9748SOL     OW29493   0.848   9.417   1.085
 9748SOL    HW129494   0.825   9.335   1.129
 9748SOL    HW229495   0.885   9.389   1.001
 9749SOL     OW29496  10.145  11.015   3.724
 9749SOL    HW129497  10.150  11.039   3.816
 9749SOL    HW229498  10.085  10.941   3.721
 9750SOL     OW29499   8.241   6.657   0.735
 9750SOL    HW129500   8.208   6.667   0.646
 9750SOL    HW229501   8.214   6.738   0.780
 9751SOL     OW29502   9.203  14.165   5.857
 9751SOL    HW129503   9.169  14.078   5.874
 9751SOL    HW229504   9.131  14.210   5.811
 9752SOL     OW29505   9.612   5.913   6.201
 9752SOL    HW129506   9.615   5.819   6.184
 9752SOL    HW229507   9.590   5.952   6.117
 9753SOL     OW29508   4.369   7.163   2.741
 9753SOL    HW129509   4.281   7.128   2.725
 9753SOL    HW229510   4.421   7.131   2.667
 9754SOL     OW29511   5.191  12.133   2.076
 9754SOL    HW129512   5.273  12.083   2.081
 9754SOL    HW229513   5.190  12.169   1.987
 9755SOL     OW29514  11.767   3.626   3.431
 9755SOL    HW129515  11.756   3.698   3.370
 9755SOL    HW229516  11.678   3.603   3.458
 9756SOL     OW29517   2.752   8.354   2.299
 9756SOL    HW129518   2.840   8.390   2.303
 9756SOL    HW229519   2.743   8.321   2.210
 9757SOL     OW29520  12.438  12.197   6.365
 9757SOL    HW129521  12.376  12.158   6.426
 9757SOL    HW229522  12.405  12.174   6.278
 9758SOL     OW29523  11.882  11.933   2.843
 9758SOL    HW129524  11.807  11.985   2.814
 9758SOL    HW229525  11.952  11.956   2.783
 9759SOL     OW29526  12.992  12.227   3.289
 9759SOL    HW129527  13.031  12.312   3.307
 9759SOL    HW229528  13.051  12.164   3.330
 9760SOL     OW29529  10.630   5.705   0.599
 9760SOL    HW129530  10.557   5.711   0.537
 9760SOL    HW229531  10.592   5.724   0.684
 9761SOL     OW29532   6.609   3.392   0.581
 9761SOL    HW129533   6.558   3.368   0.658
 9761SOL    HW229534   6.555   3.459   0.537
 9762SOL     OW29535   3.635   7.527   1.671
 9762SOL    HW129536   3.684   7.550   1.749
 9762SOL    HW229537   3.564   7.591   1.667
 9763SOL     OW29538   3.977  10.374   4.501
 9763SOL    HW129539   3.934  10.301   4.544
 9763SOL    HW229540   3.916  10.447   4.511
 9764SOL     OW29541   7.947   8.976   5.650
 9764SOL    HW129542   8.036   8.999   5.625
 9764SOL    HW229543   7.891   9.034   5.599
 9765SOL     OW29544   7.252   1.628   0.209
 9765SOL    HW129545   7.262   1.693   0.279
 9765SOL    HW229546   7.309   1.555   0.236
 9766SOL     OW29547  12.396  14.119   7.191
 9766SOL    HW129548  12.438  14.083   7.113
 9766SOL    HW229549  12.384  14.211   7.172
 9767SOL     OW29550   8.102  14.624   7.307
 9767SOL    HW129551   8.014  14.590   7.292
 9767SOL    HW229552   8.089  14.715   7.333
 9768SOL     OW29553   5.810   6.285   4.290
 9768SOL    HW129554   5.845   6.197   4.303
 9768SOL    HW229555   5.760   6.279   4.209
 9769SOL     OW29556  14.240   5.766   6.823
 9769SOL    HW129557  14.273   5.836   6.879
 9769SOL    HW229558  14.316   5.710   6.808
 9770SOL     OW29559   7.549  12.007   3.062
 9770SOL    HW129560   7.567  11.959   3.142
 9770SOL    HW229561   7.498  11.946   3.008
 9771SOL     OW29562   6.096   9.464   4.127
 9771SOL    HW129563   6.054   9.415   4.057
 9771SOL    HW229564   6.165   9.514   4.083
 9772SOL     OW29565  10.079   8.502   7.373
 9772SOL    HW129566  10.155   8.481   7.319
 9772SOL    HW229567  10.080   8.436   7.442
 9773SOL     OW29568   2.943   6.727   2.547
 9773SOL    HW129569   2.991   6.790   2.494
 9773SOL    HW229570   2.957   6.643   2.502
 9774SOL     OW29571   7.339   0.768   0.731
 9774SOL    HW129572   7.334   0.863   0.740
 9774SOL    HW229573   7.427   0.752   0.698
 9775SOL     OW29574   4.683  11.422   2.313
 9775SOL    HW129575   4.614  11.356   2.307
 9775SOL    HW229576   4.679  11.454   2.403
 9776SOL     OW29577   5.382   1.335   0.183
 9776SOL    HW129578   5.453   1.393   0.209
 9776SOL    HW229579   5.348   1.300   0.265
 9777SOL     OW29580   5.312   6.860   5.598
 9777SOL    HW129581   5.390   6.819   5.560
 9777SOL    HW229582   5.344   6.896   5.681
 9778SOL     OW29583   4.822   3.415   4.068
 9778SOL    HW129584   4.900   3.362   4.083
 9778SOL    HW229585   4.751   3.352   4.058
 9779SOL     OW29586   8.315   9.139   3.438
 9779SOL    HW129587   8.361   9.176   3.363
 9779SOL    HW229588   8.232   9.108   3.402
 9780SOL     OW29589  11.192   6.702   5.861
 9780SOL    HW129590  11.241   6.781   5.837
 9780SOL    HW229591  11.252   6.630   5.845
 9781SOL     OW29592   8.960  12.521   3.101
 9781SOL    HW129593   8.884  12.539   3.045
 9781SOL    HW229594   9.007  12.604   3.104
 9782SOL     OW29595  10.521   8.440   4.030
 9782SOL    HW129596  10.545   8.474   3.943
 9782SOL    HW229597  10.475   8.358   4.011
 9783SOL     OW29598  15.863   9.360   7.515
 9783SOL    HW129599  15.880   9.310   7.595
 9783SOL    HW229600  15.769   9.380   7.520
 9784SOL     OW29601   2.647   4.309   0.163
 9784SOL    HW129602   2.706   4.308   0.088
 9784SOL    HW229603   2.704   4.323   0.238
 9785SOL     OW29604  12.634  15.300   7.216
 9785SOL    HW129605  12.710  15.342   7.175
 9785SOL    HW229606  12.583  15.265   7.142
 9786SOL     OW29607  10.735   5.261   0.875
 9786SOL    HW129608  10.746   5.271   0.970
 9786SOL    HW229609  10.731   5.351   0.842
 9787SOL     OW29610  13.470   8.898   6.740
 9787SOL    HW129611  13.557   8.914   6.705
 9787SOL    HW229612  13.434   8.986   6.754
 9788SOL     OW29613   5.053   6.720   6.981
 9788SOL    HW129614   5.022   6.705   6.891
 9788SOL    HW229615   4.994   6.785   7.017
 9789SOL     OW29616  13.275  11.377   4.472
 9789SOL    HW129617  13.324  11.315   4.527
 9789SOL    HW229618  13.184  11.365   4.499
 9790SOL     OW29619   3.621   2.540   1.720
 9790SOL    HW129620   3.683   2.583   1.779
 9790SOL    HW229621   3.535   2.565   1.752
 9791SOL     OW29622  10.252   4.890   1.837
 9791SOL    HW129623  10.210   4.900   1.922
 9791SOL    HW229624  10.193   4.935   1.775
 9792SOL     OW29625  15.095  13.903   6.483
 9792SOL    HW129626  15.141  13.925   6.403
 9792SOL    HW229627  15.162  13.868   6.541
 9793SOL     OW29628  12.188   9.724   2.993
 9793SOL    HW129629  12.208   9.760   3.079
 9793SOL    HW229630  12.259   9.663   2.975
 9794SOL     OW29631   8.285   2.117   1.225
 9794SOL    HW129632   8.379   2.132   1.214
 9794SOL    HW229633   8.274   2.099   1.318
 9795SOL     OW29634  11.787   6.758   2.013
 9795SOL    HW129635  11.849   6.813   2.061
 9795SOL    HW229636  11.767   6.686   2.073
 9796SOL     OW29637   5.385   9.583   0.469
 9796SOL    HW129638   5.423   9.669   0.486
 9796SOL    HW229639   5.380   9.577   0.374
 9797SOL     OW29640  12.449   5.505   4.413
 9797SOL    HW129641  12.425   5.437   4.476
 9797SOL    HW229642  12.365   5.535   4.377
 9798SOL     OW29643  11.552   6.179   1.613
 9798SOL    HW129644  11.458   6.160   1.605
 9798SOL    HW229645  11.589   6.154   1.529
 9799SOL     OW29646   8.718   4.456   5.614
 9799SOL    HW129647   8.698   4.388   5.550
 9799SOL    HW229648   8.769   4.521   5.564
 9800SOL     OW29649  14.436  11.767   5.677
 9800SOL    HW129650  14.408  11.842   5.624
 9800SOL    HW229651  14.531  11.775   5.683
 9801SOL     OW29652  10.950   8.686   5.375
 9801SOL    HW129653  10.962   8.716   5.285
 9801SOL    HW229654  10.972   8.763   5.429
 9802SOL     OW29655   6.077   9.285   1.206
 9802SOL    HW129656   6.016   9.353   1.175
 9802SOL    HW229657   6.034   9.248   1.283
 9803SOL     OW29658   5.048   4.548   1.091
 9803SOL    HW129659   4.989   4.599   1.035
 9803SOL    HW229660   5.009   4.555   1.178
 9804SOL     OW29661  12.378   8.359   5.524
 9804SOL    HW129662  12.324   8.415   5.580
 9804SOL    HW229663  12.457   8.341   5.576
 9805SOL     OW29664   4.817  11.668   4.869
 9805SOL    HW129665   4.782  11.599   4.812
 9805SOL    HW229666   4.750  11.681   4.935
 9806SOL     OW29667  12.205   8.989   3.300
 9806SOL    HW129668  12.297   8.997   3.327
 9806SOL    HW229669  12.197   9.047   3.225
 9807SOL     OW29670   9.487   8.123   2.613
 9807SOL    HW129671   9.552   8.058   2.639
 9807SOL    HW229672   9.404   8.076   2.611
 9808SOL     OW29673  12.456   7.751   6.455
 9808SOL    HW129674  12.395   7.709   6.516
 9808SOL    HW229675  12.471   7.838   6.493
 9809SOL     OW29676   6.709   2.333   0.057
 9809SOL    HW129677   6.735   2.395   0.126
 9809SOL    HW229678   6.737   2.247   0.090
 9810SOL     OW29679   8.240   1.589   1.955
 9810SOL    HW129680   8.278   1.675   1.942
 9810SOL    HW229681   8.260   1.541   1.875
 9811SOL     OW29682  10.161   1.368   1.149
 9811SOL    HW129683  10.134   1.446   1.100
 9811SOL    HW229684  10.215   1.402   1.220
 9812SOL     OW29685   8.702  10.047   4.641
 9812SOL    HW129686   8.680   9.954   4.636
 9812SOL    HW229687   8.632  10.086   4.693
 9813SOL     OW29688   8.685  14.567   7.163
 9813SOL    HW129689   8.720  14.647   7.201
 9813SOL    HW229690   8.755  14.502   7.176
 9814SOL     OW29691   8.699  10.443   1.777
 9814SOL    HW129692   8.777  10.445   1.834
 9814SOL    HW229693   8.670  10.534   1.773
 9815SOL     OW29694   7.377  14.571   6.914
 9815SOL    HW129695   7.428  14.502   6.872
 9815SOL    HW229696   7.392  14.559   7.008
 9816SOL     OW29697  13.386   4.945   4.794
 9816SOL    HW129698  13.301   4.950   4.751
 9816SOL    HW229699  13.374   4.989   4.878
 9817SOL     OW29700  10.706   6.828   2.074
 9817SOL    HW129701  10.611   6.826   2.085
 9817SOL    HW229702  10.737   6.753   2.124
 9818SOL     OW29703   7.475   5.976   6.314
 9818SOL    HW129704   7.383   5.978   6.341
 9818SOL    HW229705   7.505   5.887   6.336
 9819SOL     OW29706   4.717   8.503   1.030
 9819SOL    HW129707   4.732   8.445   0.956
 9819SOL    HW229708   4.800   8.506   1.076
 9820SOL     OW29709   9.633   4.325   4.561
 9820SOL    HW129710   9.678   4.259   4.508
 9820SOL    HW229711   9.573   4.275   4.616
 9821SOL     OW29712   6.743  11.961   2.901
 9821SOL    HW129713   6.734  11.971   2.996
 9821SOL    HW229714   6.817  11.901   2.891
 9822SOL     OW29715   3.595  10.554   4.908
 9822SOL    HW129716   3.511  10.508   4.908
 9822SOL    HW229717   3.658  10.488   4.935
 9823SOL     OW29718   8.413   8.098   1.483
 9823SOL    HW129719   8.337   8.091   1.540
 9823SOL    HW229720   8.381   8.076   1.396
 9824SOL     OW29721  12.976  12.098   6.583
 9824SOL    HW129722  13.016  12.130   6.502
 9824SOL    HW229723  12.921  12.024   6.556
 9825SOL     OW29724  12.421  13.329   4.966
 9825SOL    HW129725  12.382  13.265   4.906
 9825SOL    HW229726  12.435  13.280   5.047
 9826SOL     OW29727   5.033   8.341   4.349
 9826SOL    HW129728   5.035   8.348   4.254
 9826SOL    HW229729   5.076   8.422   4.379
 9827SOL     OW29730   5.251   2.810   1.206
 9827SOL    HW129731   5.227   2.895   1.243
 9827SOL    HW229732   5.189   2.749   1.246
 9828SOL     OW29733   7.906  13.693   7.417
 9828SOL    HW129734   7.867  13.720   7.334
 9828SOL    HW229735   7.838  13.709   7.482
 9829SOL     OW29736  11.245   9.858   5.642
 9829SOL    HW129737  11.280   9.947   5.655
 9829SOL    HW229738  11.151   9.870   5.638
 9830SOL     OW29739  13.260   5.401   5.822
 9830SOL    HW129740  13.313   5.414   5.744
 9830SOL    HW229741  13.257   5.306   5.833
 9831SOL     OW29742   5.971  12.661   4.690
 9831SOL    HW129743   5.952  12.620   4.605
 9831SOL    HW229744   6.067  12.669   4.691
 9832SOL     OW29745   2.770   3.409   1.942
 9832SOL    HW129746   2.823   3.452   1.875
 9832SOL    HW229747   2.831   3.347   1.983
 9833SOL     OW29748   6.386   6.265   1.501
 9833SOL    HW129749   6.436   6.307   1.431
 9833SOL    HW229750   6.448   6.204   1.542
 9834SOL     OW29751  13.000  10.585   6.800
 9834SOL    HW129752  13.011  10.583   6.895
 9834SOL    HW229753  12.999  10.494   6.774
 9835SOL     OW29754   8.824   9.927   2.781
 9835SOL    HW129755   8.884   9.881   2.722
 9835SOL    HW229756   8.802  10.008   2.735
 9836SOL     OW29757  12.414   5.427   3.809
 9836SOL    HW129758  12.384   5.370   3.881
 9836SOL    HW229759  12.427   5.512   3.850
 9837SOL     OW29760   5.678   9.968   2.089
 9837SOL    HW129761   5.596   9.938   2.128
 9837SOL    HW229762   5.740   9.973   2.162
 9838SOL     OW29763   9.080   8.440   5.245
 9838SOL    HW129764   9.020   8.505   5.282
 9838SOL    HW229765   9.160   8.449   5.297
 9839SOL     OW29766  13.035  11.543   3.196
 9839SOL    HW129767  13.049  11.624   3.246
 9839SOL    HW229768   2.214  11.571   3.118
 9840SOL     OW29769   5.796   6.668   5.116
 9840SOL    HW129770   5.752   6.679   5.200
 9840SOL    HW229771   5.874   6.724   5.122
 9841SOL     OW29772   6.534  10.443   7.345
 9841SOL    HW129773   6.490  10.518   7.305
 9841SOL    HW229774   6.562  10.474   7.431
 9842SOL     OW29775   3.701   3.813   1.240
 9842SOL    HW129776   3.627   3.845   1.188
 9842SOL    HW229777   3.773   3.805   1.177
 9843SOL     OW29778  12.971  11.884   3.588
 9843SOL    HW129779  12.899  11.912   3.530
 9843SOL    HW229780  13.050  11.905   3.539
 9844SOL     OW29781   4.738   7.187   3.498
 9844SOL    HW129782   4.723   7.188   3.403
 9844SOL    HW229783   4.801   7.257   3.513
 9845SOL     OW29784   4.641   3.542   2.578
 9845SOL    HW129785   4.691   3.495   2.646
 9845SOL    HW229786   4.708   3.581   2.522
 9846SOL     OW29787   9.083  11.050   1.895
 9846SOL    HW129788   9.174  11.066   1.871
 9846SOL    HW229789   9.039  11.133   1.878
 9847SOL     OW29790   8.654   7.485   1.481
 9847SOL    HW129791   8.700   7.533   1.550
 9847SOL    HW229792   8.588   7.547   1.449
 9848SOL     OW29793  12.118  13.079   6.104
 9848SOL    HW129794  12.168  13.067   6.185
 9848SOL    HW229795  12.169  13.034   6.037
 9849SOL     OW29796   7.520  15.458   6.952
 9849SOL    HW129797   7.588  15.391   6.959
 9849SOL    HW229798   7.557  15.523   6.892
 9850SOL     OW29799   9.809   7.153   1.130
 9850SOL    HW129800   9.886   7.097   1.119
 9850SOL    HW229801   9.746   7.120   1.066
 9851SOL     OW29802  12.657  11.077   6.745
 9851SOL    HW129803  12.594  11.138   6.783
 9851SOL    HW229804  12.682  11.019   6.817
 9852SOL     OW29805   5.277   8.539   0.896
 9852SOL    HW129806   5.349   8.580   0.944
 9852SOL    HW229807   5.241   8.609   0.842
 9853SOL     OW29808   6.485   6.634   5.516
 9853SOL    HW129809   6.566   6.583   5.516
 9853SOL    HW229810   6.432   6.595   5.446
 9854SOL     OW29811  12.040  14.000   5.275
 9854SOL    HW129812  11.982  13.956   5.213
 9854SOL    HW229813  12.122  13.950   5.270
 9855SOL     OW29814   3.279   1.571   1.980
 9855SOL    HW129815   3.361   1.574   2.028
 9855SOL    HW229816   3.283   1.489   1.931
 9856SOL     OW29817  12.882  10.441   7.096
 9856SOL    HW129818  12.888  10.515   7.157
 9856SOL    HW229819  12.870  10.365   7.152
 9857SOL     OW29820   6.079   9.774   6.874
 9857SOL    HW129821   6.013   9.740   6.935
 9857SOL    HW229822   6.129   9.837   6.926
 9858SOL     OW29823   4.979   4.690   4.301
 9858SOL    HW129824   4.976   4.771   4.353
 9858SOL    HW229825   4.944   4.623   4.360
 9859SOL     OW29826  14.266   6.024   6.936
 9859SOL    HW129827  14.203   6.058   6.873
 9859SOL    HW229828  14.261   6.084   7.010
 9860SOL     OW29829   6.976   6.413   5.403
 9860SOL    HW129830   6.980   6.390   5.496
 9860SOL    HW229831   7.047   6.363   5.363
 9861SOL     OW29832   4.437  11.943   6.096
 9861SOL    HW129833   4.410  11.869   6.150
 9861SOL    HW229834   4.497  11.905   6.031
 9862SOL     OW29835  10.132  10.137   4.277
 9862SOL    HW129836  10.103  10.182   4.357
 9862SOL    HW229837  10.060  10.078   4.256
 9863SOL     OW29838   4.418  12.050   2.785
 9863SOL    HW129839   4.358  11.986   2.823
 9863SOL    HW229840   4.383  12.066   2.697
 9864SOL     OW29841  10.702   8.503   2.909
 9864SOL    HW129842  10.770   8.468   2.967
 9864SOL    HW229843  10.633   8.534   2.968
 9865SOL     OW29844   2.817   9.608   1.286
 9865SOL    HW129845   2.864   9.587   1.205
 9865SOL    HW229846   2.765   9.685   1.265
 9866SOL     OW29847   9.711   6.761   1.793
 9866SOL    HW129848   9.676   6.679   1.828
 9866SOL    HW229849   9.680   6.829   1.854
 9867SOL     OW29850  10.981   4.112   4.457
 9867SOL    HW129851  10.899   4.088   4.502
 9867SOL    HW229852  10.956   4.182   4.397
 9868SOL     OW29853   9.210  11.090   0.822
 9868SOL    HW129854   9.231  11.042   0.902
 9868SOL    HW229855   9.165  11.027   0.767
 9869SOL     OW29856  10.064   5.429   6.015
 9869SOL    HW129857  10.064   5.417   6.110
 9869SOL    HW229858  10.137   5.375   5.985
 9870SOL     OW29859  13.547  11.564   4.519
 9870SOL    HW129860  13.494  11.487   4.499
 9870SOL    HW229861  13.535  11.577   4.613
 9871SOL     OW29862  10.014   9.148   1.724
 9871SOL    HW129863   9.974   9.076   1.772
 9871SOL    HW229864   9.959   9.159   1.647
 9872SOL     OW29865  11.158   9.936   4.513
 9872SOL    HW129866  11.207   9.860   4.545
 9872SOL    HW229867  11.219   9.979   4.452
 9873SOL     OW29868  13.866   7.902   4.972
 9873SOL    HW129869  13.841   7.977   4.917
 9873SOL    HW229870  13.914   7.845   4.913
 9874SOL     OW29871  10.540   7.306   4.499
 9874SOL    HW129872  10.562   7.371   4.433
 9874SOL    HW229873  10.613   7.244   4.498
 9875SOL     OW29874   7.751   6.883   3.324
 9875SOL    HW129875   7.711   6.881   3.237
 9875SOL    HW229876   7.793   6.798   3.333
 9876SOL     OW29877   4.227   5.814   1.925
 9876SOL    HW129878   4.167   5.883   1.953
 9876SOL    HW229879   4.295   5.859   1.876
 9877SOL     OW29880  11.283   7.761   2.538
 9877SOL    HW129881  11.326   7.831   2.489
 9877SOL    HW229882  11.239   7.709   2.471
 9878SOL     OW29883  15.135  12.630   6.268
 9878SOL    HW129884  15.144  12.565   6.199
 9878SOL    HW229885  15.042  12.627   6.291
 9879SOL     OW29886   5.659   6.315   3.670
 9879SOL    HW129887   5.588   6.372   3.642
 9879SOL    HW229888   5.728   6.329   3.606
 9880SOL     OW29889   5.756  11.738   4.900
 9880SOL    HW129890   5.809  11.805   4.943
 9880SOL    HW229891   5.757  11.664   4.961
 9881SOL     OW29892   6.089   3.120   0.153
 9881SOL    HW129893   5.999   3.139   0.178
 9881SOL    HW229894   6.127   3.205   0.133
 9882SOL     OW29895   9.274   3.676   3.263
 9882SOL    HW129896   9.193   3.625   3.258
 9882SOL    HW229897   9.334   3.632   3.203
 9883SOL     OW29898   8.923   0.576   0.586
 9883SOL    HW129899   8.944   0.654   0.534
 9883SOL    HW229900   8.828   0.569   0.580
 9884SOL     OW29901   8.360  13.495   5.732
 9884SOL    HW129902   8.347  13.589   5.743
 9884SOL    HW229903   8.275  13.462   5.703
 9885SOL     OW29904   5.809  12.313   5.640
 9885SOL    HW129905   5.762  12.303   5.723
 9885SOL    HW229906   5.786  12.400   5.609
 9886SOL     OW29907   7.019   9.994   7.452
 9886SOL    HW129908   7.019   9.905   7.487
 9886SOL    HW229909   7.103  10.001   7.407
 9887SOL     OW29910   4.332   3.724   0.748
 9887SOL    HW129911   4.293   3.663   0.686
 9887SOL    HW229912   4.415   3.750   0.708
 9888SOL     OW29913   7.757   9.640   0.534
 9888SOL    HW129914   7.680   9.649   0.590
 9888SOL    HW229915   7.735   9.569   0.474
 9889SOL     OW29916   2.101  11.645   2.501
 9889SOL    HW129917   2.089  11.645   2.596
 9889SOL    HW229918   2.060  11.563   2.472
 9890SOL     OW29919  12.696   6.957   4.336
 9890SOL    HW129920  12.786   6.941   4.363
 9890SOL    HW229921  12.701   7.035   4.281
 9891SOL     OW29922   4.634   9.980   6.088
 9891SOL    HW129923   4.621   9.919   6.015
 9891SOL    HW229924   4.714  10.027   6.066
 9892SOL     OW29925   3.913   5.099   1.374
 9892SOL    HW129926   3.906   5.165   1.306
 9892SOL    HW229927   4.007   5.082   1.382
 9893SOL     OW29928   6.709   3.995   0.538
 9893SOL    HW129929   6.679   4.004   0.447
 9893SOL    HW229930   6.770   3.921   0.535
 9894SOL     OW29931   8.266  11.493   4.938
 9894SOL    HW129932   8.300  11.472   4.851
 9894SOL    HW229933   8.289  11.417   4.991
 9895SOL     OW29934   5.839  12.697   6.521
 9895SOL    HW129935   5.931  12.721   6.530
 9895SOL    HW229936   5.806  12.753   6.451
 9896SOL     OW29937  10.931  12.888   6.499
 9896SOL    HW129938  11.019  12.923   6.507
 9896SOL    HW229939  10.943  12.798   6.470
 9897SOL     OW29940   8.524   7.623   1.205
 9897SOL    HW129941   8.433   7.596   1.191
 9897SOL    HW229942   8.526   7.654   1.296
 9898SOL     OW29943   4.988   2.053   1.131
 9898SOL    HW129944   5.027   1.966   1.135
 9898SOL    HW229945   5.039   2.106   1.193
 9899SOL     OW29946   1.656   7.878   0.505
 9899SOL    HW129947   1.639   7.811   0.439
 9899SOL    HW229948   1.602   7.952   0.479
 9900SOL     OW29949   9.511   3.322   0.577
 9900SOL    HW129950   9.507   3.227   0.578
 9900SOL    HW229951   9.429   3.350   0.618
 9901SOL     OW29952  11.194  10.357   3.300
 9901SOL    HW129953  11.170  10.448   3.318
 9901SOL    HW229954  11.273  10.343   3.352
 9902SOL     OW29955   5.552   4.760   5.558
 9902SOL    HW129956   5.589   4.718   5.635
 9902SOL    HW229957   5.627   4.796   5.511
 9903SOL     OW29958   8.747  11.087   5.394
 9903SOL    HW129959   8.718  11.178   5.407
 9903SOL    HW229960   8.716  11.042   5.472
 9904SOL     OW29961   4.037   7.296   4.928
 9904SOL    HW129962   4.005   7.261   4.845
 9904SOL    HW229963   4.067   7.385   4.907
 9905SOL     OW29964  10.948   9.133   2.811
 9905SOL    HW129965  11.004   9.055   2.805
 9905SOL    HW229966  10.863   9.098   2.840
 9906SOL     OW29967   4.749   4.312   4.229
 9906SOL    HW129968   4.828   4.293   4.178
 9906SOL    HW229969   4.694   4.362   4.169
 9907SOL     OW29970   6.657  10.563   7.571
 9907SOL    HW129971   6.673  10.654   7.543
 9907SOL    HW229972   6.742  10.521   7.564
 9908SOL     OW29973  11.180   7.862   4.631
 9908SOL    HW129974  11.222   7.948   4.644
 9908SOL    HW229975  11.095   7.883   4.593
 9909SOL     OW29976  12.157   3.180   2.353
 9909SOL    HW129977  12.226   3.142   2.407
 9909SOL    HW229978  12.157   3.127   2.273
 9910SOL     OW29979   7.012   5.554   3.215
 9910SOL    HW129980   7.003   5.602   3.297
 9910SOL    HW229981   7.104   5.527   3.213
 9911SOL     OW29982  10.258   6.291   0.428
 9911SOL    HW129983  10.258   6.331   0.341
 9911SOL    HW229984  10.350   6.270   0.445
 9912SOL     OW29985  11.260   7.471   3.226
 9912SOL    HW129986  11.303   7.557   3.229
 9912SOL    HW229987  11.333   7.409   3.215
 9913SOL     OW29988   9.877   8.402   6.929
 9913SOL    HW129989   9.919   8.472   6.979
 9913SOL    HW229990   9.894   8.425   6.837
 9914SOL     OW29991   3.270  11.882   2.243
 9914SOL    HW129992   3.178  11.904   2.256
 9914SOL    HW229993   3.295  11.832   2.321
 9915SOL     OW29994   8.176  10.615   2.322
 9915SOL    HW129995   8.114  10.555   2.363
 9915SOL    HW229996   8.128  10.653   2.248
 9916SOL     OW29997   9.770   6.611   6.886
 9916SOL    HW129998   9.731   6.663   6.816
 9916SOL    HW229999   9.696   6.576   6.935
 9917SOL     OW30000   8.430  11.039   5.157
 9917SOL    HW130001   8.430  11.064   5.250
 9917SOL    HW230002   8.521  11.047   5.130
 9918SOL     OW30003  12.630  11.967   6.128
 9918SOL    HW130004  12.568  11.898   6.148
 9918SOL    HW230005  12.644  11.961   6.034
 9919SOL     OW30006  12.988   9.442   5.506
 9919SOL    HW130007  13.018   9.527   5.540
 9919SOL    HW230008  12.963   9.460   5.416
 9920SOL     OW30009  12.988  12.528   6.220
 9920SOL    HW130010  12.992  12.516   6.315
 9920SOL    HW230011  12.963  12.442   6.187
 9921SOL     OW30012  10.495  11.134   7.261
 9921SOL    HW130013  10.442  11.139   7.181
 9921SOL    HW230014  10.541  11.050   7.254
 9922SOL     OW30015   3.972   3.271   0.618
 9922SOL    HW130016   3.939   3.222   0.694
 9922SOL    HW230017   4.036   3.332   0.654
 9923SOL     OW30018   5.456   8.947   3.153
 9923SOL    HW130019   5.534   8.975   3.105
 9923SOL    HW230020   5.461   8.851   3.151
 9924SOL     OW30021   5.351   4.211   2.020
 9924SOL    HW130022   5.292   4.195   2.094
 9924SOL    HW230023   5.418   4.270   2.055
 9925SOL     OW30024  10.607   4.930   5.710
 9925SOL    HW130025  10.611   5.020   5.678
 9925SOL    HW230026  10.644   4.878   5.639
 9926SOL     OW30027   1.939   6.959   2.253
 9926SOL    HW130028   1.868   6.979   2.314
 9926SOL    HW230029   2.019   6.975   2.303
 9927SOL     OW30030   2.185   2.132   0.478
 9927SOL    HW130031   2.281   2.133   0.480
 9927SOL    HW230032   2.159   2.200   0.539
 9928SOL     OW30033  10.129   3.717   5.155
 9928SOL    HW130034  10.127   3.793   5.097
 9928SOL    HW230035  10.131   3.755   5.243
 9929SOL     OW30036   6.699   3.943   5.394
 9929SOL    HW130037   6.677   3.902   5.310
 9929SOL    HW230038   6.681   4.036   5.381
 9930SOL     OW30039   4.560   6.528   3.957
 9930SOL    HW130040   4.633   6.579   3.920
 9930SOL    HW230041   4.587   6.508   4.046
 9931SOL     OW30042   3.192   9.825   2.257
 9931SOL    HW130043   3.275   9.789   2.224
 9931SOL    HW230044   3.193   9.916   2.227
 9932SOL     OW30045   5.176   5.731   4.122
 9932SOL    HW130046   5.127   5.691   4.049
 9932SOL    HW230047   5.267   5.729   4.094
 9933SOL     OW30048   3.539   7.899   4.618
 9933SOL    HW130049   3.449   7.866   4.618
 9933SOL    HW230050   3.530   7.993   4.629
 9934SOL     OW30051  10.510   2.747   0.501
 9934SOL    HW130052  10.452   2.819   0.479
 9934SOL    HW230053  10.453   2.670   0.503
 9935SOL     OW30054  10.989   6.115   5.408
 9935SOL    HW130055  10.942   6.132   5.327
 9935SOL    HW230056  10.953   6.033   5.441
 9936SOL     OW30057   9.239   5.040   6.112
 9936SOL    HW130058   9.157   5.002   6.079
 9936SOL    HW230059   9.287   4.965   6.147
 9937SOL     OW30060   9.358   5.719   3.590
 9937SOL    HW130061   9.412   5.701   3.667
 9937SOL    HW230062   9.347   5.814   3.590
 9938SOL     OW30063   8.709   1.629   0.008
 9938SOL    HW130064   8.696   1.581   0.089
 9938SOL    HW230065   8.801   1.657   0.010
 9939SOL     OW30066   3.481   8.364   3.276
 9939SOL    HW130067   3.525   8.415   3.344
 9939SOL    HW230068   3.546   8.298   3.250
 9940SOL     OW30069  10.038   5.479   6.693
 9940SOL    HW130070   9.944   5.468   6.681
 9940SOL    HW230071  10.046   5.528   6.775
 9941SOL     OW30072  11.843   4.147   1.834
 9941SOL    HW130073  11.821   4.238   1.814
 9941SOL    HW230074  11.934   4.150   1.865
 9942SOL     OW30075   3.391   1.287   1.529
 9942SOL    HW130076   3.485   1.276   1.517
 9942SOL    HW230077   3.383   1.351   1.600
 9943SOL     OW30078   4.986   8.191   2.155
 9943SOL    HW130079   4.985   8.113   2.210
 9943SOL    HW230080   5.038   8.255   2.204
 9944SOL     OW30081  12.867   3.163   3.838
 9944SOL    HW130082  12.883   3.254   3.810
 9944SOL    HW230083  12.823   3.123   3.763
 9945SOL     OW30084  14.175  10.688   6.494
 9945SOL    HW130085  14.162  10.779   6.523
 9945SOL    HW230086  14.124  10.681   6.414
 9946SOL     OW30087  10.407  12.081   2.990
 9946SOL    HW130088  10.414  12.098   3.084
 9946SOL    HW230089  10.317  12.050   2.978
 9947SOL     OW30090   6.749   3.716   3.694
 9947SOL    HW130091   6.658   3.728   3.666
 9947SOL    HW230092   6.793   3.798   3.669
 9948SOL     OW30093   5.475   4.352   0.233
 9948SOL    HW130094   5.482   4.431   0.180
 9948SOL    HW230095   5.471   4.384   0.323
 9949SOL     OW30096   7.479  14.330   6.771
 9949SOL    HW130097   7.556  14.282   6.742
 9949SOL    HW230098   7.434  14.354   6.691
 9950SOL     OW30099   8.228   7.257   2.365
 9950SOL    HW130100   8.228   7.190   2.433
 9950SOL    HW230101   8.314   7.248   2.323
 9951SOL     OW30102  10.075   1.107   1.195
 9951SOL    HW130103   9.999   1.158   1.165
 9951SOL    HW230104  10.147   1.170   1.194
 9952SOL     OW30105  14.090  15.006   6.140
 9952SOL    HW130106  14.152  15.042   6.077
 9952SOL    HW230107  14.135  15.010   6.224
 9953SOL     OW30108   9.434  10.962   1.502
 9953SOL    HW130109   9.459  11.031   1.563
 9953SOL    HW230110   9.404  10.890   1.558
 9954SOL     OW30111   3.271  12.602   2.860
 9954SOL    HW130112   3.192  12.550   2.872
 9954SOL    HW230113   3.335  12.542   2.822
 9955SOL     OW30114   5.192  12.410   6.221
 9955SOL    HW130115   5.198  12.418   6.126
 9955SOL    HW230116   5.101  12.385   6.238
 9956SOL     OW30117   6.530   7.178   4.760
 9956SOL    HW130118   6.584   7.242   4.714
 9956SOL    HW230119   6.465   7.230   4.807
 9957SOL     OW30120   6.813   8.456   7.207
 9957SOL    HW130121   6.849   8.542   7.186
 9957SOL    HW230122   6.835   8.402   7.131
 9958SOL     OW30123  12.195  13.331   4.338
 9958SOL    HW130124  12.290  13.327   4.324
 9958SOL    HW230125  12.162  13.378   4.262
 9959SOL     OW30126  12.824   9.308   3.489
 9959SOL    HW130127  12.834   9.399   3.520
 9959SOL    HW230128  12.777   9.316   3.406
 9960SOL     OW30129  11.095   3.763   2.232
 9960SOL    HW130130  11.060   3.736   2.316
 9960SOL    HW230131  11.056   3.849   2.216
 9961SOL     OW30132   8.045   5.113   4.758
 9961SOL    HW130133   7.959   5.075   4.739
 9961SOL    HW230134   8.100   5.037   4.780
 9962SOL     OW30135  10.438  10.016   7.034
 9962SOL    HW130136  10.384  10.057   6.966
 9962SOL    HW230137  10.405  10.051   7.116
 9963SOL     OW30138   6.660   7.948   5.450
 9963SOL    HW130139   6.716   7.949   5.372
 9963SOL    HW230140   6.656   8.039   5.478
 9964SOL     OW30141   9.879  10.005   2.988
 9964SOL    HW130142   9.862   9.918   2.950
 9964SOL    HW230143   9.960   9.995   3.037
 9965SOL     OW30144   3.723   2.693   2.758
 9965SOL    HW130145   3.798   2.689   2.817
 9965SOL    HW230146   3.648   2.708   2.816
 9966SOL     OW30147  10.309   7.078   2.206
 9966SOL    HW130148  10.311   7.150   2.268
 9966SOL    HW230149  10.294   7.120   2.121
 9967SOL     OW30150  14.495   8.725   5.582
 9967SOL    HW130151  14.536   8.793   5.637
 9967SOL    HW230152  14.483   8.768   5.498
 9968SOL     OW30153   7.845   3.563   4.078
 9968SOL    HW130154   7.785   3.570   4.003
 9968SOL    HW230155   7.788   3.561   4.154
 9969SOL     OW30156  11.253  11.489   3.190
 9969SOL    HW130157  11.319  11.526   3.131
 9969SOL    HW230158  11.170  11.508   3.146
 9970SOL     OW30159   6.362   6.764   0.737
 9970SOL    HW130160   6.343   6.735   0.648
 9970SOL    HW230161   6.317   6.700   0.793
 9971SOL     OW30162   9.082   4.722   1.410
 9971SOL    HW130163   9.021   4.782   1.453
 9971SOL    HW230164   9.073   4.640   1.458
 9972SOL     OW30165   7.471  13.262   5.401
 9972SOL    HW130166   7.425  13.232   5.479
 9972SOL    HW230167   7.410  13.244   5.329
 9973SOL     OW30168   6.530  10.109   1.412
 9973SOL    HW130169   6.592  10.041   1.439
 9973SOL    HW230170   6.539  10.114   1.317
 9974SOL     OW30171  10.699   5.046   1.961
 9974SOL    HW130172  10.716   5.104   2.035
 9974SOL    HW230173  10.638   4.981   1.994
 9975SOL     OW30174  12.789  13.633   4.254
 9975SOL    HW130175  12.748  13.720   4.264
 9975SOL    HW230176  12.864  13.636   4.313
 9976SOL     OW30177   5.327  12.515   4.679
 9976SOL    HW130178   5.231  12.513   4.684
 9976SOL    HW230179   5.348  12.463   4.602
 9977SOL     OW30180   7.456   9.799   3.987
 9977SOL    HW130181   7.488   9.739   3.920
 9977SOL    HW230182   7.462   9.750   4.069
 9978SOL     OW30183   7.806   1.888   1.142
 9978SOL    HW130184   7.763   1.903   1.226
 9978SOL    HW230185   7.810   1.793   1.133
 9979SOL     OW30186   9.364  11.929   6.507
 9979SOL    HW130187   9.401  11.973   6.584
 9979SOL    HW230188   9.352  11.838   6.535
 9980SOL     OW30189   5.170   4.019   3.998
 9980SOL    HW130190   5.193   3.962   3.924
 9980SOL    HW230191   5.105   4.079   3.961
 9981SOL     OW30192   7.039   3.890   4.902
 9981SOL    HW130193   6.948   3.917   4.915
 9981SOL    HW230194   7.051   3.889   4.807
 9982SOL     OW30195   6.022  10.206   0.168
 9982SOL    HW130196   5.988  10.135   0.223
 9982SOL    HW230197   5.946  10.236   0.119
 9983SOL     OW30198   9.925   5.829   0.292
 9983SOL    HW130199   9.845   5.801   0.248
 9983SOL    HW230200   9.967   5.748   0.320
 9984SOL     OW30201  12.431   7.727   6.181
 9984SOL    HW130202  12.397   7.806   6.139
 9984SOL    HW230203  12.428   7.746   6.275
 9985SOL     OW30204   7.959   8.840   2.455
 9985SOL    HW130205   7.953   8.935   2.458
 9985SOL    HW230206   8.048   8.821   2.484
 9986SOL     OW30207   5.524   7.094   6.640
 9986SOL    HW130208   5.435   7.111   6.669
 9986SOL    HW230209   5.515   7.063   6.550
 9987SOL     OW30210   1.391   8.431   1.418
 9987SOL    HW130211   1.323   8.493   1.392
 9987SOL    HW230212   1.400   8.444   1.512
 9988SOL     OW30213   8.776  10.702   5.514
 9988SOL    HW130214   8.796  10.621   5.561
 9988SOL    HW230215   8.825  10.695   5.431
 9989SOL     OW30216   1.563   9.633   1.467
 9989SOL    HW130217   1.514   9.579   1.406
 9989SOL    HW230218   1.501   9.701   1.495
 9990SOL     OW30219  12.740   7.477   7.228
 9990SOL    HW130220  12.829   7.452   7.203
 9990SOL    HW230221  12.748   7.508   7.318
 9991SOL     OW30222  12.629  12.438   3.523
 9991SOL    HW130223  12.604  12.528   3.503
 9991SOL    HW230224  12.548  12.389   3.517
 9992SOL     OW30225   6.566  12.377   7.289
 9992SOL    HW130226   6.589  12.459   7.246
 9992SOL    HW230227   6.523  12.325   7.221
 9993SOL     OW30228   3.137   3.841   1.914
 9993SOL    HW130229   3.181   3.759   1.937
 9993SOL    HW230230   3.204   3.908   1.927
 9994SOL     OW30231  14.841   4.632   5.862
 9994SOL    HW130232   4.147   4.682   5.850
 9994SOL    HW230233  14.868   4.540   5.858
 9995SOL     OW30234   8.798   1.010   0.271
 9995SOL    HW130235   8.886   1.047   0.280
 9995SOL    HW230236   8.773   0.987   0.361
 9996SOL     OW30237  10.579   8.796   2.863
 9996SOL    HW130238  10.493   8.839   2.866
 9996SOL    HW230239  10.590   8.759   2.950
 9997SOL     OW30240  13.649  14.879   6.758
 9997SOL    HW130241  13.699  14.798   6.752
 9997SOL    HW230242  13.612  14.891   6.670
 9998SOL     OW30243   5.494   2.028   0.694
 9998SOL    HW130244   5.408   2.047   0.731
 9998SOL    HW230245   5.521   2.111   0.654
 9999SOL     OW30246   2.949   5.958   0.018
 9999SOL    HW130247   8.375  11.374   7.554
 9999SOL    HW230248   3.023   5.929   0.070
10000SOL     OW30249   5.107   2.179   0.912
10000SOL    HW130250   5.029   2.228   0.884
10000SOL    HW230251   5.081   2.137   0.994
10001SOL     OW30252   9.644  12.260   6.782
10001SOL    HW130253   9.715  12.240   6.721
10001SOL    HW230254   9.589  12.182   6.781
10002SOL     OW30255   8.635  10.641   6.955
10002SOL    HW130256   8.587  10.560   6.939
10002SOL    HW230257   8.653  10.676   6.867
10003SOL     OW30258   9.026   9.950   4.503
10003SOL    HW130259   8.995  10.012   4.569
10003SOL    HW230260   9.119   9.970   4.493
10004SOL     OW30261   4.336   6.502   1.590
10004SOL    HW130262   4.379   6.432   1.640
10004SOL    HW230263   4.407   6.563   1.569
10005SOL     OW30264   8.625   6.765   1.239
10005SOL    HW130265   8.610   6.788   1.147
10005SOL    HW230266   8.572   6.686   1.253
10006SOL     OW30267  14.418   8.202   5.331
10006SOL    HW130268  14.333   8.198   5.375
10006SOL    HW230269  14.399   8.244   5.247
10007SOL     OW30270   4.055  13.082   4.598
10007SOL    HW130271   3.973  13.035   4.615
10007SOL    HW230272   4.060  13.146   4.669
10008SOL     OW30273   7.264  12.137   4.431
10008SOL    HW130274   7.234  12.064   4.377
10008SOL    HW230275   7.334  12.178   4.379
10009SOL     OW30276   8.915   6.130   0.669
10009SOL    HW130277   8.988   6.192   0.673
10009SOL    HW230278   8.844   6.173   0.718
10010SOL     OW30279   5.412   9.948   3.340
10010SOL    HW130280   5.332   9.992   3.309
10010SOL    HW230281   5.464  10.017   3.380
10011SOL     OW30282  10.682   5.396   6.018
10011SOL    HW130283  10.721   5.468   5.969
10011SOL    HW230284  10.748   5.327   6.016
10012SOL     OW30285   8.992   9.221   0.028
10012SOL    HW130286   9.075   9.242   0.071
10012SOL    HW230287  14.345  14.693   7.617
10013SOL     OW30288  12.904  10.275   5.556
10013SOL    HW130289  12.977  10.338   5.551
10013SOL    HW230290  12.829  10.323   5.521
10014SOL     OW30291   5.636   6.436   0.610
10014SOL    HW130292   5.652   6.465   0.700
10014SOL    HW230293   5.661   6.510   0.555
10015SOL     OW30294   7.513  10.742   4.355
10015SOL    HW130295   7.523  10.647   4.354
10015SOL    HW230296   7.572  10.773   4.286
10016SOL     OW30297   8.061   5.667   2.054
10016SOL    HW130298   8.137   5.726   2.048
10016SOL    HW230299   8.039   5.648   1.963
10017SOL     OW30300   6.280  14.021   5.105
10017SOL    HW130301   6.290  14.014   5.010
10017SOL    HW230302   6.194  14.061   5.117
10018SOL     OW30303   6.000   3.617   2.836
10018SOL    HW130304   6.064   3.579   2.776
10018SOL    HW230305   5.915   3.595   2.797
10019SOL     OW30306   9.390  10.922   0.574
10019SOL    HW130307   9.478  10.899   0.543
10019SOL    HW230308   9.404  10.952   0.664
10020SOL     OW30309   8.124  10.943   5.365
10020SOL    HW130310   8.110  10.853   5.394
10020SOL    HW230311   8.060  10.957   5.295
10021SOL     OW30312   8.991   8.716   6.040
10021SOL    HW130313   9.040   8.645   6.082
10021SOL    HW230314   8.921   8.738   6.102
10022SOL     OW30315   4.099   9.302   3.574
10022SOL    HW130316   4.183   9.266   3.602
10022SOL    HW230317   4.048   9.308   3.655
10023SOL     OW30318  12.979   8.277   7.386
10023SOL    HW130319  13.030   8.263   7.306
10023SOL    HW230320  12.977   8.372   7.397
10024SOL     OW30321   3.408   9.624   3.263
10024SOL    HW130322   3.320   9.592   3.286
10024SOL    HW230323   3.407   9.717   3.288
10025SOL     OW30324  14.808   8.145   6.640
10025SOL    HW130325  14.725   8.189   6.622
10025SOL    HW230326  14.875   8.201   6.601
10026SOL     OW30327   3.742   2.767   0.399
10026SOL    HW130328   3.747   2.862   0.410
10026SOL    HW230329   3.767   2.732   0.484
10027SOL     OW30330  11.572  13.108   6.751
10027SOL    HW130331  11.533  13.189   6.784
10027SOL    HW230332  11.500  13.060   6.711
10028SOL     OW30333  11.246   5.496   6.772
10028SOL    HW130334  11.263   5.519   6.680
10028SOL    HW230335  11.160   5.533   6.790
10029SOL     OW30336  12.828   8.562   7.507
10029SOL    HW130337  12.860   8.641   7.464
10029SOL    HW230338  12.772   8.520   7.441
10030SOL     OW30339   8.249  10.293   3.589
10030SOL    HW130340   8.328  10.276   3.639
10030SOL    HW230341   8.180  10.305   3.654
10031SOL     OW30342   1.487   2.616   0.202
10031SOL    HW130343   1.394   2.628   0.187
10031SOL    HW230344   1.510   2.684   0.266
10032SOL     OW30345   3.720   4.850   2.437
10032SOL    HW130346   3.661   4.925   2.433
10032SOL    HW230347   3.665   4.775   2.417
10033SOL     OW30348   2.728   9.995   2.598
10033SOL    HW130349   2.799  10.056   2.616
10033SOL    HW230350   2.667  10.043   2.542
10034SOL     OW30351  10.739   4.522   3.448
10034SOL    HW130352  10.741   4.466   3.526
10034SOL    HW230353  10.831   4.543   3.432
10035SOL     OW30354  11.575   4.741   4.385
10035SOL    HW130355  11.577   4.806   4.315
10035SOL    HW230356  11.537   4.663   4.345
10036SOL     OW30357   7.218  10.349   0.856
10036SOL    HW130358   7.257  10.434   0.836
10036SOL    HW230359   7.260  10.288   0.796
10037SOL     OW30360   7.031   3.614   3.761
10037SOL    HW130361   7.037   3.704   3.731
10037SOL    HW230362   6.946   3.583   3.730
10038SOL     OW30363  12.544   5.512   3.012
10038SOL    HW130364  12.612   5.530   2.948
10038SOL    HW230365  12.570   5.560   3.090
10039SOL     OW30366  11.527   7.007   6.121
10039SOL    HW130367  11.574   7.086   6.152
10039SOL    HW230368  11.436   7.034   6.116
10040SOL     OW30369   8.570   2.454   0.757
10040SOL    HW130370   8.562   2.531   0.814
10040SOL    HW230371   8.479   2.431   0.736
10041SOL     OW30372  11.007  13.667   6.954
10041SOL    HW130373  11.014  13.643   7.046
10041SOL    HW230374  11.045  13.755   6.949
10042SOL     OW30375  11.650   9.831   6.848
10042SOL    HW130376  11.719   9.806   6.787
10042SOL    HW230377  11.575   9.777   6.824
10043SOL     OW30378   9.401   6.627   3.531
10043SOL    HW130379   9.466   6.636   3.600
10043SOL    HW230380   9.319   6.611   3.577
10044SOL     OW30381  14.178   9.706   5.674
10044SOL    HW130382  14.257   9.669   5.712
10044SOL    HW230383  14.107   9.677   5.732
10045SOL     OW30384   9.421   7.508   2.545
10045SOL    HW130385   9.425   7.505   2.641
10045SOL    HW230386   9.463   7.591   2.522
10046SOL     OW30387   7.566   7.338   3.046
10046SOL    HW130388   7.617   7.259   3.058
10046SOL    HW230389   7.626   7.410   3.065
10047SOL     OW30390   3.036   6.787   0.484
10047SOL    HW130391   2.998   6.874   0.477
10047SOL    HW230392   3.016   6.760   0.574
10048SOL     OW30393  12.955  12.394   6.475
10048SOL    HW130394  12.989  12.397   6.564
10048SOL    HW230395  12.880  12.334   6.479
10049SOL     OW30396  14.915   5.455   6.405
10049SOL    HW130397  14.885   5.543   6.429
10049SOL    HW230398  14.844   5.398   6.434
10050SOL     OW30399   8.737   7.793   0.322
10050SOL    HW130400   8.710   7.704   0.344
10050SOL    HW230401   8.810   7.811   0.381
10051SOL     OW30402   8.338   6.891   3.685
10051SOL    HW130403   8.425   6.852   3.693
10051SOL    HW230404   8.288   6.828   3.633
10052SOL     OW30405  11.209  10.476   7.442
10052SOL    HW130406  11.171  10.555   7.403
10052SOL    HW230407  11.159  10.404   7.403
10053SOL     OW30408   5.133   3.890   0.397
10053SOL    HW130409   5.096   3.971   0.431
10053SOL    HW230410   5.076   3.866   0.324
10054SOL     OW30411   2.170   9.536   0.966
10054SOL    HW130412   2.151   9.442   0.958
10054SOL    HW230413   2.155   9.555   1.059
10055SOL     OW30414  11.274  14.705   6.974
10055SOL    HW130415  11.279  14.702   6.878
10055SOL    HW230416  11.324  14.782   6.999
10056SOL     OW30417   5.374   3.940   4.325
10056SOL    HW130418   5.315   3.878   4.282
10056SOL    HW230419   5.318   4.015   4.346
10057SOL     OW30420   7.555   4.912   4.388
10057SOL    HW130421   7.571   4.831   4.340
10057SOL    HW230422   7.559   4.981   4.322
10058SOL     OW30423   8.783  15.351   6.657
10058SOL    HW130424   8.694  15.370   6.685
10058SOL    HW230425   8.831  15.433   6.669
10059SOL     OW30426   9.577   9.622   4.618
10059SOL    HW130427   9.612   9.539   4.585
10059SOL    HW230428   9.500   9.597   4.668
10060SOL     OW30429   4.805   3.440   1.041
10060SOL    HW130430   4.762   3.526   1.044
10060SOL    HW230431   4.874   3.451   0.975
10061SOL     OW30432   7.306   6.949   4.850
10061SOL    HW130433   7.337   6.925   4.762
10061SOL    HW230434   7.340   6.880   4.907
10062SOL     OW30435   1.996   4.467   0.492
10062SOL    HW130436   1.912   4.455   0.536
10062SOL    HW230437   1.990   4.412   0.414
10063SOL     OW30438   8.665   5.722   5.372
10063SOL    HW130439   8.679   5.817   5.380
10063SOL    HW230440   8.649   5.693   5.462
10064SOL     OW30441   5.097   9.193   2.632
10064SOL    HW130442   5.055   9.113   2.599
10064SOL    HW230443   5.110   9.175   2.726
10065SOL     OW30444   4.086   3.024   2.260
10065SOL    HW130445   4.025   3.013   2.333
10065SOL    HW230446   4.032   3.017   2.181
10066SOL     OW30447   4.430   3.747   1.354
10066SOL    HW130448   4.505   3.695   1.325
10066SOL    HW230449   4.445   3.760   1.447
10067SOL     OW30450   6.980  12.495   3.497
10067SOL    HW130451   6.967  12.463   3.586
10067SOL    HW230452   7.071  12.524   3.495
10068SOL     OW30453  10.079   5.189   4.908
10068SOL    HW130454  10.050   5.098   4.914
10068SOL    HW230455   9.998   5.239   4.903
10069SOL     OW30456   6.200   7.073   2.995
10069SOL    HW130457   6.157   7.000   2.951
10069SOL    HW230458   6.163   7.073   3.084
10070SOL     OW30459  12.355   6.303   4.010
10070SOL    HW130460  12.289   6.371   4.028
10070SOL    HW230461  12.437   6.342   4.039
10071SOL     OW30462  12.261   6.738   4.850
10071SOL    HW130463  12.356   6.733   4.835
10071SOL    HW230464  12.252   6.774   4.938
10072SOL     OW30465   9.419   0.889   1.215
10072SOL    HW130466   9.390   0.976   1.242
10072SOL    HW230467   9.439   0.898   1.122
10073SOL     OW30468  10.745  11.877   6.423
10073SOL    HW130469  10.734  11.844   6.333
10073SOL    HW230470  10.809  11.818   6.462
10074SOL     OW30471   7.858   4.774   2.784
10074SOL    HW130472   7.784   4.729   2.828
10074SOL    HW230473   7.861   4.734   2.697
10075SOL     OW30474   5.848   6.105   1.076
10075SOL    HW130475   5.811   6.193   1.081
10075SOL    HW230476   5.941   6.119   1.055
10076SOL     OW30477   4.661   3.983   4.324
10076SOL    HW130478   4.719   3.933   4.267
10076SOL    HW230479   4.660   4.071   4.286
10077SOL     OW30480   5.843  11.517   5.139
10077SOL    HW130481   5.804  11.444   5.091
10077SOL    HW230482   5.904  11.476   5.200
10078SOL     OW30483  12.112  13.211   5.309
10078SOL    HW130484  12.179  13.254   5.257
10078SOL    HW230485  12.074  13.282   5.362
10079SOL     OW30486  10.404  12.687   3.134
10079SOL    HW130487  10.487  12.650   3.102
10079SOL    HW230488  10.419  12.781   3.137
10080SOL     OW30489  12.578  11.508   4.315
10080SOL    HW130490  12.618  11.503   4.228
10080SOL    HW230491  12.574  11.418   4.345
10081SOL     OW30492  12.488   8.539   3.131
10081SOL    HW130493  12.528   8.544   3.218
10081SOL    HW230494  12.547   8.589   3.074
10082SOL     OW30495   0.927   9.108   0.263
10082SOL    HW130496   0.885   9.103   0.177
10082SOL    HW230497   1.020   9.118   0.243
10083SOL     OW30498   6.587  11.855   5.309
10083SOL    HW130499   6.561  11.784   5.368
10083SOL    HW230500   6.514  11.917   5.313
10084SOL     OW30501   6.122   7.589   7.421
10084SOL    HW130502   6.188   7.540   7.469
10084SOL    HW230503   6.105   7.667   7.475
10085SOL     OW30504  12.302   7.467   4.700
10085SOL    HW130505  12.372   7.452   4.637
10085SOL    HW230506  12.308   7.393   4.761
10086SOL     OW30507   6.508   7.736   7.242
10086SOL    HW130508   6.412   7.731   7.249
10086SOL    HW230509   6.535   7.784   7.321
10087SOL     OW30510   4.972   6.768   4.287
10087SOL    HW130511   4.966   6.841   4.225
10087SOL    HW230512   4.881   6.745   4.306
10088SOL     OW30513  10.126  10.396   4.477
10088SOL    HW130514  10.092  10.398   4.388
10088SOL    HW230515  10.070  10.334   4.523
10089SOL     OW30516   6.891   2.836   1.316
10089SOL    HW130517   6.985   2.853   1.323
10089SOL    HW230518   6.859   2.845   1.405
10090SOL     OW30519   4.878   6.453   3.349
10090SOL    HW130520   4.784   6.466   3.335
10090SOL    HW230521   4.918   6.533   3.314
10091SOL     OW30522  11.055  11.886   6.313
10091SOL    HW130523  10.996  11.815   6.336
10091SOL    HW230524  10.997  11.959   6.289
10092SOL     OW30525   5.167   8.513   5.684
10092SOL    HW130526   5.255   8.492   5.654
10092SOL    HW230527   5.132   8.572   5.618
10093SOL     OW30528  13.140   9.659   3.481
10093SOL    HW130529  13.074   9.701   3.537
10093SOL    HW230530  13.198   9.730   3.456
10094SOL     OW30531   7.172   6.730   5.466
10094SOL    HW130532   7.103   6.694   5.411
10094SOL    HW230533   7.130   6.742   5.552
10095SOL     OW30534   3.820   5.285   0.301
10095SOL    HW130535   3.777   5.312   0.383
10095SOL    HW230536   3.900   5.241   0.329
10096SOL     OW30537   5.824   7.751   2.346
10096SOL    HW130538   5.835   7.779   2.436
10096SOL    HW230539   5.805   7.832   2.298
10097SOL     OW30540  12.712  12.227   6.464
10097SOL    HW130541  12.706  12.237   6.559
10097SOL    HW230542  12.623  12.205   6.436
10098SOL     OW30543   7.420   5.574   6.169
10098SOL    HW130544   7.453   5.499   6.220
10098SOL    HW230545   7.353   5.613   6.226
10099SOL     OW30546   7.025   7.641   4.791
10099SOL    HW130547   7.055   7.717   4.842
10099SOL    HW230548   7.103   7.586   4.782
10100SOL     OW30549  10.691  14.500   6.869
10100SOL    HW130550  10.646  14.417   6.861
10100SOL    HW230551  10.714  14.506   6.962
10101SOL     OW30552   9.238  11.356   5.184
10101SOL    HW130553   9.293  11.341   5.260
10101SOL    HW230554   9.286  11.317   5.111
10102SOL     OW30555  12.929   8.065   3.678
10102SOL    HW130556  12.955   8.141   3.730
10102SOL    HW230557  12.975   7.992   3.718
10103SOL     OW30558   4.488  13.607   5.856
10103SOL    HW130559   4.433  13.673   5.813
10103SOL    HW230560   4.577  13.628   5.827
10104SOL     OW30561   6.379   8.037   7.381
10104SOL    HW130562   6.369   7.993   7.297
10104SOL    HW230563   6.423   7.972   7.437
10105SOL     OW30564   9.458  10.326   7.575
10105SOL    HW130565   9.424  10.365   7.495
10105SOL    HW230566   9.543  10.289   7.549
10106SOL     OW30567   3.628   6.015   2.245
10106SOL    HW130568   3.577   6.051   2.317
10106SOL    HW230569   3.638   5.923   2.266
10107SOL     OW30570   3.951  10.199   3.764
10107SOL    HW130571   4.020  10.256   3.797
10107SOL    HW230572   3.911  10.249   3.693
10108SOL     OW30573   6.266   4.563   4.155
10108SOL    HW130574   6.195   4.518   4.110
10108SOL    HW230575   6.336   4.497   4.159
10109SOL     OW30576   5.126   7.726   5.313
10109SOL    HW130577   5.086   7.797   5.263
10109SOL    HW230578   5.053   7.681   5.355
10110SOL     OW30579   7.666  10.421   3.272
10110SOL    HW130580   7.754  10.414   3.236
10110SOL    HW230581   7.671  10.378   3.357
10111SOL     OW30582  12.743  11.571   5.490
10111SOL    HW130583  12.681  11.567   5.417
10111SOL    HW230584  12.698  11.625   5.556
10112SOL     OW30585  11.272   6.125   5.891
10112SOL    HW130586  11.356   6.136   5.936
10112SOL    HW230587  11.207   6.161   5.951
10113SOL     OW30588   2.638   1.210   0.840
10113SOL    HW130589   2.634   1.172   0.928
10113SOL    HW230590   2.725   1.247   0.834
10114SOL     OW30591   9.829   0.698   0.663
10114SOL    HW130592   9.856   0.633   0.727
10114SOL    HW230593   9.896   0.696   0.595
10115SOL     OW30594  12.237   5.536   2.422
10115SOL    HW130595  12.256   5.624   2.389
10115SOL    HW230596  12.318   5.487   2.407
10116SOL     OW30597   8.546   7.800   3.928
10116SOL    HW130598   8.598   7.880   3.925
10116SOL    HW230599   8.542   7.770   3.837
10117SOL     OW30600   2.666  11.265   2.354
10117SOL    HW130601   2.593  11.263   2.416
10117SOL    HW230602   2.672  11.357   2.327
10118SOL     OW30603   9.018   7.173   6.773
10118SOL    HW130604   9.109   7.171   6.744
10118SOL    HW230605   9.000   7.084   6.804
10119SOL     OW30606   9.399  10.622   6.300
10119SOL    HW130607   9.426  10.621   6.392
10119SOL    HW230608   9.372  10.712   6.283
10120SOL     OW30609   6.510  12.427   3.368
10120SOL    HW130610   6.437  12.437   3.307
10120SOL    HW230611   6.581  12.392   3.315
10121SOL     OW30612  10.803   4.061   5.699
10121SOL    HW130613  10.775   4.152   5.706
10121SOL    HW230614  10.762  14.792   5.774
10122SOL     OW30615  14.674   9.110   7.023
10122SOL    HW130616  14.674   9.123   7.118
10122SOL    HW230617  14.685   9.016   7.012
10123SOL     OW30618   7.518   7.885   2.805
10123SOL    HW130619   7.604   7.872   2.765
10123SOL    HW230620   7.537   7.917   2.893
10124SOL     OW30621   4.567   3.090   2.412
10124SOL    HW130622   4.528   3.173   2.383
10124SOL    HW230623   4.565   3.095   2.508
10125SOL     OW30624  12.741   4.633   4.083
10125SOL    HW130625  12.825   4.611   4.043
10125SOL    HW230626  12.676   4.584   4.032
10126SOL     OW30627   7.135   4.956   4.558
10126SOL    HW130628   7.139   5.036   4.505
10126SOL    HW230629   7.126   4.988   4.648
10127SOL     OW30630   9.671   5.600   0.873
10127SOL    HW130631   9.710   5.671   0.823
10127SOL    HW230632   9.577   5.610   0.860
10128SOL     OW30633  12.943   7.315   4.068
10128SOL    HW130634  12.962   7.408   4.081
10128SOL    HW230635  12.848   7.312   4.053
10129SOL     OW30636  10.079  13.810   4.376
10129SOL    HW130637   9.985  13.805   4.391
10129SOL    HW230638  10.108  13.885   4.428
10130SOL     OW30639  13.444   5.293   4.697
10130SOL    HW130640  13.398   5.276   4.779
10130SOL    HW230641  13.487   5.378   4.710
10131SOL     OW30642   2.874   6.934   2.876
10131SOL    HW130643   2.792   6.948   2.829
10131SOL    HW230644   2.886   7.014   2.927
10132SOL     OW30645  13.029   9.069   4.955
10132SOL    HW130646  13.099   9.123   4.992
10132SOL    HW230647  12.950   9.122   4.967
10133SOL     OW30648   3.559   9.035   3.655
10133SOL    HW130649   3.601   9.105   3.605
10133SOL    HW230650   3.480   9.075   3.692
10134SOL     OW30651   5.911  13.598   4.271
10134SOL    HW130652   5.904  13.604   4.176
10134SOL    HW230653   5.902  13.688   4.302
10135SOL     OW30654   9.992  11.842   3.148
10135SOL    HW130655  10.067  11.821   3.092
10135SOL    HW230656   9.958  11.756   3.174
10136SOL     OW30657   4.369  10.149   1.508
10136SOL    HW130658   4.377  10.244   1.492
10136SOL    HW230659   4.350  10.142   1.601
10137SOL     OW30660  12.971   2.498   3.461
10137SOL    HW130661  13.044   2.520   3.518
10137SOL    HW230662  12.931   2.583   3.438
10138SOL     OW30663  14.783   7.240   7.133
10138SOL    HW130664  14.720   7.309   7.153
10138SOL    HW230665  14.741   7.160   7.166
10139SOL     OW30666   6.258   7.238   3.618
10139SOL    HW130667   6.223   7.325   3.638
10139SOL    HW230668   6.249   7.230   3.523
10140SOL     OW30669  13.117  14.907   6.951
10140SOL    HW130670  13.116  14.991   6.906
10140SOL    HW230671  13.200  14.905   6.998
10141SOL     OW30672   6.163   9.607   2.967
10141SOL    HW130673   6.177   9.571   3.054
10141SOL    HW230674   6.070   9.592   2.949
10142SOL     OW30675   3.985   8.393   5.338
10142SOL    HW130676   4.050   8.458   5.365
10142SOL    HW230677   3.902   8.425   5.375
10143SOL     OW30678   7.826  10.665   1.332
10143SOL    HW130679   7.827  10.592   1.271
10143SOL    HW230680   7.897  10.722   1.303
10144SOL     OW30681   9.736  12.081   5.565
10144SOL    HW130682   9.678  12.092   5.640
10144SOL    HW230683   9.816  12.127   5.589
10145SOL     OW30684   7.633   6.175   5.687
10145SOL    HW130685   7.657   6.110   5.752
10145SOL    HW230686   7.578   6.237   5.734
10146SOL     OW30687   7.417   9.776   0.083
10146SOL    HW130688   7.409   9.842   0.014
10146SOL    HW230689   7.327   9.761   0.112
10147SOL     OW30690  12.263  11.218   3.430
10147SOL    HW130691  12.238  11.137   3.475
10147SOL    HW230692  12.356  11.208   3.411
10148SOL     OW30693  13.268  11.818   6.614
10148SOL    HW130694  13.243  11.877   6.543
10148SOL    HW230695  13.362  11.806   6.603
10149SOL     OW30696  12.088   3.431   2.145
10149SOL    HW130697  12.002   3.403   2.177
10149SOL    HW230698  12.125   3.352   2.106
10150SOL     OW30699   4.633   4.757   5.632
10150SOL    HW130700   4.589   4.685   5.678
10150SOL    HW230701   4.576   4.777   5.558
10151SOL     OW30702  11.691   4.190   3.661
10151SOL    HW130703  11.719   4.252   3.595
10151SOL    HW230704  11.666   4.244   3.736
10152SOL     OW30705   8.888   9.532   1.245
10152SOL    HW130706   8.959   9.596   1.235
10152SOL    HW230707   8.838   9.564   1.320
10153SOL     OW30708   4.919   7.669   2.240
10153SOL    HW130709   4.894   7.633   2.155
10153SOL    HW230710   4.839   7.710   2.273
10154SOL     OW30711  10.844   4.400   4.033
10154SOL    HW130712  10.885   4.368   3.953
10154SOL    HW230713  10.752   4.411   4.010
10155SOL     OW30714   4.427   7.885   4.492
10155SOL    HW130715   4.345   7.935   4.489
10155SOL    HW230716   4.487   7.943   4.538
10156SOL     OW30717   9.547  12.548   2.610
10156SOL    HW130718   9.493  12.481   2.568
10156SOL    HW230719   9.604   1.806   2.540
10157SOL     OW30720   1.406   8.321   1.752
10157SOL    HW130721   1.324   8.328   1.703
10157SOL    HW230722   1.452   8.248   1.711
10158SOL     OW30723   2.335  10.663   1.447
10158SOL    HW130724   2.360  10.712   1.525
10158SOL    HW230725   2.416  10.657   1.395
10159SOL     OW30726   7.376   8.907   3.936
10159SOL    HW130727   7.311   8.914   3.866
10159SOL    HW230728   7.460   8.927   3.894
10160SOL     OW30729  10.379   8.600   2.046
10160SOL    HW130730  10.417   8.651   1.975
10160SOL    HW230731  10.299   8.646   2.068
10161SOL     OW30732   2.546   4.210   2.331
10161SOL    HW130733   2.549   4.217   2.426
10161SOL    HW230734   2.602   4.135   2.311
10162SOL     OW30735  10.645   9.200   5.080
10162SOL    HW130736  10.604   9.114   5.089
10162SOL    HW230737  10.629   9.244   5.164
10163SOL     OW30738   9.388  10.686   1.061
10163SOL    HW130739   9.415  10.777   1.075
10163SOL    HW230740   9.295  10.685   1.085
10164SOL     OW30741   6.942   9.631   2.833
10164SOL    HW130742   6.866   9.573   2.829
10164SOL    HW230743   6.954   9.649   2.926
10165SOL     OW30744   1.815   4.570   1.843
10165SOL    HW130745   1.773   4.488   1.818
10165SOL    HW230746   1.904   4.563   1.808
10166SOL     OW30747  11.633  15.185   7.488
10166SOL    HW130748  11.718  15.228   7.498
10166SOL    HW230749  11.573  15.238   7.542
10167SOL     OW30750  12.411   8.127   6.394
10167SOL    HW130751  12.373   8.114   6.307
10167SOL    HW230752  12.477   8.195   6.381
10168SOL     OW30753   7.742  11.371   4.817
10168SOL    HW130754   7.681  11.342   4.885
10168SOL    HW230755   7.815  11.411   4.865
10169SOL     OW30756   7.472   3.608   4.624
10169SOL    HW130757   7.452   3.523   4.585
10169SOL    HW230758   7.415   3.670   4.578
10170SOL     OW30759   4.060   4.402   4.351
10170SOL    HW130760   4.153   4.389   4.366
10170SOL    HW230761   4.036   4.332   4.289
10171SOL     OW30762   4.892   7.592   4.475
10171SOL    HW130763   4.969   7.648   4.463
10171SOL    HW230764   4.887   7.541   4.394
10172SOL     OW30765   3.042  11.964   3.851
10172SOL    HW130766   3.069  12.055   3.836
10172SOL    HW230767   2.957  11.971   3.894
10173SOL     OW30768   9.946  13.910   5.686
10173SOL    HW130769   9.988  13.912   5.600
10173SOL    HW230770   9.975  13.828   5.725
10174SOL     OW30771   4.387   0.922   0.838
10174SOL    HW130772   4.482   0.929   0.828
10174SOL    HW230773   4.358   1.010   0.862
10175SOL     OW30774   3.014   2.585   2.863
10175SOL    HW130775   2.964   2.505   2.881
10175SOL    HW230776   3.094   2.554   2.820
10176SOL     OW30777  14.181  11.722   6.192
10176SOL    HW130778  14.216  11.713   6.103
10176SOL    HW230779  14.258  11.738   6.246
10177SOL     OW30780   6.949   5.193   2.029
10177SOL    HW130781   6.915   5.279   2.002
10177SOL    HW230782   7.039   5.210   2.057
10178SOL     OW30783   3.681   4.297   1.725
10178SOL    HW130784   3.604   4.247   1.696
10178SOL    HW230785   3.694   4.363   1.657
10179SOL     OW30786  12.861  10.138   6.981
10179SOL    HW130787  12.873  10.209   6.919
10179SOL    HW230788  12.950  10.114   7.008
10180SOL     OW30789   6.047   6.035   1.552
10180SOL    HW130790   6.094   6.047   1.635
10180SOL    HW230791   6.097   5.967   1.506
10181SOL     OW30792   2.276   4.082   2.139
10181SOL    HW130793   2.181   4.091   2.133
10181SOL    HW230794   2.303   4.155   2.194
10182SOL     OW30795  11.147   2.270   0.591
10182SOL    HW130796  11.095   2.247   0.668
10182SOL    HW230797   0.432   2.196   0.580
10183SOL     OW30798  11.795   8.513   3.752
10183SOL    HW130799  11.869   8.464   3.717
10183SOL    HW230800  11.721   8.452   3.749
10184SOL     OW30801   8.305   7.472   1.159
10184SOL    HW130802   8.280   7.401   1.219
10184SOL    HW230803   8.243   7.464   1.086
10185SOL     OW30804   3.015   5.760   1.693
10185SOL    HW130805   3.029   5.836   1.750
10185SOL    HW230806   2.980   5.797   1.612
10186SOL     OW30807   5.198   8.682   2.355
10186SOL    HW130808   5.139   8.608   2.370
10186SOL    HW230809   5.182   8.708   2.264
10187SOL     OW30810  10.852  12.193   3.269
10187SOL    HW130811  10.794  12.116   3.267
10187SOL    HW230812  10.797  12.263   3.305
10188SOL     OW30813   5.994   7.457   7.203
10188SOL    HW130814   6.044   7.438   7.123
10188SOL    HW230815   6.049   7.518   7.252
10189SOL     OW30816   3.394   7.778   2.175
10189SOL    HW130817   3.363   7.706   2.229
10189SOL    HW230818   3.466   7.817   2.225
10190SOL     OW30819  10.947   7.850   0.318
10190SOL    HW130820   0.236   7.902   0.268
10190SOL    HW230821  10.901   7.914   0.372
10191SOL     OW30822   3.228  11.908   3.619
10191SOL    HW130823   3.303  11.860   3.584
10191SOL    HW230824   3.221  11.878   3.710
10192SOL     OW30825  10.614   6.121   2.192
10192SOL    HW130826  10.524   6.140   2.217
10192SOL    HW230827  10.609   6.097   2.099
10193SOL     OW30828   6.532   7.465   2.523
10193SOL    HW130829   6.478   7.542   2.505
10193SOL    HW230830   6.617   7.484   2.483
10194SOL     OW30831   6.185   8.282   3.852
10194SOL    HW130832   6.209   8.292   3.760
10194SOL    HW230833   6.151   8.368   3.878
10195SOL     OW30834  11.755  10.726   1.667
10195SOL    HW130835  11.782  10.818   1.662
10195SOL    HW230836  11.822  10.684   1.721
10196SOL     OW30837   5.884  11.047   6.394
10196SOL    HW130838   5.818  11.077   6.332
10196SOL    HW230839   5.834  11.001   6.461
10197SOL     OW30840   2.330   5.893   1.072
10197SOL    HW130841   2.335   5.975   1.121
10197SOL    HW230842   2.344   5.918   0.980
10198SOL     OW30843   2.848   8.433   0.381
10198SOL    HW130844   2.840   8.452   0.287
10198SOL    HW230845   2.817   8.512   0.424
10199SOL     OW30846   5.244   4.125   0.900
10199SOL    HW130847   5.239   4.200   0.960
10199SOL    HW230848   5.205   4.053   0.949
10200SOL     OW30849   5.040  10.094   1.536
10200SOL    HW130850   5.133  10.095   1.512
10200SOL    HW230851   4.994  10.081   1.453
10201SOL     OW30852   5.730   4.396   0.749
10201SOL    HW130853   5.694   4.349   0.674
10201SOL    HW230854   5.696   4.485   0.739
10202SOL     OW30855   0.872   0.667   0.228
10202SOL    HW130856   0.906   0.639   0.143
10202SOL    HW230857   0.888   0.592   0.285
10203SOL     OW30858  11.908  11.647   3.527
10203SOL    HW130859  11.973  11.686   3.585
10203SOL    HW230860  11.940  11.665   3.439
10204SOL     OW30861  14.815   6.308   6.360
10204SOL    HW130862  14.890   6.360   6.330
10204SOL    HW230863  14.743   6.335   6.303
10205SOL     OW30864  10.800   2.030   2.117
10205SOL    HW130865  10.845   2.112   2.100
10205SOL    HW230866  10.761   2.006   2.034
10206SOL     OW30867   8.137  11.458   4.350
10206SOL    HW130868   8.116  11.473   4.442
10206SOL    HW230869   8.147  11.363   4.343
10207SOL     OW30870   5.473   5.179   2.463
10207SOL    HW130871   5.438   5.258   2.421
10207SOL    HW230872   5.498   5.208   2.550
10208SOL     OW30873   0.930   1.131   0.150
10208SOL    HW130874   0.994   1.115   0.080
10208SOL    HW230875   0.943   1.058   0.211
10209SOL     OW30876   3.382  13.292   4.413
10209SOL    HW130877   3.423  13.206   4.404
10209SOL    HW230878   3.294  13.280   4.377
10210SOL     OW30879  12.042   7.561   4.792
10210SOL    HW130880  12.029   7.536   4.884
10210SOL    HW230881  12.130   7.530   4.771
10211SOL     OW30882   6.685   2.387   2.528
10211SOL    HW130883   6.666   2.381   2.622
10211SOL    HW230884   6.690   2.297   2.498
10212SOL     OW30885   9.919   9.757   6.694
10212SOL    HW130886   9.947   9.681   6.745
10212SOL    HW230887   9.974   9.828   6.725
10213SOL     OW30888  11.047   6.859   1.355
10213SOL    HW130889  10.978   6.793   1.358
10213SOL    HW230890  11.027   6.910   1.277
10214SOL     OW30891   9.792   9.624   1.647
10214SOL    HW130892   9.712   9.573   1.631
10214SOL    HW230893   9.779   9.659   1.736
10215SOL     OW30894  10.818   9.915   2.356
10215SOL    HW130895  10.872   9.855   2.408
10215SOL    HW230896  10.881   9.977   2.318
10216SOL     OW30897   4.459  10.723   2.654
10216SOL    HW130898   4.387  10.684   2.703
10216SOL    HW230899   4.430  10.812   2.634
10217SOL     OW30900  14.832   7.009   7.420
10217SOL    HW130901  14.900   7.067   7.385
10217SOL    HW230902  14.791   6.971   7.342
10218SOL     OW30903   8.259   4.631   0.272
10218SOL    HW130904   8.252   4.646   0.178
10218SOL    HW230905   8.347   4.660   0.294
10219SOL     OW30906   2.784   4.417   3.126
10219SOL    HW130907   2.732   4.426   3.205
10219SOL    HW230908   2.720   4.413   3.055
10220SOL     OW30909   3.241   2.838   1.532
10220SOL    HW130910   3.278   2.899   1.469
10220SOL    HW230911   3.148   2.832   1.509
10221SOL     OW30912   0.555   9.259   0.765
10221SOL    HW130913   0.516   9.256   0.677
10221SOL    HW230914  11.319   9.169   0.798
10222SOL     OW30915   8.676   3.896   1.231
10222SOL    HW130916   8.583   3.885   1.210
10222SOL    HW230917   8.683   3.988   1.258
10223SOL     OW30918   3.446   9.506   2.849
10223SOL    HW130919   3.493   9.426   2.827
10223SOL    HW230920   3.479   9.572   2.788
10224SOL     OW30921   8.449   9.042   6.610
10224SOL    HW130922   8.356   9.049   6.632
10224SOL    HW230923   8.465   8.947   6.605
10225SOL     OW30924   6.044  14.127   5.125
10225SOL    HW130925   5.972  14.084   5.170
10225SOL    HW230926   6.006  14.158   5.043
10226SOL     OW30927   6.490   5.119   4.152
10226SOL    HW130928   6.547   5.093   4.225
10226SOL    HW230929   6.404   5.084   4.175
10227SOL     OW30930   9.046  11.124   4.337
10227SOL    HW130931   9.006  11.047   4.377
10227SOL    HW230932   9.067  11.097   4.247
10228SOL     OW30933   5.372  10.321   5.305
10228SOL    HW130934   5.351  10.301   5.396
10228SOL    HW230935   5.402  10.237   5.269
10229SOL     OW30936   9.911  11.019   4.203
10229SOL    HW130937   9.905  10.979   4.290
10229SOL    HW230938   9.840  11.083   4.201
10230SOL     OW30939   9.527   8.273   0.778
10230SOL    HW130940   9.468   8.299   0.849
10230SOL    HW230941   9.468   8.244   0.708
10231SOL     OW30942  11.416   8.393   3.945
10231SOL    HW130943  11.466   8.457   3.996
10231SOL    HW230944  11.444   8.408   3.854
10232SOL     OW30945   9.335   2.355   1.529
10232SOL    HW130946   9.337   2.371   1.623
10232SOL    HW230947   9.410   2.404   1.494
10233SOL     OW30948   8.864  12.732   5.926
10233SOL    HW130949   8.815  12.677   5.987
10233SOL    HW230950   8.939  12.763   5.977
10234SOL     OW30951   6.158  15.037   6.203
10234SOL    HW130952   6.114  14.959   6.170
10234SOL    HW230953   6.223  15.003   6.265
10235SOL     OW30954  11.650   8.203   7.182
10235SOL    HW130955  11.739   8.179   7.209
10235SOL    HW230956  11.658   8.293   7.151
10236SOL     OW30957   4.669   7.170   2.884
10236SOL    HW130958   4.677   7.258   2.848
10236SOL    HW230959   4.693   7.112   2.812
10237SOL     OW30960  10.390   4.161   5.323
10237SOL    HW130961  10.479   4.173   5.357
10237SOL    HW230962  10.360   4.250   5.305
10238SOL     OW30963   7.667  14.524   5.381
10238SOL    HW130964   7.615  14.560   5.453
10238SOL    HW230965   7.604  14.504   5.313
10239SOL     OW30966   5.791  11.324   4.922
10239SOL    HW130967   5.807  11.326   4.827
10239SOL    HW230968   5.709  11.276   4.931
10240SOL     OW30969   8.434   7.409   0.907
10240SOL    HW130970   8.425   7.502   0.928
10240SOL    HW230971   8.498   7.376   0.970
10241SOL     OW30972  12.421  10.786   3.529
10241SOL    HW130973  12.376  10.856   3.576
10241SOL    HW230974  12.408  10.808   3.436
10242SOL     OW30975   6.988  12.868   2.962
10242SOL    HW130976   6.920   2.161   2.960
10242SOL    HW230977   7.070   2.142   2.954
10243SOL     OW30978   4.855  12.447   5.395
10243SOL    HW130979   4.781  12.421   5.341
10243SOL    HW230980   4.852  12.387   5.470
10244SOL     OW30981  14.967   4.987   6.673
10244SOL    HW130982  14.950   4.897   6.701
10244SOL    HW230983  14.966   5.038   6.754
10245SOL     OW30984  12.055   5.269   3.293
10245SOL    HW130985  12.109   5.238   3.367
10245SOL    HW230986  12.108   5.339   3.253
10246SOL     OW30987  12.021  13.198   7.517
10246SOL    HW130988  11.937  13.175   7.477
10246SOL    HW230989  12.061  13.114   7.538
10247SOL     OW30990  10.530  11.018   6.899
10247SOL    HW130991  10.521  10.988   6.990
10247SOL    HW230992  10.596  10.961   6.861
10248SOL     OW30993   3.975   8.465   0.337
10248SOL    HW130994   3.975   8.464   0.242
10248SOL    HW230995   3.931   8.546   0.360
10249SOL     OW30996  13.724  12.707   5.079
10249SOL    HW130997  13.807  12.663   5.063
10249SOL    HW230998  13.749  12.793   5.114
10250SOL     OW30999  11.307   3.493   4.050
10250SOL    HW131000  11.345   3.480   3.963
10250SOL    HW231001  11.307   3.588   4.062
10251SOL     OW31002   5.981  10.186   4.808
10251SOL    HW131003   6.075  10.189   4.791
10251SOL    HW231004   5.960  10.272   4.844
10252SOL     OW31005   6.172  11.177   4.072
10252SOL    HW131006   6.111  11.251   4.073
10252SOL    HW231007   6.246  11.209   4.020
10253SOL     OW31008  11.377   6.107   3.058
10253SOL    HW131009  11.286   6.102   3.085
10253SOL    HW231010  11.379   6.068   2.971
10254SOL     OW31011   8.586   5.293   0.707
10254SOL    HW131012   8.507   5.331   0.669
10254SOL    HW231013   8.554   5.233   0.775
10255SOL     OW31014   4.720  12.193   5.933
10255SOL    HW131015   4.734  12.111   5.980
10255SOL    HW231016   4.743  12.261   5.996
10256SOL     OW31017  13.073  12.927   4.514
10256SOL    HW131018  13.100  12.956   4.601
10256SOL    HW231019  13.134  12.857   4.491
10257SOL     OW31020   9.630   1.433   1.616
10257SOL    HW131021   9.552   1.486   1.603
10257SOL    HW231022   9.703   1.494   1.608
10258SOL     OW31023   8.863   8.299   5.281
10258SOL    HW131024   8.834   8.262   5.198
10258SOL    HW231025   8.949   8.338   5.261
10259SOL     OW31026  11.823   3.225   3.856
10259SOL    HW131027  11.764   3.170   3.908
10259SOL    HW231028  11.770   3.253   3.781
10260SOL     OW31029   4.622   5.309   4.413
10260SOL    HW131030   4.710   5.342   4.425
10260SOL    HW231031   4.628   5.251   4.337
10261SOL     OW31032   2.570   5.181   1.010
10261SOL    HW131033   2.510   5.136   0.951
10261SOL    HW231034   2.575   5.271   0.976
10262SOL     OW31035   2.410   3.157   3.342
10262SOL    HW131036  13.183   3.099   3.418
10262SOL    HW231037   2.503   3.178   3.331
10263SOL     OW31038  11.208   7.850   6.551
10263SOL    HW131039  11.273   7.807   6.494
10263SOL    HW231040  11.252   7.929   6.582
10264SOL     OW31041   7.907  10.919   6.962
10264SOL    HW131042   7.981  10.949   6.908
10264SOL    HW231043   7.832  10.921   6.903
10265SOL     OW31044   5.102   4.746   6.066
10265SOL    HW131045   5.096   4.653   6.045
10265SOL    HW231046   5.140   4.749   6.154
10266SOL     OW31047   7.739   4.128   4.778
10266SOL    HW131048   7.828   4.163   4.770
10266SOL    HW231049   7.714   4.146   4.868
10267SOL     OW31050  12.972   4.180   3.777
10267SOL    HW131051  13.059   4.162   3.813
10267SOL    HW231052  12.948   4.265   3.812
10268SOL     OW31053   9.838  12.121   5.188
10268SOL    HW131054   9.788  12.203   5.184
10268SOL    HW231055   9.868  12.106   5.099
10269SOL     OW31056  13.775  12.422   5.002
10269SOL    HW131057  13.828  12.501   4.994
10269SOL    HW231058  13.828  12.363   5.056
10270SOL     OW31059   8.472   3.667   1.353
10270SOL    HW131060   8.478   3.662   1.448
10270SOL    HW231061   8.440   3.755   1.335
10271SOL     OW31062  10.959  12.443   6.186
10271SOL    HW131063  11.008  12.419   6.265
10271SOL    HW231064  10.867  12.433   6.210
10272SOL     OW31065   9.265   7.024   1.792
10272SOL    HW131066   9.193   6.962   1.799
10272SOL    HW231067   9.327   6.982   1.732
10273SOL     OW31068   8.946  13.715   6.890
10273SOL    HW131069   8.892  13.779   6.845
10273SOL    HW231070   8.961  13.752   6.977
10274SOL     OW31071   3.354  11.232   1.755
10274SOL    HW131072   3.282  11.182   1.717
10274SOL    HW231073   3.335  11.323   1.732
10275SOL     OW31074   9.189  14.204   7.142
10275SOL    HW131075   9.256  14.188   7.075
10275SOL    HW231076   9.175  14.299   7.139
10276SOL     OW31077   3.449   3.676   3.668
10276SOL    HW131078   3.464   3.627   3.587
10276SOL    HW231079   3.520   3.647   3.726
10277SOL     OW31080   4.879   6.681   1.202
10277SOL    HW131081   4.966   6.699   1.237
10277SOL    HW231082   4.821   6.685   1.278
10278SOL     OW31083   8.237   8.208   1.122
10278SOL    HW131084   8.231   8.157   1.041
10278SOL    HW231085   8.221   8.298   1.095
10279SOL     OW31086   8.692   4.125   1.364
10279SOL    HW131087   8.743   4.166   1.294
10279SOL    HW231088   8.666   4.198   1.421
10280SOL     OW31089   7.561   6.311   6.807
10280SOL    HW131090   7.506   6.279   6.735
10280SOL    HW231091   7.609   6.234   6.837
10281SOL     OW31092   4.102  13.494   3.966
10281SOL    HW131093   4.048  13.563   4.005
10281SOL    HW231094   4.096  13.509   3.872
10282SOL     OW31095   7.354  10.191   5.190
10282SOL    HW131096   7.390  10.105   5.213
10282SOL    HW231097   7.320  10.180   5.101
10283SOL     OW31098  11.744   6.495   4.628
10283SOL    HW131099  11.712   6.466   4.542
10283SOL    HW231100  11.776   6.584   4.613
10284SOL     OW31101   9.117   5.889   5.577
10284SOL    HW131102   9.027   5.865   5.555
10284SOL    HW231103   9.127   5.860   5.668
10285SOL     OW31104  11.496   9.577   1.414
10285SOL    HW131105  11.467   9.664   1.441
10285SOL    HW231106  11.512   9.530   1.496
10286SOL     OW31107   6.800   6.862   4.742
10286SOL    HW131108   6.859   6.863   4.818
10286SOL    HW231109   6.723   6.911   4.770
10287SOL     OW31110  12.087  10.085   2.832
10287SOL    HW131111  12.059  10.152   2.769
10287SOL    HW231112  12.005  10.051   2.869
10288SOL     OW31113   8.798   8.243   2.624
10288SOL    HW131114   8.744   8.302   2.570
10288SOL    HW231115   8.750   8.235   2.706
10289SOL     OW31116   9.085   8.797   3.852
10289SOL    HW131117   9.104   8.875   3.799
10289SOL    HW231118   9.036   8.831   3.927
10290SOL     OW31119  12.843  13.833   5.304
10290SOL    HW131120  12.751  13.860   5.306
10290SOL    HW231121  12.886  13.898   5.248
10291SOL     OW31122   3.379  13.703   4.688
10291SOL    HW131123   3.432  13.727   4.613
10291SOL    HW231124   3.361  13.610   4.677
10292SOL     OW31125   3.150   4.260   4.258
10292SOL    HW131126   3.181   4.175   4.226
10292SOL    HW231127   3.109   4.241   4.342
10293SOL     OW31128   2.303   7.319   0.847
10293SOL    HW131129   2.218   7.313   0.890
10293SOL    HW231130   2.364   7.342   0.917
10294SOL     OW31131  15.636   7.564   7.420
10294SOL    HW131132  15.707   7.500   7.426
10294SOL    HW231133  15.639   7.593   7.329
10295SOL     OW31134  14.707  12.878   7.135
10295SOL    HW131135  14.683  12.970   7.147
10295SOL    HW231136  14.631  12.839   7.090
10296SOL     OW31137   9.028  11.183   5.325
10296SOL    HW131138   9.037  11.248   5.256
10296SOL    HW231139   8.936  11.158   5.322
10297SOL     OW31140  11.073   9.716   2.730
10297SOL    HW131141  11.030   9.677   2.654
10297SOL    HW231142  11.166   9.719   2.706
10298SOL     OW31143   7.551  12.659   3.543
10298SOL    HW131144   7.523  12.634   3.631
10298SOL    HW231145   7.645  12.642   3.542
10299SOL     OW31146   6.244   7.871   1.020
10299SOL    HW131147   6.319   7.812   1.005
10299SOL    HW231148   6.265   7.949   0.968
10300SOL     OW31149   9.943   4.165   2.751
10300SOL    HW131150   9.891   4.098   2.707
10300SOL    HW231151   9.888   4.193   2.824
10301SOL     OW31152   2.701  10.429   3.102
10301SOL    HW131153   2.722  10.336   3.112
10301SOL    HW231154   2.781  10.475   3.128
10302SOL     OW31155   6.635   3.953   4.659
10302SOL    HW131156   6.646   3.866   4.697
10302SOL    HW231157   6.701   3.958   4.589
10303SOL     OW31158  11.168   5.832   5.927
10303SOL    HW131159  11.210   5.907   5.885
10303SOL    HW231160  11.145   5.864   6.014
10304SOL     OW31161   9.776  11.765   3.883
10304SOL    HW131162   9.766  11.791   3.975
10304SOL    HW231163   9.817  11.841   3.841
10305SOL     OW31164   6.191  10.974   1.296
10305SOL    HW131165   6.191  10.939   1.385
10305SOL    HW231166   6.243  11.054   1.302
10306SOL     OW31167   6.114  10.902   7.216
10306SOL    HW131168   6.042  10.842   7.199
10306SOL    HW231169   6.146  10.877   7.303
10307SOL     OW31170   8.898   2.532   2.893
10307SOL    HW131171   8.896   2.495   2.805
10307SOL    HW231172   8.975   2.493   2.934
10308SOL     OW31173  11.132   3.175   1.369
10308SOL    HW131174  11.200   3.207   1.310
10308SOL    HW231175  11.133   3.080   1.357
10309SOL     OW31176   9.886  14.090   5.875
10309SOL    HW131177   9.892  14.012   5.821
10309SOL    HW231178   9.934  14.068   5.955
10310SOL     OW31179   7.015   7.141   1.988
10310SOL    HW131180   7.035   7.132   1.895
10310SOL    HW231181   7.041   7.058   2.027
10311SOL     OW31182   4.998  12.533   2.970
10311SOL    HW131183   4.968  12.548   3.060
10311SOL    HW231184   5.092  12.548   2.973
10312SOL     OW31185   9.223  12.626   4.537
10312SOL    HW131186   9.300  12.669   4.576
10312SOL    HW231187   9.257  12.582   4.459
10313SOL     OW31188  12.878  13.033   5.549
10313SOL    HW131189  12.856  12.993   5.633
10313SOL    HW231190  12.870  12.962   5.485
10314SOL     OW31191   7.782  10.719   0.753
10314SOL    HW131192   7.772  10.706   0.659
10314SOL    HW231193   7.700  10.686   0.791
10315SOL     OW31194   3.423   4.206   2.467
10315SOL    HW131195   3.501   4.178   2.514
10315SOL    HW231196   3.395   4.286   2.512
10316SOL     OW31197  12.094   8.479   6.769
10316SOL    HW131198  11.999   8.490   6.766
10316SOL    HW231199  12.128   8.543   6.707
10317SOL     OW31200   5.851   7.568   0.973
10317SOL    HW131201   5.815   7.595   1.058
10317SOL    HW231202   5.892   7.648   0.938
10318SOL     OW31203   8.553   6.881   2.438
10318SOL    HW131204   8.596   6.939   2.375
10318SOL    HW231205   8.475   6.850   2.392
10319SOL     OW31206  13.142   5.515   4.841
10319SOL    HW131207  13.055   5.547   4.865
10319SOL    HW231208  13.135   5.420   4.846
10320SOL     OW31209  11.076   8.993   0.630
10320SOL    HW131210  11.020   8.919   0.652
10320SOL    HW231211  11.118   8.968   0.548
10321SOL     OW31212   4.894   9.372   5.967
10321SOL    HW131213   4.983   9.403   5.988
10321SOL    HW231214   4.837   9.419   6.028
10322SOL     OW31215   8.484   2.825   3.980
10322SOL    HW131216   8.539  13.533   3.939
10322SOL    HW231217   8.460   2.884   3.908
10323SOL     OW31218  10.200   5.760   5.589
10323SOL    HW131219  10.106   5.769   5.604
10323SOL    HW231220  10.241   5.813   5.658
10324SOL     OW31221  14.208   6.441   7.285
10324SOL    HW131222  14.176   6.351   7.295
10324SOL    HW231223  14.187   6.464   7.195
10325SOL     OW31224   1.764   3.463   2.334
10325SOL    HW131225   1.805   3.428   2.254
10325SOL    HW231226   1.681   3.498   2.304
10326SOL     OW31227   9.070   7.163   5.901
10326SOL    HW131228   9.069   7.123   5.988
10326SOL    HW231229   9.153   7.133   5.863
10327SOL     OW31230   9.553   3.838   4.856
10327SOL    HW131231   9.587   3.763   4.808
10327SOL    HW231232   9.631   3.883   4.889
10328SOL     OW31233   4.915  12.012   5.425
10328SOL    HW131234   5.003  12.042   5.403
10328SOL    HW231235   4.862  12.036   5.349
10329SOL     OW31236   3.038   9.486   3.650
10329SOL    HW131237   3.075   9.432   3.580
10329SOL    HW231238   2.954   9.516   3.616
10330SOL     OW31239   9.182  12.799   7.312
10330SOL    HW131240   9.140  12.715   7.328
10330SOL    HW231241   9.143  12.830   7.230
10331SOL     OW31242  10.948  10.529   6.318
10331SOL    HW131243  11.035  10.492   6.302
10331SOL    HW231244  10.942  10.604   6.258
10332SOL     OW31245   1.964   7.459   1.098
10332SOL    HW131246   1.930   7.539   1.138
10332SOL    HW231247   1.940   7.466   1.006
10333SOL     OW31248  11.965  11.100   5.489
10333SOL    HW131249  11.987  11.192   5.508
10333SOL    HW231250  11.934  11.066   5.572
10334SOL     OW31251   9.553   9.941   2.748
10334SOL    HW131252   9.589  10.009   2.805
10334SOL    HW231253   9.564   9.977   2.659
10335SOL     OW31254   7.608   3.922   0.658
10335SOL    HW131255   7.593   3.984   0.729
10335SOL    HW231256   7.524   3.916   0.613
10336SOL     OW31257   8.172  10.301   0.116
10336SOL    HW131258   8.162  10.392   0.087
10336SOL    HW231259   8.181  10.308   0.211
10337SOL     OW31260   1.740   3.045   1.176
10337SOL    HW131261   1.765   3.041   1.268
10337SOL    HW231262   1.654   3.085   1.176
10338SOL     OW31263   2.214   6.522   1.913
10338SOL    HW131264   2.225   6.433   1.947
10338SOL    HW231265   2.130   6.551   1.948
10339SOL     OW31266   8.485   4.789   0.373
10339SOL    HW131267   8.426   4.860   0.399
10339SOL    HW231268   8.572   4.820   0.399
10340SOL     OW31269   4.198   5.933   3.837
10340SOL    HW131270   4.160   5.850   3.807
10340SOL    HW231271   4.287   5.910   3.864
10341SOL     OW31272   8.315   6.723   1.060
10341SOL    HW131273   8.382   6.671   1.015
10341SOL    HW231274   8.265   6.763   0.989
10342SOL     OW31275   4.053  10.275   1.604
10342SOL    HW131276   4.036  10.366   1.580
10342SOL    HW231277   4.141  10.275   1.639
10343SOL     OW31278   9.902   2.947   1.155
10343SOL    HW131279   9.849   2.938   1.234
10343SOL    HW231280   9.929   3.039   1.154
10344SOL     OW31281  11.272   8.373   7.009
10344SOL    HW131282  11.299   8.296   6.959
10344SOL    HW231283  11.290   8.447   6.951
10345SOL     OW31284  11.501  13.020   6.484
10345SOL    HW131285  11.491  13.096   6.426
10345SOL    HW231286  11.472  12.946   6.432
10346SOL     OW31287   5.013   7.128   4.642
10346SOL    HW131288   4.946   7.063   4.621
10346SOL    HW231289   4.970   7.212   4.628
10347SOL     OW31290  13.234  11.121   3.570
10347SOL    HW131291  13.157  11.145   3.621
10347SOL    HW231292  13.200  11.061   3.503
10348SOL     OW31293   4.690   9.010   0.944
10348SOL    HW131294   4.641   8.941   0.989
10348SOL    HW231295   4.666   9.000   0.852
10349SOL     OW31296   5.426  12.583   6.124
10349SOL    HW131297   5.350  12.563   6.180
10349SOL    HW231298   5.414  12.674   6.099
10350SOL     OW31299   2.453   2.423   1.603
10350SOL    HW131300   2.452   2.490   1.534
10350SOL    HW231301   2.433   2.471   1.683
10351SOL     OW31302   6.321   6.258   5.686
10351SOL    HW131303   6.411   6.227   5.698
10351SOL    HW231304   6.275   6.228   5.765
10352SOL     OW31305   6.346   5.115   2.800
10352SOL    HW131306   6.422   5.147   2.752
10352SOL    HW231307   6.363   5.140   2.891
10353SOL     OW31308  12.004   5.676   1.962
10353SOL    HW131309  11.983   5.612   1.894
10353SOL    HW231310  12.032   5.623   2.036
10354SOL     OW31311  11.147   9.667   4.397
10354SOL    HW131312  11.129   9.679   4.303
10354SOL    HW231313  11.223   9.723   4.414
10355SOL     OW31314  13.626  11.466   6.436
10355SOL    HW131315  13.666  11.383   6.463
10355SOL    HW231316  13.532  11.449   6.437
10356SOL     OW31317   8.106  14.315   5.936
10356SOL    HW131318   8.047  14.268   5.878
10356SOL    HW231319   8.108  14.264   6.017
10357SOL     OW31320  10.186   3.300   3.139
10357SOL    HW131321  10.228   3.296   3.053
10357SOL    HW231322  10.094   3.316   3.119
10358SOL     OW31323  11.674   6.010   6.641
10358SOL    HW131324  11.639   6.008   6.552
10358SOL    HW231325  11.700   5.919   6.658
10359SOL     OW31326  11.260   9.205   2.054
10359SOL    HW131327  11.169   9.178   2.047
10359SOL    HW231328  11.262   9.292   2.014
10360SOL     OW31329   5.412   5.912   7.108
10360SOL    HW131330   5.328   5.908   7.153
10360SOL    HW231331   5.475   5.937   7.176
10361SOL     OW31332   6.473  11.115   0.495
10361SOL    HW131333   6.404   0.405   0.511
10361SOL    HW231334   6.472  11.060   0.573
10362SOL     OW31335   5.683  15.360   6.897
10362SOL    HW131336   5.630  15.287   6.929
10362SOL    HW231337   5.648  15.379   6.810
10363SOL     OW31338   1.419  10.043   1.835
10363SOL    HW131339   1.443   9.971   1.777
10363SOL    HW231340   1.390  10.113   1.777
10364SOL     OW31341   1.644   1.267   0.057
10364SOL    HW131342   1.668   1.275   0.149
10364SOL    HW231343   1.665   1.177   0.034
10365SOL     OW31344   4.499   0.122   0.043
10365SOL    HW131345   4.495   0.208   0.002
10365SOL    HW231346   4.417   0.079   0.018
10366SOL     OW31347  12.721  14.992   7.456
10366SOL    HW131348  12.792  15.019   7.397
10366SOL    HW231349  12.762  14.991   7.543
10367SOL     OW31350   1.401   6.338   0.287
10367SOL    HW131351   1.400   6.247   0.318
10367SOL    HW231352   1.348   6.337   0.207
10368SOL     OW31353   3.766   4.863   1.753
10368SOL    HW131354   3.792   4.868   1.661
10368SOL    HW231355   3.843   4.829   1.799
10369SOL     OW31356  10.097   8.496   2.907
10369SOL    HW131357  10.049   8.568   2.865
10369SOL    HW231358  10.106   8.431   2.838
10370SOL     OW31359   4.759   9.605   2.264
10370SOL    HW131360   4.807   9.547   2.322
10370SOL    HW231361   4.808   9.603   2.181
10371SOL     OW31362  12.706  12.479   5.286
10371SOL    HW131363  12.625  12.444   5.249
10371SOL    HW231364  12.714  12.567   5.250
10372SOL     OW31365   9.748   6.480   4.043
10372SOL    HW131366   9.758   6.540   4.116
10372SOL    HW231367   9.656   6.488   4.016
10373SOL     OW31368   0.780   5.729   0.875
10373SOL    HW131369   0.754   5.715   0.784
10373SOL    HW231370   0.862   5.680   0.885
10374SOL     OW31371   7.908  12.553   3.606
10374SOL    HW131372   7.952  12.636   3.591
10374SOL    HW231373   7.921  12.504   3.524
10375SOL     OW31374   6.341  11.987   5.327
10375SOL    HW131375   6.319  12.078   5.348
10375SOL    HW231376   6.329  11.940   5.409
10376SOL     OW31377  12.106   4.658   6.503
10376SOL    HW131378  12.147   4.718   6.441
10376SOL    HW231379  12.129  15.345   6.470
10377SOL     OW31380   9.096   9.560   6.549
10377SOL    HW131381   9.144   9.565   6.466
10377SOL    HW231382   9.148   9.502   6.604
10378SOL     OW31383   7.108  11.606   3.424
10378SOL    HW131384   7.137  11.580   3.511
10378SOL    HW231385   7.068  11.692   3.437
10379SOL     OW31386  10.957  11.854   4.056
10379SOL    HW131387  11.042  11.865   4.099
10379SOL    HW231388  10.896  11.901   4.112
10380SOL     OW31389  10.095   9.740   1.367
10380SOL    HW131390  10.126   9.660   1.323
10380SOL    HW231391  10.124   9.730   1.458
10381SOL     OW31392  12.205   5.402   4.521
10381SOL    HW131393  12.118   5.376   4.492
10381SOL    HW231394  12.192   5.487   4.564
10382SOL     OW31395   6.329  10.837   4.897
10382SOL    HW131396   6.279  10.869   4.972
10382SOL    HW231397   6.351  10.747   4.919
10383SOL     OW31398  10.210   6.591   2.522
10383SOL    HW131399  10.203   6.683   2.548
10383SOL    HW231400  10.301   6.567   2.543
10384SOL     OW31401  10.368   4.495   4.663
10384SOL    HW131402  10.301   4.489   4.594
10384SOL    HW231403  10.416   4.412   4.658
10385SOL     OW31404   9.959   5.395   4.237
10385SOL    HW131405   9.898   5.411   4.309
10385SOL    HW231406  10.009   5.476   4.230
10386SOL     OW31407   4.168  12.006   2.221
10386SOL    HW131408   4.194  12.010   2.129
10386SOL    HW231409   4.233  11.948   2.262
10387SOL     OW31410   8.945   6.601   1.887
10387SOL    HW131411   9.029   6.603   1.842
10387SOL    HW231412   8.965   6.621   1.978
10388SOL     OW31413   4.217  11.305   5.827
10388SOL    HW131414   4.228  11.292   5.733
10388SOL    HW231415  14.901  11.279   5.845
10389SOL     OW31416   7.826   6.327   4.439
10389SOL    HW131417   7.746   6.362   4.478
10389SOL    HW231418   7.799   6.295   4.353
10390SOL     OW31419   5.081   5.086   3.001
10390SOL    HW131420   5.086   5.086   3.097
10390SOL    HW231421   5.163   5.045   2.974
10391SOL     OW31422  11.376   9.180   4.700
10391SOL    HW131423  11.321   9.130   4.760
10391SOL    HW231424  11.412   9.250   4.753
10392SOL     OW31425  13.689   5.735   5.208
10392SOL    HW131426  13.701   5.718   5.301
10392SOL    HW231427  13.726   5.823   5.195
10393SOL     OW31428  10.870   4.561   4.348
10393SOL    HW131429  10.830   4.631   4.295
10393SOL    HW231430  10.913   4.504   4.284
10394SOL     OW31431   4.910  11.956   1.944
10394SOL    HW131432   4.939  11.977   2.032
10394SOL    HW231433   4.860  12.033   1.916
10395SOL     OW31434  12.083   6.842   6.648
10395SOL    HW131435  12.169   6.878   6.671
10395SOL    HW231436  12.084   6.755   6.687
10396SOL     OW31437   4.789  12.136   4.601
10396SOL    HW131438   4.700  12.106   4.617
10396SOL    HW231439   4.819  12.170   4.685
10397SOL     OW31440   4.998   2.409   0.796
10397SOL    HW131441   5.030   2.484   0.846
10397SOL    HW231442   4.904   2.425   0.786
10398SOL     OW31443   3.485  13.012   3.529
10398SOL    HW131444   3.417  12.957   3.492
10398SOL    HW231445   3.484  13.091   3.476
10399SOL     OW31446  11.234  11.759   3.722
10399SOL    HW131447  11.236  11.672   3.762
10399SOL    HW231448  11.259  11.743   3.631
10400SOL     OW31449   2.246   4.774   0.719
10400SOL    HW131450   2.234   4.692   0.671
10400SOL    HW231451   2.316   4.756   0.782
10401SOL     OW31452  10.150   9.142   2.866
10401SOL    HW131453  10.197   9.188   2.796
10401SOL    HW231454  10.091   9.082   2.820
10402SOL     OW31455   7.327   5.955   6.783
10402SOL    HW131456   7.308   6.034   6.731
10402SOL    HW231457   7.417   5.969   6.814
10403SOL     OW31458   8.576   4.954   3.621
10403SOL    HW131459   8.590   5.031   3.676
10403SOL    HW231460   8.490   4.921   3.646
10404SOL     OW31461   4.633  12.606   5.759
10404SOL    HW131462   4.596  12.572   5.677
10404SOL    HW231463   4.557  12.619   5.815
10405SOL     OW31464   9.937   7.344   5.125
10405SOL    HW131465  10.028   7.376   5.129
10405SOL    HW231466   9.937   7.280   5.055
10406SOL     OW31467   6.080   9.367   4.561
10406SOL    HW131468   6.017   9.301   4.530
10406SOL    HW231469   6.129   9.392   4.483
10407SOL     OW31470   5.648   9.175   7.429
10407SOL    HW131471   5.705   9.149   7.501
10407SOL    HW231472   5.580   9.228   7.471
10408SOL     OW31473   6.157  11.533   4.881
10408SOL    HW131474   6.243  11.522   4.922
10408SOL    HW231475   6.109  11.592   4.939
10409SOL     OW31476  10.721   7.071   7.574
10409SOL    HW131477  10.666   7.088   7.498
10409SOL    HW231478   5.299   1.742   0.023
10410SOL     OW31479   7.441   7.764   1.365
10410SOL    HW131480   7.481   7.719   1.440
10410SOL    HW231481   7.393   7.837   1.405
10411SOL     OW31482   4.342   9.070   3.544
10411SOL    HW131483   4.395   8.999   3.507
10411SOL    HW231484   4.258   9.028   3.566
10412SOL     OW31485   5.917   2.540   0.722
10412SOL    HW131486   5.972   2.465   0.745
10412SOL    HW231487   5.873   2.564   0.804
10413SOL     OW31488   6.745  11.427   5.044
10413SOL    HW131489   6.718  11.411   5.134
10413SOL    HW231490   6.695  11.505   5.017
10414SOL     OW31491  11.656  13.979   7.331
10414SOL    HW131492  11.563  13.964   7.350
10414SOL    HW231493  11.681  14.052   7.389
10415SOL     OW31494   9.152   6.795   5.489
10415SOL    HW131495   9.157   6.710   5.447
10415SOL    HW231496   9.178   6.857   5.421
10416SOL     OW31497   0.895   6.297   0.571
10416SOL    HW131498   0.892   6.393   0.576
10416SOL    HW231499   0.883   6.268   0.661
10417SOL     OW31500   7.515   7.292   4.664
10417SOL    HW131501   7.485   7.228   4.599
10417SOL    HW231502   7.533   7.371   4.613
10418SOL     OW31503   8.877   0.531   0.011
10418SOL    HW131504   8.892   0.441   0.039
10418SOL    HW231505  14.305   5.922   7.543
10419SOL     OW31506   5.210   9.654   3.438
10419SOL    HW131507   5.288   9.623   3.484
10419SOL    HW231508   5.217   9.750   3.441
10420SOL     OW31509  10.982   2.540   1.437
10420SOL    HW131510  10.929   2.462   1.454
10420SOL    HW231511  11.068   2.519   1.473
10421SOL     OW31512   3.664   4.071   0.238
10421SOL    HW131513   3.603   4.062   0.311
10421SOL    HW231514   3.721   3.995   0.244
10422SOL     OW31515  10.203   4.759   3.290
10422SOL    HW131516  10.221   4.805   3.373
10422SOL    HW231517  10.113   4.730   3.298
10423SOL     OW31518   8.056   7.965   6.321
10423SOL    HW131519   8.108   8.016   6.259
10423SOL    HW231520   8.109   7.888   6.340
10424SOL     OW31521  12.698  10.419   4.141
10424SOL    HW131522  12.714  10.503   4.098
10424SOL    HW231523  12.612  10.428   4.182
10425SOL     OW31524   5.060   4.331   0.814
10425SOL    HW131525   5.117   4.314   0.888
10425SOL    HW231526   5.104   4.400   0.764
10426SOL     OW31527  13.140  12.056   7.239
10426SOL    HW131528  13.104  12.066   7.151
10426SOL    HW231529  13.204  12.126   7.247
10427SOL     OW31530   2.079  10.129   2.377
10427SOL    HW131531   2.070  10.034   2.377
10427SOL    HW231532   2.010  10.160   2.435
10428SOL     OW31533   8.303   5.804   5.541
10428SOL    HW131534   8.279   5.841   5.626
10428SOL    HW231535   8.236   5.837   5.481
10429SOL     OW31536   9.063   4.808   2.159
10429SOL    HW131537   9.047   4.840   2.247
10429SOL    HW231538   9.153   4.777   2.161
10430SOL     OW31539  10.546   6.952   7.028
10430SOL    HW131540  10.538   6.903   7.110
10430SOL    HW231541  10.558   7.043   7.055
10431SOL     OW31542   2.787   4.648   0.555
10431SOL    HW131543   2.727   4.720   0.575
10431SOL    HW231544   2.755   4.575   0.608
10432SOL     OW31545  10.229   5.127   0.588
10432SOL    HW131546  10.194   5.076   0.514
10432SOL    HW231547  10.167   5.111   0.659
10433SOL     OW31548   7.798   5.889   4.763
10433SOL    HW131549   7.722   5.945   4.748
10433SOL    HW231550   7.815   5.848   4.679
10434SOL     OW31551  13.587  13.915   4.449
10434SOL    HW131552  13.563   3.231   4.468
10434SOL    HW231553  13.621  13.882   4.532
10435SOL     OW31554   8.309   4.080   1.030
10435SOL    HW131555   8.397   4.055   1.058
10435SOL    HW231556   8.318   4.103   0.937
10436SOL     OW31557   6.775   9.225   5.375
10436SOL    HW131558   6.715   9.155   5.400
10436SOL    HW231559   6.797   9.268   5.457
10437SOL     OW31560   9.004   1.467   1.583
10437SOL    HW131561   8.937   1.424   1.530
10437SOL    HW231562   9.085   1.454   1.534
10438SOL     OW31563   5.949   6.270   5.578
10438SOL    HW131564   6.004   6.245   5.504
10438SOL    HW231565   5.978   6.214   5.650
10439SOL     OW31566  13.581   9.196   4.326
10439SOL    HW131567  13.492   9.192   4.360
10439SOL    HW231568  13.570   9.199   4.231
10440SOL     OW31569   1.185   9.513   0.617
10440SOL    HW131570   1.231   9.596   0.606
10440SOL    HW231571   1.172   9.480   0.528
10441SOL     OW31572  11.426   2.627   1.284
10441SOL    HW131573  11.512   2.651   1.251
10441SOL    HW231574  11.372   2.704   1.269
10442SOL     OW31575  11.902   7.262   6.369
10442SOL    HW131576  11.807   7.263   6.357
10442SOL    HW231577  11.919   7.184   6.421
10443SOL     OW31578   7.086   4.179   2.016
10443SOL    HW131579   7.108   4.148   2.104
10443SOL    HW231580   7.170   4.195   1.974
10444SOL     OW31581   7.012  11.486   4.140
10444SOL    HW131582   7.036  11.561   4.195
10444SOL    HW231583   6.960  11.523   4.070
10445SOL     OW31584  10.537   8.427   3.727
10445SOL    HW131585  10.551   8.515   3.692
10445SOL    HW231586  10.612   8.376   3.695
10446SOL     OW31587  11.393  13.469   6.299
10446SOL    HW131588  11.446  13.389   6.306
10446SOL    HW231589  11.372  13.476   6.206
10447SOL     OW31590   7.033   5.617   0.263
10447SOL    HW131591   6.998   5.533   0.292
10447SOL    HW231592   7.048   5.666   0.344
10448SOL     OW31593   8.372   7.575   5.469
10448SOL    HW131594   8.354   7.648   5.408
10448SOL    HW231595   8.301   7.580   5.533
10449SOL     OW31596   9.670   6.219   7.195
10449SOL    HW131597   9.757   6.257   7.204
10449SOL    HW231598   9.633   6.223   7.283
10450SOL     OW31599   7.515   4.085   0.849
10450SOL    HW131600   7.600   4.118   0.880
10450SOL    HW231601   7.466   4.068   0.929
10451SOL     OW31602   5.522   1.204   0.500
10451SOL    HW131603   5.567   1.256   0.433
10451SOL    HW231604   5.593   1.171   0.556
10452SOL     OW31605   4.471  10.844   5.286
10452SOL    HW131606   4.467  10.936   5.312
10452SOL    HW231607   4.394  10.831   5.231
10453SOL     OW31608   7.954  12.312   6.710
10453SOL    HW131609   7.987  12.399   6.733
10453SOL    HW231610   7.875  12.302   6.764
10454SOL     OW31611   7.090   6.566   4.885
10454SOL    HW131612   7.001   6.531   4.894
10454SOL    HW231613   7.078   6.659   4.865
10455SOL     OW31614   5.230   7.508   4.677
10455SOL    HW131615   5.187   7.572   4.621
10455SOL    HW231616   5.282   7.561   4.738
10456SOL     OW31617   6.023  14.130   7.210
10456SOL    HW131618   6.063  14.166   7.290
10456SOL    HW231619   5.977  14.052   7.239
10457SOL     OW31620  15.068  13.497   6.314
10457SOL    HW131621  15.060  13.402   6.305
10457SOL    HW231622  15.135  13.521   6.251
10458SOL     OW31623   4.191  10.031   4.604
10458SOL    HW131624   4.225   9.998   4.687
10458SOL    HW231625   4.267  10.031   4.545
10459SOL     OW31626  13.354   5.320   5.013
10459SOL    HW131627  13.299   5.306   5.090
10459SOL    HW231628  13.363   5.416   5.008
10460SOL     OW31629   1.375  10.868   1.303
10460SOL    HW131630   1.436  10.915   1.360
10460SOL    HW231631   1.305  10.931   1.287
10461SOL     OW31632   5.496  11.385   5.403
10461SOL    HW131633   5.420  11.340   5.441
10461SOL    HW231634   5.482  11.477   5.424
10462SOL     OW31635  10.655   4.760   3.592
10462SOL    HW131636  10.677   4.740   3.501
10462SOL    HW231637  10.652   4.674   3.635
10463SOL     OW31638   2.334   1.679   1.182
10463SOL    HW131639   2.425   1.659   1.158
10463SOL    HW231640   2.282   1.639   1.113
10464SOL     OW31641   6.628   2.498   3.428
10464SOL    HW131642   6.660   2.495   3.518
10464SOL    HW231643   6.572   2.421   3.420
10465SOL     OW31644   7.697  11.620   7.061
10465SOL    HW131645   7.632  11.549   7.066
10465SOL    HW231646   7.656  11.685   7.004
10466SOL     OW31647   5.189   9.089   0.393
10466SOL    HW131648   5.261   9.093   0.456
10466SOL    HW231649   5.128   9.157   0.423
10467SOL     OW31650  11.992   6.312   3.067
10467SOL    HW131651  12.000   6.241   3.003
10467SOL    HW231652  11.953   6.384   3.019
10468SOL     OW31653  11.757   5.281   4.126
10468SOL    HW131654  11.752   5.207   4.186
10468SOL    HW231655  11.721   5.355   4.176
10469SOL     OW31656  10.190   8.077   1.793
10469SOL    HW131657  10.275   8.051   1.828
10469SOL    HW231658  10.126   8.037   1.853
10470SOL     OW31659  13.913  13.108   7.598
10470SOL    HW131660   8.484   7.641   0.010
10470SOL    HW231661   8.558   7.763   0.060
10471SOL     OW31662  11.025   8.580   5.805
10471SOL    HW131663  10.955   8.590   5.740
10471SOL    HW231664  11.097   8.633   5.770
10472SOL     OW31665   7.741   6.560   5.098
10472SOL    HW131666   7.689   6.515   5.164
10472SOL    HW231667   7.713   6.652   5.104
10473SOL     OW31668   9.311   5.231   3.440
10473SOL    HW131669   9.244   5.173   3.478
10473SOL    HW231670   9.300   5.222   3.346
10474SOL     OW31671  10.706   9.462   4.626
10474SOL    HW131672  10.736   9.551   4.610
10474SOL    HW231673  10.644   9.470   4.698
10475SOL     OW31674  12.929   5.143   3.182
10475SOL    HW131675  12.900   5.232   3.162
10475SOL    HW231676   2.250   5.147   3.179
10476SOL     OW31677   5.399   6.075   3.102
10476SOL    HW131678   5.401   5.984   3.129
10476SOL    HW231679   5.488   6.108   3.119
10477SOL     OW31680   4.642  12.028   2.952
10477SOL    HW131681   4.714  12.029   3.015
10477SOL    HW231682   4.662  12.100   2.892
10478SOL     OW31683   9.985   7.780   4.146
10478SOL    HW131684   9.901   7.742   4.119
10478SOL    HW231685  10.049   7.741   4.085
10479SOL     OW31686   6.597  11.493   7.541
10479SOL    HW131687   6.668  11.455   7.592
10479SOL    HW231688   6.550  11.418   7.505
10480SOL     OW31689  11.506   7.524   5.009
10480SOL    HW131690  11.427   7.491   4.967
10480SOL    HW231691  11.476   7.563   5.091
10481SOL     OW31692   8.087  11.721   1.813
10481SOL    HW131693   8.159  11.734   1.875
10481SOL    HW231694   8.024  11.789   1.836
10482SOL     OW31695   4.199  12.166   4.854
10482SOL    HW131696   4.265  12.211   4.906
10482SOL    HW231697   4.222  12.073   4.861
10483SOL     OW31698  13.841  11.811   5.481
10483SOL    HW131699  13.865  11.720   5.467
10483SOL    HW231700  13.746  11.814   5.467
10484SOL     OW31701  11.254   5.042   1.799
10484SOL    HW131702  11.301   5.124   1.789
10484SOL    HW231703  11.288   5.004   1.881
10485SOL     OW31704   9.597   8.953   1.865
10485SOL    HW131705   9.509   8.927   1.892
10485SOL    HW231706   9.592   9.047   1.851
10486SOL     OW31707   5.906   6.572   3.649
10486SOL    HW131708   5.934   6.482   3.668
10486SOL    HW231709   5.869   6.603   3.732
10487SOL     OW31710  10.854   8.305   2.038
10487SOL    HW131711  10.893   8.325   2.123
10487SOL    HW231712  10.762   8.332   2.046
10488SOL     OW31713   3.739   3.477   2.452
10488SOL    HW131714   3.791   3.442   2.379
10488SOL    HW231715   3.679   3.539   2.410
10489SOL     OW31716   6.728   1.275   0.545
10489SOL    HW131717   6.798   1.328   0.585
10489SOL    HW231718   6.664   1.339   0.514
10490SOL     OW31719  13.463  12.635   7.613
10490SOL    HW131720   8.036   7.333   0.012
10490SOL    HW231721  13.454  12.624   7.518
10491SOL     OW31722   3.530   7.173   0.770
10491SOL    HW131723   3.549   7.083   0.744
10491SOL    HW231724   3.443   7.169   0.808
10492SOL     OW31725  15.543   9.316   7.007
10492SOL    HW131726  15.469   9.333   6.949
10492SOL    HW231727  15.576   9.402   7.030
10493SOL     OW31728  11.409   4.040   3.906
10493SOL    HW131729  11.467   3.972   3.872
10493SOL    HW231730  11.467   4.106   3.942
10494SOL     OW31731   9.929   3.917   3.339
10494SOL    HW131732   9.977   3.974   3.399
10494SOL    HW231733   9.842   3.908   3.379
10495SOL     OW31734   1.881   6.032   1.710
10495SOL    HW131735   1.823   6.030   1.786
10495SOL    HW231736   1.965   6.062   1.744
10496SOL     OW31737   2.247   2.535   1.379
10496SOL    HW131738   2.233   2.608   1.320
10496SOL    HW231739   2.162   2.490   1.384
10497SOL     OW31740  14.180   3.767   5.134
10497SOL    HW131741  14.158   3.842   5.189
10497SOL    HW231742  14.205   3.699   5.196
10498SOL     OW31743  10.492   9.154   4.761
10498SOL    HW131744  10.545   9.187   4.688
10498SOL    HW231745  10.453   9.073   4.729
10499SOL     OW31746   0.997   2.081   0.194
10499SOL    HW131747   0.926   2.071   0.258
10499SOL    HW231748   1.000   1.998   0.148
10500SOL     OW31749  13.918   8.871   6.779
10500SOL    HW131750  13.902   8.898   6.689
10500SOL    HW231751  13.839   8.824   6.805
10501SOL     OW31752  12.657   6.502   2.692
10501SOL    HW131753  12.582   6.469   2.741
10501SOL    HW231754   1.956   6.446   2.718
10502SOL     OW31755   5.129  10.129   1.924
10502SOL    HW131756   5.157  10.078   2.000
10502SOL    HW231757   5.034  10.127   1.928
10503SOL     OW31758   9.431   4.870   5.599
10503SOL    HW131759   9.477   4.790   5.625
10503SOL    HW231760   9.339   4.843   5.596
10504SOL     OW31761  10.940   7.826   4.513
10504SOL    HW131762  10.918   7.814   4.421
10504SOL    HW231763  10.860   7.861   4.552
10505SOL     OW31764   7.245   2.857   3.669
10505SOL    HW131765   7.313   2.863   3.602
10505SOL    HW231766   7.253   2.938   3.719
10506SOL     OW31767   7.604  14.147   5.410
10506SOL    HW131768   7.687  14.192   5.426
10506SOL    HW231769   7.549  14.172   5.484
10507SOL     OW31770   9.228   3.809   2.280
10507SOL    HW131771   9.142   3.772   2.263
10507SOL    HW231772   9.247   3.787   2.371
10508SOL     OW31773  14.058  10.245   4.682
10508SOL    HW131774   3.377  10.251   4.699
10508SOL    HW231775   3.277  10.194   4.601
10509SOL     OW31776  12.432  12.950   3.636
10509SOL    HW131777  12.394  12.887   3.697
10509SOL    HW231778  12.361  12.972   3.576
10510SOL     OW31779  10.928   5.909   6.466
10510SOL    HW131780  10.908   5.907   6.373
10510SOL    HW231781  10.872   5.979   6.501
10511SOL     OW31782   5.772   7.568   4.815
10511SOL    HW131783   5.818   7.597   4.894
10511SOL    HW231784   5.832   7.592   4.743
10512SOL     OW31785   6.140   4.179   2.415
10512SOL    HW131786   6.146   4.102   2.471
10512SOL    HW231787   6.184   4.154   2.334
10513SOL     OW31788  14.949   5.875   6.543
10513SOL    HW131789  14.903   5.949   6.505
10513SOL    HW231790  15.042   5.894   6.528
10514SOL     OW31791   9.027   8.497   2.804
10514SOL    HW131792   9.011   8.412   2.844
10514SOL    HW231793   8.940   8.535   2.791
10515SOL     OW31794   5.737  12.966   3.880
10515SOL    HW131795   5.820  13.010   3.900
10515SOL    HW231796   5.745  12.881   3.923
10516SOL     OW31797   5.022   2.499   1.824
10516SOL    HW131798   5.057   2.570   1.770
10516SOL    HW231799   4.931   2.491   1.796
10517SOL     OW31800   2.969   6.965   1.531
10517SOL    HW131801   2.943   6.913   1.607
10517SOL    HW231802   2.891   6.967   1.475
10518SOL     OW31803   6.367  13.295   7.489
10518SOL    HW131804   6.355  13.388   7.472
10518SOL    HW231805   6.281  13.256   7.471
10519SOL     OW31806   2.969  11.233   2.891
10519SOL    HW131807   2.933  11.184   2.965
10519SOL    HW231808   2.918  11.314   2.889
10520SOL     OW31809   6.998   6.891   4.955
10520SOL    HW131810   7.033   6.897   5.043
10520SOL    HW231811   7.067   6.927   4.899
10521SOL     OW31812   5.068  14.733   5.867
10521SOL    HW131813   5.163  14.739   5.864
10521SOL    HW231814   5.049  14.653   5.916
10522SOL     OW31815  10.930   9.391   5.509
10522SOL    HW131816  10.897   9.345   5.586
10522SOL    HW231817  10.903   9.482   5.521
10523SOL     OW31818   6.254   9.416   7.208
10523SOL    HW131819   6.272   9.509   7.221
10523SOL    HW231820   6.282   9.374   7.290
10524SOL     OW31821  12.636  11.810   7.386
10524SOL    HW131822  12.560  11.766   7.348
10524SOL    HW231823  12.614  11.819   7.479
10525SOL     OW31824   6.863  13.632   6.079
10525SOL    HW131825   6.957  13.647   6.067
10525SOL    HW231826   6.850  13.637   6.174
10526SOL     OW31827   5.927   7.600   5.383
10526SOL    HW131828   5.848   7.642   5.418
10526SOL    HW231829   5.947   7.530   5.445
10527SOL     OW31830  11.105  10.245   5.675
10527SOL    HW131831  11.030  10.296   5.706
10527SOL    HW231832  11.076  10.204   5.594
10528SOL     OW31833  10.620   5.501   4.030
10528SOL    HW131834  10.577   5.468   4.109
10528SOL    HW231835  10.702   5.452   4.026
10529SOL     OW31836   3.302  10.380   3.024
10529SOL    HW131837   3.232  10.425   3.071
10529SOL    HW231838   3.374  10.374   3.088
10530SOL     OW31839   9.700   5.716   2.541
10530SOL    HW131840   9.619   5.679   2.506
10530SOL    HW231841   9.751   5.641   2.570
10531SOL     OW31842  12.644  10.590   3.062
10531SOL    HW131843  12.660  10.563   3.152
10531SOL    HW231844  12.549  10.591   3.053
10532SOL     OW31845  11.720   9.613   5.216
10532SOL    HW131846  11.791   9.623   5.153
10532SOL    HW231847  11.720   9.519   5.237
10533SOL     OW31848  13.340  13.322   6.788
10533SOL    HW131849  13.411  13.318   6.852
10533SOL    HW231850  13.372  13.275   6.712
10534SOL     OW31851   5.781  13.732   7.461
10534SOL    HW131852   5.861  13.680   7.458
10534SOL    HW231853   5.719  13.679   7.512
10535SOL     OW31854  11.508  14.300   7.236
10535SOL    HW131855  11.528  14.213   7.201
10535SOL    HW231856  11.432  14.329   7.185
10536SOL     OW31857  15.335  11.657   7.361
10536SOL    HW131858  15.363  11.569   7.385
10536SOL    HW231859  15.248  11.666   7.400
10537SOL     OW31860   4.438  14.564   5.711
10537SOL    HW131861   4.524  14.601   5.696
10537SOL    HW231862   4.380  14.612   5.653
10538SOL     OW31863   9.609   2.414   1.472
10538SOL    HW131864   9.607   2.494   1.419
10538SOL    HW231865   9.691   2.372   1.448
10539SOL     OW31866  12.831   9.495   4.855
10539SOL    HW131867  12.739   9.474   4.869
10539SOL    HW231868  12.836   9.522   4.763
10540SOL     OW31869   6.532   4.179   3.993
10540SOL    HW131870   6.526   4.238   3.919
10540SOL    HW231871   6.601   4.117   3.968
10541SOL     OW31872  14.772   5.100   6.133
10541SOL    HW131873  14.783   5.052   6.051
10541SOL    HW231874  14.861   5.128   6.156
10542SOL     OW31875   4.754   5.874   0.095
10542SOL    HW131876   4.830   5.928   0.072
10542SOL    HW231877   4.698   5.876   0.017
10543SOL     OW31878   9.017   7.667   6.361
10543SOL    HW131879   8.929   7.672   6.396
10543SOL    HW231880   9.074   7.657   6.437
10544SOL     OW31881   7.212   3.028   3.890
10544SOL    HW131882   7.134   3.082   3.900
10544SOL    HW231883   7.284   3.090   3.878
10545SOL     OW31884  13.582  13.132   4.255
10545SOL    HW131885  13.499  13.091   4.230
10545SOL    HW231886  13.647  13.061   4.248
10546SOL     OW31887   9.921   7.739   5.672
10546SOL    HW131888   9.919   7.661   5.615
10546SOL    HW231889   9.978   7.800   5.626
10547SOL     OW31890   9.898   7.419   6.254
10547SOL    HW131891   9.824   7.437   6.195
10547SOL    HW231892   9.946   7.501   6.259
10548SOL     OW31893   5.252   2.401   0.695
10548SOL    HW131894   5.289   2.315   0.674
10548SOL    HW231895   5.176   2.381   0.750
10549SOL     OW31896   4.568   2.121   1.060
10549SOL    HW131897   4.479   2.098   1.033
10549SOL    HW231898   4.606   2.162   0.982
10550SOL     OW31899   8.409   4.591   1.408
10550SOL    HW131900   8.331   4.584   1.354
10550SOL    HW231901   8.475   4.630   1.351
10551SOL     OW31902   7.402   6.506   5.506
10551SOL    HW131903   7.393   6.411   5.499
10551SOL    HW231904   7.312   6.537   5.515
10552SOL     OW31905   2.858   3.580   2.224
10552SOL    HW131906   2.934   3.558   2.277
10552SOL    HW231907   2.835   3.499   2.180
10553SOL     OW31908  11.476   7.104   2.117
10553SOL    HW131909  11.407   7.163   2.148
10553SOL    HW231910  11.429   7.031   2.078
10554SOL     OW31911   7.203   8.363   4.702
10554SOL    HW131912   7.171   8.305   4.633
10554SOL    HW231913   7.125   8.404   4.738
10555SOL     OW31914  10.677   3.167   1.947
10555SOL    HW131915  10.597   3.212   1.977
10555SOL    HW231916  10.672   3.170   1.852
10556SOL     OW31917  13.485  11.264   4.648
10556SOL    HW131918  13.559  11.319   4.674
10556SOL    HW231919  13.525  11.194   4.595
10557SOL     OW31920   6.217  11.970   2.575
10557SOL    HW131921   6.180  12.052   2.606
10557SOL    HW231922   6.312  11.984   2.577
10558SOL     OW31923   7.561   1.917   2.339
10558SOL    HW131924   7.639   1.940   2.288
10558SOL    HW231925   7.593   1.855   2.405
10559SOL     OW31926  14.355   8.362   6.354
10559SOL    HW131927  14.432   8.419   6.355
10559SOL    HW231928  14.388   8.277   6.383
10560SOL     OW31929   4.051   2.463   1.289
10560SOL    HW131930   4.127   2.449   1.232
10560SOL    HW231931   4.068   2.408   1.366
10561SOL     OW31932  10.571  11.192   4.784
10561SOL    HW131933  10.640  11.245   4.823
10561SOL    HW231934  10.569  11.112   4.836
10562SOL     OW31935   7.424   5.906   3.451
10562SOL    HW131936   7.506   5.955   3.440
10562SOL    HW231937   7.355   5.972   3.445
10563SOL     OW31938  10.193  10.754   6.732
10563SOL    HW131939  10.270  10.729   6.784
10563SOL    HW231940  10.221  10.740   6.641
10564SOL     OW31941   5.699   6.373   5.891
10564SOL    HW131942   5.715   6.323   5.970
10564SOL    HW231943   5.669   6.309   5.827
10565SOL     OW31944  14.546   6.812   5.853
10565SOL    HW131945  14.612   6.820   5.784
10565SOL    HW231946  14.509   6.725   5.841
10566SOL     OW31947   6.261   6.354   3.100
10566SOL    HW131948   6.322   6.334   3.172
10566SOL    HW231949   6.218   6.435   3.128
10567SOL     OW31950   8.883   9.693   3.574
10567SOL    HW131951   8.834   9.770   3.605
10567SOL    HW231952   8.868   9.627   3.641
10568SOL     OW31953   2.756  10.562   2.769
10568SOL    HW131954   2.833  10.548   2.823
10568SOL    HW231955   2.768  10.504   2.694
10569SOL     OW31956   8.451  10.016   3.012
10569SOL    HW131957   8.477   9.999   2.921
10569SOL    HW231958   8.383  10.084   3.005
10570SOL     OW31959   6.511   1.931   0.261
10570SOL    HW131960   6.588   1.954   0.312
10570SOL    HW231961   6.542   1.926   0.170
10571SOL     OW31962   7.747   7.826   2.702
10571SOL    HW131963   7.757   7.732   2.688
10571SOL    HW231964   7.831   7.863   2.675
10572SOL     OW31965   5.629   5.202   3.451
10572SOL    HW131966   5.597   5.122   3.409
10572SOL    HW231967   5.724   5.191   3.455
10573SOL     OW31968   9.369   4.568   2.287
10573SOL    HW131969   9.440   4.632   2.293
10573SOL    HW231970   9.351   4.561   2.193
10574SOL     OW31971   4.852   6.017   3.437
10574SOL    HW131972   4.903   6.098   3.433
10574SOL    HW231973   4.913   5.952   3.471
10575SOL     OW31974   4.438   8.719   3.475
10575SOL    HW131975   4.487   8.706   3.393
10575SOL    HW231976   4.505   8.721   3.543
10576SOL     OW31977   4.300  10.718   5.942
10576SOL    HW131978   4.306  10.624   5.963
10576SOL    HW231979   4.206  10.735   5.938
10577SOL     OW31980   9.192   9.556   3.282
10577SOL    HW131981   9.227   9.605   3.208
10577SOL    HW231982   9.205   9.613   3.357
10578SOL     OW31983   9.096  11.524   5.583
10578SOL    HW131984   9.168  11.503   5.643
10578SOL    HW231985   9.021  11.477   5.618
10579SOL     OW31986   9.098   2.321   2.059
10579SOL    HW131987   9.120   2.252   2.121
10579SOL    HW231988   9.114   2.402   2.106
10580SOL     OW31989   7.438   4.106   3.196
10580SOL    HW131990   7.528   4.080   3.176
10580SOL    HW231991   7.447   4.173   3.264
10581SOL     OW31992  12.483   3.763   4.510
10581SOL    HW131993  12.396   3.787   4.480
10581SOL    HW231994  12.474   3.752   4.605
10582SOL     OW31995   4.176  13.672   4.325
10582SOL    HW131996   4.184  13.578   4.311
10582SOL    HW231997   4.201  13.711   4.242
10583SOL     OW31998  10.286   7.403   2.808
10583SOL    HW131999  10.333   7.320   2.819
10583SOL    HW232000  10.320   7.439   2.727
10584SOL     OW32001  12.952   9.874   5.689
10584SOL    HW132002  12.958   9.789   5.732
10584SOL    HW232003  13.004   9.864   5.609
10585SOL     OW32004   9.099   6.818   4.715
10585SOL    HW132005   9.024   6.835   4.772
10585SOL    HW232006   9.141   6.741   4.755
10586SOL     OW32007  10.241  10.721   5.819
10586SOL    HW132008  10.206  10.701   5.905
10586SOL    HW232009  10.327  10.677   5.817
10587SOL     OW32010   1.977   5.691   0.481
10587SOL    HW132011   2.036   5.764   0.501
10587SOL    HW232012   2.018   5.647   0.407
10588SOL     OW32013   3.142   9.584   3.344
10588SOL    HW132014   3.125   9.491   3.360
10588SOL    HW232015   3.055   9.622   3.333
10589SOL     OW32016  13.426   8.195   4.608
10589SOL    HW132017  13.379   8.227   4.685
10589SOL    HW232018  13.368   8.130   4.569
10590SOL     OW32019   4.578   8.795   6.398
10590SOL    HW132020  15.316   8.835   6.477
10590SOL    HW232021   4.534   8.840   6.326
10591SOL     OW32022  11.510   8.664   2.694
10591SOL    HW132023  11.516   8.597   2.762
10591SOL    HW232024  11.460   8.622   2.623
10592SOL     OW32025   6.505  11.320   3.038
10592SOL    HW132026   6.522  11.400   2.988
10592SOL    HW232027   6.484  11.351   3.126
10593SOL     OW32028  12.077   9.130   7.099
10593SOL    HW132029  12.034   9.068   7.159
10593SOL    HW232030  12.005   9.179   7.059
10594SOL     OW32031   5.192   6.866   4.752
10594SOL    HW132032   5.186   6.961   4.758
10594SOL    HW232033   5.212   6.849   4.660
10595SOL     OW32034   6.952  12.885   6.440
10595SOL    HW132035   7.006  12.822   6.392
10595SOL    HW232036   7.014  12.949   6.475
10596SOL     OW32037   9.683   6.468   2.145
10596SOL    HW132038   9.753   6.525   2.180
10596SOL    HW232039   9.645   6.518   2.074
10597SOL     OW32040   5.162   3.620   2.881
10597SOL    HW132041   5.101   3.649   2.949
10597SOL    HW232042   5.114   3.555   2.831
10598SOL     OW32043  13.846   5.767   4.799
10598SOL    HW132044  13.840   5.703   4.728
10598SOL    HW232045  13.883   5.845   4.759
10599SOL     OW32046   7.635   4.454   2.713
10599SOL    HW132047   7.614   4.466   2.621
10599SOL    HW232048   7.693   4.378   2.715
10600SOL     OW32049   8.806   4.231   2.144
10600SOL    HW132050   8.832   4.159   2.203
10600SOL    HW232051   8.772   4.298   2.203
10601SOL     OW32052   6.066  13.528   4.834
10601SOL    HW132053   6.035  13.441   4.859
10601SOL    HW232054   6.044  13.535   4.741
10602SOL     OW32055  12.824   6.286   6.139
10602SOL    HW132056  12.760   6.250   6.078
10602SOL    HW232057  12.775   6.349   6.192
10603SOL     OW32058   9.047   7.995   4.084
10603SOL    HW132059   9.104   7.983   4.009
10603SOL    HW232060   9.075   8.079   4.121
10604SOL     OW32061   1.986   1.695   0.638
10604SOL    HW132062   2.081   1.708   0.633
10604SOL    HW232063   1.973   1.604   0.612
10605SOL     OW32064   8.984  11.244   3.812
10605SOL    HW132065   8.938  11.282   3.737
10605SOL    HW232066   9.076  11.244   3.787
10606SOL     OW32067   4.371   7.798   5.110
10606SOL    HW132068   4.279   7.820   5.123
10606SOL    HW232069   4.373   7.752   5.026
10607SOL     OW32070   2.678  11.132   3.248
10607SOL    HW132071   2.627  11.207   3.218
10607SOL    HW232072   2.757  11.169   3.286
10608SOL     OW32073  14.331  14.402   7.075
10608SOL    HW132074  14.279  14.335   7.118
10608SOL    HW232075  14.278  14.482   7.082
10609SOL     OW32076  13.966  13.794   6.275
10609SOL    HW132077  13.962  13.699   6.262
10609SOL    HW232078  14.030  13.824   6.211
10610SOL     OW32079   7.328  12.148   7.045
10610SOL    HW132080   7.337  12.085   6.974
10610SOL    HW232081   7.367  12.229   7.011
10611SOL     OW32082   4.030   6.593   2.495
10611SOL    HW132083   4.099   6.607   2.559
10611SOL    HW232084   4.068   6.532   2.432
10612SOL     OW32085  10.643   4.806   4.776
10612SOL    HW132086  10.686   4.858   4.844
10612SOL    HW232087  10.642   4.717   4.812
10613SOL     OW32088   1.409   9.049   0.098
10613SOL    HW132089   1.412   9.069   0.004
10613SOL    HW232090   1.390   8.955   0.102
10614SOL     OW32091   7.754  12.958   4.085
10614SOL    HW132092   7.760  13.050   4.111
10614SOL    HW232093   7.739  12.911   4.168
10615SOL     OW32094  11.130  11.636   2.970
10615SOL    HW132095  11.176  11.719   2.984
10615SOL    HW232096  11.187  11.588   2.911
10616SOL     OW32097   7.441   5.855   0.608
10616SOL    HW132098   7.495   5.786   0.571
10616SOL    HW232099   7.473   5.936   0.568
10617SOL     OW32100   2.056   6.827   2.047
10617SOL    HW132101   2.148   6.824   2.074
10617SOL    HW232102   2.018   6.897   2.100
10618SOL     OW32103  10.474   9.551   7.581
10618SOL    HW132104   5.054   4.084   0.003
10618SOL    HW232105   5.038   4.234   0.005
10619SOL     OW32106   9.161   8.112   3.641
10619SOL    HW132107   9.149   8.118   3.546
10619SOL    HW232108   9.253   8.138   3.655
10620SOL     OW32109  13.446   8.265   6.653
10620SOL    HW132110  13.416   8.248   6.564
10620SOL    HW232111  13.541   8.269   6.646
10621SOL     OW32112  12.287  11.058   7.464
10621SOL    HW132113  12.261  11.071   7.373
10621SOL    HW232114  12.208  11.027   7.508
10622SOL     OW32115   5.528  13.901   7.473
10622SOL    HW132116   5.506  13.940   7.388
10622SOL    HW232117   5.618  13.872   7.463
10623SOL     OW32118   8.967   3.639   1.453
10623SOL    HW132119   9.043   3.594   1.416
10623SOL    HW232120   8.900   3.634   1.385
10624SOL     OW32121   9.212   5.758   4.228
10624SOL    HW132122   9.281   5.709   4.184
10624SOL    HW232123   9.201   5.714   4.312
10625SOL     OW32124   7.033  14.964   6.401
10625SOL    HW132125   7.098  15.010   6.454
10625SOL    HW232126   6.950  14.979   6.447
10626SOL     OW32127  13.825   5.233   6.885
10626SOL    HW132128  13.756   5.170   6.904
10626SOL    HW232129  13.809   5.305   6.946
10627SOL     OW32130  12.120   2.953   3.970
10627SOL    HW132131  12.125   2.943   3.875
10627SOL    HW232132  12.167   3.034   3.988
10628SOL     OW32133   6.324   4.399   1.036
10628SOL    HW132134   6.370   4.377   1.116
10628SOL    HW232135   6.253   4.335   1.031
10629SOL     OW32136  13.481   6.708   7.471
10629SOL    HW132137  13.439   6.744   7.549
10629SOL    HW232138  13.572   6.737   7.476
10630SOL     OW32139   9.650   9.284   4.006
10630SOL    HW132140   9.640   9.375   3.978
10630SOL    HW232141   9.744   9.274   4.022
10631SOL     OW32142   3.172   5.626   1.417
10631SOL    HW132143   3.232   5.695   1.390
10631SOL    HW232144   3.227   5.563   1.463
10632SOL     OW32145  15.298  10.148   7.526
10632SOL    HW132146  15.324  10.072   7.577
10632SOL    HW232147  15.203  10.154   7.538
10633SOL     OW32148   5.901   9.452   4.855
10633SOL    HW132149   5.816   9.462   4.813
10633SOL    HW232150   5.884   9.469   4.948
10634SOL     OW32151   3.979   4.702   4.240
10634SOL    HW132152   4.012   4.621   4.279
10634SOL    HW232153   3.930   4.744   4.311
10635SOL     OW32154   8.988  14.892   7.590
10635SOL    HW132155   8.904  14.860   7.559
10635SOL    HW232156   8.984  14.987   7.580
10636SOL     OW32157   8.313  12.748   3.872
10636SOL    HW132158   8.303  12.752   3.777
10636SOL    HW232159   8.224  12.752   3.906
10637SOL     OW32160  13.593   6.426   5.573
10637SOL    HW132161  13.648   6.474   5.635
10637SOL    HW232162  13.610   6.468   5.489
10638SOL     OW32163  10.279   6.209   2.693
10638SOL    HW132164  10.356   6.250   2.654
10638SOL    HW232165  10.232   6.172   2.619
10639SOL     OW32166  10.773   3.654   2.189
10639SOL    HW132167  10.830   3.594   2.141
10639SOL    HW232168  10.828   3.689   2.259
10640SOL     OW32169  14.926  14.115   7.547
10640SOL    HW132170  15.012  14.084   7.516
10640SOL    HW232171  14.876  14.035   7.560
10641SOL     OW32172   0.915   7.575   0.397
10641SOL    HW132173   0.937   7.557   0.489
10641SOL    HW232174   0.937   7.494   0.352
10642SOL     OW32175  10.025  13.990   6.152
10642SOL    HW132176   9.966  13.984   6.227
10642SOL    HW232177  10.105  14.029   6.187
10643SOL     OW32178  11.364  15.119   6.567
10643SOL    HW132179  11.432  15.128   6.500
10643SOL    HW232180  11.412  15.107   6.649
10644SOL     OW32181   4.473   5.107   1.419
10644SOL    HW132182   4.507   5.091   1.507
10644SOL    HW232183   4.462   5.019   1.382
10645SOL     OW32184   5.469  12.762   4.266
10645SOL    HW132185   5.525  12.686   4.254
10645SOL    HW232186   5.470  12.806   4.181
10646SOL     OW32187   4.360   2.641   0.011
10646SOL    HW132188   4.276   2.599   0.029
10646SOL    HW232189   4.368   2.708   0.079
10647SOL     OW32190  10.840   4.855   4.213
10647SOL    HW132191  10.769   4.914   4.237
10647SOL    HW232192  10.890   4.903   4.148
10648SOL     OW32193  13.323  15.923   7.466
10648SOL    HW132194  13.374  15.841   7.466
10648SOL    HW232195  13.361  15.975   7.537
10649SOL     OW32196  10.459   2.152   1.153
10649SOL    HW132197  10.417   2.093   1.091
10649SOL    HW232198  10.527   2.099   1.194
10650SOL     OW32199   2.220   1.308   1.096
10650SOL    HW132200   2.238   1.289   1.004
10650SOL    HW232201   2.144   1.253   1.118
10651SOL     OW32202  12.606  15.068   6.203
10651SOL    HW132203  12.513  15.051   6.219
10651SOL    HW232204  12.622  15.037   6.114
10652SOL     OW32205  11.994  11.936   6.628
10652SOL    HW132206  12.003  11.935   6.533
10652SOL    HW232207  11.944  11.857   6.648
10653SOL     OW32208   9.518   6.500   0.680
10653SOL    HW132209   9.474   6.441   0.619
10653SOL    HW232210   9.457   6.507   0.754
10654SOL     OW32211   6.586   8.715   3.237
10654SOL    HW132212   6.613   8.646   3.297
10654SOL    HW232213   6.667   8.738   3.190
10655SOL     OW32214   3.220   4.458   3.449
10655SOL    HW132215   3.212   4.461   3.544
10655SOL    HW232216   3.315   4.454   3.433
10656SOL     OW32217   7.175  11.818   2.099
10656SOL    HW132218   7.259  11.857   2.122
10656SOL    HW232219   7.151  11.859   2.016
10657SOL     OW32220   6.684   1.658   2.219
10657SOL    HW132221   6.593   1.633   2.238
10657SOL    HW232222   6.678   1.712   2.140
10658SOL     OW32223   5.558   6.787   3.432
10658SOL    HW132224   5.471   6.827   3.424
10658SOL    HW232225   5.613   6.839   3.374
10659SOL     OW32226   1.681   4.383   1.031
10659SOL    HW132227   1.719   4.331   1.102
10659SOL    HW232228   1.658   4.466   1.072
10660SOL     OW32229  10.074   7.800   0.292
10660SOL    HW132230  10.112   7.884   0.269
10660SOL    HW232231  10.064   7.754   0.209
10661SOL     OW32232   9.172   8.816   7.468
10661SOL    HW132233   9.259   8.807   7.508
10661SOL    HW232234   9.176   8.759   7.391
10662SOL     OW32235   3.643  10.889   2.067
10662SOL    HW132236   3.578  10.856   2.005
10662SOL    HW232237   3.725  10.887   2.019
10663SOL     OW32238   7.754   7.197   0.779
10663SOL    HW132239   7.707   7.276   0.751
10663SOL    HW232240   7.830   7.193   0.722
10664SOL     OW32241   1.184   6.328   0.094
10664SOL    HW132242   1.093   6.350   0.115
10664SOL    HW232243   1.178   6.257   0.030
10665SOL     OW32244   7.809  12.634   4.480
10665SOL    HW132245   7.773  12.722   4.487
10665SOL    HW232246   7.903  12.647   4.467
10666SOL     OW32247   7.515   8.430   0.235
10666SOL    HW132248   7.607   8.421   0.261
10666SOL    HW232249   7.492   8.519   0.262
10667SOL     OW32250   7.122   5.380   1.518
10667SOL    HW132251   7.184   5.419   1.457
10667SOL    HW232252   7.164   5.389   1.604
10668SOL     OW32253   5.787  10.064   6.103
10668SOL    HW132254   5.867  10.050   6.152
10668SOL    HW232255   5.784  10.159   6.087
10669SOL     OW32256   2.492   6.560   2.739
10669SOL    HW132257   2.530   6.507   2.668
10669SOL    HW232258   2.544   6.538   2.816
10670SOL     OW32259   7.705  10.910   5.947
10670SOL    HW132260   7.777  10.973   5.942
10670SOL    HW232261   7.628  10.964   5.968
10671SOL     OW32262   4.393  10.733   2.294
10671SOL    HW132263   4.437  10.729   2.210
10671SOL    HW232264   4.394  10.826   2.318
10672SOL     OW32265  13.711   5.480   7.011
10672SOL    HW132266  13.674   5.554   6.963
10672SOL    HW232267  13.794   5.513   7.046
10673SOL     OW32268   7.169   9.797   2.124
10673SOL    HW132269   7.154   9.889   2.145
10673SOL    HW232270   7.259   9.796   2.091
10674SOL     OW32271   4.445   9.823   4.496
10674SOL    HW132272   4.350   9.817   4.505
10674SOL    HW232273   4.460   9.905   4.449
10675SOL     OW32274   6.449   9.082   5.765
10675SOL    HW132275   6.452   9.175   5.788
10675SOL    HW232276   6.366   9.073   5.718
10676SOL     OW32277  10.614   5.057   0.716
10676SOL    HW132278  10.654   5.143   0.697
10676SOL    HW232279  10.527   5.062   0.678
10677SOL     OW32280   5.219   7.100   6.064
10677SOL    HW132281   5.139   7.144   6.093
10677SOL    HW232282   5.284   7.125   6.129
10678SOL     OW32283   3.161   8.993   0.944
10678SOL    HW132284   3.207   8.983   0.860
10678SOL    HW232285   3.122   9.080   0.939
10679SOL     OW32286   4.252  10.448   4.588
10679SOL    HW132287   4.162  10.439   4.556
10679SOL    HW232288   4.255  10.535   4.628
10680SOL     OW32289  11.757  12.206   5.869
10680SOL    HW132290  11.755  12.261   5.948
10680SOL    HW232291  11.730  12.120   5.900
10681SOL     OW32292   7.480   6.570   1.696
10681SOL    HW132293   7.551   6.611   1.646
10681SOL    HW232294   7.418   6.641   1.712
10682SOL     OW32295   9.979   5.416   1.437
10682SOL    HW132296  10.056   5.423   1.494
10682SOL    HW232297  10.016   5.412   1.348
10683SOL     OW32298   7.865   6.188   0.470
10683SOL    HW132299   7.801   6.160   0.535
10683SOL    HW232300   7.947   6.145   0.497
10684SOL     OW32301   7.856  11.289   6.484
10684SOL    HW132302   7.768  11.280   6.521
10684SOL    HW232303   7.857  11.378   6.447
10685SOL     OW32304   6.946   4.841   5.058
10685SOL    HW132305   6.955   4.830   5.152
10685SOL    HW232306   6.951   4.936   5.044
10686SOL     OW32307   6.179  10.057   6.756
10686SOL    HW132308   6.234  10.028   6.829
10686SOL    HW232309   6.139  10.138   6.787
10687SOL     OW32310   8.802  11.730   7.283
10687SOL    HW132311   8.772  11.651   7.238
10687SOL    HW232312   8.798  11.798   7.217
10688SOL     OW32313   1.596   6.281   1.081
10688SOL    HW132314   1.644   6.337   1.141
10688SOL    HW232315   1.633   6.301   0.995
10689SOL     OW32316   8.754  12.681   5.601
10689SOL    HW132317   8.696  12.611   5.571
10689SOL    HW232318   8.820  12.688   5.533
10690SOL     OW32319  15.017   5.064   6.308
10690SOL    HW132320  15.101   5.109   6.310
10690SOL    HW232321  14.989   5.060   6.400
10691SOL     OW32322  12.030  10.172   5.896
10691SOL    HW132323  12.022  10.170   5.991
10691SOL    HW232324  11.946  10.207   5.866
10692SOL     OW32325   4.005   4.083   2.728
10692SOL    HW132326   3.919   4.125   2.722
10692SOL    HW232327   4.032   4.097   2.818
10693SOL     OW32328   2.139   9.289   1.777
10693SOL    HW132329   2.160   9.312   1.687
10693SOL    HW232330   2.047   9.316   1.788
10694SOL     OW32331  13.592   6.498   5.282
10694SOL    HW132332  13.627   6.413   5.256
10694SOL    HW232333  13.527   6.518   5.214
10695SOL     OW32334  14.469  14.420   6.615
10695SOL    HW132335  14.556  14.444   6.584
10695SOL    HW232336  14.477  14.416   6.710
10696SOL     OW32337   5.464  11.056   3.464
10696SOL    HW132338   5.538  11.057   3.404
10696SOL    HW232339   5.405  11.123   3.430
10697SOL     OW32340   7.486  11.057   6.887
10697SOL    HW132341   7.474  11.058   6.792
10697SOL    HW232342   7.480  10.964   6.911
10698SOL     OW32343   7.303  15.618   6.968
10698SOL    HW132344   7.397  15.603   6.979
10698SOL    HW232345   7.281  15.573   6.886
10699SOL     OW32346  10.724  11.097   3.421
10699SOL    HW132347  10.716  11.075   3.514
10699SOL    HW232348  10.804  11.052   3.394
10700SOL     OW32349   1.351   7.080   0.517
10700SOL    HW132350   1.368   7.171   0.494
10700SOL    HW232351   1.432   7.049   0.556
10701SOL     OW32352   7.843  10.245   0.980
10701SOL    HW132353   7.801  10.278   0.901
10701SOL    HW232354   7.936  10.240   0.959
10702SOL     OW32355   7.735  10.747   0.222
10702SOL    HW132356   7.692  10.816   0.273
10702SOL    HW232357   7.803  10.793   0.173
10703SOL     OW32358   4.269  10.173   0.908
10703SOL    HW132359   4.330  10.202   0.841
10703SOL    HW232360   4.317  10.106   0.958
10704SOL     OW32361   8.954   6.295   6.236
10704SOL    HW132362   8.867   6.258   6.252
10704SOL    HW232363   8.967   6.286   6.142
10705SOL     OW32364  11.597   6.044   2.489
10705SOL    HW132365  11.548   6.085   2.417
10705SOL    HW232366  11.638   5.967   2.449
10706SOL     OW32367   8.977   6.731   1.185
10706SOL    HW132368   8.908   6.666   1.194
10706SOL    HW232369   9.047   6.701   1.241
10707SOL     OW32370  11.568   5.465   5.362
10707SOL    HW132371  11.587   5.373   5.342
10707SOL    HW232372  11.652   5.509   5.354
10708SOL     OW32373   3.077   9.558   4.291
10708SOL    HW132374   3.148   9.617   4.314
10708SOL    HW232375  13.781   9.616   4.261
10709SOL     OW32376  11.363   5.872   5.670
10709SOL    HW132377  11.357   5.781   5.697
10709SOL    HW232378  11.319   5.876   5.585
10710SOL     OW32379   8.992   6.196   7.108
10710SOL    HW132380   9.033   6.136   7.046
10710SOL    HW232381   8.984   6.279   7.061
10711SOL     OW32382  14.014   7.704   6.579
10711SOL    HW132383  14.016   7.726   6.672
10711SOL    HW232384  13.929   7.735   6.549
10712SOL     OW32385   9.485   8.289   6.711
10712SOL    HW132386   9.478   8.335   6.627
10712SOL    HW232387   9.423   8.335   6.768
10713SOL     OW32388   7.203   8.847   6.793
10713SOL    HW132389   7.246   8.846   6.707
10713SOL    HW232390   7.218   8.759   6.828
10714SOL     OW32391   9.043   5.621   6.412
10714SOL    HW132392   9.017   5.580   6.330
10714SOL    HW232393   9.098   5.694   6.386
10715SOL     OW32394  12.281   3.606   5.008
10715SOL    HW132395  12.229   3.686   5.015
10715SOL    HW232396  12.350   3.628   4.945
10716SOL     OW32397   4.291   4.156   2.346
10716SOL    HW132398   4.372   4.186   2.388
10716SOL    HW232399   4.222   4.208   2.386
10717SOL     OW32400   4.031   3.334   1.815
10717SOL    HW132401   4.031   3.425   1.785
10717SOL    HW232402   4.108   3.296   1.773
10718SOL     OW32403   7.599   6.290   0.355
10718SOL    HW132404   7.580   6.330   0.440
10718SOL    HW232405   7.655   6.354   0.311
10719SOL     OW32406   7.561   8.109   5.076
10719SOL    HW132407   7.609   8.190   5.090
10719SOL    HW232408   7.607   8.045   5.131
10720SOL     OW32409  10.566   7.310   0.567
10720SOL    HW132410  10.614   7.321   0.649
10720SOL    HW232411  10.594   7.385   0.514
10721SOL     OW32412  10.605   3.072   3.008
10721SOL    HW132413  10.699   3.085   3.020
10721SOL    HW232414  10.599   3.011   2.934
10722SOL     OW32415   6.132   3.969   1.620
10722SOL    HW132416   6.076   3.976   1.543
10722SOL    HW232417   6.109   4.045   1.674
10723SOL     OW32418   5.309   5.469   1.160
10723SOL    HW132419   5.353   5.523   1.094
10723SOL    HW232420   5.264   5.532   1.216
10724SOL     OW32421   7.137  14.769   6.203
10724SOL    HW132422   7.074  14.792   6.272
10724SOL    HW232423   7.110  14.820   6.128
10725SOL     OW32424   4.970   6.254   0.611
10725SOL    HW132425   4.963   6.196   0.535
10725SOL    HW232426   4.944   6.199   0.686
10726SOL     OW32427   9.166  14.812   7.220
10726SOL    HW132428   9.125  14.821   7.134
10726SOL    HW232429   9.155  14.898   7.260
10727SOL     OW32430   9.334   4.896   2.320
10727SOL    HW132431   9.419   4.934   2.339
10727SOL    HW232432   9.271   4.960   2.354
10728SOL     OW32433   7.497  11.924   3.307
10728SOL    HW132434   7.507  12.014   3.340
10728SOL    HW232435   7.442  11.881   3.372
10729SOL     OW32436  14.341  14.935   7.345
10729SOL    HW132437  14.263  14.919   7.292
10729SOL    HW232438  14.413  14.937   7.282
10730SOL     OW32439   7.723  11.254   2.458
10730SOL    HW132440   7.707  11.333   2.406
10730SOL    HW232441   7.705  11.281   2.548
10731SOL     OW32442   5.686  10.291   7.239
10731SOL    HW132443   5.681  10.375   7.284
10731SOL    HW232444   5.595  10.262   7.231
10732SOL     OW32445   5.383  11.112   4.432
10732SOL    HW132446   5.434  11.128   4.511
10732SOL    HW232447   5.340  11.028   4.447
10733SOL     OW32448  12.543   9.707   2.865
10733SOL    HW132449  12.523   9.641   2.931
10733SOL    HW232450  12.525   9.663   2.782
10734SOL     OW32451  14.924   9.903   6.632
10734SOL    HW132452  14.948   9.920   6.723
10734SOL    HW232453  14.999   9.933   6.581
10735SOL     OW32454   7.320   7.554   3.183
10735SOL    HW132455   7.260   7.531   3.112
10735SOL    HW232456   7.338   7.471   3.228
10736SOL     OW32457  13.331   6.472   5.683
10736SOL    HW132458  13.355   6.557   5.719
10736SOL    HW232459  13.413   6.437   5.647
10737SOL     OW32460  10.793   5.641   1.568
10737SOL    HW132461  10.877   5.673   1.533
10737SOL    HW232462  10.765   5.708   1.630
10738SOL     OW32463   2.773   3.276   2.480
10738SOL    HW132464   2.703   3.212   2.470
10738SOL    HW232465   2.803   3.293   2.391
10739SOL     OW32466  11.575   4.135   1.907
10739SOL    HW132467  11.565   4.201   1.838
10739SOL    HW232468  11.670   4.124   1.917
10740SOL     OW32469  13.277   8.185   5.387
10740SOL    HW132470  13.327   8.201   5.467
10740SOL    HW232471  13.217   8.114   5.410
10741SOL     OW32472   7.266   3.153   1.573
10741SOL    HW132473   7.190   3.210   1.581
10741SOL    HW232474   7.234   3.077   1.524
10742SOL     OW32475   9.524   8.973   1.087
10742SOL    HW132476   9.495   8.907   1.150
10742SOL    HW232477   9.567   8.923   1.018
10743SOL     OW32478   3.030   9.412   3.080
10743SOL    HW132479   2.940   9.404   3.109
10743SOL    HW232480   3.026   9.401   2.985
10744SOL     OW32481   1.416   6.009   0.387
10744SOL    HW132482   1.507   6.036   0.402
10744SOL    HW232483   1.385   5.982   0.473
10745SOL     OW32484   7.633   1.610   1.584
10745SOL    HW132485   7.576   1.680   1.551
10745SOL    HW232486   7.642   1.629   1.677
10746SOL     OW32487   4.134   4.844   2.184
10746SOL    HW132488   4.183   4.774   2.142
10746SOL    HW232489   4.139   4.918   2.123
10747SOL     OW32490   7.404   9.732   5.630
10747SOL    HW132491   7.348   9.807   5.609
10747SOL    HW232492   7.386   9.668   5.561
10748SOL     OW32493   9.218   5.049   5.048
10748SOL    HW132494   9.135   5.058   5.094
10748SOL    HW232495   9.274   5.001   5.109
10749SOL     OW32496   5.883  12.753   3.696
10749SOL    HW132497   5.972  12.751   3.731
10749SOL    HW232498   5.846  12.668   3.720
10750SOL     OW32499   6.307  10.062   0.383
10750SOL    HW132500   6.373  10.081   0.317
10750SOL    HW232501   6.288  10.146   0.424
10751SOL     OW32502   0.809   9.844   0.196
10751SOL    HW132503   0.729   9.895   0.184
10751SOL    HW232504   0.867   9.902   0.245
10752SOL     OW32505   9.228  12.856   3.236
10752SOL    HW132506   9.276  12.934   3.206
10752SOL    HW232507   9.297  12.796   3.264
10753SOL     OW32508   5.562   4.716   2.411
10753SOL    HW132509   5.584   4.633   2.454
10753SOL    HW232510   5.508   4.763   2.475
10754SOL     OW32511   7.566   3.592   3.029
10754SOL    HW132512   7.590   3.672   2.981
10754SOL    HW232513   7.619   3.524   2.988
10755SOL     OW32514   9.917  12.752   3.915
10755SOL    HW132515   9.977  12.769   3.842
10755SOL    HW232516   9.908  12.657   3.916
10756SOL     OW32517  11.044   7.525   7.071
10756SOL    HW132518  11.018   7.617   7.078
10756SOL    HW232519  11.096   7.509   7.150
10757SOL     OW32520   4.429   4.983   5.380
10757SOL    HW132521   4.419   5.060   5.323
10757SOL    HW232522   4.401   4.909   5.326
10758SOL     OW32523   4.269   5.186   3.604
10758SOL    HW132524   4.227   5.102   3.622
10758SOL    HW232525   4.234   5.212   3.518
10759SOL     OW32526  10.851   3.747   1.620
10759SOL    HW132527  10.901   3.706   1.691
10759SOL    HW232528  10.795   3.677   1.587
10760SOL     OW32529   1.962   4.708   2.320
10760SOL    HW132530   2.011   4.705   2.402
10760SOL    HW232531   1.873   4.733   2.346
10761SOL     OW32532  14.061  10.410   6.544
10761SOL    HW132533  14.003  10.461   6.488
10761SOL    HW232534  14.136  10.467   6.560
10762SOL     OW32535  15.670  11.902   7.594
10762SOL    HW132536  15.592  11.918   7.541
10762SOL    HW232537  15.733  11.865   7.534
10763SOL     OW32538  11.408   9.695   7.348
10763SOL    HW132539  11.385   9.732   7.434
10763SOL    HW232540  11.484   9.640   7.366
10764SOL     OW32541   7.846   9.645   5.411
10764SOL    HW132542   7.769   9.631   5.466
10764SOL    HW232543   7.916   9.667   5.472
10765SOL     OW32544  15.869   9.715   7.313
10765SOL    HW132545  15.914   9.658   7.375
10765SOL    HW232546  15.846   9.793   7.364
10766SOL     OW32547  13.552  15.407   7.594
10766SOL    HW132548  13.613  15.468   7.551
10766SOL    HW232549  13.468  15.424   7.553
10767SOL     OW32550   7.779   6.556   4.851
10767SOL    HW132551   7.685   6.556   4.832
10767SOL    HW232552   7.784   6.556   4.946
10768SOL     OW32553   3.726   9.393   3.359
10768SOL    HW132554   3.769   9.456   3.416
10768SOL    HW232555   3.677   9.336   3.419
10769SOL     OW32556   7.776   3.279   0.607
10769SOL    HW132557   7.859   3.248   0.570
10769SOL    HW232558   7.741   3.338   0.540
10770SOL     OW32559   4.407   5.373   1.003
10770SOL    HW132560   4.379   5.338   1.087
10770SOL    HW232561   4.490   5.328   0.985
10771SOL     OW32562  13.549   7.447   7.034
10771SOL    HW132563  13.484   7.420   7.098
10771SOL    HW232564  13.567   7.539   7.055
10772SOL     OW32565   8.193   4.050   3.524
10772SOL    HW132566   8.138   3.977   3.496
10772SOL    HW232567   8.132   4.111   3.565
10773SOL     OW32568   2.533   7.584   0.449
10773SOL    HW132569   2.443   7.605   0.423
10773SOL    HW232570   2.587   7.640   0.394
10774SOL     OW32571   7.160  10.012   1.507
10774SOL    HW132572   7.099  10.086   1.518
10774SOL    HW232573   7.178  10.010   1.413
10775SOL     OW32574   8.897   8.909   0.255
10775SOL    HW132575   8.982   8.889   0.293
10775SOL    HW232576   8.915   8.923   0.162
10776SOL     OW32577   8.124  10.145   4.525
10776SOL    HW132578   8.050  10.182   4.476
10776SOL    HW232579   8.106  10.167   4.616
10777SOL     OW32580   0.778   5.264   0.133
10777SOL    HW132581   0.761   5.308   0.050
10777SOL    HW232582   0.869   5.286   0.154
10778SOL     OW32583   9.145   9.860   1.590
10778SOL    HW132584   9.104   9.946   1.591
10778SOL    HW232585   9.152   9.838   1.497
10779SOL     OW32586   6.158   6.561   4.167
10779SOL    HW132587   6.224   6.520   4.223
10779SOL    HW232588   6.148   6.649   4.203
10780SOL     OW32589  14.812   9.331   6.950
10780SOL    HW132590  14.757   9.255   6.967
10780SOL    HW232591  14.752   9.398   6.917
10781SOL     OW32592   9.907  10.669   4.363
10781SOL    HW132593   9.890  10.650   4.455
10781SOL    HW232594   9.968  10.600   4.335
10782SOL     OW32595  14.758   9.947   7.049
10782SOL    HW132596  14.839   9.928   7.002
10782SOL    HW232597  14.786   9.981   7.134
10783SOL     OW32598   5.544   5.603   6.515
10783SOL    HW132599   5.599   5.598   6.593
10783SOL    HW232600   5.502   5.517   6.509
10784SOL     OW32601  12.193  11.960   5.803
10784SOL    HW132602  12.149  11.993   5.881
10784SOL    HW232603  12.273  11.919   5.836
10785SOL     OW32604   6.669  13.102   3.757
10785SOL    HW132605   6.608  13.062   3.695
10785SOL    HW232606   6.714  13.169   3.706
10786SOL     OW32607   5.380   7.134   3.593
10786SOL    HW132608   5.389   7.213   3.541
10786SOL    HW232609   5.356   7.066   3.530
10787SOL     OW32610  10.041  11.669   4.346
10787SOL    HW132611  10.084  11.743   4.389
10787SOL    HW232612  10.062  11.680   4.253
10788SOL     OW32613   2.598   7.152   0.540
10788SOL    HW132614   2.515   7.193   0.516
10788SOL    HW232615   2.573   7.070   0.583
10789SOL     OW32616   5.494   2.217   0.206
10789SOL    HW132617   5.486   2.288   0.269
10789SOL    HW232618   5.572   2.239   0.154
10790SOL     OW32619   4.888   8.774   3.437
10790SOL    HW132620   4.946   8.838   3.395
10790SOL    HW232621   4.908   8.691   3.393
10791SOL     OW32622   4.765  11.484   4.671
10791SOL    HW132623   4.680  11.479   4.716
10791SOL    HW232624   4.767  11.406   4.616
10792SOL     OW32625   5.951  12.984   3.576
10792SOL    HW132626   5.917  13.053   3.632
10792SOL    HW232627   5.896  12.908   3.594
10793SOL     OW32628   6.793   8.272   3.821
10793SOL    HW132629   6.710   8.318   3.836
10793SOL    HW232630   6.785   8.192   3.871
10794SOL     OW32631  11.501   8.419   2.838
10794SOL    HW132632  11.483   8.350   2.773
10794SOL    HW232633  11.596   8.429   2.838
10795SOL     OW32634  12.605   9.294   6.422
10795SOL    HW132635  12.694   9.300   6.388
10795SOL    HW232636  12.615   9.305   6.517
10796SOL     OW32637   1.061   2.938   1.488
10796SOL    HW132638  11.746   2.970   1.478
10796SOL    HW232639  11.853   2.942   1.582
10797SOL     OW32640  12.174  11.052   4.584
10797SOL    HW132641  12.215  11.139   4.584
10797SOL    HW232642  12.095  11.063   4.529
10798SOL     OW32643  10.087   7.949   5.586
10798SOL    HW132644  10.151   7.886   5.553
10798SOL    HW232645  10.100   8.026   5.531
10799SOL     OW32646   9.025   4.046   2.011
10799SOL    HW132647   8.974   4.022   2.088
10799SOL    HW232648   9.004   4.139   1.996
10800SOL     OW32649  10.355   7.471   3.411
10800SOL    HW132650  10.303   7.484   3.332
10800SOL    HW232651  10.298   7.501   3.482
10801SOL     OW32652   4.112   3.506   2.566
10801SOL    HW132653   4.159   3.449   2.506
10801SOL    HW232654   4.045   3.449   2.605
10802SOL     OW32655   7.208   5.648   0.028
10802SOL    HW132656   7.133   5.702   0.054
10802SOL    HW232657   7.220   5.588   0.102
10803SOL     OW32658   7.776  14.039   6.177
10803SOL    HW132659   7.701  14.096   6.195
10803SOL    HW232660   7.759  13.960   6.228
10804SOL     OW32661  15.712  11.824   7.241
10804SOL    HW132662  15.733  11.915   7.262
10804SOL    HW232663  15.686  11.826   7.149
10805SOL     OW32664   6.587   3.361   0.947
10805SOL    HW132665   6.534   3.347   0.869
10805SOL    HW232666   6.564   3.287   1.005
10806SOL     OW32667   6.853   9.767   7.543
10806SOL    HW132668   6.882   9.752   7.453
10806SOL    HW232669   6.822   9.682   7.573
10807SOL     OW32670   1.415   2.007   1.500
10807SOL    HW132671   1.334   2.054   1.518
10807SOL    HW232672   1.473   2.031   1.572
10808SOL     OW32673   4.009   9.968   0.084
10808SOL    HW132674   4.054  10.043   0.123
10808SOL    HW232675   3.966   9.926   0.159
10809SOL     OW32676  10.833  12.571   4.604
10809SOL    HW132677  10.844  12.665   4.620
10809SOL    HW232678  10.922  12.538   4.589
10810SOL     OW32679  11.006  12.840   2.940
10810SOL    HW132680  11.081  12.783   2.955
10810SOL    HW232681  10.972  12.859   3.028
10811SOL     OW32682   5.135   6.388   4.763
10811SOL    HW132683   5.110   6.322   4.827
10811SOL    HW232684   5.071   6.378   4.692
10812SOL     OW32685   4.241   8.170   5.000
10812SOL    HW132686   4.251   8.149   4.908
10812SOL    HW232687   4.161   8.124   5.027
10813SOL     OW32688   2.248   6.343   0.244
10813SOL    HW132689   2.207   6.264   0.209
10813SOL    HW232690   2.342   6.324   0.240
10814SOL     OW32691   7.399   4.337   4.630
10814SOL    HW132692   7.352   4.408   4.587
10814SOL    HW232693   7.333   4.292   4.683
10815SOL     OW32694   7.276   5.137   5.989
10815SOL    HW132695   7.219   5.082   6.043
10815SOL    HW232696   7.344   5.077   5.958
10816SOL     OW32697   9.603  15.184   7.056
10816SOL    HW132698   9.631  15.190   6.965
10816SOL    HW232699   9.678  15.145   7.102
10817SOL     OW32700  12.224   8.636   5.383
10817SOL    HW132701  12.148   8.591   5.345
10817SOL    HW232702  12.264   8.570   5.440
10818SOL     OW32703  12.087   9.257   4.205
10818SOL    HW132704  12.087   9.174   4.157
10818SOL    HW232705  12.039   9.317   4.148
10819SOL     OW32706   8.899   9.190   4.427
10819SOL    HW132707   8.837   9.137   4.376
10819SOL    HW232708   8.846   9.261   4.462
10820SOL     OW32709  10.972   6.159   1.768
10820SOL    HW132710  11.011   6.228   1.715
10820SOL    HW232711  11.020   6.163   1.851
10821SOL     OW32712   5.104  13.317   4.071
10821SOL    HW132713   5.121  13.404   4.035
10821SOL    HW232714   5.188  13.272   4.064
10822SOL     OW32715  11.281   6.527   5.234
10822SOL    HW132716  11.249   6.615   5.257
10822SOL    HW232717  11.294   6.532   5.139
10823SOL     OW32718   7.249  11.691   6.776
10823SOL    HW132719   7.197  11.632   6.723
10823SOL    HW232720   7.322  11.638   6.808
10824SOL     OW32721   5.487   9.726   3.512
10824SOL    HW132722   5.467   9.804   3.461
10824SOL    HW232723   5.572   9.743   3.552
10825SOL     OW32724   8.067  12.996   7.013
10825SOL    HW132725   8.001  13.065   7.006
10825SOL    HW232726   8.027  12.920   6.973
10826SOL     OW32727   8.983   7.178   0.200
10826SOL    HW132728   9.019   7.251   0.251
10826SOL    HW232729   9.056   7.150   0.145
10827SOL     OW32730   6.014   8.856   2.250
10827SOL    HW132731   6.023   8.936   2.302
10827SOL    HW232732   6.045   8.881   2.162
10828SOL     OW32733   7.693   7.527   4.866
10828SOL    HW132734   7.658   7.558   4.782
10828SOL    HW232735   7.780   7.493   4.844
10829SOL     OW32736  12.001   2.957   2.517
10829SOL    HW132737  12.095   2.936   2.514
10829SOL    HW232738  11.994   3.039   2.467
10830SOL     OW32739   4.737  14.123   6.212
10830SOL    HW132740   4.658  14.074   6.233
10830SOL    HW232741   4.706  14.203   6.170
10831SOL     OW32742   2.350  10.596   0.895
10831SOL    HW132743   2.260  10.614   0.920
10831SOL    HW232744   2.393  10.572   0.977
10832SOL     OW32745   6.311  10.853   2.161
10832SOL    HW132746   6.292  10.775   2.212
10832SOL    HW232747   6.328  10.921   2.226
10833SOL     OW32748   6.758   5.542   3.410
10833SOL    HW132749   6.799   5.473   3.462
10833SOL    HW232750   6.760   5.510   3.320
10834SOL     OW32751   4.911   9.371   1.676
10834SOL    HW132752   4.960   9.453   1.683
10834SOL    HW232753   4.947   9.328   1.599
10835SOL     OW32754  11.524   8.769   1.707
10835SOL    HW132755  11.467   8.757   1.782
10835SOL    HW232756  11.586   8.837   1.733
10836SOL     OW32757  11.252   4.752   1.274
10836SOL    HW132758  11.179   4.760   1.336
10836SOL    HW232759  11.243   4.663   1.239
10837SOL     OW32760   9.234   2.932   3.460
10837SOL    HW132761   9.182   2.979   3.526
10837SOL    HW232762   9.176   2.863   3.429
10838SOL     OW32763   7.986  13.921   4.586
10838SOL    HW132764   7.993  13.831   4.553
10838SOL    HW232765   8.043  13.972   4.528
10839SOL     OW32766   2.746   3.971   2.144
10839SOL    HW132767   2.792   3.901   2.097
10839SOL    HW232768   2.769   4.050   2.096
10840SOL     OW32769   8.848   7.810   2.163
10840SOL    HW132770   8.918   7.837   2.223
10840SOL    HW232771   8.771   7.858   2.193
10841SOL     OW32772   3.252   8.215   0.921
10841SOL    HW132773   3.212   8.130   0.905
10841SOL    HW232774   3.180   8.278   0.908
10842SOL     OW32775   5.017   1.446   0.253
10842SOL    HW132776   5.086   1.498   0.211
10842SOL    HW232777   4.960   1.511   0.295
10843SOL     OW32778   9.336   3.950   4.369
10843SOL    HW132779   9.277   3.946   4.294
10843SOL    HW232780   9.301   3.885   4.430
10844SOL     OW32781   4.170   7.899   3.378
10844SOL    HW132782   4.202   7.885   3.467
10844SOL    HW232783   4.084   7.939   3.389
10845SOL     OW32784   6.661   5.333   1.623
10845SOL    HW132785   6.702   5.289   1.697
10845SOL    HW232786   6.720   5.405   1.602
10846SOL     OW32787   5.738   4.467   2.300
10846SOL    HW132788   5.774   4.383   2.329
10846SOL    HW232789   5.812   4.528   2.305
10847SOL     OW32790   9.446  14.658   6.778
10847SOL    HW132791   9.438  14.575   6.824
10847SOL    HW232792   9.434  14.724   6.845
10848SOL     OW32793  11.993  14.220   5.459
10848SOL    HW132794  12.049  14.256   5.528
10848SOL    HW232795  12.050  14.162   5.409
10849SOL     OW32796  14.197  10.225   5.024
10849SOL    HW132797  14.114  10.205   4.981
10849SOL    HW232798  14.172  10.286   5.095
10850SOL     OW32799   9.719   7.762   1.311
10850SOL    HW132800   9.739   7.770   1.405
10850SOL    HW232801   9.633   7.804   1.302
10851SOL     OW32802   4.182   4.186   5.912
10851SOL    HW132803  14.879   4.242   5.907
10851SOL    HW232804  14.923  14.874   5.936
10852SOL     OW32805   6.862   6.449   7.387
10852SOL    HW132806   6.868   6.385   7.458
10852SOL    HW232807   6.769   6.450   7.364
10853SOL     OW32808   2.812   7.320   2.904
10853SOL    HW132809   2.732   7.317   2.852
10853SOL    HW232810   2.801   7.249   2.969
10854SOL     OW32811  12.793   7.047   3.896
10854SOL    HW132812  12.718   6.987   3.899
10854SOL    HW232813  12.759   7.129   3.932
10855SOL     OW32814   5.307  12.815   5.348
10855SOL    HW132815   5.266  12.902   5.343
10855SOL    HW232816   5.380  12.820   5.287
10856SOL     OW32817   8.927  11.367   1.219
10856SOL    HW132818   8.950  11.456   1.191
10856SOL    HW232819   8.931  11.314   1.139
10857SOL     OW32820   3.780   8.528   4.800
10857SOL    HW132821   3.855   8.550   4.744
10857SOL    HW232822   3.820   8.496   4.881
10858SOL     OW32823  14.190   4.336   5.654
10858SOL    HW132824  14.223   4.409   5.602
10858SOL    HW232825  14.114   4.371   5.700
10859SOL     OW32826  14.416  15.885   7.303
10859SOL    HW132827  14.390   5.201   7.316
10859SOL    HW232828  14.511  15.886   7.307
10860SOL     OW32829   6.029  11.278   2.450
10860SOL    HW132830   6.073  11.281   2.536
10860SOL    HW232831   5.938  11.258   2.471
10861SOL     OW32832  11.823   3.714   2.011
10861SOL    HW132833  11.810   3.621   1.994
10861SOL    HW232834  11.781   3.730   2.096
10862SOL     OW32835   4.382   5.543   5.486
10862SOL    HW132836   4.442   5.470   5.473
10862SOL    HW232837   4.385   5.561   5.580
10863SOL     OW32838  10.030   7.029   1.021
10863SOL    HW132839  10.038   6.975   0.943
10863SOL    HW232840  10.062   6.973   1.092
10864SOL     OW32841   2.862  12.184   2.576
10864SOL    HW132842   2.858  12.212   2.668
10864SOL    HW232843   2.908  12.255   2.532
10865SOL     OW32844   8.499   6.237   1.521
10865SOL    HW132845   8.546   6.256   1.602
10865SOL    HW232846   8.477   6.144   1.527
10866SOL     OW32847   5.392  11.926   2.903
10866SOL    HW132848   5.437  11.841   2.909
10866SOL    HW232849   5.400  11.949   2.810
10867SOL     OW32850   3.395   8.735   1.189
10867SOL    HW132851   3.356   8.658   1.147
10867SOL    HW232852   3.434   8.784   1.117
10868SOL     OW32853  14.383  14.074   7.293
10868SOL    HW132854  14.403  14.108   7.206
10868SOL    HW232855  14.467  14.072   7.338
10869SOL     OW32856   3.702  12.525   3.617
10869SOL    HW132857   3.747  12.508   3.700
10869SOL    HW232858   3.763  12.493   3.550
10870SOL     OW32859  13.893   9.529   5.624
10870SOL    HW132860  13.929   9.565   5.543
10870SOL    HW232861  13.951   9.456   5.645
10871SOL     OW32862   3.080   7.461   1.567
10871SOL    HW132863   3.038   7.419   1.642
10871SOL    HW232864   3.023   7.534   1.546
10872SOL     OW32865   4.884  12.344   4.363
10872SOL    HW132866   4.834  12.267   4.389
10872SOL    HW232867   4.912  12.384   4.445
10873SOL     OW32868   8.914  10.219   6.261
10873SOL    HW132869   8.973  10.283   6.301
10873SOL    HW232870   8.833  10.226   6.310
10874SOL     OW32871  10.571  10.477   1.393
10874SOL    HW132872  10.636  10.541   1.421
10874SOL    HW232873  10.487  10.518   1.413
10875SOL     OW32874   6.397   3.908   3.230
10875SOL    HW132875   6.341   3.852   3.177
10875SOL    HW232876   6.457   3.949   3.168
10876SOL     OW32877   6.355   3.085   2.192
10876SOL    HW132878   6.331   3.161   2.140
10876SOL    HW232879   6.272   3.049   2.223
10877SOL     OW32880   7.766   7.467   3.905
10877SOL    HW132881   7.702   7.464   3.977
10877SOL    HW232882   7.849   7.490   3.948
10878SOL     OW32883   2.575   6.483   2.463
10878SOL    HW132884   2.619   6.497   2.379
10878SOL    HW232885   2.553   6.571   2.494
10879SOL     OW32886  14.407   8.954   6.234
10879SOL    HW132887  14.377   8.863   6.235
10879SOL    HW232888  14.489   8.952   6.184
10880SOL     OW32889   4.856   2.322   3.049
10880SOL    HW132890   4.903   2.312   2.967
10880SOL    HW232891   4.870   2.239   3.095
10881SOL     OW32892   8.626   8.528   4.355
10881SOL    HW132893   8.610   8.455   4.416
10881SOL    HW232894   8.549   8.584   4.365
10882SOL     OW32895   4.992   9.279   3.195
10882SOL    HW132896   5.042   9.321   3.266
10882SOL    HW232897   4.907   9.322   3.197
10883SOL     OW32898  12.592  10.533   6.896
10883SOL    HW132899  12.681  10.499   6.884
10883SOL    HW232900  12.588  10.557   6.988
10884SOL     OW32901   9.422  10.226   1.996
10884SOL    HW132902   9.504  10.260   1.959
10884SOL    HW232903   9.403  10.148   1.943
10885SOL     OW32904  12.365  12.340   7.538
10885SOL    HW132905  12.410  12.261   7.568
10885SOL    HW232906  12.275  12.313   7.521
10886SOL     OW32907   2.159   4.425   1.218
10886SOL    HW132908   2.082   4.469   1.182
10886SOL    HW232909   2.123   4.355   1.272
10887SOL     OW32910  13.288   6.603   4.931
10887SOL    HW132911  13.207   6.653   4.942
10887SOL    HW232912  13.357   6.670   4.925
10888SOL     OW32913  11.669   8.278   4.978
10888SOL    HW132914  11.626   8.209   4.927
10888SOL    HW232915  11.603   8.346   4.986
10889SOL     OW32916   5.132   9.522   1.567
10889SOL    HW132917   5.096   9.609   1.556
10889SOL    HW232918   5.220   9.537   1.602
10890SOL     OW32919  12.315  11.200   6.712
10890SOL    HW132920  12.269  11.238   6.638
10890SOL    HW232921  12.407  11.223   6.697
10891SOL     OW32922  15.665   6.110   7.480
10891SOL    HW132923  15.606   6.184   7.496
10891SOL    HW232924  15.747   6.135   7.524
10892SOL     OW32925  12.067   6.728   1.848
10892SOL    HW132926  12.014   6.722   1.928
10892SOL    HW232927   1.383   6.726   1.880
10893SOL     OW32928  13.702   9.047   6.748
10893SOL    HW132929  13.656   9.119   6.704
10893SOL    HW232930  13.791   9.080   6.760
10894SOL     OW32931  10.392  13.648   6.663
10894SOL    HW132932  10.360  13.639   6.753
10894SOL    HW232933  10.314  13.671   6.613
10895SOL     OW32934   4.525   5.304   1.816
10895SOL    HW132935   4.552   5.328   1.905
10895SOL    HW232936   4.431   5.321   1.813
10896SOL     OW32937   7.360   7.430   7.372
10896SOL    HW132938   7.393   7.445   7.283
10896SOL    HW232939   7.430   7.383   7.417
10897SOL     OW32940  13.665  10.758   4.816
10897SOL    HW132941  13.714  10.790   4.891
10897SOL    HW232942  13.651  10.835   4.761
10898SOL     OW32943   3.096   8.553   1.815
10898SOL    HW132944   3.134   8.589   1.895
10898SOL    HW232945   3.157   8.484   1.789
10899SOL     OW32946   6.948   9.090   5.201
10899SOL    HW132947   6.895   9.157   5.244
10899SOL    HW232948   6.966   9.125   5.114
10900SOL     OW32949  12.350  13.473   4.640
10900SOL    HW132950  12.341  13.525   4.720
10900SOL    HW232951  12.421  13.411   4.660
10901SOL     OW32952   5.722   6.559   0.832
10901SOL    HW132953   5.792   6.549   0.896
10901SOL    HW232954   5.738   6.644   0.791
10902SOL     OW32955   4.057   8.664   1.369
10902SOL    HW132956   4.038   8.734   1.432
10902SOL    HW232957   4.097   8.709   1.295
10903SOL     OW32958  10.912   5.236   4.228
10903SOL    HW132959  10.816   5.232   4.233
10903SOL    HW232960  10.932   5.330   4.234
10904SOL     OW32961   9.422   2.145   2.542
10904SOL    HW132962   9.430   2.225   2.594
10904SOL    HW232963   9.360   2.168   2.473
10905SOL     OW32964  10.650   9.438   4.925
10905SOL    HW132965  10.654   9.345   4.947
10905SOL    HW232966  10.738   9.459   4.894
10906SOL     OW32967   9.076  15.604   7.605
10906SOL    HW132968   3.704  10.173   0.070
10906SOL    HW232969   3.652  10.302   0.011
10907SOL     OW32970   9.244   4.474   3.534
10907SOL    HW132971   9.176   4.536   3.559
10907SOL    HW232972   9.325   4.524   3.535
10908SOL     OW32973  13.573   8.814   6.215
10908SOL    HW132974  13.610   8.790   6.130
10908SOL    HW232975  13.507   8.746   6.233
10909SOL     OW32976  14.682  11.728   6.791
10909SOL    HW132977  14.623  11.770   6.854
10909SOL    HW232978  14.688  11.637   6.821
10910SOL     OW32979   4.422   9.989   1.051
10910SOL    HW132980   4.469   9.908   1.070
10910SOL    HW232981   4.490  10.057   1.057
10911SOL     OW32982  10.621   4.349   2.554
10911SOL    HW132983  10.584   4.292   2.621
10911SOL    HW232984  10.555   4.350   2.485
10912SOL     OW32985   3.818   4.808   3.191
10912SOL    HW132986   3.765   4.885   3.168
10912SOL    HW232987   3.896   4.816   3.136
10913SOL     OW32988   3.111   5.310   4.075
10913SOL    HW132989   3.062   5.381   4.116
10913SOL    HW232990   3.096   5.234   4.132
10914SOL     OW32991  13.935  12.817   7.552
10914SOL    HW132992  13.971  12.890   7.503
10914SOL    HW232993   8.566   7.451   0.025
10915SOL     OW32994   9.559   6.250   6.442
10915SOL    HW132995   9.533   6.160   6.460
10915SOL    HW232996   9.476   6.298   6.435
10916SOL     OW32997   9.183  11.565   5.862
10916SOL    HW132998   9.245  11.580   5.933
10916SOL    HW232999   9.116  11.632   5.874
10917SOL     OW33000  11.989  10.069   3.722
10917SOL    HW133001  11.919  10.134   3.730
10917SOL    HW233002  11.993  10.049   3.629
10918SOL     OW33003   3.530   9.690   4.462
10918SOL    HW133004   3.581   9.612   4.484
10918SOL    HW233005   3.588   9.741   4.405
10919SOL     OW33006  10.968   9.896   7.180
10919SOL    HW133007  10.952   9.805   7.205
10919SOL    HW233008  11.061   9.899   7.157
10920SOL     OW33009  15.748  13.135   7.597
10920SOL    HW133010  15.665  13.135   7.550
10920SOL    HW233011  15.808  13.183   7.540
10921SOL     OW33012   6.883   5.003   2.556
10921SOL    HW133013   6.928   5.064   2.498
10921SOL    HW233014   6.872   5.053   2.638
10922SOL     OW33015   8.459   5.436   6.653
10922SOL    HW133016   8.389   5.429   6.719
10922SOL    HW233017   8.514   5.360   6.670
10923SOL     OW33018   8.938   7.776   6.057
10923SOL    HW133019   9.009   7.827   6.097
10923SOL    HW233020   8.972   7.686   6.054
10924SOL     OW33021   6.808  10.808   5.713
10924SOL    HW133022   6.802  10.757   5.793
10924SOL    HW233023   6.899  10.838   5.709
10925SOL     OW33024   6.308  11.849   7.283
10925SOL    HW133025   6.306  11.912   7.355
10925SOL    HW233026   6.253  11.888   7.215
10926SOL     OW33027   2.378   7.354   1.896
10926SOL    HW133028   2.283   7.362   1.905
10926SOL    HW233029   2.398   7.267   1.933
10927SOL     OW33030   4.343   5.392   4.693
10927SOL    HW133031   4.258   5.350   4.708
10927SOL    HW233032   4.327   5.485   4.710
10928SOL     OW33033  11.004  12.408   2.534
10928SOL    HW133034  10.942  12.449   2.473
10928SOL    HW233035  11.003  12.464   2.611
10929SOL     OW33036   8.288   7.930   2.199
10929SOL    HW133037   8.196   7.933   2.170
10929SOL    HW233038   8.291   7.988   2.275
10930SOL     OW33039   8.102   5.935   3.959
10930SOL    HW133040   8.043   5.990   3.907
10930SOL    HW233041   8.052   5.911   4.037
10931SOL     OW33042   8.683  11.873   3.333
10931SOL    HW133043   8.591  11.859   3.355
10931SOL    HW233044   8.697  11.820   3.254
10932SOL     OW33045   7.012   7.954   2.774
10932SOL    HW133046   7.089   7.935   2.720
10932SOL    HW233047   7.047   7.982   2.858
10933SOL     OW33048   5.032   6.609   5.824
10933SOL    HW133049   5.110   6.629   5.773
10933SOL    HW233050   4.985   6.544   5.770
10934SOL     OW33051  12.212   4.399   2.217
10934SOL    HW133052  12.222   4.354   2.301
10934SOL    HW233053  12.274   4.472   2.222
10935SOL     OW33054   8.043  11.074   2.659
10935SOL    HW133055   8.046  11.105   2.568
10935SOL    HW233056   8.111  11.007   2.663
10936SOL     OW33057   9.940   8.714   6.998
10936SOL    HW133058  10.028   8.728   7.034
10936SOL    HW233059   9.919   8.796   6.954
10937SOL     OW33060   4.304   2.078   0.992
10937SOL    HW133061   4.262   2.049   1.073
10937SOL    HW233062   4.231   2.091   0.931
10938SOL     OW33063   6.327  14.702   6.602
10938SOL    HW133064   6.385  14.628   6.619
10938SOL    HW233065   6.240  14.670   6.623
10939SOL     OW33066   7.939   6.149   2.121
10939SOL    HW133067   7.962   6.191   2.038
10939SOL    HW233068   7.848   6.176   2.137
10940SOL     OW33069   7.254   6.070   0.562
10940SOL    HW133070   7.236   6.062   0.468
10940SOL    HW233071   7.311   5.995   0.582
10941SOL     OW33072   4.905   4.683   5.641
10941SOL    HW133073   4.812   4.705   5.647
10941SOL    HW233074   4.909   4.590   5.665
10942SOL     OW33075   8.000   9.808   4.008
10942SOL    HW133076   8.076   9.751   4.006
10942SOL    HW233077   7.925   9.748   4.010
10943SOL     OW33078  11.211  11.509   2.742
10943SOL    HW133079  11.189  11.416   2.755
10943SOL    HW233080  11.160  11.534   2.664
10944SOL     OW33081   9.744   3.945   2.760
10944SOL    HW133082   9.754   3.923   2.667
10944SOL    HW233083   9.685   3.878   2.794
10945SOL     OW33084   8.909   8.406   3.549
10945SOL    HW133085   8.990   8.452   3.527
10945SOL    HW233086   8.927   8.363   3.633
10946SOL     OW33087   5.898   9.353   2.816
10946SOL    HW133088   5.909   9.374   2.909
10946SOL    HW233089   5.860   9.432   2.778
10947SOL     OW33090  13.231   6.927   4.325
10947SOL    HW133091  13.307   6.968   4.284
10947SOL    HW233092  13.156   6.978   4.292
10948SOL     OW33093  14.991  13.028   6.404
10948SOL    HW133094  14.957  13.115   6.424
10948SOL    HW233095  14.979  12.978   6.485
10949SOL     OW33096   8.478   5.495   4.448
10949SOL    HW133097   8.384   5.504   4.460
10949SOL    HW233098   8.488   5.478   4.354
10950SOL     OW33099   7.819   4.455   5.587
10950SOL    HW133100   7.899   4.409   5.562
10950SOL    HW233101   7.811   4.441   5.681
10951SOL     OW33102  14.106   7.245   4.974
10951SOL    HW133103  14.088   7.171   5.031
10951SOL    HW233104  14.161   7.304   5.026
10952SOL     OW33105  10.695   3.325   3.899
10952SOL    HW133106  10.670   3.238   3.933
10952SOL    HW233107  10.653   3.387   3.960
10953SOL     OW33108   5.160  11.667   1.275
10953SOL    HW133109   5.114   0.967   1.235
10953SOL    HW233110   5.120  11.658   1.361
10954SOL     OW33111   8.107   5.387   3.467
10954SOL    HW133112   8.041   5.432   3.519
10954SOL    HW233113   8.187   5.392   3.521
10955SOL     OW33114   5.966   4.726   5.148
10955SOL    HW133115   5.927   4.780   5.079
10955SOL    HW233116   6.055   4.761   5.158
10956SOL     OW33117   9.231   2.859   0.720
10956SOL    HW133118   9.175   2.808   0.778
10956SOL    HW233119   9.207   2.830   0.632
10957SOL     OW33120   7.697   6.268   1.749
10957SOL    HW133121   7.648   6.318   1.814
10957SOL    HW233122   7.634   6.206   1.714
10958SOL     OW33123   8.000  11.474   1.815
10958SOL    HW133124   8.039  11.539   1.756
10958SOL    HW233125   7.924  11.518   1.853
10959SOL     OW33126   7.396  11.058   1.603
10959SOL    HW133127   7.414  10.975   1.647
10959SOL    HW233128   7.482  11.093   1.582
10960SOL     OW33129   8.293   5.714   7.351
10960SOL    HW133130   8.324   5.624   7.361
10960SOL    HW233131   8.273   5.723   7.258
10961SOL     OW33132   3.819   9.621   3.750
10961SOL    HW133133   3.879   9.691   3.777
10961SOL    HW233134   3.877   9.552   3.717
10962SOL     OW33135   5.428   9.094   2.758
10962SOL    HW133136   5.482   9.168   2.729
10962SOL    HW233137   5.405   9.047   2.678
10963SOL     OW33138  10.626   6.630   1.861
10963SOL    HW133139  10.601   6.697   1.924
10963SOL    HW233140  10.579   6.653   1.781
10964SOL     OW33141  13.105   7.194   6.972
10964SOL    HW133142  13.199   7.199   6.954
10964SOL    HW233143  13.086   7.100   6.968
10965SOL     OW33144   6.140  10.498   2.601
10965SOL    HW133145   6.191  10.443   2.660
10965SOL    HW233146   6.097  10.437   2.542
10966SOL     OW33147   9.261   8.821   5.838
10966SOL    HW133148   9.331   8.756   5.841
10966SOL    HW233149   9.189   8.782   5.888
10967SOL     OW33150   9.002  11.093   6.044
10967SOL    HW133151   8.998  11.157   5.973
10967SOL    HW233152   8.937  11.123   6.108
10968SOL     OW33153   2.172   7.998   1.770
10968SOL    HW133154   2.130   7.919   1.735
10968SOL    HW233155   2.100   8.048   1.808
10969SOL     OW33156  12.999   7.477   4.610
10969SOL    HW133157  12.931   7.542   4.632
10969SOL    HW233158  13.024   7.498   4.520
10970SOL     OW33159   5.562   8.753   3.785
10970SOL    HW133160   5.482   8.804   3.801
10970SOL    HW233161   5.573   8.754   3.690
10971SOL     OW33162  13.540   9.692   4.703
10971SOL    HW133163  13.631   9.718   4.691
10971SOL    HW233164  13.535   9.604   4.665
10972SOL     OW33165   6.205   9.017   4.416
10972SOL    HW133166   6.164   8.994   4.332
10972SOL    HW233167   6.137   9.002   4.481
10973SOL     OW33168  12.107   6.883   2.961
10973SOL    HW133169  12.187   6.864   2.913
10973SOL    HW233170  12.105   6.819   3.032
10974SOL     OW33171  11.675   8.037   2.109
10974SOL    HW133172  11.590   8.029   2.065
10974SOL    HW233173  11.675   7.966   2.174
10975SOL     OW33174  14.946   7.784   7.577
10975SOL    HW133175  14.890   7.707   7.582
10975SOL    HW233176   9.620   2.387   0.030
10976SOL     OW33177   6.416   3.828   1.481
10976SOL    HW133178   6.320   3.820   1.480
10976SOL    HW233179   6.447   3.746   1.519
10977SOL     OW33180  10.481   6.368   3.409
10977SOL    HW133181  10.390   6.358   3.436
10977SOL    HW233182  10.516   6.435   3.468
10978SOL     OW33183  14.199  11.452   5.238
10978SOL    HW133184  14.224  11.389   5.305
10978SOL    HW233185  14.190  11.535   5.285
10979SOL     OW33186   8.019   9.802   6.136
10979SOL    HW133187   7.923   9.810   6.134
10979SOL    HW233188   8.040   9.789   6.229
10980SOL     OW33189  11.146  13.521   6.421
10980SOL    HW133190  11.131  13.500   6.328
10980SOL    HW233191  11.238  13.546   6.426
10981SOL     OW33192   1.592  11.548   1.348
10981SOL    HW133193   1.599  11.471   1.293
10981SOL    HW233194   1.631  11.523   1.431
10982SOL     OW33195   7.564  13.047   6.944
10982SOL    HW133196   7.639  13.050   6.885
10982SOL    HW233197   7.567  13.131   6.990
10983SOL     OW33198   9.857  13.490   4.828
10983SOL    HW133199   9.873  13.577   4.792
10983SOL    HW233200   9.833  13.505   4.919
10984SOL     OW33201   6.104  11.264   1.464
10984SOL    HW133202   6.200  11.261   1.471
10984SOL    HW233203   6.082  11.356   1.479
10985SOL     OW33204   6.993   6.280   6.755
10985SOL    HW133205   6.910   6.328   6.756
10985SOL    HW233206   6.976   6.201   6.808
10986SOL     OW33207   8.941   5.502   6.182
10986SOL    HW133208   9.017   5.511   6.125
10986SOL    HW233209   8.928   5.407   6.190
10987SOL     OW33210   8.239   4.184   2.593
10987SOL    HW133211   8.178   4.216   2.527
10987SOL    HW233212   8.189   4.186   2.675
10988SOL     OW33213   5.657   4.911   4.392
10988SOL    HW133214   5.720   4.963   4.442
10988SOL    HW233215   5.618   4.973   4.331
10989SOL     OW33216   5.158   9.498   2.763
10989SOL    HW133217   5.224   9.534   2.822
10989SOL    HW233218   5.085   9.474   2.820
10990SOL     OW33219   0.436   2.365   0.338
10990SOL    HW133220   0.358   2.416   0.317
10990SOL    HW233221   0.424   2.338   0.429
10991SOL     OW33222   7.840  14.345   6.292
10991SOL    HW133223   7.805  14.259   6.311
10991SOL    HW233224   7.812  14.400   6.366
10992SOL     OW33225  10.533  10.268   7.513
10992SOL    HW133226  10.571  10.356   7.503
10992SOL    HW233227  10.585  10.227   7.582
10993SOL     OW33228  12.526   6.300   5.577
10993SOL    HW133229  12.575   6.346   5.509
10993SOL    HW233230  12.445   6.350   5.586
10994SOL     OW33231   7.914   1.483   1.874
10994SOL    HW133232   7.878   1.476   1.963
10994SOL    HW233233   7.914   1.577   1.857
10995SOL     OW33234  12.209  12.952   3.189
10995SOL    HW133235  12.210  12.917   3.100
10995SOL    HW233236  12.201   2.272   3.177
10996SOL     OW33237  11.114   8.494   1.605
10996SOL    HW133238  11.166   8.475   1.683
10996SOL    HW233239  11.045   8.428   1.606
10997SOL     OW33240   3.316   2.313   0.058
10997SOL    HW133241   8.703   7.627   7.615
10997SOL    HW233242   3.237   2.362   0.038
10998SOL     OW33243   8.546   6.625   7.142
10998SOL    HW133244   8.494   6.545   7.150
10998SOL    HW233245   8.589   6.634   7.227
10999SOL     OW33246   6.860  12.361   2.464
10999SOL    HW133247   6.821  12.443   2.435
10999SOL    HW233248   6.793  12.295   2.447
11000SOL     OW33249   2.169   6.078   1.782
11000SOL    HW133250   2.154   6.110   1.871
11000SOL    HW233251   2.194   5.987   1.793
11001SOL     OW33252   3.072   9.373   0.536
11001SOL    HW133253   3.113   9.433   0.473
11001SOL    HW233254   3.137   9.363   0.605
11002SOL     OW33255   8.523   7.010   6.313
11002SOL    HW133256   8.563   6.956   6.381
11002SOL    HW233257   8.457   6.953   6.273
11003SOL     OW33258   8.016   5.299   2.747
11003SOL    HW133259   8.042   5.254   2.827
11003SOL    HW233260   8.058   5.249   2.677
11004SOL     OW33261   7.124  12.437   4.388
11004SOL    HW133262   7.128  12.509   4.451
11004SOL    HW233263   7.160  12.362   4.435
11005SOL     OW33264   2.952   3.199   0.633
11005SOL    HW133265   2.877   3.183   0.576
11005SOL    HW233266   2.936   3.145   0.710
11006SOL     OW33267  10.516   4.408   6.060
11006SOL    HW133268  10.610   4.415   6.076
11006SOL    HW233269  10.475   4.425   6.145
11007SOL     OW33270  10.844  12.056   4.205
11007SOL    HW133271  10.847  12.122   4.274
11007SOL    HW233272  10.799  12.099   4.132
11008SOL     OW33273  11.689   9.030   5.517
11008SOL    HW133274  11.616   9.055   5.461
11008SOL    HW233275  11.767   9.053   5.467
11009SOL     OW33276   7.910   4.653   5.837
11009SOL    HW133277   7.888   4.746   5.833
11009SOL    HW233278   7.826   4.608   5.850
11010SOL     OW33279   3.864   8.035   2.944
11010SOL    HW133280   3.888   8.117   2.900
11010SOL    HW233281   3.841   7.976   2.872
11011SOL     OW33282   5.238  13.171   4.783
11011SOL    HW133283   5.247  13.256   4.741
11011SOL    HW233284   5.182  13.121   4.724
11012SOL     OW33285   6.239   9.234   0.450
11012SOL    HW133286   6.312   9.185   0.486
11012SOL    HW233287   6.274   9.322   0.435
11013SOL     OW33288   2.524   7.306   2.564
11013SOL    HW133289   2.485   7.318   2.477
11013SOL    HW233290   2.487   7.375   2.617
11014SOL     OW33291   2.535   9.203   1.330
11014SOL    HW133292   2.501   9.117   1.304
11014SOL    HW233293   2.600   9.184   1.397
11015SOL     OW33294   9.110  10.560   1.577
11015SOL    HW133295   9.073  10.482   1.618
11015SOL    HW233296   9.118  10.537   1.484
11016SOL     OW33297  12.272  12.796   6.866
11016SOL    HW133298  12.262  12.880   6.911
11016SOL    HW233299  12.219  12.735   6.917
11017SOL     OW33300  11.441   6.668   7.578
11017SOL    HW133301   6.024   1.307   0.046
11017SOL    HW233302  11.523   6.717   7.565
11018SOL     OW33303   6.332  10.154   3.840
11018SOL    HW133304   6.297  10.086   3.782
11018SOL    HW233305   6.425  10.160   3.817
11019SOL     OW33306   8.984  12.990   3.324
11019SOL    HW133307   9.069  12.949   3.314
11019SOL    HW233308   8.995  13.053   3.395
11020SOL     OW33309   5.631   8.732   5.619
11020SOL    HW133310   5.695   8.776   5.674
11020SOL    HW233311   5.648   8.639   5.631
11021SOL     OW33312   5.130   8.599   3.602
11021SOL    HW133313   5.070   8.625   3.671
11021SOL    HW233314   5.141   8.677   3.548
11022SOL     OW33315   8.971  12.180   7.120
11022SOL    HW133316   8.957  12.243   7.191
11022SOL    HW233317   8.989  12.233   7.043
11023SOL     OW33318  14.923  14.327   7.227
11023SOL    HW133319  14.857  14.307   7.294
11023SOL    HW233320  15.006  14.329   7.275
11024SOL     OW33321  11.848   8.626   4.596
11024SOL    HW133322  11.898   8.707   4.583
11024SOL    HW233323  11.907   8.569   4.646
11025SOL     OW33324   4.817   7.735   6.771
11025SOL    HW133325   4.793   7.646   6.748
11025SOL    HW233326   4.911   7.741   6.751
11026SOL     OW33327  12.243  11.794   5.179
11026SOL    HW133328  12.194  11.799   5.097
11026SOL    HW233329  12.243  11.701   5.202
11027SOL     OW33330  12.266   7.823   5.754
11027SOL    HW133331  12.185   7.824   5.806
11027SOL    HW233332  12.247   7.879   5.679
11028SOL     OW33333   6.335   7.730   1.287
11028SOL    HW133334   6.293   7.681   1.216
11028SOL    HW233335   6.405   7.779   1.244
11029SOL     OW33336  14.684  12.706   6.450
11029SOL    HW133337  14.752  12.767   6.479
11029SOL    HW233338  14.604  12.759   6.448
11030SOL     OW33339   7.516   5.470   3.688
11030SOL    HW133340   7.515   5.565   3.695
11030SOL    HW233341   7.433   5.447   3.647
11031SOL     OW33342  10.779   7.979   2.951
11031SOL    HW133343  10.710   7.929   2.908
11031SOL    HW233344  10.847   7.915   2.970
11032SOL     OW33345   0.743   9.663   0.769
11032SOL    HW133346   0.825   9.621   0.793
11032SOL    HW233347   0.767   9.727   0.703
11033SOL     OW33348   5.508   9.049   3.508
11033SOL    HW133349   5.583   9.037   3.451
11033SOL    HW233350   5.545   9.074   3.592
11034SOL     OW33351   2.957   4.841   3.780
11034SOL    HW133352   3.041   4.801   3.756
11034SOL    HW233353   2.954   4.922   3.728
11035SOL     OW33354  11.472  14.725   7.192
11035SOL    HW133355  11.551  14.672   7.193
11035SOL    HW233356  11.429  14.707   7.276
11036SOL     OW33357   6.683  10.820   2.181
11036SOL    HW133358   6.688  10.741   2.128
11036SOL    HW233359   6.599  10.814   2.226
11037SOL     OW33360  10.045   6.065   3.254
11037SOL    HW133361  10.129   6.018   3.258
11037SOL    HW233362  10.059   6.131   3.186
11038SOL     OW33363   6.724  10.315   1.572
11038SOL    HW133364   6.656  10.269   1.522
11038SOL    HW233365   6.805  10.266   1.553
11039SOL     OW33366  12.750   9.321   2.897
11039SOL    HW133367  12.699   9.380   2.952
11039SOL    HW233368   2.032   9.379   2.846
11040SOL     OW33369  10.109  10.460   7.129
11040SOL    HW133370  10.061  10.445   7.211
11040SOL    HW233371  10.100  10.553   7.112
11041SOL     OW33372  13.602   5.748   5.481
11041SOL    HW133373  13.611   5.723   5.574
11041SOL    HW233374  13.513   5.723   5.458
11042SOL     OW33375  13.265  10.591   4.736
11042SOL    HW133376  13.348  10.563   4.775
11042SOL    HW233377  13.264  10.686   4.748
11043SOL     OW33378  11.194   5.782   4.837
11043SOL    HW133379  11.252   5.855   4.816
11043SOL    HW233380  11.106   5.817   4.826
11044SOL     OW33381  12.051   6.646   7.246
11044SOL    HW133382  12.080   6.675   7.332
11044SOL    HW233383  12.123   6.666   7.187
11045SOL     OW33384   4.625  11.879   4.509
11045SOL    HW133385   4.583  11.943   4.567
11045SOL    HW233386   4.572  11.800   4.520
11046SOL     OW33387   1.041   1.519   0.127
11046SOL    HW133388   1.136   1.514   0.121
11046SOL    HW233389   1.014   1.556   0.042
11047SOL     OW33390   4.794  11.109   5.623
11047SOL    HW133391   4.713  11.154   5.598
11047SOL    HW233392   4.862  11.151   5.569
11048SOL     OW33393   5.611  10.131   5.321
11048SOL    HW133394   5.557  10.074   5.376
11048SOL    HW233395   5.656  10.188   5.383
11049SOL     OW33396   3.743   5.017   3.764
11049SOL    HW133397   3.762   5.052   3.851
11049SOL    HW233398   3.828   5.017   3.719
11050SOL     OW33399   9.612   3.390   3.002
11050SOL    HW133400   9.627   3.351   3.088
11050SOL    HW233401   9.678   3.350   2.945
11051SOL     OW33402  12.098   5.663   6.352
11051SOL    HW133403  12.051   5.704   6.280
11051SOL    HW233404  12.030   5.636   6.413
11052SOL     OW33405  13.403   8.469   3.917
11052SOL    HW133406  13.403   8.552   3.868
11052SOL    HW233407  13.323   8.473   3.969
11053SOL     OW33408   3.283   6.027   4.228
11053SOL    HW133409   3.200   5.997   4.266
11053SOL    HW233410   3.266   6.119   4.204
11054SOL     OW33411   3.008   9.362   1.881
11054SOL    HW133412   3.014   9.370   1.976
11054SOL    HW233413   3.099   9.353   1.852
11055SOL     OW33414  11.007  11.684   6.626
11055SOL    HW133415  11.070  11.756   6.638
11055SOL    HW233416  10.928  11.714   6.671
11056SOL     OW33417  10.253   3.803   0.778
11056SOL    HW133418  10.178   3.788   0.721
11056SOL    HW233419  10.246   3.895   0.805
11057SOL     OW33420  13.293  12.936   6.801
11057SOL    HW133421  13.206  12.933   6.762
11057SOL    HW233422  13.278  12.920   6.894
11058SOL     OW33423   5.352   9.482   6.575
11058SOL    HW133424   5.431   9.468   6.627
11058SOL    HW233425   5.280   9.466   6.636
11059SOL     OW33426   3.751   3.011   0.582
11059SOL    HW133427   3.759   2.966   0.666
11059SOL    HW233428   3.658   3.001   0.559
11060SOL     OW33429   6.630   3.700   0.074
11060SOL    HW133430   6.537   3.707   0.055
11060SOL    HW233431   6.650   3.779   0.125
11061SOL     OW33432  14.274  12.443   5.242
11061SOL    HW133433  14.192  12.492   5.244
11061SOL    HW233434  14.313  12.464   5.156
11062SOL     OW33435   7.886   8.218   7.215
11062SOL    HW133436   7.936   8.295   7.186
11062SOL    HW233437   7.948   8.145   7.206
11063SOL     OW33438   7.233   5.200   4.405
11063SOL    HW133439   7.325   5.219   4.387
11063SOL    HW233440   7.217   5.238   4.492
11064SOL     OW33441   6.693   9.368   0.586
11064SOL    HW133442   6.690   9.336   0.495
11064SOL    HW233443   6.784   9.396   0.598
11065SOL     OW33444  10.478   4.629   0.595
11065SOL    HW133445  10.551   4.657   0.539
11065SOL    HW233446  10.432   4.710   0.617
11066SOL     OW33447   5.472  12.756   5.844
11066SOL    HW133448   5.443  12.792   5.928
11066SOL    HW233449   5.561  12.725   5.861
11067SOL     OW33450   6.645  14.507   5.575
11067SOL    HW133451   6.638  14.445   5.502
11067SOL    HW233452   6.661  14.591   5.533
11068SOL     OW33453   4.154  10.070   4.218
11068SOL    HW133454   4.177  10.005   4.152
11068SOL    HW233455   4.135  10.149   4.168
11069SOL     OW33456   2.517   7.770   1.049
11069SOL    HW133457   2.439   7.767   0.993
11069SOL    HW233458   2.589   7.746   0.991
11070SOL     OW33459   3.550   6.045   4.467
11070SOL    HW133460   3.504   6.124   4.498
11070SOL    HW233461   3.630   6.043   4.518
11071SOL     OW33462   2.982   1.539   1.971
11071SOL    HW133463   3.074   1.554   1.993
11071SOL    HW233464   2.940   1.624   1.984
11072SOL     OW33465  10.892   5.218   2.962
11072SOL    HW133466  10.913   5.184   3.049
11072SOL    HW233467  10.869   5.310   2.976
11073SOL     OW33468   7.227   2.873   1.783
11073SOL    HW133469   7.309   2.840   1.746
11073SOL    HW233470   7.239   2.968   1.787
11074SOL     OW33471   6.145   6.161   6.667
11074SOL    HW133472   6.141   6.125   6.578
11074SOL    HW233473   6.064   6.130   6.709
11075SOL     OW33474   8.406   1.881   0.896
11075SOL    HW133475   8.451   1.957   0.860
11075SOL    HW233476   8.314   1.894   0.874
11076SOL     OW33477   4.417   6.890   0.458
11076SOL    HW133478   4.348   6.857   0.515
11076SOL    HW233479   4.392   6.980   0.439
11077SOL     OW33480   7.979   4.663   3.342
11077SOL    HW133481   8.072   4.681   3.324
11077SOL    HW233482   7.980   4.609   3.421
11078SOL     OW33483  10.956   3.011   4.005
11078SOL    HW133484  11.020   2.964   4.058
11078SOL    HW233485  11.008   3.057   3.940
11079SOL     OW33486  13.257  10.955   6.187
11079SOL    HW133487  13.333  10.897   6.180
11079SOL    HW233488  13.239  10.981   6.097
11080SOL     OW33489  12.303   7.192   3.027
11080SOL    HW133490  12.256   7.271   3.002
11080SOL    HW233491  12.267   7.124   2.969
11081SOL     OW33492   6.815  11.448   7.347
11081SOL    HW133493   6.793  11.482   7.260
11081SOL    HW233494   6.853  11.522   7.393
11082SOL     OW33495  13.264   4.590   5.796
11082SOL    HW133496  13.321   4.628   5.729
11082SOL    HW233497  13.284   4.496   5.794
11083SOL     OW33498  11.207   9.506   6.631
11083SOL    HW133499  11.301   9.497   6.649
11083SOL    HW233500  11.202   9.555   6.549
11084SOL     OW33501   6.627   9.296   4.680
11084SOL    HW133502   6.570   9.353   4.630
11084SOL    HW233503   6.705   9.286   4.625
11085SOL     OW33504   5.130   7.222   7.053
11085SOL    HW133505   5.167   7.150   7.104
11085SOL    HW233506   5.205   7.265   7.014
11086SOL     OW33507   4.059   8.682   5.214
11086SOL    HW133508   4.107   8.765   5.211
11086SOL    HW233509   4.087   8.641   5.296
11087SOL     OW33510   8.119   8.989   0.664
11087SOL    HW133511   8.144   8.922   0.600
11087SOL    HW233512   8.138   9.072   0.620
11088SOL     OW33513   2.047   3.537   0.124
11088SOL    HW133514   1.968   3.579   0.091
11088SOL    HW233515   2.022   3.506   0.211
11089SOL     OW33516   8.479   8.822   1.566
11089SOL    HW133517   8.499   8.879   1.640
11089SOL    HW233518   8.480   8.734   1.603
11090SOL     OW33519  10.715   2.083   0.193
11090SOL    HW133520  10.620   2.078   0.188
11090SOL    HW233521  10.735   2.078   0.286
11091SOL     OW33522   7.343  11.090   5.026
11091SOL    HW133523   7.329  10.998   5.004
11091SOL    HW233524   7.266  11.135   4.992
11092SOL     OW33525   9.741   2.789   3.387
11092SOL    HW133526   9.654   2.795   3.426
11092SOL    HW233527   9.776   2.706   3.419
11093SOL     OW33528   8.950  13.634   4.784
11093SOL    HW133529   8.922  13.716   4.744
11093SOL    HW233530   8.943  13.569   4.714
11094SOL     OW33531   4.354   1.741   0.915
11094SOL    HW133532   4.341   1.666   0.857
11094SOL    HW233533   4.403   1.804   0.862
11095SOL     OW33534  11.181   5.573   4.387
11095SOL    HW133535  11.191   5.488   4.431
11095SOL    HW233536  11.165   5.635   4.458
11096SOL     OW33537  15.185  12.447   6.510
11096SOL    HW133538  15.241  12.465   6.435
11096SOL    HW233539  15.243  12.405   6.574
11097SOL     OW33540  12.674   5.152   3.408
11097SOL    HW133541  12.616   5.153   3.485
11097SOL    HW233542  12.614   5.146   3.334
11098SOL     OW33543  10.332  10.619   1.451
11098SOL    HW133544  10.268  10.655   1.389
11098SOL    HW233545  10.320  10.672   1.530
11099SOL     OW33546   2.935  10.599   0.893
11099SOL    HW133547   2.859  10.581   0.839
11099SOL    HW233548   2.995  10.527   0.875
11100SOL     OW33549  11.174   8.995   4.273
11100SOL    HW133550  11.233   8.942   4.219
11100SOL    HW233551  11.169   8.948   4.357
11101SOL     OW33552  12.301  12.979   6.286
11101SOL    HW133553  12.309  13.068   6.319
11101SOL    HW233554  12.383  12.964   6.239
11102SOL     OW33555  10.839   2.311   1.517
11102SOL    HW133556  10.899   2.267   1.577
11102SOL    HW233557  10.836   2.255   1.440
11103SOL     OW33558  12.988  11.838   3.172
11103SOL    HW133559  13.046  11.866   3.243
11103SOL    HW233560   2.227  11.903   3.102
11104SOL     OW33561   6.603   7.879   3.699
11104SOL    HW133562   6.673   7.929   3.657
11104SOL    HW233563   6.576   7.932   3.773
11105SOL     OW33564   7.510   5.209   0.090
11105SOL    HW133565   7.504   5.123   0.133
11105SOL    HW233566   7.571   5.259   0.144
11106SOL     OW33567  10.009   9.287   7.141
11106SOL    HW133568  10.047   9.374   7.128
11106SOL    HW233569  10.051   9.232   7.074
11107SOL     OW33570   9.542  10.642   3.585
11107SOL    HW133571   9.538  10.708   3.654
11107SOL    HW233572   9.603  10.576   3.619
11108SOL     OW33573  15.877  12.574   7.280
11108SOL    HW133574   5.180  12.553   7.228
11108SOL    HW233575  15.803  12.545   7.226
11109SOL     OW33576   9.087   4.450   0.760
11109SOL    HW133577   9.180   4.459   0.740
11109SOL    HW233578   9.083   4.376   0.821
11110SOL     OW33579   1.956   3.860   0.318
11110SOL    HW133580   2.000   3.858   0.403
11110SOL    HW233581   2.012   3.916   0.264
11111SOL     OW33582   2.868   4.048   0.631
11111SOL    HW133583   2.910   3.966   0.605
11111SOL    HW233584   2.811   4.024   0.705
11112SOL     OW33585   3.834   9.696   2.355
11112SOL    HW133586   3.860   9.782   2.324
11112SOL    HW233587   3.896   9.636   2.313
11113SOL     OW33588  13.414   6.859   6.916
11113SOL    HW133589  13.485   6.818   6.967
11113SOL    HW233590  13.406   6.947   6.954
11114SOL     OW33591   6.028   7.156   0.102
11114SOL    HW133592   6.039   7.098   0.178
11114SOL    HW233593   6.029   7.096   0.027
11115SOL     OW33594   7.254  12.856   6.456
11115SOL    HW133595   7.231  12.949   6.450
11115SOL    HW233596   7.243  12.835   6.549
11116SOL     OW33597  11.832   9.809   3.529
11116SOL    HW133598  11.854   9.717   3.539
11116SOL    HW233599  11.767   9.826   3.597
11117SOL     OW33600   3.251   6.311   2.296
11117SOL    HW133601   3.293   6.234   2.258
11117SOL    HW233602   3.261   6.299   2.391
11118SOL     OW33603   4.421   5.437   3.698
11118SOL    HW133604   4.488   5.368   3.699
11118SOL    HW233605   4.343   5.395   3.735
11119SOL     OW33606   5.102   7.725   6.664
11119SOL    HW133607   5.086   7.817   6.645
11119SOL    HW233608   5.155   7.694   6.591
11120SOL     OW33609   7.688  11.671   3.468
11120SOL    HW133610   7.782  11.679   3.486
11120SOL    HW233611   7.648  11.738   3.524
11121SOL     OW33612   6.743   6.572   3.118
11121SOL    HW133613   6.738   6.503   3.184
11121SOL    HW233614   6.653   6.601   3.106
11122SOL     OW33615  12.157  12.214   2.119
11122SOL    HW133616  12.128   1.454   2.029
11122SOL    HW233617  12.133  12.294   2.165
11123SOL     OW33618  11.653  12.237   5.363
11123SOL    HW133619  11.640  12.332   5.371
11123SOL    HW233620  11.747  12.227   5.351
11124SOL     OW33621   8.780   7.494   0.534
11124SOL    HW133622   8.690   7.499   0.503
11124SOL    HW233623   8.773   7.455   0.621
11125SOL     OW33624  12.398   5.285   3.039
11125SOL    HW133625  12.324   5.313   3.092
11125SOL    HW233626  12.460   5.358   3.044
11126SOL     OW33627   8.861  10.312   1.591
11126SOL    HW133628   8.785  10.367   1.573
11126SOL    HW233629   8.843  10.272   1.675
11127SOL     OW33630   8.741   6.411   7.452
11127SOL    HW133631   8.727   6.358   7.530
11127SOL    HW233632   8.835   6.403   7.434
11128SOL     OW33633   9.555   8.124   1.302
11128SOL    HW133634   9.499   8.147   1.228
11128SOL    HW233635   9.639   8.103   1.263
11129SOL     OW33636  14.219  14.837   7.579
11129SOL    HW133637  14.196  14.845   7.487
11129SOL    HW233638   8.753   9.478   0.007
11130SOL     OW33639  12.017   6.225   5.480
11130SOL    HW133640  11.992   6.184   5.563
11130SOL    HW233641  12.054   6.154   5.427
11131SOL     OW33642  10.177   2.930   3.751
11131SOL    HW133643  10.260   2.942   3.704
11131SOL    HW233644  10.110   2.934   3.683
11132SOL     OW33645   8.508   4.762   5.253
11132SOL    HW133646   8.579   4.712   5.294
11132SOL    HW233647   8.428   4.728   5.293
11133SOL     OW33648  12.332   4.730   2.630
11133SOL    HW133649  12.315   4.771   2.714
11133SOL    HW233650  12.349   4.804   2.570
11134SOL     OW33651  12.898   9.062   5.837
11134SOL    HW133652  12.909   9.155   5.817
11134SOL    HW233653  12.873   9.060   5.929
11135SOL     OW33654   2.642   5.563   3.027
11135SOL    HW133655   2.588   5.529   2.955
11135SOL    HW233656   2.656   5.655   3.004
11136SOL     OW33657   4.460  10.795   1.022
11136SOL    HW133658   4.490  10.877   1.060
11136SOL    HW233659   4.406  10.755   1.090
11137SOL     OW33660   9.401  14.753   7.358
11137SOL    HW133661   9.338  14.782   7.293
11137SOL    HW233662   9.373  14.795   7.439
11138SOL     OW33663   3.585   1.086   0.974
11138SOL    HW133664   3.553   1.072   1.063
11138SOL    HW233665   3.549   1.171   0.948
11139SOL     OW33666  11.666   9.306   2.989
11139SOL    HW133667  11.650   9.382   3.046
11139SOL    HW233668  11.728   9.338   2.924
11140SOL     OW33669  11.749   1.594   1.431
11140SOL    HW133670  11.690   1.623   1.500
11140SOL    HW233671   1.050   1.652   1.439
11141SOL     OW33672   3.559   9.150   2.368
11141SOL    HW133673   3.513   9.217   2.418
11141SOL    HW233674   3.518   9.068   2.396
11142SOL     OW33675   4.524   4.962   3.040
11142SOL    HW133676   4.615   4.979   3.065
11142SOL    HW233677   4.528   4.947   2.946
11143SOL     OW33678  12.329  13.204   7.014
11143SOL    HW133679  12.272  13.132   6.987
11143SOL    HW233680  12.340  13.191   7.109
11144SOL     OW33681  12.279   9.008   2.582
11144SOL    HW133682  12.323   8.992   2.499
11144SOL    HW233683  12.350   9.018   2.645
11145SOL     OW33684  15.100   7.154   6.674
11145SOL    HW133685  15.193   7.135   6.664
11145SOL    HW233686  15.087   7.162   6.768
11146SOL     OW33687  11.273  13.942   5.587
11146SOL    HW133688  11.307  13.883   5.520
11146SOL    HW233689  11.312  14.027   5.566
11147SOL     OW33690  10.344   8.426   6.298
11147SOL    HW133691  10.307   8.477   6.370
11147SOL    HW233692  10.416   8.377   6.339
11148SOL     OW33693   7.781   8.402   4.134
11148SOL    HW133694   7.709   8.363   4.183
11148SOL    HW233695   7.748   8.410   4.044
11149SOL     OW33696   8.875   6.823   2.125
11149SOL    HW133697   8.965   6.794   2.116
11149SOL    HW233698   8.834   6.802   2.041
11150SOL     OW33699   9.071   9.905   0.315
11150SOL    HW133700   9.159   9.884   0.285
11150SOL    HW233701   9.014   9.883   0.241
11151SOL     OW33702  11.227   4.044   5.349
11151SOL    HW133703  11.281   4.007   5.280
11151SOL    HW233704  11.138   4.043   5.313
11152SOL     OW33705   9.252   5.077   2.878
11152SOL    HW133706   9.316   5.063   2.808
11152SOL    HW233707   9.196   5.147   2.846
11153SOL     OW33708   5.686   8.548   0.805
11153SOL    HW133709   5.620   8.501   0.856
11153SOL    HW233710   5.638   8.580   0.728
11154SOL     OW33711  14.430  12.342   5.466
11154SOL    HW133712  14.368  12.361   5.396
11154SOL    HW233713  14.493  12.282   5.426
11155SOL     OW33714  14.475  14.011   5.945
11155SOL    HW133715  14.497  13.923   5.976
11155SOL    HW233716  14.560  14.056   5.938
11156SOL     OW33717   6.017   7.919   7.012
11156SOL    HW133718   5.966   7.963   7.080
11156SOL    HW233719   5.986   7.959   6.930
11157SOL     OW33720   8.375   9.875   4.607
11157SOL    HW133721   8.297   9.867   4.553
11157SOL    HW233722   8.411   9.961   4.585
11158SOL     OW33723   4.341   4.203   3.833
11158SOL    HW133724   4.415   4.197   3.773
11158SOL    HW233725   4.376   4.249   3.909
11159SOL     OW33726   5.072   5.304   1.423
11159SOL    HW133727   4.997   5.347   1.464
11159SOL    HW233728   5.145   5.365   1.435
11160SOL     OW33729   6.174   9.661   4.415
11160SOL    HW133730   6.202   9.733   4.472
11160SOL    HW233731   6.251   9.639   4.364
11161SOL     OW33732   3.181   7.380   0.628
11161SOL    HW133733   3.107   7.336   0.669
11161SOL    HW233734   3.164   7.375   0.534
11162SOL     OW33735  13.208   9.404   4.121
11162SOL    HW133736  13.255   9.337   4.071
11162SOL    HW233737  13.151   9.354   4.180
11163SOL     OW33738   8.446   8.494   5.656
11163SOL    HW133739   8.367   8.526   5.700
11163SOL    HW233740   8.450   8.401   5.680
11164SOL     OW33741   3.848   3.469   4.425
11164SOL    HW133742   3.850   3.381   4.388
11164SOL    HW233743   3.909   3.519   4.372
11165SOL     OW33744  10.989  10.687   4.117
11165SOL    HW133745  11.079  10.688   4.084
11165SOL    HW233746  10.981  10.604   4.164
11166SOL     OW33747   7.023   4.767   1.521
11166SOL    HW133748   7.106   4.777   1.474
11166SOL    HW233749   7.039   4.804   1.607
11167SOL     OW33750  10.230   3.673   3.491
11167SOL    HW133751  10.205   3.612   3.559
11167SOL    HW233752  10.212   3.627   3.409
11168SOL     OW33753   5.134   7.951   1.820
11168SOL    HW133754   5.041   7.963   1.840
11168SOL    HW233755   5.176   7.941   1.905
11169SOL     OW33756   3.623   2.387   0.619
11169SOL    HW133757   3.572   2.465   0.640
11169SOL    HW233758   3.598   2.365   0.529
11170SOL     OW33759   7.501   9.418   4.550
11170SOL    HW133760   7.463   9.332   4.534
11170SOL    HW233761   7.443   9.478   4.504
11171SOL     OW33762   5.357   3.499   1.230
11171SOL    HW133763   5.364   3.590   1.257
11171SOL    HW233764   5.275   3.494   1.181
11172SOL     OW33765  13.655   9.437   5.744
11172SOL    HW133766  13.732   9.468   5.697
11172SOL    HW233767  13.675   9.452   5.836
11173SOL     OW33768   8.155   8.908   3.792
11173SOL    HW133769   8.177   8.840   3.855
11173SOL    HW233770   8.059   8.916   3.797
11174SOL     OW33771  10.341   6.605   7.289
11174SOL    HW133772  10.431   6.635   7.301
11174SOL    HW233773  10.312   6.647   7.208
11175SOL     OW33774   9.642   2.787   2.317
11175SOL    HW133775   9.712   2.826   2.265
11175SOL    HW233776   9.685   2.760   2.398
11176SOL     OW33777  10.930   7.140   2.024
11176SOL    HW133778  11.014   7.113   1.987
11176SOL    HW233779  10.950   7.167   2.113
11177SOL     OW33780  11.061   7.272   2.733
11177SOL    HW133781  11.133   7.292   2.793
11177SOL    HW233782  11.089   7.192   2.688
11178SOL     OW33783   7.342   5.474   0.242
11178SOL    HW133784   7.425   5.447   0.201
11178SOL    HW233785   7.282   5.401   0.224
11179SOL     OW33786   0.767   3.290   0.006
11179SOL    HW133787   0.770   3.346   0.083
11179SOL    HW233788   0.804   3.207   0.035
11180SOL     OW33789  10.265   7.654   5.111
11180SOL    HW133790  10.330   7.715   5.147
11180SOL    HW233791  10.198   7.710   5.073
11181SOL     OW33792   8.559   5.462   2.493
11181SOL    HW133793   8.645   5.504   2.486
11181SOL    HW233794   8.530   5.450   2.402
11182SOL     OW33795  11.541  12.382   2.916
11182SOL    HW133796  11.498  12.303   2.883
11182SOL    HW233797  11.627  12.353   2.945
11183SOL     OW33798   4.397   3.127   3.072
11183SOL    HW133799   4.303   3.144   3.061
11183SOL    HW233800   4.402   3.071   3.149
11184SOL     OW33801   3.622  11.772   1.758
11184SOL    HW133802   3.714  11.760   1.735
11184SOL    HW233803   3.579  11.798   1.676
11185SOL     OW33804   6.594   8.346   2.100
11185SOL    HW133805   6.591   8.439   2.123
11185SOL    HW233806   6.688   8.325   2.100
11186SOL     OW33807   9.273  13.054   6.984
11186SOL    HW133808   9.317  13.138   6.988
11186SOL    HW233809   9.319  13.000   7.049
11187SOL     OW33810   6.765   4.842   1.602
11187SOL    HW133811   6.673   4.818   1.602
11187SOL    HW233812   6.811   4.761   1.579
11188SOL     OW33813   4.377   6.368   3.837
11188SOL    HW133814   4.326   6.437   3.880
11188SOL    HW233815   4.468   6.390   3.856
11189SOL     OW33816   4.771   8.241   0.581
11189SOL    HW133817   4.719   8.287   0.516
11189SOL    HW233818   4.851   8.217   0.534
11190SOL     OW33819  11.018   4.119   3.551
11190SOL    HW133820  10.944   4.096   3.607
11190SOL    HW233821  10.978   4.143   3.467
11191SOL     OW33822   8.738   4.137   2.453
11191SOL    HW133823   8.755   4.214   2.508
11191SOL    HW233824   8.642   4.131   2.451
11192SOL     OW33825   4.745  10.335   0.278
11192SOL    HW133826   4.837  10.320   0.300
11192SOL    HW233827   4.697  10.316   0.359
11193SOL     OW33828  10.338   3.082   4.259
11193SOL    HW133829  10.265   3.020   4.261
11193SOL    HW233830  10.373   3.081   4.349
11194SOL     OW33831   3.094   9.451   3.922
11194SOL    HW133832   3.067   9.469   3.832
11194SOL    HW233833   3.013   9.437   3.970
11195SOL     OW33834   4.470   9.407   3.935
11195SOL    HW133835   4.405   9.452   3.989
11195SOL    HW233836   4.481   9.464   3.859
11196SOL     OW33837   7.739   9.159   5.558
11196SOL    HW133838   7.693   9.077   5.575
11196SOL    HW233839   7.672   9.215   5.518
11197SOL     OW33840  10.470   2.531   0.885
11197SOL    HW133841  10.448   2.605   0.942
11197SOL    HW233842  10.385   2.502   0.851
11198SOL     OW33843   6.886  11.854   3.545
11198SOL    HW133844   6.963  11.896   3.581
11198SOL    HW233845   6.841  11.817   3.621
11199SOL     OW33846   6.293  13.155   5.958
11199SOL    HW133847   6.247  13.234   5.933
11199SOL    HW233848   6.335  13.124   5.878
11200SOL     OW33849  10.445   7.434   2.224
11200SOL    HW133850  10.530   7.434   2.181
11200SOL    HW233851  10.395   7.502   2.180
11201SOL     OW33852   6.594   4.456   0.803
11201SOL    HW133853   6.568   4.433   0.892
11201SOL    HW233854   6.623   4.547   0.808
11202SOL     OW33855  11.199   3.854   2.835
11202SOL    HW133856  11.282   3.815   2.863
11202SOL    HW233857  11.132   3.801   2.877
11203SOL     OW33858  11.945  14.596   6.091
11203SOL    HW133859  12.029  14.634   6.065
11203SOL    HW233860  11.956  14.502   6.079
11204SOL     OW33861  13.531   8.841   5.528
11204SOL    HW133862  13.448   8.795   5.532
11204SOL    HW233863  13.587   8.786   5.473
11205SOL     OW33864  10.229   5.822   1.007
11205SOL    HW133865  10.159   5.848   0.948
11205SOL    HW233866  10.235   5.727   0.996
11206SOL     OW33867  11.688   9.310   3.748
11206SOL    HW133868  11.644   9.243   3.800
11206SOL    HW233869  11.703   9.268   3.663
11207SOL     OW33870   4.091   9.567   2.166
11207SOL    HW133871   4.112   9.647   2.215
11207SOL    HW233872   4.113   9.496   2.227
11208SOL     OW33873   3.426   4.838   1.317
11208SOL    HW133874   3.464   4.752   1.339
11208SOL    HW233875   3.491   4.901   1.348
11209SOL     OW33876   8.675   5.086   1.622
11209SOL    HW133877   8.676   4.995   1.650
11209SOL    HW233878   8.582   5.109   1.620
11210SOL     OW33879   8.740   5.432   4.255
11210SOL    HW133880   8.825   5.449   4.296
11210SOL    HW233881   8.716   5.344   4.285
11211SOL     OW33882  10.674  10.332   0.739
11211SOL    HW133883  10.605  10.375   0.788
11211SOL    HW233884  10.730  10.404   0.709
11212SOL     OW33885  12.223  11.478   3.382
11212SOL    HW133886  12.198  11.485   3.474
11212SOL    HW233887  12.262  11.391   3.374
11213SOL     OW33888   5.133   7.389   3.105
11213SOL    HW133889   5.124   7.389   3.200
11213SOL    HW233890   5.095   7.305   3.077
11214SOL     OW33891   4.115  10.213   2.911
11214SOL    HW133892   4.127  10.152   2.984
11214SOL    HW233893   4.061  10.165   2.848
11215SOL     OW33894   7.666  10.344   1.786
11215SOL    HW133895   7.584  10.347   1.739
11215SOL    HW233896   7.722  10.408   1.742
11216SOL     OW33897   4.764   2.919   2.271
11216SOL    HW133898   4.701   2.951   2.335
11216SOL    HW233899   4.778   2.828   2.295
11217SOL     OW33900   7.642  10.214   0.412
11217SOL    HW133901   7.698  10.281   0.375
11217SOL    HW233902   7.553  10.241   0.389
11218SOL     OW33903   6.731  12.202   2.771
11218SOL    HW133904   6.759  12.146   2.844
11218SOL    HW233905   6.663  12.151   2.727
11219SOL     OW33906  14.606   7.479   7.224
11219SOL    HW133907  14.548   7.538   7.272
11219SOL    HW233908  14.563   7.394   7.227
11220SOL     OW33909  10.986  11.109   3.715
11220SOL    HW133910  11.031  11.062   3.644
11220SOL    HW233911  10.973  11.197   3.681
11221SOL     OW33912   7.619  11.403   5.685
11221SOL    HW133913   7.553  11.345   5.645
11221SOL    HW233914   7.588  11.416   5.775
11222SOL     OW33915   3.582   4.744   2.713
11222SOL    HW133916   3.668   4.775   2.684
11222SOL    HW233917   3.587   4.649   2.705
11223SOL     OW33918   3.784  10.674   0.920
11223SOL    HW133919   3.689  10.680   0.924
11223SOL    HW233920   3.814  10.697   1.008
11224SOL     OW33921   8.438  13.231   6.404
11224SOL    HW133922   8.381  13.157   6.382
11224SOL    HW233923   8.526  13.200   6.384
11225SOL     OW33924   9.486   8.296   0.101
11225SOL    HW133925   9.546   8.370   0.094
11225SOL    HW233926   9.455   8.299   0.191
11226SOL     OW33927   8.831   7.430   1.851
11226SOL    HW133928   8.807   7.452   1.761
11226SOL    HW233929   8.768   7.479   1.905
11227SOL     OW33930   9.464   8.789   0.294
11227SOL    HW133931   9.533   8.853   0.314
11227SOL    HW233932   9.511   8.712   0.263
11228SOL     OW33933   5.319  10.233   2.136
11228SOL    HW133934   5.318  10.172   2.062
11228SOL    HW233935   5.227  10.243   2.160
11229SOL     OW33936  10.970  10.348   0.924
11229SOL    HW133937  11.005  10.287   0.859
11229SOL    HW233938  11.026  10.336   1.001
11230SOL     OW33939   4.169   9.341   1.922
11230SOL    HW133940   4.158   9.310   2.011
11230SOL    HW233941   4.263   9.356   1.913
11231SOL     OW33942   2.096   3.082   1.607
11231SOL    HW133943   2.176   3.030   1.610
11231SOL    HW233944   2.058   3.062   1.521
11232SOL     OW33945   6.580   0.923   0.616
11232SOL    HW133946   6.574   0.993   0.552
11232SOL    HW233947   6.647   0.865   0.582
11233SOL     OW33948   8.232   9.867   0.370
11233SOL    HW133949   8.260   9.812   0.443
11233SOL    HW233950   8.137   9.861   0.370
11234SOL     OW33951   4.568   5.372   0.080
11234SOL    HW133952   4.504   5.441   0.059
11234SOL    HW233953   4.651   5.407   0.048
11235SOL     OW33954  12.541  10.097   3.226
11235SOL    HW133955  12.588  10.018   3.255
11235SOL    HW233956  12.505  10.135   3.306
11236SOL     OW33957   6.048   4.274   1.473
11236SOL    HW133958   6.008   4.356   1.502
11236SOL    HW233959   5.985   4.238   1.410
11237SOL     OW33960   3.047   8.836   3.979
11237SOL    HW133961   3.010   8.891   4.048
11237SOL    HW233962   3.002   8.752   3.987
11238SOL     OW33963  14.357   5.534   5.470
11238SOL    HW133964  14.384   5.604   5.529
11238SOL    HW233965  14.356   5.574   5.383
11239SOL     OW33966   7.122  11.393   2.807
11239SOL    HW133967   7.158  11.474   2.844
11239SOL    HW233968   7.195  11.355   2.758
11240SOL     OW33969   7.437  10.230   2.576
11240SOL    HW133970   7.434  10.230   2.671
11240SOL    HW233971   7.410  10.141   2.551
11241SOL     OW33972   5.788   1.878   0.967
11241SOL    HW133973   5.818   1.959   1.007
11241SOL    HW233974   5.826   1.879   0.879
11242SOL     OW33975  10.926   5.182   7.075
11242SOL    HW133976  10.998   5.123   7.052
11242SOL    HW233977  10.948   5.265   7.034
11243SOL     OW33978  11.811  11.771   4.962
11243SOL    HW133979  11.783  11.856   4.928
11243SOL    HW233980  11.735  11.714   4.949
11244SOL     OW33981   2.260   8.397   1.286
11244SOL    HW133982   2.216   8.322   1.325
11244SOL    HW233983   2.263   8.463   1.355
11245SOL     OW33984   4.284   4.138   0.285
11245SOL    HW133985   4.268   4.221   0.239
11245SOL    HW233986   4.259   4.070   0.222
11246SOL     OW33987   3.105   7.547   2.135
11246SOL    HW133988   3.169   7.541   2.206
11246SOL    HW233989   3.156   7.567   2.057
11247SOL     OW33990  12.058  11.631   2.368
11247SOL    HW133991  12.039  11.543   2.398
11247SOL    HW233992  12.136  11.623   2.313
11248SOL     OW33993  16.058  15.018   7.597
11248SOL    HW133994  16.001  14.954   7.554
11248SOL    HW233995  10.612   9.677   0.039
11249SOL     OW33996  10.371   6.511   5.724
11249SOL    HW133997  10.356   6.582   5.661
11249SOL    HW233998  10.466   6.498   5.724
11250SOL     OW33999   6.696  14.254   6.421
11250SOL    HW134000   6.757  14.181   6.408
11250SOL    HW234001   6.614  14.213   6.447
11251SOL     OW34002  11.907   8.520   1.662
11251SOL    HW134003  11.918   8.430   1.692
11251SOL    HW234004   1.142   8.516   1.567
11252SOL     OW34005   9.052   7.391   2.235
11252SOL    HW134006   9.016   7.469   2.276
11252SOL    HW234007   9.061   7.413   2.143
11253SOL     OW34008   6.502   8.286   2.431
11253SOL    HW134009   6.537   8.374   2.414
11253SOL    HW234010   6.563   8.248   2.494
11254SOL     OW34011   9.254   4.484   4.111
11254SOL    HW134012   9.344   4.505   4.085
11254SOL    HW234013   9.263   4.433   4.191
11255SOL     OW34014   7.024   4.551   2.255
11255SOL    HW134015   6.955   4.539   2.190
11255SOL    HW234016   7.071   4.468   2.257
11256SOL     OW34017  12.673  13.019   4.216
11256SOL    HW134018  12.582  13.047   4.202
11256SOL    HW234019  12.725  13.097   4.197
11257SOL     OW34020  11.650  11.650   4.648
11257SOL    HW134021  11.633  11.575   4.706
11257SOL    HW234022  11.613  11.725   4.695
11258SOL     OW34023   3.185  10.991   2.391
11258SOL    HW134024   3.272  11.020   2.416
11258SOL    HW234025   3.199  10.935   2.315
11259SOL     OW34026  12.333  14.908   6.551
11259SOL    HW134027  12.395  14.842   6.519
11259SOL    HW234028  12.327  14.891   6.645
11260SOL     OW34029  12.206   7.100   4.030
11260SOL    HW134030  12.226   7.011   4.058
11260SOL    HW234031  12.158   7.089   3.948
11261SOL     OW34032   4.410  12.885   4.113
11261SOL    HW134033   4.319  12.870   4.086
11261SOL    HW234034   4.458  12.809   4.079
11262SOL     OW34035   2.894   9.440   2.520
11262SOL    HW134036   2.872   9.533   2.512
11262SOL    HW234037   2.819   9.401   2.564
11263SOL     OW34038  11.461   7.213   6.953
11263SOL    HW134039  11.460   7.146   6.885
11263SOL    HW234040  11.369   7.220   6.980
11264SOL     OW34041  10.524   6.443   5.458
11264SOL    HW134042  10.587   6.513   5.474
11264SOL    HW234043  10.576   6.362   5.464
11265SOL     OW34044  10.328   7.606   0.426
11265SOL    HW134045  10.352   7.529   0.478
11265SOL    HW234046  10.381   7.599   0.347
11266SOL     OW34047   1.864   1.054   0.218
11266SOL    HW134048   1.794   1.033   0.280
11266SOL    HW234049   1.939   1.078   0.273
11267SOL     OW34050   3.961   7.123   1.895
11267SOL    HW134051   3.870   7.096   1.900
11267SOL    HW234052   4.004   7.056   1.843
11268SOL     OW34053  10.231   8.255   2.612
11268SOL    HW134054  10.173   8.210   2.674
11268SOL    HW234055  10.316   8.212   2.622
11269SOL     OW34056   5.650  10.280   0.817
11269SOL    HW134057   5.580  10.240   0.765
11269SOL    HW234058   5.618  10.368   0.838
11270SOL     OW34059  12.268   3.466   3.861
11270SOL    HW134060  12.211   3.389   3.863
11270SOL    HW234061  12.268   3.493   3.769
11271SOL     OW34062  12.966  13.536   7.281
11271SOL    HW134063  12.933  13.465   7.336
11271SOL    HW234064  12.890  13.592   7.265
11272SOL     OW34065   5.425  12.234   5.612
11272SOL    HW134066   5.357  12.176   5.577
11272SOL    HW234067   5.397  12.252   5.702
11273SOL     OW34068   9.062  12.771   5.684
11273SOL    HW134069   9.079  12.722   5.603
11273SOL    HW234070   8.973  12.747   5.708
11274SOL     OW34071  11.208   6.409   5.864
11274SOL    HW134072  11.266   6.415   5.939
11274SOL    HW234073  11.248   6.343   5.807
11275SOL     OW34074  11.343   8.648   2.457
11275SOL    HW134075  11.329   8.681   2.368
11275SOL    HW234076  11.272   8.686   2.508
11276SOL     OW34077   9.935   2.655   0.384
11276SOL    HW134078   9.849   2.683   0.353
11276SOL    HW234079   9.948   2.570   0.343
11277SOL     OW34080   9.674   5.153   0.443
11277SOL    HW134081   9.601   5.214   0.449
11277SOL    HW234082   9.749   5.201   0.479
11278SOL     OW34083  12.010   9.449   5.862
11278SOL    HW134084  11.986   9.517   5.924
11278SOL    HW234085  12.081   9.400   5.905
11279SOL     OW34086  10.130   8.786   3.007
11279SOL    HW134087  10.213   8.764   2.964
11279SOL    HW234088  10.156   8.839   3.083
11280SOL     OW34089  10.241   3.886   2.522
11280SOL    HW134090  10.222   3.979   2.513
11280SOL    HW234091  10.262   3.874   2.615
11281SOL     OW34092   9.221   4.184   3.493
11281SOL    HW134093   9.216   4.280   3.499
11281SOL    HW234094   9.130   4.156   3.481
11282SOL     OW34095  11.509  11.216   4.216
11282SOL    HW134096  11.593  11.181   4.247
11282SOL    HW234097  11.515  11.310   4.231
11283SOL     OW34098   3.699   8.965   1.884
11283SOL    HW134099   3.766   9.030   1.866
11283SOL    HW234100   3.619   9.016   1.901
11284SOL     OW34101  10.865   1.698   0.355
11284SOL    HW134102  10.874   1.611   0.396
11284SOL    HW234103  10.808   1.683   0.280
11285SOL     OW34104   0.507  10.304   0.531
11285SOL    HW134105   0.566  10.244   0.577
11285SOL    HW234106   0.470  10.359   0.599
11286SOL     OW34107   9.920   8.848   3.586
11286SOL    HW134108   9.908   8.936   3.551
11286SOL    HW234109   9.949   8.861   3.676
11287SOL     OW34110   9.972  11.203   1.607
11287SOL    HW134111  10.038  11.211   1.538
11287SOL    HW234112   9.919  11.282   1.599
11288SOL     OW34113   8.701   3.870   3.922
11288SOL    HW134114   8.748   3.822   3.990
11288SOL    HW234115   8.609   3.850   3.939
11289SOL     OW34116   4.830   6.026   5.260
11289SOL    HW134117   4.814   6.117   5.234
11289SOL    HW234118   4.923   6.025   5.284
11290SOL     OW34119   9.519  11.170   5.491
11290SOL    HW134120   9.498  11.111   5.419
11290SOL    HW234121   9.527  11.112   5.567
11291SOL     OW34122   6.630   8.803   5.034
11291SOL    HW134123   6.619   8.794   5.129
11291SOL    HW234124   6.588   8.886   5.013
11292SOL     OW34125   6.140   5.285   4.996
11292SOL    HW134126   6.109   5.322   5.079
11292SOL    HW234127   6.156   5.192   5.016
11293SOL     OW34128   8.102   9.860   4.497
11293SOL    HW134129   8.028   9.915   4.470
11293SOL    HW234130   8.120   9.806   4.420
11294SOL     OW34131  13.241   4.708   4.926
11294SOL    HW134132  13.264   4.784   4.873
11294SOL    HW234133  13.224   4.639   4.863
11295SOL     OW34134   4.622   5.727   3.347
11295SOL    HW134135   4.704   5.703   3.304
11295SOL    HW234136   4.575   5.644   3.357
11296SOL     OW34137   8.509   9.573   4.910
11296SOL    HW134138   8.551   9.526   4.983
11296SOL    HW234139   8.448   9.633   4.953
11297SOL     OW34140   7.314   8.872   2.606
11297SOL    HW134141   7.244   8.918   2.653
11297SOL    HW234142   7.307   8.904   2.516
11298SOL     OW34143   6.009   2.236   1.720
11298SOL    HW134144   6.032   2.265   1.631
11298SOL    HW234145   5.977   2.316   1.763
11299SOL     OW34146  12.755   7.036   4.946
11299SOL    HW134147  12.726   7.067   4.861
11299SOL    HW234148  12.721   7.101   5.008
11300SOL     OW34149   2.725   4.569   1.229
11300SOL    HW134150   2.637   4.533   1.239
11300SOL    HW234151   2.743   4.563   1.135
11301SOL     OW34152   6.362   7.182   7.264
11301SOL    HW134153   6.311   7.238   7.323
11301SOL    HW234154   6.327   7.201   7.177
11302SOL     OW34155  10.086  11.567   6.631
11302SOL    HW134156  10.114  11.595   6.544
11302SOL    HW234157  10.009  11.621   6.650
11303SOL     OW34158   9.129   6.001   6.905
11303SOL    HW134159   9.090   5.936   6.847
11303SOL    HW234160   9.210   5.960   6.936
11304SOL     OW34161   9.136  13.502   5.692
11304SOL    HW134162   9.118  13.574   5.752
11304SOL    HW234163   9.190  13.541   5.622
11305SOL     OW34164  10.159   5.546   2.928
11305SOL    HW134165  10.240   5.584   2.962
11305SOL    HW234166  10.093   5.613   2.944
11306SOL     OW34167   5.608   3.788   1.004
11306SOL    HW134168   5.603   3.878   1.034
11306SOL    HW234169   5.702   3.766   1.009
11307SOL     OW34170  10.160   4.086   0.874
11307SOL    HW134171  10.199   4.103   0.959
11307SOL    HW234172  10.070   4.119   0.881
11308SOL     OW34173   6.813   8.113   0.374
11308SOL    HW134174   6.845   8.085   0.288
11308SOL    HW234175   6.717   8.108   0.366
11309SOL     OW34176   9.510   9.187   5.274
11309SOL    HW134177   9.436   9.155   5.222
11309SOL    HW234178   9.477   9.265   5.318
11310SOL     OW34179   8.874  14.085   6.126
11310SOL    HW134180   8.797  14.138   6.107
11310SOL    HW234181   8.870  14.070   6.220
11311SOL     OW34182   6.807   4.434   1.252
11311SOL    HW134183   6.901   4.443   1.233
11311SOL    HW234184   6.796   4.341   1.273
11312SOL     OW34185   8.867   8.598   4.131
11312SOL    HW134186   8.825   8.684   4.124
11312SOL    HW234187   8.957   8.613   4.101
11313SOL     OW34188   6.755  10.327   4.084
11313SOL    HW134189   6.667  10.292   4.068
11313SOL    HW234190   6.752  10.416   4.049
11314SOL     OW34191  11.880   3.650   4.576
11314SOL    HW134192  11.936   3.662   4.653
11314SOL    HW234193  11.886   3.733   4.529
11315SOL     OW34194  11.843   8.713   5.642
11315SOL    HW134195  11.856   8.798   5.684
11315SOL    HW234196  11.859   8.649   5.711
11316SOL     OW34197   8.634  11.129   3.308
11316SOL    HW134198   8.675  11.080   3.379
11316SOL    HW234199   8.670  11.091   3.228
11317SOL     OW34200   6.692   7.967   6.088
11317SOL    HW134201   6.720   8.016   6.010
11317SOL    HW234202   6.752   7.995   6.157
11318SOL     OW34203  12.279  10.685   5.284
11318SOL    HW134204  12.207  10.622   5.274
11318SOL    HW234205  12.238  10.763   5.322
11319SOL     OW34206   9.423   7.112   2.617
11319SOL    HW134207   9.332   7.132   2.637
11319SOL    HW234208   9.460   7.196   2.587
11320SOL     OW34209   7.052   5.927   6.568
11320SOL    HW134210   7.081   5.968   6.650
11320SOL    HW234211   6.962   5.899   6.585
11321SOL     OW34212   2.616   6.724   1.795
11321SOL    HW134213   2.618   6.796   1.858
11321SOL    HW234214   2.608   6.645   1.849
11322SOL     OW34215   9.555  14.089   6.400
11322SOL    HW134216   9.545  14.171   6.351
11322SOL    HW234217   9.565  14.118   6.491
11323SOL     OW34218  10.018   4.668   2.121
11323SOL    HW134219   9.967   4.746   2.098
11323SOL    HW234220  10.023   4.670   2.216
11324SOL     OW34221   7.821   5.816   0.696
11324SOL    HW134222   7.742   5.765   0.716
11324SOL    HW234223   7.798   5.866   0.618
11325SOL     OW34224   7.859   9.704   1.618
11325SOL    HW134225   7.885   9.645   1.689
11325SOL    HW234226   7.942   9.737   1.583
11326SOL     OW34227   3.250   7.747   4.298
11326SOL    HW134228   3.288   7.734   4.211
11326SOL    HW234229   3.169   7.797   4.281
11327SOL     OW34230   5.876   8.405   3.049
11327SOL    HW134231   5.783   8.427   3.053
11327SOL    HW234232   5.914   8.452   3.123
11328SOL     OW34233   3.041   4.098   1.319
11328SOL    HW134234   3.091   4.046   1.381
11328SOL    HW234235   2.963   4.124   1.367
11329SOL     OW34236   8.313   3.328   2.806
11329SOL    HW134237   8.403   3.304   2.828
11329SOL    HW234238   8.316   3.423   2.795
11330SOL     OW34239  13.118   5.373   4.026
11330SOL    HW134240  13.041   5.424   4.050
11330SOL    HW234241  13.161   5.425   3.958
11331SOL     OW34242   4.228   2.467   1.590
11331SOL    HW134243   4.284   2.389   1.582
11331SOL    HW234244   4.139   2.434   1.581
11332SOL     OW34245   3.243   3.510   3.148
11332SOL    HW134246   3.249   3.603   3.171
11332SOL    HW234247   3.316   3.469   3.194
11333SOL     OW34248   7.629   8.427   2.523
11333SOL    HW134249   7.676   8.506   2.497
11333SOL    HW234250   7.558   8.419   2.459
11334SOL     OW34251   2.998  12.698   4.094
11334SOL    HW134252   3.091  12.697   4.071
11334SOL    HW234253   2.984  12.614   4.139
11335SOL     OW34254   7.908  11.985   5.535
11335SOL    HW134255   7.829  12.035   5.552
11335SOL    HW234256   7.979  12.048   5.545
11336SOL     OW34257  11.280  13.277   4.557
11336SOL    HW134258  11.239  13.269   4.644
11336SOL    HW234259  11.243  13.204   4.507
11337SOL     OW34260   6.677  15.112   6.632
11337SOL    HW134261   6.585  15.128   6.611
11337SOL    HW234262   6.726  15.144   6.557
11338SOL     OW34263   8.302   8.309   2.830
11338SOL    HW134264   8.274   8.315   2.922
11338SOL    HW234265   8.246   8.241   2.792
11339SOL     OW34266   8.034   1.752   2.120
11339SOL    HW134267   8.063   1.685   2.058
11339SOL    HW234268   8.007   1.703   2.198
11340SOL     OW34269  14.861  13.981   6.988
11340SOL    HW134270  14.793  14.044   7.012
11340SOL    HW234271  14.815  13.897   6.983
11341SOL     OW34272   3.247   5.504   0.807
11341SOL    HW134273   3.239   5.410   0.822
11341SOL    HW234274   3.259   5.512   0.712
11342SOL     OW34275  12.247  13.128   4.875
11342SOL    HW134276  12.189  13.075   4.930
11342SOL    HW234277  12.293  13.064   4.820
11343SOL     OW34278  12.243  10.925   2.882
11343SOL    HW134279  12.295  10.899   2.806
11343SOL    HW234280  12.224  11.017   2.868
11344SOL     OW34281   7.678   6.486   5.673
11344SOL    HW134282   7.633   6.489   5.589
11344SOL    HW234283   7.608   6.476   5.738
11345SOL     OW34284  12.142  12.557   2.721
11345SOL    HW134285  12.059  12.604   2.713
11345SOL    HW234286  12.139  12.517   2.807
11346SOL     OW34287   9.352   1.630   2.120
11346SOL    HW134288   9.381   1.707   2.073
11346SOL    HW234289   9.330   1.566   2.052
11347SOL     OW34290   9.292  12.524   4.252
11347SOL    HW134291   9.311  12.456   4.316
11347SOL    HW234292   9.256  12.477   4.177
11348SOL     OW34293  10.113   9.956   4.011
11348SOL    HW134294  10.044   9.925   3.952
11348SOL    HW234295  10.071  10.024   4.063
11349SOL     OW34296   5.729   8.276   0.252
11349SOL    HW134297   5.806   8.234   0.213
11349SOL    HW234298   5.765   8.346   0.307
11350SOL     OW34299   1.965   6.764   1.786
11350SOL    HW134300   1.993   6.808   1.706
11350SOL    HW234301   2.043   6.764   1.842
11351SOL     OW34302   6.608   6.271   5.589
11351SOL    HW134303   6.693   6.282   5.546
11351SOL    HW234304   6.622   6.298   5.679
11352SOL     OW34305  11.568  11.160   4.905
11352SOL    HW134306  11.628  11.097   4.944
11352SOL    HW234307  11.530  11.115   4.830
11353SOL     OW34308   5.612   1.661   0.762
11353SOL    HW134309   5.631   1.727   0.695
11353SOL    HW234310   5.524   1.681   0.792
11354SOL     OW34311   8.633   8.728   1.341
11354SOL    HW134312   8.628   8.742   1.436
11354SOL    HW234313   8.566   8.787   1.305
11355SOL     OW34314  11.846  10.368   3.270
11355SOL    HW134315  11.750  10.363   3.265
11355SOL    HW234316  11.873  10.398   3.184
11356SOL     OW34317   6.854   3.637   4.989
11356SOL    HW134318   6.854  14.329   5.037
11356SOL    HW234319   6.834   3.703   5.055
11357SOL     OW34320  13.045   5.593   7.244
11357SOL    HW134321  12.988   5.606   7.319
11357SOL    HW234322  12.988   5.561   7.175
11358SOL     OW34323   2.189  10.095   2.031
11358SOL    HW134324   2.215  10.162   1.969
11358SOL    HW234325   2.251  10.024   2.017
11359SOL     OW34326  10.298   9.137   2.019
11359SOL    HW134327  10.279   9.139   2.113
11359SOL    HW234328  10.377   9.084   2.012
11360SOL     OW34329   8.488  12.631   7.559
11360SOL    HW134330   8.424  12.560   7.559
11360SOL    HW234331   3.168   7.217   0.003
11361SOL     OW34332   7.602   6.483   1.282
11361SOL    HW134333   7.539   6.536   1.331
11361SOL    HW234334   7.574   6.491   1.190
11362SOL     OW34335   5.334   4.145   4.510
11362SOL    HW134336   5.388   4.100   4.575
11362SOL    HW234337   5.393   4.210   4.472
11363SOL     OW34338  11.408  11.615   2.969
11363SOL    HW134339  11.397  11.550   2.899
11363SOL    HW234340  11.480  11.671   2.939
11364SOL     OW34341   6.750   3.278   4.573
11364SOL    HW134342   6.815   3.347   4.563
11364SOL    HW234343   6.702   3.278   4.490
11365SOL     OW34344   3.034   4.808   4.210
11365SOL    HW134345   3.097   4.846   4.148
11365SOL    HW234346   2.971   4.762   4.155
11366SOL     OW34347  15.941  14.836   7.395
11366SOL    HW134348  15.868  14.786   7.432
11366SOL    HW234349   5.235  14.771   7.379
11367SOL     OW34350   7.956   9.543   2.807
11367SOL    HW134351   7.999   9.458   2.802
11367SOL    HW234352   8.017   9.603   2.763
11368SOL     OW34353   8.935   9.443   6.991
11368SOL    HW134354   9.023   9.408   7.000
11368SOL    HW234355   8.929   9.512   7.057
11369SOL     OW34356   7.695   6.633   1.542
11369SOL    HW134357   7.713   6.727   1.538
11369SOL    HW234358   7.709   6.602   1.453
11370SOL     OW34359   9.189   4.248   4.854
11370SOL    HW134360   9.165   4.282   4.940
11370SOL    HW234361   9.183   4.153   4.863
11371SOL     OW34362   5.553   8.490   3.512
11371SOL    HW134363   5.568   8.583   3.494
11371SOL    HW234364   5.531   8.487   3.605
11372SOL     OW34365  10.717   9.320   3.906
11372SOL    HW134366  10.677   9.236   3.885
11372SOL    HW234367  10.707   9.328   4.001
11373SOL     OW34368  10.438   5.396   1.736
11373SOL    HW134369  10.448   5.309   1.773
11373SOL    HW234370  10.521   5.414   1.692
11374SOL     OW34371   3.871   9.161   2.902
11374SOL    HW134372   3.867   9.121   2.815
11374SOL    HW234373   3.783   9.150   2.937
11375SOL     OW34374   6.979  10.924   3.577
11375SOL    HW134375   6.973  11.003   3.631
11375SOL    HW234376   6.983  10.957   3.487
11376SOL     OW34377   8.803   4.871   6.727
11376SOL    HW134378   8.877   4.881   6.667
11376SOL    HW234379   8.840   4.829   6.805
11377SOL     OW34380   4.523   9.662   5.337
11377SOL    HW134381   4.575   9.736   5.304
11377SOL    HW234382   4.581   9.587   5.326
11378SOL     OW34383   7.599   9.675   4.312
11378SOL    HW134384   7.580   9.635   4.227
11378SOL    HW234385   7.587   9.604   4.375
11379SOL     OW34386  15.632   5.845   7.580
11379SOL    HW134387  15.677   5.772   7.536
11379SOL    HW234388  15.579   5.885   7.511
11380SOL     OW34389   3.709   5.329   0.573
11380SOL    HW134390   3.621   5.313   0.608
11380SOL    HW234391   3.766   5.329   0.649
11381SOL     OW34392  15.253  13.566   6.627
11381SOL    HW134393  15.163  13.577   6.657
11381SOL    HW234394  15.263  13.632   6.558
11382SOL     OW34395   4.624   3.710   4.802
11382SOL    HW134396   4.563   3.639   4.783
11382SOL    HW234397   4.585   3.756   4.876
11383SOL     OW34398   1.867   2.163   0.112
11383SOL    HW134399   1.789   2.196   0.069
11383SOL    HW234400   1.877   2.074   0.080
11384SOL     OW34401  10.830  10.653   1.375
11384SOL    HW134402  10.874  10.722   1.424
11384SOL    HW234403  10.793  10.698   1.299
11385SOL     OW34404   5.605   4.012   3.624
11385SOL    HW134405   5.693   3.998   3.590
11385SOL    HW234406   5.570   3.924   3.638
11386SOL     OW34407   8.590   6.764   4.446
11386SOL    HW134408   8.665   6.714   4.415
11386SOL    HW234409   8.566   6.819   4.372
11387SOL     OW34410  14.151   7.160   7.030
11387SOL    HW134411  14.085   7.171   6.962
11387SOL    HW234412  14.117   7.090   7.086
11388SOL     OW34413   9.322   7.535   0.168
11388SOL    HW134414   9.369   7.488   0.099
11388SOL    HW234415   9.340   7.628   0.151
11389SOL     OW34416   3.566  12.814   3.152
11389SOL    HW134417   3.514  12.861   3.087
11389SOL    HW234418   3.626  12.880   3.186
11390SOL     OW34419   8.487  10.588   6.461
11390SOL    HW134420   8.451  10.675   6.480
11390SOL    HW234421   8.425  10.550   6.398
11391SOL     OW34422   9.184   9.706   2.862
11391SOL    HW134423   9.180   9.754   2.945
11391SOL    HW234424   9.163   9.616   2.885
11392SOL     OW34425  11.822   7.321   5.304
11392SOL    HW134426  11.849   7.350   5.391
11392SOL    HW234427  11.786   7.399   5.262
11393SOL     OW34428   4.178   6.604   2.765
11393SOL    HW134429   4.089   6.638   2.753
11393SOL    HW234430   4.209   6.646   2.845
11394SOL     OW34431  13.840  14.217   7.294
11394SOL    HW134432  13.824  14.145   7.234
11394SOL    HW234433  13.903  14.273   7.249
11395SOL     OW34434   6.057   8.353   4.089
11395SOL    HW134435   6.051   8.305   4.171
11395SOL    HW234436   6.109   8.297   4.032
11396SOL     OW34437   5.634   8.268   3.783
11396SOL    HW134438   5.660   8.359   3.768
11396SOL    HW234439   5.715   8.218   3.770
11397SOL     OW34440   0.981   2.436   0.160
11397SOL    HW134441   0.907   2.450   0.100
11397SOL    HW234442   0.974   2.345   0.186
11398SOL     OW34443  10.389  10.804   2.808
11398SOL    HW134444  10.462  10.783   2.865
11398SOL    HW234445  10.330  10.856   2.862
11399SOL     OW34446   4.956   9.694   2.513
11399SOL    HW134447   5.015   9.667   2.443
11399SOL    HW234448   5.007   9.758   2.564
11400SOL     OW34449   8.519   2.319   0.994
11400SOL    HW134450   8.614   2.332   0.988
11400SOL    HW234451   8.490   2.384   1.058
11401SOL     OW34452  11.932  12.400   6.697
11401SOL    HW134453  11.843  12.388   6.664
11401SOL    HW234454  11.944  12.330   6.762
11402SOL     OW34455  10.332   9.553   0.392
11402SOL    HW134456  10.399   9.543   0.459
11402SOL    HW234457  10.254   9.512   0.429
11403SOL     OW34458   9.317   4.832   4.875
11403SOL    HW134459   9.331   4.907   4.933
11403SOL    HW234460   9.380   4.766   4.905
11404SOL     OW34461   6.956  11.460   4.784
11404SOL    HW134462   6.959  11.450   4.689
11404SOL    HW234463   6.903  11.386   4.814
11405SOL     OW34464  10.379   1.202   1.127
11405SOL    HW134465  10.376   1.115   1.167
11405SOL    HW234466  10.414   1.259   1.195
11406SOL     OW34467   1.690   4.929   1.211
11406SOL    HW134468   1.733   4.845   1.194
11406SOL    HW234469   1.607   4.906   1.252
11407SOL     OW34470   4.795   3.724   1.340
11407SOL    HW134471   4.886   3.704   1.359
11407SOL    HW234472   4.772   3.667   1.267
11408SOL     OW34473   5.983   3.105   4.330
11408SOL    HW134474   6.074   3.126   4.348
11408SOL    HW234475   5.953   3.176   4.272
11409SOL     OW34476   5.171   3.691   2.382
11409SOL    HW134477   5.087   3.709   2.340
11409SOL    HW234478   5.216   3.776   2.382
11410SOL     OW34479  10.642   6.012   5.620
11410SOL    HW134480  10.569   6.066   5.650
11410SOL    HW234481  10.638   6.017   5.524
11411SOL     OW34482   5.805  13.763   7.092
11411SOL    HW134483   5.884  13.709   7.083
11411SOL    HW234484   5.780  13.753   7.184
11412SOL     OW34485   9.785   1.313   1.796
11412SOL    HW134486   9.798  11.997   1.766
11412SOL    HW234487   9.722   1.350   1.734
11413SOL     OW34488   3.094   3.954   3.154
11413SOL    HW134489   3.098   4.050   3.146
11413SOL    HW234490   3.172   3.932   3.205
11414SOL     OW34491   8.468  12.347   2.308
11414SOL    HW134492   8.531   1.588   2.238
11414SOL    HW234493   8.384  12.341   2.263
11415SOL     OW34494   4.462   9.313   0.683
11415SOL    HW134495   4.380   9.273   0.651
11415SOL    HW234496   4.502   9.350   0.605
11416SOL     OW34497   8.408   0.663   0.648
11416SOL    HW134498   8.315   0.674   0.628
11416SOL    HW234499   8.436   0.749   0.680
11417SOL     OW34500  12.431   8.671   7.187
11417SOL    HW134501  12.419   8.751   7.238
11417SOL    HW234502  12.413   8.697   7.096
11418SOL     OW34503  12.317  12.005   6.208
11418SOL    HW134504  12.376  11.942   6.164
11418SOL    HW234505  12.282  11.957   6.283
11419SOL     OW34506   6.630   6.962   1.873
11419SOL    HW134507   6.678   6.880   1.884
11419SOL    HW234508   6.538   6.937   1.877
11420SOL     OW34509   8.387  14.082   5.975
11420SOL    HW134510   8.307  14.033   5.997
11420SOL    HW234511   8.453  14.049   6.036
11421SOL     OW34512   6.363  14.323   7.354
11421SOL    HW134513   6.288  14.311   7.412
11421SOL    HW234514   6.326  14.363   7.275
11422SOL     OW34515   4.883   3.000   1.995
11422SOL    HW134516   4.884   2.981   2.089
11422SOL    HW234517   4.834   3.082   1.988
11423SOL     OW34518   6.999   8.435   3.716
11423SOL    HW134519   7.082   8.413   3.758
11423SOL    HW234520   6.940   8.364   3.740
11424SOL     OW34521  11.252   4.970   4.774
11424SOL    HW134522  11.259   4.916   4.853
11424SOL    HW234523  11.301   5.050   4.795
11425SOL     OW34524  12.620  10.271   2.725
11425SOL    HW134525  12.664  10.273   2.810
11425SOL    HW234526  12.532  10.304   2.743
11426SOL     OW34527  10.009  11.931   3.659
11426SOL    HW134528  10.060  11.993   3.712
11426SOL    HW234529  10.044  11.941   3.570
11427SOL     OW34530  10.305   5.377   6.968
11427SOL    HW134531  10.220   5.348   7.002
11427SOL    HW234532  10.285   5.455   6.917
11428SOL     OW34533   7.520   8.107   4.045
11428SOL    HW134534   7.510   8.177   4.111
11428SOL    HW234535   7.466   8.136   3.972
11429SOL     OW34536   7.732  11.539   1.828
11429SOL    HW134537   7.780  11.614   1.793
11429SOL    HW234538   7.642  11.554   1.801
11430SOL     OW34539   8.655   6.330   5.369
11430SOL    HW134540   8.570   6.332   5.326
11430SOL    HW234541   8.644   6.272   5.443
11431SOL     OW34542   4.373   1.520   0.465
11431SOL    HW134543   4.434   1.587   0.433
11431SOL    HW234544   4.300   1.523   0.404
11432SOL     OW34545   2.142   5.721   0.759
11432SOL    HW134546   2.105   5.674   0.834
11432SOL    HW234547   2.225   5.676   0.741
11433SOL     OW34548   9.045   5.370   7.072
11433SOL    HW134549   9.044   5.444   7.012
11433SOL    HW234550   8.962   5.325   7.057
11434SOL     OW34551   4.915   5.007   4.966
11434SOL    HW134552   4.845   4.970   5.020
11434SOL    HW234553   4.869   5.044   4.890
11435SOL     OW34554  14.117   5.996   6.558
11435SOL    HW134555  14.033   5.953   6.541
11435SOL    HW234556  14.175   5.925   6.587
11436SOL     OW34557   3.940  10.996   3.071
11436SOL    HW134558   4.014  10.936   3.073
11436SOL    HW234559   3.891  10.978   3.151
11437SOL     OW34560   5.669   7.502   1.376
11437SOL    HW134561   5.748   7.553   1.358
11437SOL    HW234562   5.702   7.418   1.408
11438SOL     OW34563   6.622   8.266   4.630
11438SOL    HW134564   6.556   8.290   4.695
11438SOL    HW234565   6.705   8.272   4.677
11439SOL     OW34566   5.351  13.385   7.335
11439SOL    HW134567   5.330  13.455   7.398
11439SOL    HW234568   5.277  13.384   7.275
11440SOL     OW34569  10.644   5.376   1.184
11440SOL    HW134570  10.729   5.368   1.228
11440SOL    HW234571  10.593   5.301   1.216
11441SOL     OW34572   8.620   2.312   2.166
11441SOL    HW134573   8.541   2.286   2.214
11441SOL    HW234574   8.626   2.407   2.181
11442SOL     OW34575   9.597   9.199   7.527
11442SOL    HW134576   9.523   9.159   7.480
11442SOL    HW234577   9.654   9.125   7.550
11443SOL     OW34578   6.133   3.375   1.988
11443SOL    HW134579   6.211   3.322   1.975
11443SOL    HW234580   6.078   3.324   2.048
11444SOL     OW34581   7.590   2.639   1.668
11444SOL    HW134582   7.664   2.688   1.633
11444SOL    HW234583   7.611   2.547   1.649
11445SOL     OW34584   3.709   3.336   2.203
11445SOL    HW134585   3.800   3.308   2.214
11445SOL    HW234586   3.681   3.294   2.122
11446SOL     OW34587  10.736   3.984   1.934
11446SOL    HW134588  10.674   3.993   2.006
11446SOL    HW234589  10.765   4.074   1.915
11447SOL     OW34590   5.474   2.985   4.097
11447SOL    HW134591   5.421   2.929   4.041
11447SOL    HW234592   5.412   3.018   4.163
11448SOL     OW34593  10.853   7.918   2.590
11448SOL    HW134594  10.801   7.996   2.607
11448SOL    HW234595  10.832   7.858   2.662
11449SOL     OW34596   4.176  11.203   2.026
11449SOL    HW134597   4.139  11.177   1.941
11449SOL    HW234598   4.270  11.205   2.011
11450SOL     OW34599  15.078  14.671   6.211
11450SOL    HW134600  15.057  14.759   6.243
11450SOL    HW234601  15.092  14.619   6.290
11451SOL     OW34602  15.157   4.796   6.303
11451SOL    HW134603   4.474   4.800   6.277
11451SOL    HW234604  15.125   4.886   6.295
11452SOL     OW34605   9.573   3.790   3.638
11452SOL    HW134606   9.489   3.837   3.637
11452SOL    HW234607   9.554   3.706   3.597
11453SOL     OW34608  10.005   7.491   4.414
11453SOL    HW134609  10.074   7.429   4.390
11453SOL    HW234610  10.052   7.565   4.453
11454SOL     OW34611   9.699  13.538   5.886
11454SOL    HW134612   9.609  13.524   5.857
11454SOL    HW234613   9.701  13.505   5.976
11455SOL     OW34614  10.284   8.218   4.745
11455SOL    HW134615  10.367   8.237   4.701
11455SOL    HW234616  10.287   8.123   4.760
11456SOL     OW34617   9.816   9.940   7.549
11456SOL    HW134618   4.422   4.492   0.003
11456SOL    HW234619   9.839   9.886   7.474
11457SOL     OW34620   6.601   6.411   4.541
11457SOL    HW134621   6.644   6.453   4.616
11457SOL    HW234622   6.534   6.355   4.581
11458SOL     OW34623   9.912  14.951   7.491
11458SOL    HW134624   9.970  14.891   7.444
11458SOL    HW234625   9.828  14.905   7.494
11459SOL     OW34626  11.016   5.725   7.308
11459SOL    HW134627  11.042   5.633   7.297
11459SOL    HW234628  11.047   5.768   7.228
11460SOL     OW34629   1.212   2.600   1.222
11460SOL    HW134630   1.286   2.660   1.233
11460SOL    HW234631   1.142   2.640   1.274
11461SOL     OW34632   1.497   5.988   1.449
11461SOL    HW134633   1.576   6.040   1.461
11461SOL    HW234634   1.520   5.924   1.382
11462SOL     OW34635  12.459   2.830   3.329
11462SOL    HW134636  12.448   2.735   3.334
11462SOL    HW234637  12.389   2.866   3.382
11463SOL     OW34638   2.912  12.476   3.869
11463SOL    HW134639   2.877  12.415   3.934
11463SOL    HW234640   2.979  12.525   3.917
11464SOL     OW34641   5.610   6.238   1.971
11464SOL    HW134642   5.554   6.170   2.010
11464SOL    HW234643   5.550   6.308   1.948
11465SOL     OW34644   8.434   4.642   1.091
11465SOL    HW134645   8.362   4.698   1.118
11465SOL    HW234646   8.467   4.681   1.010
11466SOL     OW34647  10.734   4.561   5.580
11466SOL    HW134648  10.808   4.621   5.587
11466SOL    HW234649  10.762   4.494   5.518
11467SOL     OW34650  14.348   9.886   6.721
11467SOL    HW134651  14.370   9.805   6.767
11467SOL    HW234652  14.302   9.857   6.642
11468SOL     OW34653   3.800  12.587   3.054
11468SOL    HW134654   3.706  12.576   3.040
11468SOL    HW234655   3.827  12.508   3.101
11469SOL     OW34656   6.368  14.062   7.533
11469SOL    HW134657   6.403  14.107   7.456
11469SOL    HW234658   6.373  13.969   7.510
11470SOL     OW34659   9.719   3.642   2.970
11470SOL    HW134660   9.703   3.553   3.002
11470SOL    HW234661   9.763   3.686   3.042
11471SOL     OW34662   3.670  12.959   4.231
11471SOL    HW134663   3.683  13.030   4.293
11471SOL    HW234664   3.759  12.928   4.211
11472SOL     OW34665  14.097  12.733   6.821
11472SOL    HW134666  14.192  12.726   6.822
11472SOL    HW234667  14.080  12.826   6.808
11473SOL     OW34668  11.662  14.986   6.860
11473SOL    HW134669  11.623  14.901   6.838
11473SOL    HW234670  11.743  14.990   6.808
11474SOL     OW34671  15.383  12.464   7.346
11474SOL    HW134672  15.333  12.527   7.397
11474SOL    HW234673  15.357  12.480   7.255
11475SOL     OW34674   9.366   8.797   3.562
11475SOL    HW134675   9.376   8.740   3.486
11475SOL    HW234676   9.276   8.781   3.592
11476SOL     OW34677   7.886   3.897   1.261
11476SOL    HW134678   7.887   3.910   1.166
11476SOL    HW234679   7.799   3.863   1.279
11477SOL     OW34680  11.344   7.769   2.166
11477SOL    HW134681  11.370   7.828   2.236
11477SOL    HW234682  11.256   7.799   2.140
11478SOL     OW34683   5.357   5.752   6.702
11478SOL    HW134684   5.368   5.696   6.625
11478SOL    HW234685   5.328   5.692   6.771
11479SOL     OW34686  11.708  13.705   6.890
11479SOL    HW134687  11.660  13.788   6.889
11479SOL    HW234688  11.800  13.732   6.889
11480SOL     OW34689  11.078  14.166   6.664
11480SOL    HW134690  11.063  14.072   6.648
11480SOL    HW234691  11.032  14.210   6.593
11481SOL     OW34692   2.465   1.619   0.031
11481SOL    HW134693   2.523   1.690   0.058
11481SOL    HW234694   2.518   1.540   0.041
11482SOL     OW34695   7.427   7.855   5.909
11482SOL    HW134696   7.423   7.933   5.854
11482SOL    HW234697   7.340   7.816   5.902
11483SOL     OW34698  11.521   7.063   2.582
11483SOL    HW134699  11.485   7.017   2.506
11483SOL    HW234700  11.546   6.993   2.642
11484SOL     OW34701  11.117   1.323   1.501
11484SOL    HW134702  11.154   1.300   1.586
11484SOL    HW234703  11.042   1.265   1.490
11485SOL     OW34704  11.343  14.481   6.499
11485SOL    HW134705  11.253  14.451   6.492
11485SOL    HW234706  11.373  14.493   6.409
11486SOL     OW34707   7.271   1.806   1.884
11486SOL    HW134708   7.216   1.874   1.846
11486SOL    HW234709   7.219   1.726   1.875
11487SOL     OW34710  12.383   7.390   4.119
11487SOL    HW134711  12.327   7.363   4.191
11487SOL    HW234712  12.324   7.432   4.057
11488SOL     OW34713   5.409   8.774   3.441
11488SOL    HW134714   5.321   8.790   3.474
11488SOL    HW234715   5.451   8.861   3.442
11489SOL     OW34716  10.790  12.191   6.258
11489SOL    HW134717  10.753  12.129   6.320
11489SOL    HW234718  10.873  12.218   6.297
11490SOL     OW34719   5.671  14.045   7.274
11490SOL    HW134720   5.679  14.092   7.191
11490SOL    HW234721   5.727  14.093   7.335
11491SOL     OW34722   4.907   5.411   6.840
11491SOL    HW134723   4.827   5.420   6.790
11491SOL    HW234724   4.913   5.492   6.891
11492SOL     OW34725   4.208   5.394   0.474
11492SOL    HW134726   4.213   5.387   0.569
11492SOL    HW234727   4.298   5.380   0.444
11493SOL     OW34728   9.682  13.199   4.353
11493SOL    HW134729   9.616  13.173   4.417
11493SOL    HW234730   9.662  13.290   4.333
11494SOL     OW34731   4.556  12.742   6.058
11494SOL    HW134732   4.503  12.672   6.021
11494SOL    HW234733   4.493  12.798   6.104
11495SOL     OW34734  12.021   5.380   2.415
11495SOL    HW134735  12.107   5.418   2.431
11495SOL    HW234736  12.039   5.297   2.370
11496SOL     OW34737   8.398  13.843   7.213
11496SOL    HW134738   8.430  13.784   7.281
11496SOL    HW234739   8.473  13.897   7.190
11497SOL     OW34740  14.264   8.391   7.559
11497SOL    HW134741  14.219   8.432   7.486
11497SOL    HW234742   8.835   3.042   0.018
11498SOL     OW34743   8.568  10.596   1.283
11498SOL    HW134744   8.508  10.669   1.299
11498SOL    HW234745   8.592  10.605   1.191
11499SOL     OW34746   6.552   9.364   6.221
11499SOL    HW134747   6.554   9.339   6.314
11499SOL    HW234748   6.635   9.410   6.207
11500SOL     OW34749  11.528  10.855   4.247
11500SOL    HW134750  11.520  10.830   4.339
11500SOL    HW234751  11.621  10.876   4.235
11501SOL     OW34752  10.993  12.352   6.986
11501SOL    HW134753  11.039  12.342   7.069
11501SOL    HW234754  11.051  12.313   6.921
11502SOL     OW34755   9.964   7.904   0.710
11502SOL    HW134756   9.888   7.957   0.734
11502SOL    HW234757  10.015   7.898   0.791
11503SOL     OW34758   6.979   9.933   5.153
11503SOL    HW134759   6.995  10.022   5.121
11503SOL    HW234760   6.935   9.889   5.080
11504SOL     OW34761   2.765   4.280   1.037
11504SOL    HW134762   2.738   4.360   0.991
11504SOL    HW234763   2.773   4.214   0.968
11505SOL     OW34764   8.822   4.972   3.488
11505SOL    HW134765   8.875   5.022   3.550
11505SOL    HW234766   8.749   4.938   3.540
11506SOL     OW34767  10.178   5.598   3.654
11506SOL    HW134768  10.152   5.541   3.582
11506SOL    HW234769  10.218   5.539   3.718
11507SOL     OW34770  10.885  10.201   4.552
11507SOL    HW134771  10.936  10.257   4.611
11507SOL    HW234772  10.805  10.183   4.600
11508SOL     OW34773   7.534   5.204   3.548
11508SOL    HW134774   7.451   5.157   3.559
11508SOL    HW234775   7.533   5.271   3.616
11509SOL     OW34776  10.441   6.794   5.841
11509SOL    HW134777  10.523   6.842   5.855
11509SOL    HW234778  10.467   6.717   5.791
11510SOL     OW34779  10.536  14.111   6.159
11510SOL    HW134780  10.523  14.069   6.244
11510SOL    HW234781  10.556  14.202   6.179
11511SOL     OW34782  10.886   3.799   4.635
11511SOL    HW134783  10.918   3.859   4.702
11511SOL    HW234784  10.947   3.725   4.638
11512SOL     OW34785   9.665   7.527   0.165
11512SOL    HW134786   9.593   7.493   0.218
11512SOL    HW234787   9.733   7.460   0.170
11513SOL     OW34788   4.199   4.368   1.013
11513SOL    HW134789   4.175   4.305   1.080
11513SOL    HW234790   4.278   4.411   1.047
11514SOL     OW34791   9.797   3.487   2.643
11514SOL    HW134792   9.757   3.502   2.557
11514SOL    HW234793   9.739   3.530   2.705
11515SOL     OW34794   9.691   5.902   4.426
11515SOL    HW134795   9.689   5.911   4.330
11515SOL    HW234796   9.782   5.922   4.449
11516SOL     OW34797  11.968  12.445   3.989
11516SOL    HW134798  12.043  12.487   3.949
11516SOL    HW234799  11.957  12.363   3.940
11517SOL     OW34800   9.499  12.245   2.294
11517SOL    HW134801   9.585  12.231   2.255
11517SOL    HW234802   9.444  12.275   2.222
11518SOL     OW34803  10.258   5.435   1.942
11518SOL    HW134804  10.229   5.348   1.970
11518SOL    HW234805  10.333   5.419   1.886
11519SOL     OW34806   8.576  11.350   3.039
11519SOL    HW134807   8.499  11.297   3.061
11519SOL    HW234808   8.576  11.353   2.943
11520SOL     OW34809   7.098   4.618   4.314
11520SOL    HW134810   7.124   4.666   4.235
11520SOL    HW234811   7.003   4.609   4.306
11521SOL     OW34812  11.827  13.797   4.355
11521SOL    HW134813  11.913  13.828   4.327
11521SOL    HW234814  11.837  13.702   4.364
11522SOL     OW34815  14.439   8.590   7.145
11522SOL    HW134816  14.413   8.640   7.222
11522SOL    HW234817  14.496   8.649   7.095
11523SOL     OW34818  12.921   7.878   4.457
11523SOL    HW134819  12.885   7.892   4.544
11523SOL    HW234820  13.011   7.908   4.463
11524SOL     OW34821  12.174   9.309   2.536
11524SOL    HW134822  12.219   9.224   2.536
11524SOL    HW234823  12.236   9.369   2.578
11525SOL     OW34824   1.057   3.228   0.322
11525SOL    HW134825   0.974   3.180   0.319
11525SOL    HW234826   1.095   3.216   0.234
11526SOL     OW34827  13.511   7.684   4.768
11526SOL    HW134828  13.494   7.767   4.813
11526SOL    HW234829  13.429   7.665   4.723
11527SOL     OW34830   3.435  10.294   0.266
11527SOL    HW134831   3.441  10.380   0.307
11527SOL    HW234832   3.423  10.234   0.339
11528SOL     OW34833   8.528   5.928   3.019
11528SOL    HW134834   8.524   5.970   3.105
11528SOL    HW234835   8.538   5.835   3.038
11529SOL     OW34836   3.032   9.535   1.455
11529SOL    HW134837   3.050   9.617   1.501
11529SOL    HW234838   2.960   9.555   1.396
11530SOL     OW34839  12.556   7.587   4.897
11530SOL    HW134840  12.604   7.670   4.908
11530SOL    HW234841  12.468   7.606   4.928
11531SOL     OW34842   8.237  13.154   6.128
11531SOL    HW134843   8.295  13.110   6.065
11531SOL    HW234844   8.258  13.112   6.212
11532SOL     OW34845  14.631   5.778   5.954
11532SOL    HW134846  14.708   5.831   5.936
11532SOL    HW234847  14.625   5.774   6.049
11533SOL     OW34848   3.653  10.180   3.425
11533SOL    HW134849   3.558  10.187   3.415
11533SOL    HW234850   3.666  10.134   3.508
11534SOL     OW34851  11.245   4.194   0.923
11534SOL    HW134852  11.238   4.279   0.967
11534SOL    HW234853  11.333   4.163   0.945
11535SOL     OW34854   6.997  12.645   3.099
11535SOL    HW134855   7.081  12.635   3.144
11535SOL    HW234856   7.004  12.728   3.052
11536SOL     OW34857   1.749  10.679   0.999
11536SOL    HW134858   1.768  10.683   0.905
11536SOL    HW234859   1.753  10.586   1.020
11537SOL     OW34860   4.182   7.126   4.269
11537SOL    HW134861   4.207   7.034   4.275
11537SOL    HW234862   4.119   7.130   4.197
11538SOL     OW34863  12.882   3.849   4.565
11538SOL    HW134864  12.885   3.754   4.579
11538SOL    HW234865  12.795   3.875   4.595
11539SOL     OW34866   4.518  10.407   4.435
11539SOL    HW134867   4.453  10.378   4.499
11539SOL    HW234868   4.594  10.432   4.487
11540SOL     OW34869  11.887  11.837   6.011
11540SOL    HW134870  11.875  11.864   5.920
11540SOL    HW234871  11.819  11.885   6.059
11541SOL     OW34872  12.407   5.176   6.700
11541SOL    HW134873  12.459   5.130   6.766
11541SOL    HW234874  12.353   5.107   6.660
11542SOL     OW34875   3.647  12.007   1.952
11542SOL    HW134876   3.716  12.066   1.921
11542SOL    HW234877   3.641  11.939   1.885
11543SOL     OW34878   9.755  11.806   2.063
11543SOL    HW134879   9.815  11.747   2.016
11543SOL    HW234880   9.775  11.792   2.155
11544SOL     OW34881  10.088   4.238   3.325
11544SOL    HW134882  10.073   4.147   3.300
11544SOL    HW234883  10.095   4.235   3.421
11545SOL     OW34884  10.103   5.060   1.171
11545SOL    HW134885  10.012   5.091   1.164
11545SOL    HW234886  10.097   4.966   1.155
11546SOL     OW34887   5.856   9.621   2.985
11546SOL    HW134888   5.886   9.573   3.062
11546SOL    HW234889   5.769   9.652   3.008
11547SOL     OW34890   5.291  12.813   7.334
11547SOL    HW134891   5.332  12.837   7.251
11547SOL    HW234892   5.197  12.826   7.319
11548SOL     OW34893   9.369   7.613   5.377
11548SOL    HW134894   9.428   7.543   5.406
11548SOL    HW234895   9.289   7.567   5.353
11549SOL     OW34896   6.566   4.813   0.369
11549SOL    HW134897   6.632   4.856   0.424
11549SOL    HW234898   6.541   4.878   0.304
11550SOL     OW34899   9.159   5.445   0.781
11550SOL    HW134900   9.075   5.400   0.794
11550SOL    HW234901   9.222   5.375   0.768
11551SOL     OW34902   6.147   6.585   1.087
11551SOL    HW134903   6.208   6.650   1.121
11551SOL    HW234904   6.173   6.503   1.130
11552SOL     OW34905  11.314  13.246   6.054
11552SOL    HW134906  11.248  13.178   6.071
11552SOL    HW234907  11.395  13.197   6.043
11553SOL     OW34908   6.241   5.468   4.347
11553SOL    HW134909   6.267   5.403   4.282
11553SOL    HW234910   6.239   5.420   4.430
11554SOL     OW34911  13.384   7.935   3.972
11554SOL    HW134912  13.362   7.842   3.975
11554SOL    HW234913  13.431   7.947   3.890
11555SOL     OW34914   9.065  10.128   1.583
11555SOL    HW134915   8.976  10.160   1.574
11555SOL    HW234916   9.118  10.206   1.596
11556SOL     OW34917   3.501   6.127   0.017
11556SOL    HW134918   8.832  11.586   7.607
11556SOL    HW234919   3.479   6.115   0.109
11557SOL     OW34920   6.702   6.583   1.508
11557SOL    HW134921   6.777   6.593   1.567
11557SOL    HW234922   6.632   6.635   1.548
11558SOL     OW34923  11.347  11.472   1.961
11558SOL    HW134924  11.335  11.392   1.910
11558SOL    HW234925  11.431  11.507   1.931
11559SOL     OW34926   6.263   6.970   0.081
11559SOL    HW134927  11.662  12.343   7.606
11559SOL    HW234928   6.276   6.884   0.121
11560SOL     OW34929   2.298   5.793   2.947
11560SOL    HW134930   2.315   5.814   2.856
11560SOL    HW234931   2.314   5.699   2.954
11561SOL     OW34932  12.344  10.029   6.033
11561SOL    HW134933  12.372  10.093   6.099
11561SOL    HW234934  12.426   9.989   6.002
11562SOL     OW34935   6.136   4.698   6.313
11562SOL    HW134936   6.171   4.697   6.402
11562SOL    HW234937   6.158   4.785   6.280
11563SOL     OW34938   8.032   6.785   3.835
11563SOL    HW134939   8.031   6.765   3.742
11563SOL    HW234940   8.026   6.700   3.878
11564SOL     OW34941   1.099  10.576   0.651
11564SOL    HW134942   1.022  10.544   0.602
11564SOL    HW234943   1.076  10.560   0.742
11565SOL     OW34944  14.838  15.788   7.107
11565SOL    HW134945  14.905  15.729   7.073
11565SOL    HW234946  14.771   5.015   7.038
11566SOL     OW34947   5.242  12.241   7.125
11566SOL    HW134948   5.187  12.250   7.203
11566SOL    HW234949   5.303  12.170   7.147
11567SOL     OW34950  11.743   9.791   4.489
11567SOL    HW134951  11.793   9.711   4.475
11567SOL    HW234952  11.689   9.774   4.566
11568SOL     OW34953   5.513   5.157   1.868
11568SOL    HW134954   5.528   5.064   1.848
11568SOL    HW234955   5.601   5.195   1.869
11569SOL     OW34956   7.355  14.504   7.546
11569SOL    HW134957   7.272  14.482   7.587
11569SOL    HW234958   7.367  14.438   7.478
11570SOL     OW34959  12.965  14.274   6.222
11570SOL    HW134960  12.988  14.310   6.136
11570SOL    HW234961  13.048  14.244   6.258
11571SOL     OW34962  11.045   2.691   0.837
11571SOL    HW134963  11.114   2.626   0.830
11571SOL    HW234964  10.985   2.670   0.766
11572SOL     OW34965   8.972   8.910   4.072
11572SOL    HW134966   8.963   9.005   4.076
11572SOL    HW234967   8.956   8.881   4.162
11573SOL     OW34968   7.665   4.288   5.019
11573SOL    HW134969   7.747   4.325   4.987
11573SOL    HW234970   7.687   4.253   5.106
11574SOL     OW34971   6.186  12.133   4.032
11574SOL    HW134972   6.123  12.071   4.068
11574SOL    HW234973   6.263  12.124   4.087
11575SOL     OW34974   7.824   8.756   7.195
11575SOL    HW134975   7.853   8.848   7.193
11575SOL    HW234976   7.737   8.760   7.233
11576SOL     OW34977   4.481   5.722   0.527
11576SOL    HW134978   4.566   5.693   0.495
11576SOL    HW234979   4.458   5.658   0.595
11577SOL     OW34980  15.452   8.639   7.396
11577SOL    HW134981  15.401   8.713   7.364
11577SOL    HW234982  15.420   8.564   7.346
11578SOL     OW34983   6.137  11.432   3.218
11578SOL    HW134984   6.093  11.440   3.303
11578SOL    HW234985   6.212  11.492   3.225
11579SOL     OW34986   5.454   8.347   1.540
11579SOL    HW134987   5.430   8.321   1.451
11579SOL    HW234988   5.371   8.350   1.587
11580SOL     OW34989   8.838  13.356   7.044
11580SOL    HW134990   8.797  13.279   7.081
11580SOL    HW234991   8.931  13.334   7.039
11581SOL     OW34992  11.315  12.650   7.333
11581SOL    HW134993  11.292  12.610   7.248
11581SOL    HW234994  11.337  12.575   7.389
11582SOL     OW34995  11.281   8.578   2.867
11582SOL    HW134996  11.365   8.533   2.871
11582SOL    HW234997  11.290   8.653   2.926
11583SOL     OW34998   0.308   9.494   0.152
11583SOL    HW134999   0.348   9.505   0.238
11583SOL    HW235000   0.382   9.480   0.093
11584SOL     OW35001   5.430   5.036   5.694
11584SOL    HW135002   5.345   5.068   5.666
11584SOL    HW235003   5.441   4.953   5.646
11585SOL     OW35004  14.435   6.806   5.550
11585SOL    HW135005  14.474   6.808   5.638
11585SOL    HW235006  14.441   6.897   5.519
11586SOL     OW35007  10.861  12.725   3.778
11586SOL    HW135008  10.891  12.681   3.699
11586SOL    HW235009  10.912  12.685   3.849
11587SOL     OW35010   6.839   7.774   7.250
11587SOL    HW135011   6.757   7.820   7.265
11587SOL    HW235012   6.862   7.736   7.335
11588SOL     OW35013   7.533  11.239   7.364
11588SOL    HW135014   7.491  11.217   7.281
11588SOL    HW235015   7.503  11.172   7.425
11589SOL     OW35016  13.496  10.439   4.309
11589SOL    HW135017  13.569  10.449   4.247
11589SOL    HW235018  13.470  10.529   4.330
11590SOL     OW35019  14.524  14.401   6.177
11590SOL    HW135020  14.519  14.318   6.223
11590SOL    HW235021  14.610  14.401   6.136
11591SOL     OW35022   6.199  13.475   6.487
11591SOL    HW135023   6.270  13.502   6.546
11591SOL    HW235024   6.133  13.543   6.495
11592SOL     OW35025  14.534   6.601   6.355
11592SOL    HW135026  14.505   6.640   6.272
11592SOL    HW235027  14.459   6.610   6.413
11593SOL     OW35028   5.676   8.882   6.086
11593SOL    HW135029   5.753   8.923   6.124
11593SOL    HW235030   5.644   8.822   6.154
11594SOL     OW35031  14.893   7.510   7.005
11594SOL    HW135032  14.912   7.580   7.068
11594SOL    HW235033  14.965   7.513   6.943
11595SOL     OW35034   3.890   7.432   0.457
11595SOL    HW135035   3.819   7.374   0.430
11595SOL    HW235036   3.863   7.464   0.543
11596SOL     OW35037   7.586   6.875   0.612
11596SOL    HW135038   7.540   6.926   0.678
11596SOL    HW235039   7.518   6.823   0.571
11597SOL     OW35040   3.037   3.512   1.832
11597SOL    HW135041   3.004   3.532   1.744
11597SOL    HW235042   3.129   3.540   1.829
11598SOL     OW35043   3.664   4.475   3.818
11598SOL    HW135044   3.725   4.517   3.879
11598SOL    HW235045   3.579   4.513   3.839
11599SOL     OW35046   8.597  11.822   5.414
11599SOL    HW135047   8.577  11.877   5.339
11599SOL    HW235048   8.693  11.815   5.413
11600SOL     OW35049  14.474   6.617   5.304
11600SOL    HW135050  14.551   6.583   5.350
11600SOL    HW235051  14.460   6.704   5.342
11601SOL     OW35052   4.177   4.799   4.408
11601SOL    HW135053   4.196   4.891   4.387
11601SOL    HW235054   4.181   4.754   4.323
11602SOL     OW35055   9.488   8.400   6.412
11602SOL    HW135056   9.462   8.489   6.435
11602SOL    HW235057   9.583   8.400   6.419
11603SOL     OW35058   5.309   8.667   5.088
11603SOL    HW135059   5.245   8.680   5.159
11603SOL    HW235060   5.270   8.598   5.034
11604SOL     OW35061  12.639   6.281   6.409
11604SOL    HW135062  12.675   6.206   6.455
11604SOL    HW235063  12.563   6.246   6.362
11605SOL     OW35064   7.087   5.086   3.865
11605SOL    HW135065   7.171   5.069   3.821
11605SOL    HW235066   7.056   5.000   3.891
11606SOL     OW35067  12.600  10.966   3.160
11606SOL    HW135068  12.621  11.058   3.174
11606SOL    HW235069  12.618  10.951   3.067
11607SOL     OW35070   7.206   2.220   0.243
11607SOL    HW135071   7.209   2.182   0.330
11607SOL    HW235072   7.126   2.272   0.242
11608SOL     OW35073   9.387   9.570   6.043
11608SOL    HW135074   9.438   9.609   5.973
11608SOL    HW235075   9.317   9.521   5.998
11609SOL     OW35076   8.533  12.316   5.190
11609SOL    HW135077   8.607  12.277   5.145
11609SOL    HW235078   8.462  12.314   5.125
11610SOL     OW35079  12.432  10.028   6.725
11610SOL    HW135080  12.434   9.965   6.653
11610SOL    HW235081  12.428   9.974   6.804
11611SOL     OW35082   9.005   2.792   2.911
11611SOL    HW135083   8.913   2.818   2.905
11611SOL    HW235084   9.002   2.697   2.925
11612SOL     OW35085   5.142   5.970   2.589
11612SOL    HW135086   5.176   5.927   2.668
11612SOL    HW235087   5.099   6.049   2.622
11613SOL     OW35088   5.435   8.193   6.787
11613SOL    HW135089   5.493   8.127   6.748
11613SOL    HW235090   5.371   8.212   6.719
11614SOL     OW35091  11.525   8.695   7.211
11614SOL    HW135092  11.463   8.686   7.283
11614SOL    HW235093  11.559   8.607   7.197
11615SOL     OW35094  13.786   5.348   4.479
11615SOL    HW135095  13.696   5.369   4.452
11615SOL    HW235096  13.801   5.260   4.446
11616SOL     OW35097  12.797  15.235   6.902
11616SOL    HW135098  12.768  15.144   6.913
11616SOL    HW235099  12.890  15.227   6.879
11617SOL     OW35100   9.803   5.261   0.153
11617SOL    HW135101   9.746   5.193   0.190
11617SOL    HW235102   9.758   5.343   0.172
11618SOL     OW35103   6.161   3.836   2.197
11618SOL    HW135104   6.090   3.876   2.248
11618SOL    HW235105   6.134   3.848   2.106
11619SOL     OW35106   4.472   4.849   4.392
11619SOL    HW135107   4.382   4.854   4.425
11619SOL    HW235108   4.524   4.897   4.457
11620SOL     OW35109   9.331  15.805   7.537
11620SOL    HW135110   9.269  15.873   7.564
11620SOL    HW235111   9.287  15.723   7.559
11621SOL     OW35112   1.394   9.010   0.938
11621SOL    HW135113   1.489   9.008   0.921
11621SOL    HW235114   1.355   8.969   0.862
11622SOL     OW35115  11.811  11.173   5.268
11622SOL    HW135116  11.831  11.182   5.361
11622SOL    HW235117  11.799  11.079   5.254
11623SOL     OW35118  11.457   1.734   1.001
11623SOL    HW135119   0.702   1.776   0.917
11623SOL    HW235120   0.754   1.762   1.058
11624SOL     OW35121   1.277   7.259   0.170
11624SOL    HW135122   1.204   7.318   0.152
11624SOL    HW235123   1.237   7.174   0.186
11625SOL     OW35124   9.164  12.154   7.386
11625SOL    HW135125   9.095  12.087   7.384
11625SOL    HW235126   9.207  12.146   7.301
11626SOL     OW35127   5.137  10.676   0.567
11626SOL    HW135128   5.227  10.646   0.551
11626SOL    HW235129   5.132  10.685   0.662
11627SOL     OW35130   6.442  14.452   6.526
11627SOL    HW135131   6.513  14.479   6.585
11627SOL    HW235132   6.486  14.421   6.447
11628SOL     OW35133   6.426   2.793   2.342
11628SOL    HW135134   6.463   2.705   2.348
11628SOL    HW235135   6.426   2.813   2.248
11629SOL     OW35136   7.680   7.146   4.008
11629SOL    HW135137   7.733   7.202   3.951
11629SOL    HW235138   7.722   7.060   4.002
11630SOL     OW35139  15.076  13.964   7.265
11630SOL    HW135140  15.009  14.018   7.308
11630SOL    HW235141  15.051  13.964   7.173
11631SOL     OW35142   2.155   8.089   2.963
11631SOL    HW135143   2.245   8.106   2.936
11631SOL    HW235144   2.144   7.995   2.948
11632SOL     OW35145   2.443   9.141   2.439
11632SOL    HW135146   2.488   9.056   2.441
11632SOL    HW235147   2.438   9.162   2.345
11633SOL     OW35148  11.378   6.873   0.854
11633SOL    HW135149  11.399   6.889   0.946
11633SOL    HW235150  11.291   6.834   0.856
11634SOL     OW35151   9.552   7.479   4.882
11634SOL    HW135152   9.552   7.529   4.801
11634SOL    HW235153   9.641   7.442   4.888
11635SOL     OW35154   4.123  10.716   2.099
11635SOL    HW135155   4.214  10.696   2.077
11635SOL    HW235156   4.111  10.676   2.185
11636SOL     OW35157   9.290   5.502   7.333
11636SOL    HW135158   9.240   5.429   7.369
11636SOL    HW235159   9.227   5.574   7.328
11637SOL     OW35160   8.500  11.368   3.779
11637SOL    HW135161   8.458  11.431   3.720
11637SOL    HW235162   8.505  11.287   3.727
11638SOL     OW35163  11.319   7.835   5.656
11638SOL    HW135164  11.363   7.916   5.682
11638SOL    HW235165  11.292   7.851   5.565
11639SOL     OW35166   5.870  10.345   2.654
11639SOL    HW135167   5.847  10.413   2.717
11639SOL    HW235168   5.792  10.289   2.649
11640SOL     OW35169   3.560  12.596   3.406
11640SOL    HW135170   3.601  12.624   3.324
11640SOL    HW235171   3.621  12.532   3.443
11641SOL     OW35172   3.997   3.123   4.246
11641SOL    HW135173   3.980   3.043   4.296
11641SOL    HW235174   4.092   3.137   4.254
11642SOL     OW35175   2.668   5.563   2.743
11642SOL    HW135176   2.703   5.639   2.789
11642SOL    HW235177   2.713   5.565   2.658
11643SOL     OW35178  13.992   7.292   7.254
11643SOL    HW135179  13.908   7.266   7.216
11643SOL    HW235180  14.050   7.302   7.178
11644SOL     OW35181   8.293  10.361   4.757
11644SOL    HW135182   8.259  10.383   4.844
11644SOL    HW235183   8.260  10.431   4.701
11645SOL     OW35184  10.293   4.705   5.857
11645SOL    HW135185  10.296   4.799   5.877
11645SOL    HW235186  10.273   4.664   5.941
11646SOL     OW35187   9.905   8.119   3.813
11646SOL    HW135188   9.829   8.067   3.785
11646SOL    HW235189   9.931   8.081   3.897
11647SOL     OW35190   7.826  15.403   7.247
11647SOL    HW135191   7.881  15.474   7.214
11647SOL    HW235192   7.838  15.404   7.342
11648SOL     OW35193   2.765   3.500   3.756
11648SOL    HW135194   2.818   3.434   3.802
11648SOL    HW235195   2.719   3.450   3.688
11649SOL     OW35196   3.136   8.880   2.474
11649SOL    HW135197   3.108   8.926   2.553
11649SOL    HW235198   3.214   8.832   2.500
11650SOL     OW35199   8.131   9.350   7.234
11650SOL    HW135200   8.184   9.423   7.267
11650SOL    HW235201   8.137   9.283   7.302
11651SOL     OW35202   6.702   2.676   1.150
11651SOL    HW135203   6.766   2.747   1.152
11651SOL    HW235204   6.631   2.709   1.095
11652SOL     OW35205   8.075   5.866   7.494
11652SOL    HW135206   8.062   5.846   7.587
11652SOL    HW235207   8.133   5.797   7.462
11653SOL     OW35208   5.736  13.596   4.897
11653SOL    HW135209   5.767  13.572   4.984
11653SOL    HW235210   5.787  13.674   4.874
11654SOL     OW35211   1.229   4.370   1.697
11654SOL    HW135212   1.259   4.332   1.779
11654SOL    HW235213   1.243   4.302   1.632
11655SOL     OW35214   9.976  10.037   5.043
11655SOL    HW135215   9.959  10.127   5.069
11655SOL    HW235216  10.054  10.011   5.094
11656SOL     OW35217  11.673   4.329   2.863
11656SOL    HW135218  11.596   4.372   2.825
11656SOL    HW235219  11.710   4.278   2.791
11657SOL     OW35220  10.685  11.096   2.454
11657SOL    HW135221  10.621  11.038   2.410
11657SOL    HW235222  10.737  11.037   2.507
11658SOL     OW35223   9.060   8.997   3.420
11658SOL    HW135224   9.113   9.061   3.467
11658SOL    HW235225   8.974   9.038   3.412
11659SOL     OW35226   5.051   9.036   6.955
11659SOL    HW135227   4.961   9.056   6.931
11659SOL    HW235228   5.046   8.951   6.998
11660SOL     OW35229   4.827  12.775   3.443
11660SOL    HW135230   4.845  12.705   3.506
11660SOL    HW235231   4.858  12.855   3.486
11661SOL     OW35232  11.469   2.935   1.832
11661SOL    HW135233  11.490   3.021   1.868
11661SOL    HW235234  11.388   2.948   1.783
11662SOL     OW35235   4.588   3.792   0.545
11662SOL    HW135236   4.672   3.769   0.505
11662SOL    HW235237   4.533   3.819   0.471
11663SOL     OW35238   4.398  10.161   5.073
11663SOL    HW135239   4.489  10.137   5.093
11663SOL    HW235240   4.368  10.093   5.013
11664SOL     OW35241  10.341   5.955   5.166
11664SOL    HW135242  10.304   5.995   5.245
11664SOL    HW235243  10.287   5.879   5.150
11665SOL     OW35244  10.915   5.728   0.729
11665SOL    HW135245  10.919   5.677   0.810
11665SOL    HW235246  10.828   5.710   0.693
11666SOL     OW35247   8.630   2.329   2.945
11666SOL    HW135248   8.566   2.266   2.976
11666SOL    HW235249   8.680   2.353   3.023
11667SOL     OW35250  11.540   9.167   5.783
11667SOL    HW135251  11.536   9.093   5.843
11667SOL    HW235252  11.471   9.148   5.718
11668SOL     OW35253   7.290  12.629   3.142
11668SOL    HW135254   7.262  12.694   3.207
11668SOL    HW235255   7.385  12.624   3.153
11669SOL     OW35256   8.962   9.291   4.066
11669SOL    HW135257   9.031   9.235   4.101
11669SOL    HW235258   9.009   9.357   4.015
11670SOL     OW35259   9.277   6.361   3.093
11670SOL    HW135260   9.195   6.325   3.060
11670SOL    HW235261   9.253   6.407   3.174
11671SOL     OW35262   5.644   5.782   5.974
11671SOL    HW135263   5.667   5.802   6.065
11671SOL    HW235264   5.640   5.687   5.970
11672SOL     OW35265   6.633  10.711   6.358
11672SOL    HW135266   6.556  10.680   6.404
11672SOL    HW235267   6.641  10.654   6.281
11673SOL     OW35268   7.505   5.135   2.235
11673SOL    HW135269   7.491   5.053   2.187
11673SOL    HW235270   7.421   5.152   2.276
11674SOL     OW35271  14.793  15.083   7.049
11674SOL    HW135272  14.792  15.003   7.100
11674SOL    HW235273  14.879  15.084   7.006
11675SOL     OW35274   9.659   9.830   2.050
11675SOL    HW135275   9.681   9.738   2.059
11675SOL    HW235276   9.743   9.876   2.053
11676SOL     OW35277   5.726   0.520   0.068
11676SOL    HW135278   5.793   0.496   0.132
11676SOL    HW235279   5.649   0.541   0.121
11677SOL     OW35280  13.722   8.385   5.790
11677SOL    HW135281  13.721   8.290   5.793
11677SOL    HW235282  13.799   8.407   5.737
11678SOL     OW35283   5.857  12.726   4.955
11678SOL    HW135284   5.875  12.698   4.865
11678SOL    HW235285   5.863  12.821   4.953
11679SOL     OW35286  10.375   4.408   2.848
11679SOL    HW135287  10.293   4.421   2.802
11679SOL    HW235288  10.350   4.391   2.939
11680SOL     OW35289   4.255   2.194   1.859
11680SOL    HW135290   4.295   2.278   1.840
11680SOL    HW235291   4.256   2.187   1.955
11681SOL     OW35292   4.136   8.691   2.236
11681SOL    HW135293   4.186   8.645   2.168
11681SOL    HW235294   4.064   8.631   2.257
11682SOL     OW35295  12.489  15.148   6.650
11682SOL    HW135296  12.407  15.126   6.693
11682SOL    HW235297  12.516  15.067   6.607
11683SOL     OW35298  14.547   8.160   6.400
11683SOL    HW135299  14.608   8.122   6.337
11683SOL    HW235300  14.487   8.088   6.421
11684SOL     OW35301   5.631  15.255   7.188
11684SOL    HW135302   5.574  15.187   7.153
11684SOL    HW235303   5.571  15.319   7.227
11685SOL     OW35304   0.724   5.669   0.207
11685SOL    HW135305   0.747   5.736   0.143
11685SOL    HW235306   0.725   5.587   0.157
11686SOL     OW35307   4.539   8.679   1.684
11686SOL    HW135308   4.615   8.727   1.650
11686SOL    HW235309   4.504   8.736   1.753
11687SOL     OW35310   6.327   6.536   2.810
11687SOL    HW135311   6.302   6.572   2.895
11687SOL    HW235312   6.418   6.509   2.821
11688SOL     OW35313   4.386  11.208   2.639
11688SOL    HW135314   4.413  11.168   2.722
11688SOL    HW235315   4.298  11.173   2.623
11689SOL     OW35316  11.489   9.303   7.350
11689SOL    HW135317  11.572   9.314   7.397
11689SOL    HW235318  11.513   9.306   7.258
11690SOL     OW35319  12.241   6.806   4.062
11690SOL    HW135320  12.185   6.769   4.130
11690SOL    HW235321  12.323   6.825   4.107
11691SOL     OW35322  11.022   7.341   3.247
11691SOL    HW135323  11.105   7.385   3.229
11691SOL    HW235324  11.047   7.251   3.267
11692SOL     OW35325  10.187   7.129   6.205
11692SOL    HW135326  10.238   7.056   6.238
11692SOL    HW235327  10.218   7.205   6.255
11693SOL     OW35328  11.325   9.000   1.738
11693SOL    HW135329  11.258   8.931   1.738
11693SOL    HW235330  11.379   8.981   1.662
11694SOL     OW35331  12.994   8.625   5.628
11694SOL    HW135332  13.055   8.680   5.677
11694SOL    HW235333  13.036   8.539   5.626
11695SOL     OW35334   5.476   3.288   0.228
11695SOL    HW135335   5.384   3.263   0.225
11695SOL    HW235336   5.522   3.218   0.181
11696SOL     OW35337  11.307   4.770   2.154
11696SOL    HW135338  11.344   4.826   2.086
11696SOL    HW235339  11.253   4.830   2.206
11697SOL     OW35340   4.839   3.729   0.404
11697SOL    HW135341   4.864   3.657   0.346
11697SOL    HW235342   4.907   3.731   0.471
11698SOL     OW35343   4.093  10.155   2.605
11698SOL    HW135344   4.175  10.116   2.575
11698SOL    HW235345   4.047  10.181   2.525
11699SOL     OW35346   9.171  10.369   1.114
11699SOL    HW135347   9.254  10.369   1.067
11699SOL    HW235348   9.119  10.301   1.072
11700SOL     OW35349   7.841   7.570   1.130
11700SOL    HW135350   7.860   7.476   1.126
11700SOL    HW235351   7.926   7.612   1.116
11701SOL     OW35352   6.369  12.283   4.498
11701SOL    HW135353   6.414  12.216   4.447
11701SOL    HW235354   6.281  12.246   4.512
11702SOL     OW35355  13.240  12.932   5.559
11702SOL    HW135356  13.294  12.982   5.498
11702SOL    HW235357  13.165  12.988   5.577
11703SOL     OW35358  10.392  15.225   6.758
11703SOL    HW135359  10.442  15.156   6.714
11703SOL    HW235360  10.420  15.306   6.716
11704SOL     OW35361   9.779  12.069   2.839
11704SOL    HW135362   9.711  12.012   2.802
11704SOL    HW235363   9.778  12.146   2.782
11705SOL     OW35364   7.466   9.362   0.386
11705SOL    HW135365   7.556   9.354   0.355
11705SOL    HW235366   7.415   9.306   0.328
11706SOL     OW35367   6.571   9.039   5.375
11706SOL    HW135368   6.540   9.066   5.288
11706SOL    HW235369   6.507   8.973   5.403
11707SOL     OW35370  12.293  11.128   5.400
11707SOL    HW135371  12.290  11.089   5.313
11707SOL    HW235372  12.269  11.220   5.386
11708SOL     OW35373   9.758  14.479   6.229
11708SOL    HW135374   9.774  14.385   6.229
11708SOL    HW235375   9.764  14.503   6.322
11709SOL     OW35376   4.638   6.993   5.416
11709SOL    HW135377   4.630   6.961   5.505
11709SOL    HW235378   4.659   7.086   5.426
11710SOL     OW35379   9.340   9.005   0.751
11710SOL    HW135380   9.264   9.059   0.773
11710SOL    HW235381   9.331   8.927   0.807
11711SOL     OW35382   7.074  12.125   4.629
11711SOL    HW135383   7.156  12.122   4.580
11711SOL    HW235384   7.093  12.180   4.705
11712SOL     OW35385   4.718   9.343   3.783
11712SOL    HW135386   4.656   9.340   3.855
11712SOL    HW235387   4.687   9.414   3.727
11713SOL     OW35388   6.921   7.598   4.048
11713SOL    HW135389   6.850   7.607   3.984
11713SOL    HW235390   6.952   7.508   4.037
11714SOL     OW35391   9.834   5.741   7.451
11714SOL    HW135392   9.818   5.817   7.507
11714SOL    HW235393   9.753   5.691   7.455
11715SOL     OW35394   8.910   6.565   1.414
11715SOL    HW135395   8.834   6.537   1.465
11715SOL    HW235396   8.941   6.644   1.459
11716SOL     OW35397   2.813  13.118   3.506
11716SOL    HW135398   2.723  13.095   3.484
11716SOL    HW235399   2.819  13.107   3.601
11717SOL     OW35400   2.179   8.168   2.301
11717SOL    HW135401   2.091   8.132   2.315
11717SOL    HW235402   2.212   8.122   2.224
11718SOL     OW35403   6.375   5.321   0.463
11718SOL    HW135404   6.326   5.403   0.471
11718SOL    HW235405   6.335   5.264   0.529
11719SOL     OW35406   9.585  11.093   4.883
11719SOL    HW135407   9.619  11.091   4.972
11719SOL    HW235408   9.630  11.020   4.839
11720SOL     OW35409  10.470   6.507   3.090
11720SOL    HW135410  10.557   6.471   3.108
11720SOL    HW235411  10.421   6.436   3.051
11721SOL     OW35412  11.713  12.297   6.117
11721SOL    HW135413  11.640  12.278   6.176
11721SOL    HW235414  11.791  12.266   6.164
11722SOL     OW35415  13.122   6.754   7.453
11722SOL    HW135416  13.075   6.731   7.372
11722SOL    HW235417  13.111   6.849   7.461
11723SOL     OW35418   6.691   9.174   1.676
11723SOL    HW135419   6.724   9.255   1.637
11723SOL    HW235420   6.698   9.109   1.606
11724SOL     OW35421   5.076  10.263   6.540
11724SOL    HW135422   5.031  10.229   6.463
11724SOL    HW235423   5.094  10.186   6.594
11725SOL     OW35424  15.018   9.540   6.920
11725SOL    HW135425  14.948   9.511   6.978
11725SOL    HW235426  15.003   9.494   6.838
11726SOL     OW35427  11.925   4.519   2.613
11726SOL    HW135428  11.908   4.596   2.666
11726SOL    HW235429  11.863   4.525   2.541
11727SOL     OW35430   5.234   6.364   5.414
11727SOL    HW135431   5.258   6.290   5.471
11727SOL    HW235432   5.231   6.326   5.326
11728SOL     OW35433   3.784   1.512   1.026
11728SOL    HW135434   3.753   1.426   0.997
11728SOL    HW235435   3.791   1.503   1.121
11729SOL     OW35436   4.933  11.361   3.388
11729SOL    HW135437   4.923  11.424   3.460
11729SOL    HW235438   4.993  11.404   3.327
11730SOL     OW35439  10.756   4.559   1.589
11730SOL    HW135440  10.758   4.508   1.670
11730SOL    HW235441  10.668   4.544   1.553
11731SOL     OW35442   4.890   0.938   1.150
11731SOL    HW135443   4.903   0.944   1.244
11731SOL    HW235444   4.925   0.852   1.126
11732SOL     OW35445   8.988   5.415   7.322
11732SOL    HW135446   9.011   5.415   7.229
11732SOL    HW235447   8.964   5.506   7.341
11733SOL     OW35448   6.353   9.199   4.714
11733SOL    HW135449   6.445   9.227   4.710
11733SOL    HW235450   6.305   9.280   4.733
11734SOL     OW35451  14.810  14.712   7.263
11734SOL    HW135452  14.730  14.719   7.315
11734SOL    HW235453  14.862  14.788   7.287
11735SOL     OW35454   2.328   4.339   0.056
11735SOL    HW135455   7.652   9.768   7.616
11735SOL    HW235456   2.405   4.323   0.001
11736SOL     OW35457  12.143   6.361   7.285
11736SOL    HW135458  12.124   6.448   7.251
11736SOL    HW235459  12.113   6.301   7.216
11737SOL     OW35460   9.411   3.669   0.752
11737SOL    HW135461   9.330   3.673   0.803
11737SOL    HW235462   9.382   3.668   0.661
11738SOL     OW35463  12.396  10.792   2.434
11738SOL    HW135464  12.329  10.777   2.367
11738SOL    HW235465  12.384  10.721   2.497
11739SOL     OW35466  10.810   5.726   4.592
11739SOL    HW135467  10.844   5.637   4.606
11739SOL    HW235468  10.889   5.781   4.591
11740SOL     OW35469   9.105  10.849   0.720
11740SOL    HW135470   9.176  10.787   0.705
11740SOL    HW235471   9.085  10.884   0.633
11741SOL     OW35472  13.371   6.053   5.411
11741SOL    HW135473  13.299   6.026   5.354
11741SOL    HW235474  13.373   5.988   5.481
11742SOL     OW35475   4.649   6.108   1.841
11742SOL    HW135476   4.744   6.102   1.827
11742SOL    HW235477   4.612   6.044   1.780
11743SOL     OW35478   6.181   5.343   0.997
11743SOL    HW135479   6.249   5.408   1.014
11743SOL    HW235480   6.228   5.264   0.972
11744SOL     OW35481   2.484   9.907   0.676
11744SOL    HW135482   2.548   9.906   0.748
11744SOL    HW235483   2.529   9.864   0.603
11745SOL     OW35484   4.080   9.320   0.751
11745SOL    HW135485   4.105   9.234   0.717
11745SOL    HW235486   4.083   9.310   0.846
11746SOL     OW35487   9.161  11.765   3.715
11746SOL    HW135488   9.067  11.748   3.725
11746SOL    HW235489   9.197  11.752   3.803
11747SOL     OW35490  11.506   7.150   5.717
11747SOL    HW135491  11.541   7.097   5.789
11747SOL    HW235492  11.529   7.100   5.638
11748SOL     OW35493   8.215   5.493   4.858
11748SOL    HW135494   8.247   5.520   4.772
11748SOL    HW235495   8.124   5.523   4.861
11749SOL     OW35496   6.505   2.894   3.136
11749SOL    HW135497   6.578   2.944   3.098
11749SOL    HW235498   6.498   2.926   3.226
11750SOL     OW35499  10.785   9.117   1.183
11750SOL    HW135500  10.860   9.127   1.124
11750SOL    HW235501  10.709   9.119   1.125
11751SOL     OW35502  14.184  12.371   7.228
11751SOL    HW135503  14.212  12.415   7.308
11751SOL    HW235504  14.182  12.278   7.251
11752SOL     OW35505   3.586   9.315   2.703
11752SOL    HW135506   3.506   9.295   2.655
11752SOL    HW235507   3.648   9.247   2.675
11753SOL     OW35508  10.765  10.950   7.210
11753SOL    HW135509  10.856  10.977   7.222
11753SOL    HW235510  10.742  10.905   7.291
11754SOL     OW35511   4.700   2.167   0.635
11754SOL    HW135512   4.781   2.212   0.611
11754SOL    HW235513   4.678   2.115   0.557
11755SOL     OW35514   7.772   9.284   1.176
11755SOL    HW135515   7.866   9.271   1.162
11755SOL    HW235516   7.753   9.367   1.132
11756SOL     OW35517   8.050   8.023   4.382
11756SOL    HW135518   8.095   8.104   4.357
11756SOL    HW235519   8.114   7.975   4.434
11757SOL     OW35520  12.417   3.019   2.649
11757SOL    HW135521  12.341   3.059   2.693
11757SOL    HW235522  12.378   2.962   2.583
11758SOL     OW35523   3.565   5.868   2.958
11758SOL    HW135524   3.575   5.892   3.050
11758SOL    HW235525   3.565   5.773   2.958
11759SOL     OW35526   3.853   8.806   3.973
11759SOL    HW135527   3.790   8.780   4.041
11759SOL    HW235528   3.900   8.726   3.951
11760SOL     OW35529   5.626   5.028   2.292
11760SOL    HW135530   5.658   5.100   2.237
11760SOL    HW235531   5.545   5.061   2.330
11761SOL     OW35532  13.430   8.143   6.932
11761SOL    HW135533  13.430   8.181   6.844
11761SOL    HW235534  13.511   8.176   6.972
11762SOL     OW35535   2.314  10.245   3.084
11762SOL    HW135536   2.376  10.281   3.020
11762SOL    HW235537   2.323  10.301   3.161
11763SOL     OW35538  14.059   6.390   5.539
11763SOL    HW135539  14.120   6.463   5.526
11763SOL    HW235540  14.107   6.330   5.597
11764SOL     OW35541  10.443  10.621   6.160
11764SOL    HW135542  10.426  10.692   6.222
11764SOL    HW235543  10.506  10.564   6.206
11765SOL     OW35544   5.049  12.411   6.696
11765SOL    HW135545   5.140  12.410   6.726
11765SOL    HW235546   5.038  12.328   6.649
11766SOL     OW35547   5.892   5.101   6.820
11766SOL    HW135548   5.824   5.036   6.836
11766SOL    HW235549   5.847   5.185   6.829
11767SOL     OW35550   8.973   7.506   7.512
11767SOL    HW135551   8.953   7.597   7.535
11767SOL    HW235552   8.897   7.456   7.544
11768SOL     OW35553  10.261  10.690   3.518
11768SOL    HW135554  10.241  10.599   3.539
11768SOL    HW235555  10.301  10.725   3.597
11769SOL     OW35556   5.474   9.075   7.070
11769SOL    HW135557   5.566   9.051   7.062
11769SOL    HW235558   5.450   9.052   7.159
11770SOL     OW35559   0.993   9.743   0.968
11770SOL    HW135560   1.006   9.655   1.004
11770SOL    HW235561   1.031   9.739   0.880
11771SOL     OW35562   2.520   2.865   1.311
11771SOL    HW135563   2.489   2.953   1.290
11771SOL    HW235564   2.615   2.870   1.305
11772SOL     OW35565   8.144   4.350   3.337
11772SOL    HW135566   8.197   4.428   3.352
11772SOL    HW235567   8.154   4.299   3.417
11773SOL     OW35568   7.353  13.295   4.724
11773SOL    HW135569   7.269  13.316   4.764
11773SOL    HW235570   7.416  13.304   4.795
11774SOL     OW35571   1.740   4.045   2.328
11774SOL    HW135572   1.744   4.051   2.232
11774SOL    HW235573   1.765   3.954   2.347
11775SOL     OW35574  13.465  13.891   5.567
11775SOL    HW135575  13.396  13.958   5.567
11775SOL    HW235576  13.505  13.898   5.653
11776SOL     OW35577  12.516  12.319   4.253
11776SOL    HW135578  12.562  12.241   4.222
11776SOL    HW235579  12.433  12.285   4.287
11777SOL     OW35580   5.550   3.651   5.024
11777SOL    HW135581   5.461   3.644   5.060
11777SOL    HW235582   5.536   3.672   4.932
11778SOL     OW35583   1.029   4.794   0.608
11778SOL    HW135584   0.952   4.844   0.637
11778SOL    HW235585   1.045   4.824   0.519
11779SOL     OW35586  13.087   7.844   3.807
11779SOL    HW135587  13.147   7.919   3.808
11779SOL    HW235588  13.145   7.768   3.801
11780SOL     OW35589  10.086   5.536   1.222
11780SOL    HW135590  10.096   5.624   1.260
11780SOL    HW235591  10.158   5.529   1.160
11781SOL     OW35592   5.293   8.660   6.203
11781SOL    HW135593   5.200   8.661   6.229
11781SOL    HW235594   5.321   8.751   6.214
11782SOL     OW35595   2.080   6.167   2.387
11782SOL    HW135596   2.018   6.238   2.401
11782SOL    HW235597   2.029   6.087   2.398
11783SOL     OW35598   0.703  10.462   0.729
11783SOL    HW135599   0.773  10.485   0.667
11783SOL    HW235600   0.725  10.374   0.758
11784SOL     OW35601  14.454   5.618   7.089
11784SOL    HW135602  14.527   5.680   7.094
11784SOL    HW235603  14.493   5.538   7.053
11785SOL     OW35604   8.291   6.473   6.830
11785SOL    HW135605   8.335   6.427   6.759
11785SOL    HW235606   8.328   6.561   6.827
11786SOL     OW35607  11.489   5.182   5.662
11786SOL    HW135608  11.460   5.170   5.572
11786SOL    HW235609  11.584   5.192   5.656
11787SOL     OW35610  13.828  14.084   6.007
11787SOL    HW135611  13.899  14.029   6.040
11787SOL    HW235612  13.837  14.080   5.912
11788SOL     OW35613   9.737  12.956   6.226
11788SOL    HW135614   9.700  12.868   6.230
11788SOL    HW235615   9.748  12.973   6.132
11789SOL     OW35616   4.802   7.122   6.418
11789SOL    HW135617   4.849   7.067   6.356
11789SOL    HW235618   4.718   7.141   6.376
11790SOL     OW35619   4.617  10.155   3.357
11790SOL    HW135620   4.568  10.084   3.397
11790SOL    HW235621   4.697  10.114   3.325
11791SOL     OW35622  11.297   9.276   4.130
11791SOL    HW135623  11.244   9.247   4.204
11791SOL    HW235624  11.387   9.279   4.164
11792SOL     OW35625   9.341   5.934   2.658
11792SOL    HW135626   9.377   5.891   2.736
11792SOL    HW235627   9.388   6.017   2.652
11793SOL     OW35628   7.326   4.692   0.613
11793SOL    HW135629   7.305   4.600   0.629
11793SOL    HW235630   7.324   4.701   0.518
11794SOL     OW35631   1.654   3.946   0.257
11794SOL    HW135632   1.601   3.885   0.206
11794SOL    HW235633   1.739   3.902   0.265
11795SOL     OW35634   7.915   8.409   2.385
11795SOL    HW135635   7.902   8.469   2.458
11795SOL    HW235636   7.830   8.405   2.342
11796SOL     OW35637   8.728   9.460   7.279
11796SOL    HW135638   8.808   9.415   7.305
11796SOL    HW235639   8.719   9.531   7.343
11797SOL     OW35640  11.534   7.651   6.066
11797SOL    HW135641  11.514   7.744   6.075
11797SOL    HW235642  11.604   7.635   6.130
11798SOL     OW35643  12.170   7.730   6.982
11798SOL    HW135644  12.080   7.760   6.974
11798SOL    HW235645  12.219   7.808   7.008
11799SOL     OW35646  11.531  12.380   4.153
11799SOL    HW135647  11.539  12.435   4.231
11799SOL    HW235648  11.443  12.344   4.157
11800SOL     OW35649   4.315  11.621   4.278
11800SOL    HW135650   4.345  11.546   4.228
11800SOL    HW235651   4.301  11.689   4.212
11801SOL     OW35652  15.151  13.291   6.876
11801SOL    HW135653  15.118  13.375   6.847
11801SOL    HW235654  15.167  13.242   6.795
11802SOL     OW35655   9.264   4.641   2.624
11802SOL    HW135656   9.283   4.701   2.696
11802SOL    HW235657   9.219   4.694   2.559
11803SOL     OW35658   9.240  10.086   5.903
11803SOL    HW135659   9.226  10.113   5.813
11803SOL    HW235660   9.155  10.054   5.933
11804SOL     OW35661   6.839  12.678   3.374
11804SOL    HW135662   6.886  12.750   3.415
11804SOL    HW235663   6.900  12.604   3.378
11805SOL     OW35664   3.829   1.548   1.972
11805SOL    HW135665   3.823   1.640   1.998
11805SOL    HW235666   3.870   1.550   1.886
11806SOL     OW35667   3.677  10.966   4.812
11806SOL    HW135668   3.635  10.890   4.852
11806SOL    HW235669   3.745  10.991   4.874
11807SOL     OW35670  10.407  11.858   6.320
11807SOL    HW135671  10.474  11.854   6.389
11807SOL    HW235672  10.382  11.951   6.317
11808SOL     OW35673  11.316  12.268   4.609
11808SOL    HW135674  11.393  12.312   4.646
11808SOL    HW235675  11.280  12.332   4.547
11809SOL     OW35676  11.638   8.300   3.727
11809SOL    HW135677  11.606   8.214   3.754
11809SOL    HW235678  11.682   8.284   3.643
11810SOL     OW35679   7.405  10.333   4.677
11810SOL    HW135680   7.397  10.325   4.582
11810SOL    HW235681   7.435  10.423   4.692
11811SOL     OW35682   5.921   5.945   3.784
11811SOL    HW135683   6.009   5.955   3.822
11811SOL    HW235684   5.870   6.015   3.824
11812SOL     OW35685   5.682   5.983   3.617
11812SOL    HW135686   5.771   5.984   3.652
11812SOL    HW235687   5.693   5.994   3.523
11813SOL     OW35688   4.845   4.426   3.331
11813SOL    HW135689   4.935   4.459   3.321
11813SOL    HW235690   4.791   4.504   3.334
11814SOL     OW35691  11.286   8.738   2.186
11814SOL    HW135692  11.206   8.752   2.137
11814SOL    HW235693  11.342   8.687   2.127
11815SOL     OW35694  12.422  12.452   7.219
11815SOL    HW135695  12.333  12.419   7.216
11815SOL    HW235696  12.452  12.447   7.128
11816SOL     OW35697  11.286  12.144   5.118
11816SOL    HW135698  11.224  12.215   5.104
11816SOL    HW235699  11.235  12.074   5.158
11817SOL     OW35700   3.704   4.970   0.701
11817SOL    HW135701   3.654   4.965   0.782
11817SOL    HW235702   3.783   5.020   0.726
11818SOL     OW35703  11.599   9.621   2.949
11818SOL    HW135704  11.687   9.600   2.980
11818SOL    HW235705  11.570   9.693   3.006
11819SOL     OW35706  10.164  12.343   5.309
11819SOL    HW135707  10.143  12.276   5.374
11819SOL    HW235708  10.237  12.392   5.348
11820SOL     OW35709  10.311   7.142   4.370
11820SOL    HW135710  10.240   7.100   4.418
11820SOL    HW235711  10.386   7.135   4.428
11821SOL     OW35712   7.274   3.729   4.954
11821SOL    HW135713   7.186   3.766   4.949
11821SOL    HW235714   7.331   3.794   4.913
11822SOL     OW35715   4.906  10.851   3.126
11822SOL    HW135716   4.933  10.827   3.214
11822SOL    HW235717   4.960  10.796   3.068
11823SOL     OW35718   8.413   8.788   1.177
11823SOL    HW135719   8.387   8.858   1.238
11823SOL    HW235720   8.444   8.835   1.100
11824SOL     OW35721  10.014   6.995   1.778
11824SOL    HW135722  10.001   6.957   1.691
11824SOL    HW235723   9.973   6.932   1.838
11825SOL     OW35724  10.598   0.927   0.450
11825SOL    HW135725  10.515   0.966   0.420
11825SOL    HW235726  10.663   0.995   0.435
11826SOL     OW35727  11.743   9.942   7.177
11826SOL    HW135728  11.704   9.986   7.252
11826SOL    HW235729  11.831   9.980   7.171
11827SOL     OW35730   7.091   9.756   3.781
11827SOL    HW135731   7.079   9.661   3.782
11827SOL    HW235732   7.090   9.781   3.874
11828SOL     OW35733   5.652   8.264   3.359
11828SOL    HW135734   5.644   8.353   3.393
11828SOL    HW235735   5.672   8.211   3.436
11829SOL     OW35736  12.154   6.727   5.548
11829SOL    HW135737  12.104   6.711   5.628
11829SOL    HW235738  12.158   6.641   5.506
11830SOL     OW35739   5.307   9.207   3.868
11830SOL    HW135740   5.230   9.233   3.919
11830SOL    HW235741   5.310   9.268   3.795
11831SOL     OW35742  10.454   6.076   7.221
11831SOL    HW135743  10.498   6.071   7.306
11831SOL    HW235744  10.464   6.167   7.194
11832SOL     OW35745   2.357   3.780   0.273
11832SOL    HW135746   2.320   3.692   0.284
11832SOL    HW235747   2.443   3.775   0.316
11833SOL     OW35748  12.782  11.771   4.110
11833SOL    HW135749  12.690  11.745   4.113
11833SOL    HW235750  12.812  11.742   4.024
11834SOL     OW35751   4.767  10.890   5.305
11834SOL    HW135752   4.739  10.925   5.390
11834SOL    HW235753   4.689  10.896   5.250
11835SOL     OW35754  11.981   8.555   2.400
11835SOL    HW135755  12.015   8.645   2.402
11835SOL    HW235756  11.903   8.557   2.455
11836SOL     OW35757   3.889   7.927   0.433
11836SOL    HW135758   3.943   7.993   0.476
11836SOL    HW235759   3.825   7.902   0.500
11837SOL     OW35760  12.046   9.795   1.826
11837SOL    HW135761  12.000   9.717   1.856
11837SOL    HW235762   1.354   9.762   1.791
11838SOL     OW35763  10.845  10.405   3.837
11838SOL    HW135764  10.835  10.418   3.932
11838SOL    HW235765  10.803  10.320   3.820
11839SOL     OW35766   8.873   8.917   4.677
11839SOL    HW135767   8.929   8.946   4.605
11839SOL    HW235768   8.800   8.874   4.634
11840SOL     OW35769   9.258   8.850   1.760
11840SOL    HW135770   9.170   8.884   1.744
11840SOL    HW235771   9.254   8.759   1.730
11841SOL     OW35772  11.465  12.574   4.891
11841SOL    HW135773  11.485  12.533   4.976
11841SOL    HW235774  11.534  12.639   4.879
11842SOL     OW35775   4.272  14.429   5.287
11842SOL    HW135776   4.288   3.747   5.265
11842SOL    HW235777   4.180  14.416   5.267
11843SOL     OW35778  13.622   9.896   6.206
11843SOL    HW135779  13.534   9.933   6.209
11843SOL    HW235780  13.675   9.962   6.161
11844SOL     OW35781   8.535  12.018   7.537
11844SOL    HW135782   8.593  11.949   7.567
11844SOL    HW235783   8.447  11.983   7.549
11845SOL     OW35784   5.094   3.949   4.628
11845SOL    HW135785   5.180   3.991   4.621
11845SOL    HW235786   5.057   3.986   4.708
11846SOL     OW35787   6.761   7.342   4.724
11846SOL    HW135788   6.841   7.394   4.731
11846SOL    HW235789   6.752   7.300   4.809
11847SOL     OW35790  10.804   7.531   4.049
11847SOL    HW135791  10.767   7.447   4.072
11847SOL    HW235792  10.740   7.571   3.989
11848SOL     OW35793  11.218  12.205   7.536
11848SOL    HW135794  11.314  12.198   7.538
11848SOL    HW235795  11.200  12.260   7.460
11849SOL     OW35796   4.706  10.786   0.596
11849SOL    HW135797   4.736  10.851   0.660
11849SOL    HW235798   4.757  10.805   0.517
11850SOL     OW35799   1.817   2.918   0.458
11850SOL    HW135800   1.843   2.928   0.550
11850SOL    HW235801   1.771   2.999   0.438
11851SOL     OW35802   5.916  11.940   3.134
11851SOL    HW135803   5.825  11.932   3.163
11851SOL    HW235804   5.911  11.997   3.057
11852SOL     OW35805  12.171  10.400   5.377
11852SOL    HW135806  12.109  10.464   5.413
11852SOL    HW235807  12.202  10.351   5.453
11853SOL     OW35808  14.706  10.621   5.900
11853SOL    HW135809  14.690  10.571   5.820
11853SOL    HW235810  14.689  10.558   5.971
11854SOL     OW35811  11.228   7.791   1.078
11854SOL    HW135812  11.224   7.741   1.160
11854SOL    HW235813  11.312   7.837   1.083
11855SOL     OW35814  10.932  12.611   2.753
11855SOL    HW135815  10.999  12.620   2.822
11855SOL    HW235816  10.863  12.672   2.779
11856SOL     OW35817  10.354  12.640   6.126
11856SOL    HW135818  10.318  12.684   6.049
11856SOL    HW235819  10.303  12.675   6.199
11857SOL     OW35820   8.684   6.714   4.715
11857SOL    HW135821   8.686   6.661   4.635
11857SOL    HW235822   8.688   6.804   4.683
11858SOL     OW35823  12.655   7.405   5.283
11858SOL    HW135824  12.666   7.374   5.373
11858SOL    HW235825  12.735   7.454   5.265
11859SOL     OW35826  10.189   9.150   0.696
11859SOL    HW135827  10.277   9.113   0.699
11859SOL    HW235828  10.203   9.243   0.676
11860SOL     OW35829   8.213  11.323   3.154
11860SOL    HW135830   8.232  11.329   3.247
11860SOL    HW235831   8.137  11.380   3.141
11861SOL     OW35832   8.349  10.480   4.144
11861SOL    HW135833   8.322  10.417   4.077
11861SOL    HW235834   8.443  10.468   4.153
11862SOL     OW35835   8.192   4.453   4.515
11862SOL    HW135836   8.105   4.494   4.518
11862SOL    HW235837   8.247   4.511   4.568
11863SOL     OW35838  14.898  12.228   6.187
11863SOL    HW135839  14.859  12.141   6.196
11863SOL    HW235840  14.844  12.284   6.242
11864SOL     OW35841   2.659   6.423   0.852
11864SOL    HW135842   2.568   6.426   0.823
11864SOL    HW235843   2.669   6.502   0.906
11865SOL     OW35844  15.494   6.407   6.907
11865SOL    HW135845  15.402   6.396   6.880
11865SOL    HW235846  15.495   6.383   7.000
11866SOL     OW35847  10.328  10.777   0.064
11866SOL    HW135848  15.760   5.384   7.598
11866SOL    HW235849  10.364  10.703   0.114
11867SOL     OW35850  10.882  10.412   4.096
11867SOL    HW135851  10.944  10.340   4.099
11867SOL    HW235852  10.851  10.421   4.187
11868SOL     OW35853   5.836  14.373   5.375
11868SOL    HW135854   5.741  14.364   5.383
11868SOL    HW235855   5.853  14.368   5.281
11869SOL     OW35856   5.468   3.560   0.613
11869SOL    HW135857   5.563   3.547   0.606
11869SOL    HW235858   5.442   3.597   0.528
11870SOL     OW35859   4.774   7.077   2.587
11870SOL    HW135860   4.839   7.146   2.596
11870SOL    HW235861   4.824   6.996   2.595
11871SOL     OW35862  10.952  11.921   4.433
11871SOL    HW135863  10.986  11.921   4.522
11871SOL    HW235864  11.030  11.924   4.377
11872SOL     OW35865  10.522   6.655   1.604
11872SOL    HW135866  10.493   6.573   1.643
11872SOL    HW235867  10.593   6.631   1.546
11873SOL     OW35868  10.996  14.182   5.853
11873SOL    HW135869  10.962  14.193   5.764
11873SOL    HW235870  10.920  14.196   5.909
11874SOL     OW35871  10.557  11.689   1.753
11874SOL    HW135872  10.516  11.714   1.836
11874SOL    HW235873  10.506  11.734   1.686
11875SOL     OW35874   5.700  12.303   2.487
11875SOL    HW135875   5.682  12.323   2.579
11875SOL    HW235876   5.783  12.347   2.469
11876SOL     OW35877   9.849  12.755   6.687
11876SOL    HW135878   9.848  12.662   6.711
11876SOL    HW235879   9.919  12.761   6.622
11877SOL     OW35880   5.959  12.119   3.329
11877SOL    HW135881   5.940  12.051   3.265
11877SOL    HW235882   6.022  12.080   3.388
11878SOL     OW35883  10.456   9.508   6.713
11878SOL    HW135884  10.537   9.543   6.750
11878SOL    HW235885  10.426   9.443   6.777
11879SOL     OW35886  11.174   8.686   2.658
11879SOL    HW135887  11.116   8.611   2.669
11879SOL    HW235888  11.229   8.685   2.737
11880SOL     OW35889   3.179   2.349   1.010
11880SOL    HW135890   3.114   2.401   1.058
11880SOL    HW235891   3.234   2.311   1.079
11881SOL     OW35892   6.966   4.370   3.554
11881SOL    HW135893   7.015   4.326   3.484
11881SOL    HW235894   6.880   4.328   3.552
11882SOL     OW35895  10.185   1.847   0.426
11882SOL    HW135896  10.250   1.910   0.456
11882SOL    HW235897  10.173   1.867   0.333
11883SOL     OW35898  10.692   7.959   5.163
11883SOL    HW135899  10.652   8.044   5.144
11883SOL    HW235900  10.687   7.950   5.258
11884SOL     OW35901  12.463  15.474   7.004
11884SOL    HW135902  12.511  15.549   7.038
11884SOL    HW235903  12.503  15.456   6.919
11885SOL     OW35904   6.592   6.860   3.736
11885SOL    HW135905   6.527   6.799   3.702
11885SOL    HW235906   6.559   6.947   3.715
11886SOL     OW35907  10.728  13.132   7.267
11886SOL    HW135908  10.765  13.187   7.336
11886SOL    HW235909  10.675  13.191   7.215
11887SOL     OW35910  12.686  13.138   6.935
11887SOL    HW135911  12.702  13.045   6.949
11887SOL    HW235912  12.592  13.149   6.947
11888SOL     OW35913  10.386  12.135   7.271
11888SOL    HW135914  10.388  12.228   7.293
11888SOL    HW235915  10.347  12.094   7.348
11889SOL     OW35916  11.807   4.553   1.482
11889SOL    HW135917   1.081   4.478   1.516
11889SOL    HW235918  11.798   4.612   1.557
11890SOL     OW35919   5.338  11.874   4.102
11890SOL    HW135920   5.414  11.898   4.049
11890SOL    HW235921   5.357  11.910   4.189
11891SOL     OW35922   3.628   4.999   3.083
11891SOL    HW135923   3.560   4.965   3.141
11891SOL    HW235924   3.615   4.953   3.000
11892SOL     OW35925  10.653   2.536   3.135
11892SOL    HW135926  10.575   2.518   3.189
11892SOL    HW235927  10.634   2.494   3.051
11893SOL     OW35928   7.070   1.176   1.458
11893SOL    HW135929   7.031   1.236   1.394
11893SOL    HW235930   7.074   1.092   1.412
11894SOL     OW35931  11.105  12.298   5.731
11894SOL    HW135932  11.152  12.289   5.648
11894SOL    HW235933  11.143  12.376   5.772
11895SOL     OW35934   3.377   5.861   0.513
11895SOL    HW135935   3.338   5.781   0.548
11895SOL    HW235936   3.420   5.902   0.588
11896SOL     OW35937   5.348   5.116   5.128
11896SOL    HW135938   5.293   5.144   5.202
11896SOL    HW235939   5.291   5.062   5.074
11897SOL     OW35940   9.871   9.039   4.916
11897SOL    HW135941   9.788   9.006   4.950
11897SOL    HW235942   9.936   9.012   4.981
11898SOL     OW35943   9.196  12.004   2.098
11898SOL    HW135944   9.109  11.981   2.068
11898SOL    HW235945   9.238  12.046   2.023
11899SOL     OW35946  14.230   6.225   6.389
11899SOL    HW135947  14.248   6.210   6.482
11899SOL    HW235948  14.299   6.176   6.344
11900SOL     OW35949   9.596   3.770   4.009
11900SOL    HW135950   9.676   3.719   4.001
11900SOL    HW235951   9.575   3.798   3.920
11901SOL     OW35952  12.642   6.414   3.506
11901SOL    HW135953  12.646   6.496   3.456
11901SOL    HW235954  12.603   6.440   3.590
11902SOL     OW35955   3.211  10.785   0.630
11902SOL    HW135956   3.204  10.810   0.722
11902SOL    HW235957   3.293  10.735   0.625
11903SOL     OW35958  10.153   9.160   4.335
11903SOL    HW135959  10.154   9.111   4.417
11903SOL    HW235960  10.145   9.092   4.268
11904SOL     OW35961   7.232  12.014   3.122
11904SOL    HW135962   7.323  12.028   3.148
11904SOL    HW235963   7.192  12.101   3.129
11905SOL     OW35964   2.285   7.145   2.055
11905SOL    HW135965   2.371   7.145   2.097
11905SOL    HW235966   2.236   7.214   2.100
11906SOL     OW35967   9.743   6.254   5.401
11906SOL    HW135968   9.830   6.276   5.369
11906SOL    HW235969   9.757   6.226   5.491
11907SOL     OW35970   6.242   3.865   4.888
11907SOL    HW135971   6.170   3.806   4.910
11907SOL    HW235972   6.266   3.842   4.798
11908SOL     OW35973   9.145   5.048   2.071
11908SOL    HW135974   9.185   5.039   1.985
11908SOL    HW235975   9.084   4.975   2.077
11909SOL     OW35976   6.824  13.964   6.890
11909SOL    HW135977   6.755  13.900   6.876
11909SOL    HW235978   6.840  13.962   6.984
11910SOL     OW35979   3.413   2.905   2.409
11910SOL    HW135980   3.346   2.933   2.347
11910SOL    HW235981   3.460   2.985   2.432
11911SOL     OW35982   2.331  10.809   2.019
11911SOL    HW135983   2.308  10.783   2.108
11911SOL    HW235984   2.330  10.727   1.969
11912SOL     OW35985   9.244   4.338   2.338
11912SOL    HW135986   9.281   4.426   2.334
11912SOL    HW235987   9.155   4.351   2.370
11913SOL     OW35988   5.672   4.620   6.387
11913SOL    HW135989   5.622   4.572   6.321
11913SOL    HW235990   5.749   4.566   6.403
11914SOL     OW35991   2.766   4.187   3.805
11914SOL    HW135992   2.755   4.097   3.774
11914SOL    HW235993   2.859   4.205   3.793
11915SOL     OW35994   7.020   6.064   0.693
11915SOL    HW135995   6.954   6.040   0.627
11915SOL    HW235996   7.102   6.028   0.660
11916SOL     OW35997  12.314   9.370   6.774
11916SOL    HW135998  12.330   9.361   6.868
11916SOL    HW235999  12.341   9.460   6.754
11917SOL     OW36000  11.239  11.481   3.803
11917SOL    HW136001  11.231  11.388   3.781
11917SOL    HW236002  11.172  11.495   3.870
11918SOL     OW36003   5.373   2.408   2.465
11918SOL    HW136004   5.320   2.425   2.387
11918SOL    HW236005   5.415   2.491   2.485
11919SOL     OW36006  11.695   5.114   2.616
11919SOL    HW136007  11.742   5.198   2.618
11919SOL    HW236008  11.644   5.117   2.535
11920SOL     OW36009   6.998  11.036   6.850
11920SOL    HW136010   7.033  10.990   6.774
11920SOL    HW236011   6.962  11.117   6.814
11921SOL     OW36012   1.311   5.416   1.555
11921SOL    HW136013   1.314   5.325   1.585
11921SOL    HW236014   1.228   5.449   1.588
11922SOL     OW36015  10.071   2.093   0.600
11922SOL    HW136016  10.059   2.007   0.640
11922SOL    HW236017  10.086   2.152   0.674
11923SOL     OW36018   6.614   6.355   6.334
11923SOL    HW136019   6.687   6.404   6.371
11923SOL    HW236020   6.536   6.397   6.369
11924SOL     OW36021   6.613  11.507   1.757
11924SOL    HW136022   6.697  11.512   1.802
11924SOL    HW236023   6.558  11.572   1.801
11925SOL     OW36024  13.766   7.128   5.846
11925SOL    HW136025  13.859   7.129   5.823
11925SOL    HW236026  13.733   7.048   5.807
11926SOL     OW36027  13.070   6.637   5.562
11926SOL    HW136028  13.067   6.556   5.511
11926SOL    HW236029  13.013   6.621   5.636
11927SOL     OW36030   4.752  14.334   6.506
11927SOL    HW136031   4.798  14.250   6.510
11927SOL    HW236032   4.684  14.327   6.573
11928SOL     OW36033   4.823  11.216   6.520
11928SOL    HW136034   4.816  11.310   6.506
11928SOL    HW236035   4.732  11.185   6.526
11929SOL     OW36036   3.853   2.341   1.001
11929SOL    HW136037   3.856   2.296   0.917
11929SOL    HW236038   3.863   2.272   1.066
11930SOL     OW36039   2.555   3.464   2.595
11930SOL    HW136040   2.625   3.464   2.530
11930SOL    HW236041   2.592   3.419   2.671
11931SOL     OW36042   6.907   5.234   1.105
11931SOL    HW136043   6.828   5.183   1.086
11931SOL    HW236044   6.979   5.173   1.089
11932SOL     OW36045   9.945  14.707   6.189
11932SOL    HW136046   9.879  14.638   6.193
11932SOL    HW236047   9.905  14.780   6.236
11933SOL     OW36048  12.329   6.850   5.111
11933SOL    HW136049  12.396   6.782   5.111
11933SOL    HW236050  12.329   6.883   5.201
11934SOL     OW36051  14.205   8.010   7.007
11934SOL    HW136052  14.191   7.931   7.059
11934SOL    HW236053  14.264   8.064   7.060
11935SOL     OW36054   6.858  10.396   0.991
11935SOL    HW136055   6.939  10.447   0.992
11935SOL    HW236056   6.790  10.460   0.969
11936SOL     OW36057  12.500  13.894   4.785
11936SOL    HW136058  12.408  13.874   4.802
11936SOL    HW236059  12.514  13.868   4.695
11937SOL     OW36060   5.691   7.542   3.574
11937SOL    HW136061   5.681   7.463   3.627
11937SOL    HW236062   5.710   7.611   3.637
11938SOL     OW36063   1.260   3.999   0.911
11938SOL    HW136064   1.222   4.000   0.998
11938SOL    HW236065   1.351   4.026   0.924
11939SOL     OW36066  13.041   5.467   5.626
11939SOL    HW136067  13.112   5.426   5.675
11939SOL    HW236068  13.062   5.453   5.534
11940SOL     OW36069   4.103   8.936   0.226
11940SOL    HW136070   4.087   8.900   0.313
11940SOL    HW236071   4.070   8.868   0.167
11941SOL     OW36072   4.554  12.028   4.729
11941SOL    HW136073   4.599  12.096   4.779
11941SOL    HW236074   4.464  12.028   4.763
11942SOL     OW36075   0.157   6.246   0.176
11942SOL    HW136076  10.866   6.315   0.187
11942SOL    HW236077   0.240   6.286   0.202
11943SOL     OW36078   3.599   5.393   1.829
11943SOL    HW136079   3.647   5.367   1.908
11943SOL    HW236080   3.667   5.404   1.762
11944SOL     OW36081   7.211   3.958   1.259
11944SOL    HW136082   7.162   4.010   1.323
11944SOL    HW236083   7.156   3.960   1.180
11945SOL     OW36084   9.458   1.838   1.982
11945SOL    HW136085   9.526   1.900   2.009
11945SOL    HW236086   9.427   1.871   1.898
11946SOL     OW36087   3.379  11.983   2.790
11946SOL    HW136088   3.288  12.003   2.811
11946SOL    HW236089   3.424  11.981   2.875
11947SOL     OW36090   4.629   7.974   5.149
11947SOL    HW136091   4.692   7.912   5.112
11947SOL    HW236092   4.614   7.942   5.238
11948SOL     OW36093  12.247  12.212   4.351
11948SOL    HW136094  12.264  12.160   4.430
11948SOL    HW236095  12.167  12.174   4.314
11949SOL     OW36096  12.756  10.504   5.385
11949SOL    HW136097  12.684  10.563   5.360
11949SOL    HW236098  12.834  10.559   5.378
11950SOL     OW36099   7.922  12.472   4.971
11950SOL    HW136100   7.877  12.468   5.055
11950SOL    HW236101   8.004  12.424   4.985
11951SOL     OW36102   3.704  10.184   2.587
11951SOL    HW136103   3.611  10.163   2.595
11951SOL    HW236104   3.719  10.251   2.655
11952SOL     OW36105   5.907   7.924   0.007
11952SOL    HW136106  11.322  13.397   7.594
11952SOL    HW236107   5.812   7.932   0.016
11953SOL     OW36108   2.299   3.155   2.735
11953SOL    HW136109   2.266   3.067   2.756
11953SOL    HW236110   2.378   3.163   2.787
11954SOL     OW36111   4.822   2.004   2.304
11954SOL    HW136112   4.897   1.959   2.266
11954SOL    HW236113   4.850   2.096   2.309
11955SOL     OW36114   0.759   8.891   0.704
11955SOL    HW136115   0.804   8.962   0.658
11955SOL    HW236116   0.674   8.929   0.729
11956SOL     OW36117  14.329  15.463   7.228
11956SOL    HW136118  14.269  15.436   7.158
11956SOL    HW236119  14.313  15.399   7.298
11957SOL     OW36120  13.448   8.893   7.355
11957SOL    HW136121  13.383   8.922   7.291
11957SOL    HW236122  13.479   8.973   7.396
11958SOL     OW36123  10.115   5.697   1.820
11958SOL    HW136124  10.070   5.639   1.759
11958SOL    HW236125  10.207   5.670   1.815
11959SOL     OW36126   4.247   5.773   2.272
11959SOL    HW136127   4.219   5.776   2.180
11959SOL    HW236128   4.166   5.764   2.322
11960SOL     OW36129   6.157   8.713   0.721
11960SOL    HW136130   6.090   8.740   0.658
11960SOL    HW236131   6.108   8.685   0.798
11961SOL     OW36132   9.707   7.190   7.611
11961SOL    HW136133   9.747   7.114   7.569
11961SOL    HW236134   9.692   7.252   7.539
11962SOL     OW36135   4.620   6.460   0.155
11962SOL    HW136136   4.587   6.436   0.068
11962SOL    HW236137   4.579   6.545   0.173
11963SOL     OW36138   8.486   5.222   5.914
11963SOL    HW136139   8.460   5.275   5.990
11963SOL    HW236140   8.501   5.135   5.950
11964SOL     OW36141   4.059   4.977   0.878
11964SOL    HW136142   4.126   5.005   0.939
11964SOL    HW236143   4.059   4.881   0.884
11965SOL     OW36144  13.590   6.290   7.179
11965SOL    HW136145  13.613   6.377   7.146
11965SOL    HW236146  13.500   6.299   7.210
11966SOL     OW36147   4.481   8.030   5.837
11966SOL    HW136148   4.418   7.978   5.787
11966SOL    HW236149   4.481   8.116   5.794
11967SOL     OW36150   9.970   1.396   0.433
11967SOL    HW136151   9.943   1.465   0.494
11967SOL    HW236152   9.915   1.321   0.456
11968SOL     OW36153  13.442   4.882   5.222
11968SOL    HW136154  13.429   4.966   5.266
11968SOL    HW236155  13.533   4.859   5.241
11969SOL     OW36156   4.408   6.078   3.064
11969SOL    HW136157   4.492   6.033   3.069
11969SOL    HW236158   4.343   6.008   3.063
11970SOL     OW36159  10.929  10.173   7.533
11970SOL    HW136160  10.852  10.161   7.477
11970SOL    HW236161  10.958  10.084   7.554
11971SOL     OW36162  13.641  12.516   6.995
11971SOL    HW136163  13.734  12.492   6.996
11971SOL    HW236164  13.639  12.604   6.957
11972SOL     OW36165   4.037   3.461   1.475
11972SOL    HW136166   4.089   3.515   1.416
11972SOL    HW236167   4.052   3.500   1.562
11973SOL     OW36168   9.131   4.815   5.978
11973SOL    HW136169   9.045   4.829   6.016
11973SOL    HW236170   9.177   4.761   6.042
11974SOL     OW36171   9.531  10.198   3.704
11974SOL    HW136172   9.521  10.107   3.675
11974SOL    HW236173   9.443  10.234   3.699
11975SOL     OW36174  11.129   5.258   6.508
11975SOL    HW136175  11.170   5.216   6.584
11975SOL    HW236176  11.046   5.212   6.497
11976SOL     OW36177   8.116   8.771   1.464
11976SOL    HW136178   8.107   8.728   1.549
11976SOL    HW236179   8.171   8.711   1.413
11977SOL     OW36180   4.589   9.163   6.058
11977SOL    HW136181   4.612   9.198   5.972
11977SOL    HW236182   4.641   9.214   6.120
11978SOL     OW36183   3.199   5.991   3.064
11978SOL    HW136184   3.209   5.951   2.978
11978SOL    HW236185   3.106   5.980   3.085
11979SOL     OW36186  11.329   6.774   2.174
11979SOL    HW136187  11.237   6.754   2.160
11979SOL    HW236188  11.353   6.828   2.099
11980SOL     OW36189   5.337  13.338   5.129
11980SOL    HW136190   5.263  13.328   5.190
11980SOL    HW236191   5.299  13.321   5.043
11981SOL     OW36192  13.086  13.157   6.239
11981SOL    HW136193  13.170  13.159   6.193
11981SOL    HW236194  13.028  13.107   6.180
11982SOL     OW36195   8.542   3.396   3.524
11982SOL    HW136196   8.616   3.437   3.479
11982SOL    HW236197   8.569   3.392   3.615
11983SOL     OW36198  10.989   6.412   3.158
11983SOL    HW136199  10.936   6.462   3.221
11983SOL    HW236200  11.064   6.469   3.139
11984SOL     OW36201   6.225  10.287   4.712
11984SOL    HW136202   6.271  10.204   4.723
11984SOL    HW236203   6.220  10.324   4.800
11985SOL     OW36204   7.714  14.177   6.987
11985SOL    HW136205   7.797  14.131   6.992
11985SOL    HW236206   7.699  14.191   6.893
11986SOL     OW36207  13.443  11.578   6.089
11986SOL    HW136208  13.499  11.629   6.148
11986SOL    HW236209  13.396  11.644   6.038
11987SOL     OW36210   5.318  12.400   2.498
11987SOL    HW136211   5.274  12.360   2.423
11987SOL    HW236212   5.335  12.328   2.558
11988SOL     OW36213   9.392   2.891   0.068
11988SOL    HW136214  14.744   8.304   7.602
11988SOL    HW236215   9.390   2.972   0.120
11989SOL     OW36216  15.648  10.254   7.618
11989SOL    HW136217  15.725  10.310   7.618
11989SOL    HW236218  15.586  10.298   7.561
11990SOL     OW36219   4.385   3.525   0.345
11990SOL    HW136220   4.478   3.549   0.349
11990SOL    HW236221   4.386   3.431   0.325
11991SOL     OW36222  11.223   4.822   6.515
11991SOL    HW136223  11.223   4.727   6.504
11991SOL    HW236224  11.183   4.856   6.435
11992SOL     OW36225  11.578   3.109   2.455
11992SOL    HW136226  11.533   3.039   2.503
11992SOL    HW236227  11.598   3.071   2.370
11993SOL     OW36228   7.331   4.540   5.676
11993SOL    HW136229   7.346   4.590   5.595
11993SOL    HW236230   7.266   4.473   5.651
11994SOL     OW36231   7.924   6.343   5.177
11994SOL    HW136232   7.866   6.267   5.174
11994SOL    HW236233   7.865   6.418   5.186
11995SOL     OW36234  11.845  10.602   2.711
11995SOL    HW136235  11.813  10.685   2.675
11995SOL    HW236236  11.937  10.598   2.683
11996SOL     OW36237   5.767  11.259   5.660
11996SOL    HW136238   5.789  11.166   5.664
11996SOL    HW236239   5.847  11.302   5.632
11997SOL     OW36240  14.520   6.211   7.370
11997SOL    HW136241  14.528   6.303   7.396
11997SOL    HW236242  14.563   6.162   7.440
11998SOL     OW36243   5.448   5.906   0.768
11998SOL    HW136244   5.440   5.878   0.677
11998SOL    HW236245   5.374   5.965   0.782
11999SOL     OW36246  12.813  11.900   6.474
11999SOL    HW136247  12.876  11.829   6.471
11999SOL    HW236248  12.818  11.942   6.388
12000SOL     OW36249   1.126   5.485   0.966
12000SOL    HW136250   1.035   5.455   0.969
12000SOL    HW236251   1.166   5.431   0.898
12001SOL     OW36252   3.412   5.040   1.916
12001SOL    HW136253   3.423   4.945   1.912
12001SOL    HW236254   3.374   5.064   1.832
12002SOL     OW36255   4.848   9.612   4.215
12002SOL    HW136256   4.865   9.603   4.121
12002SOL    HW236257   4.771   9.668   4.220
12003SOL     OW36258   4.403  10.373   2.181
12003SOL    HW136259   4.447  10.456   2.165
12003SOL    HW236260   4.310  10.393   2.178
12004SOL     OW36261   6.880  13.765   6.355
12004SOL    HW136262   6.940  13.691   6.364
12004SOL    HW236263   6.935  13.842   6.370
12005SOL     OW36264  12.454   7.588   5.662
12005SOL    HW136265  12.419   7.651   5.725
12005SOL    HW236266  12.434   7.625   5.576
12006SOL     OW36267   4.738   4.090   5.374
12006SOL    HW136268   4.810   4.153   5.373
12006SOL    HW236269   4.682   4.117   5.446
12007SOL     OW36270   6.462  12.853   6.302
12007SOL    HW136271   6.396  12.838   6.235
12007SOL    HW236272   6.497  12.766   6.321
12008SOL     OW36273   4.444  11.338   4.178
12008SOL    HW136274   4.501  11.271   4.139
12008SOL    HW236275   4.396  11.291   4.246
12009SOL     OW36276  14.041   8.028   4.750
12009SOL    HW136277  13.964   7.978   4.723
12009SOL    HW236278  14.061   8.084   4.675
12010SOL     OW36279   5.378   3.507   4.810
12010SOL    HW136280   5.436   3.500   4.735
12010SOL    HW236281   5.428   3.472   4.884
12011SOL     OW36282   6.640  12.182   2.398
12011SOL    HW136283   6.595  12.122   2.338
12011SOL    HW236284   6.695  12.125   2.451
12012SOL     OW36285   9.549   8.960   5.633
12012SOL    HW136286   9.546   9.054   5.653
12012SOL    HW236287   9.625   8.951   5.575
12013SOL     OW36288   8.360   8.503   1.935
12013SOL    HW136289   8.312   8.449   1.872
12013SOL    HW236290   8.444   8.459   1.946
12014SOL     OW36291   7.645   4.208   5.660
12014SOL    HW136292   7.638   4.266   5.736
12014SOL    HW236293   7.650   4.120   5.697
12015SOL     OW36294   9.649  12.155   3.612
12015SOL    HW136295   9.680  12.103   3.686
12015SOL    HW236296   9.640  12.244   3.647
12016SOL     OW36297   7.316   8.939   2.349
12016SOL    HW136298   7.345   9.028   2.333
12016SOL    HW236299   7.350   8.889   2.274
12017SOL     OW36300   8.715   7.548   7.274
12017SOL    HW136301   8.638   7.506   7.311
12017SOL    HW236302   8.785   7.534   7.338
12018SOL     OW36303  10.935   3.768   3.359
12018SOL    HW136304  10.982   3.851   3.357
12018SOL    HW236305  10.928   3.746   3.452
12019SOL     OW36306  14.563   8.335   6.643
12019SOL    HW136307  14.559   8.295   6.556
12019SOL    HW236308  14.516   8.418   6.633
12020SOL     OW36309   2.468   1.078   1.128
12020SOL    HW136310   2.403   1.066   1.197
12020SOL    HW236311   2.540   1.124   1.172
12021SOL     OW36312   7.981   9.833   0.835
12021SOL    HW136313   7.990   9.738   0.830
12021SOL    HW236314   8.052   9.862   0.892
12022SOL     OW36315   9.519   1.685   0.137
12022SOL    HW136316   9.459   1.663   0.066
12022SOL    HW236317   9.573   1.607   0.147
12023SOL     OW36318   6.899   8.958   0.670
12023SOL    HW136319   6.923   8.876   0.627
12023SOL    HW236320   6.966   8.972   0.736
12024SOL     OW36321   4.249   2.270   2.408
12024SOL    HW136322   4.197   2.222   2.343
12024SOL    HW236323   4.339   2.256   2.381
12025SOL     OW36324   9.976   3.912   1.824
12025SOL    HW136325  10.059   3.896   1.780
12025SOL    HW236326   9.998   3.968   1.898
12026SOL     OW36327   3.752   3.788   3.675
12026SOL    HW136328   3.748   3.799   3.770
12026SOL    HW236329   3.714   3.869   3.640
12027SOL     OW36330  11.918   2.421   3.407
12027SOL    HW136331  11.932   2.395   3.316
12027SOL    HW236332  11.919   2.516   3.406
12028SOL     OW36333   9.242   3.953   0.729
12028SOL    HW136334   9.290   3.920   0.652
12028SOL    HW236335   9.151   3.926   0.713
12029SOL     OW36336   5.148   5.073   0.736
12029SOL    HW136337   5.131   5.065   0.830
12029SOL    HW236338   5.202   5.152   0.728
12030SOL     OW36339  11.707  13.335   7.006
12030SOL    HW136340  11.778  13.362   7.065
12030SOL    HW236341  11.743  13.260   6.959
12031SOL     OW36342   3.274   9.121   1.515
12031SOL    HW136343   3.309   9.210   1.518
12031SOL    HW236344   3.240   9.111   1.426
12032SOL     OW36345  14.691   6.992   7.197
12032SOL    HW136346  14.663   6.916   7.146
12032SOL    HW236347  14.610   7.024   7.238
12033SOL     OW36348   6.887  11.268   2.743
12033SOL    HW136349   6.892  11.217   2.823
12033SOL    HW236350   6.959  11.331   2.750
12034SOL     OW36351   9.922   8.201   1.536
12034SOL    HW136352   9.846   8.146   1.554
12034SOL    HW236353   9.893   8.260   1.466
12035SOL     OW36354  13.257   7.443   6.434
12035SOL    HW136355  13.307   7.416   6.357
12035SOL    HW236356  13.189   7.376   6.444
12036SOL     OW36357   6.725  14.768   7.335
12036SOL    HW136358   6.715  14.821   7.256
12036SOL    HW236359   6.651  14.708   7.333
12037SOL     OW36360   6.504   9.341   5.412
12037SOL    HW136361   6.430   9.283   5.394
12037SOL    HW236362   6.523   9.383   5.328
12038SOL     OW36363   2.941   9.183   2.431
12038SOL    HW136364   2.859   9.183   2.382
12038SOL    HW236365   2.962   9.275   2.444
12039SOL     OW36366   6.147   4.198   0.991
12039SOL    HW136367   6.158   4.183   1.085
12039SOL    HW236368   6.187   4.122   0.949
12040SOL     OW36369   8.516  11.344   4.855
12040SOL    HW136370   8.595  11.366   4.905
12040SOL    HW236371   8.527  11.390   4.772
12041SOL     OW36372   6.623   8.450   0.849
12041SOL    HW136373   6.541   8.456   0.799
12041SOL    HW236374   6.657   8.539   0.851
12042SOL     OW36375  14.819   5.905   7.395
12042SOL    HW136376  14.886   5.838   7.380
12042SOL    HW236377  14.742   5.874   7.347
12043SOL     OW36378   5.549   6.650   4.283
12043SOL    HW136379   5.487   6.718   4.257
12043SOL    HW236380   5.536   6.640   4.377
12044SOL     OW36381   7.929   4.800   6.428
12044SOL    HW136382   7.967   4.788   6.340
12044SOL    HW236383   7.923   4.895   6.438
12045SOL     OW36384   9.777   6.744   6.331
12045SOL    HW136385   9.685   6.746   6.358
12045SOL    HW236386   9.773   6.749   6.236
12046SOL     OW36387  12.645   7.445   6.939
12046SOL    HW136388  12.654   7.367   6.993
12046SOL    HW236389  12.717   7.502   6.967
12047SOL     OW36390  13.076   9.684   5.894
12047SOL    HW136391  12.990   9.699   5.934
12047SOL    HW236392  13.110   9.607   5.940
12048SOL     OW36393  10.082   9.917   2.779
12048SOL    HW136394   9.999   9.952   2.813
12048SOL    HW236395  10.065   9.823   2.768
12049SOL     OW36396  10.525  13.266   4.705
12049SOL    HW136397  10.478  13.189   4.737
12049SOL    HW236398  10.477  13.292   4.626
12050SOL     OW36399   2.780  12.081   3.018
12050SOL    HW136400   2.794  12.173   3.042
12050SOL    HW236401   2.849  12.034   3.064
12051SOL     OW36402   2.931   8.943   0.750
12051SOL    HW136403   2.931   9.039   0.751
12051SOL    HW236404   2.909   8.918   0.840
12052SOL     OW36405   3.084   6.977   2.542
12052SOL    HW136406   3.047   7.064   2.527
12052SOL    HW236407   3.146   6.964   2.470
12053SOL     OW36408   2.525   9.173   2.757
12053SOL    HW136409   2.592   9.130   2.810
12053SOL    HW236410   2.448   9.174   2.814
12054SOL     OW36411   9.590   6.132   1.465
12054SOL    HW136412   9.642   6.177   1.531
12054SOL    HW236413   9.641   6.053   1.444
12055SOL     OW36414   9.678  11.046   1.655
12055SOL    HW136415   9.730  11.105   1.710
12055SOL    HW236416   9.716  11.056   1.568
12056SOL     OW36417  10.698   7.250   7.134
12056SOL    HW136418  10.726   7.190   7.065
12056SOL    HW236419  10.752   7.328   7.121
12057SOL     OW36420   2.856   9.619   2.787
12057SOL    HW136421   2.845   9.524   2.788
12057SOL    HW236422   2.926   9.636   2.851
12058SOL     OW36423  10.362   9.218   7.305
12058SOL    HW136424  10.334   9.188   7.219
12058SOL    HW236425  10.360   9.139   7.360
12059SOL     OW36426   1.575   9.098   1.641
12059SOL    HW136427   1.633   9.155   1.591
12059SOL    HW236428   1.510   9.067   1.577
12060SOL     OW36429   1.783  10.728   0.479
12060SOL    HW136430   1.787  10.699   0.571
12060SOL    HW236431   1.869  10.767   0.463
12061SOL     OW36432   5.344   7.456   5.517
12061SOL    HW136433   5.338   7.551   5.520
12061SOL    HW236434   5.253   7.426   5.517
12062SOL     OW36435  10.692   6.611   5.194
12062SOL    HW136436  10.679   6.705   5.201
12062SOL    HW236437  10.760   6.591   5.259
12063SOL     OW36438   8.981   3.853   0.080
12063SOL    HW136439   8.919   3.905   0.131
12063SOL    HW236440   9.016   3.790   0.142
12064SOL     OW36441  13.383   8.569   6.234
12064SOL    HW136442  13.334   8.535   6.158
12064SOL    HW236443  13.382   8.497   6.297
12065SOL     OW36444   7.245   4.020   2.203
12065SOL    HW136445   7.194   3.967   2.264
12065SOL    HW236446   7.246   3.968   2.122
12066SOL     OW36447  10.275   9.878   2.391
12066SOL    HW136448  10.371   9.871   2.390
12066SOL    HW236449  10.256   9.952   2.333
12067SOL     OW36450  12.002   7.515   4.446
12067SOL    HW136451  12.000   7.422   4.468
12067SOL    HW236452  12.089   7.528   4.407
12068SOL     OW36453   4.606   3.275   3.346
12068SOL    HW136454   4.556   3.331   3.406
12068SOL    HW236455   4.655   3.336   3.291
12069SOL     OW36456  10.540   9.107   5.889
12069SOL    HW136457  10.577   9.022   5.913
12069SOL    HW236458  10.610   9.170   5.906
12070SOL     OW36459   8.666  11.179   3.883
12070SOL    HW136460   8.592  11.237   3.867
12070SOL    HW236461   8.672  11.173   3.978
12071SOL     OW36462   1.750   6.100   1.421
12071SOL    HW136463   1.827   6.151   1.398
12071SOL    HW236464   1.715   6.144   1.499
12072SOL     OW36465   8.172  10.594   6.066
12072SOL    HW136466   8.221  10.551   6.136
12072SOL    HW236467   8.162  10.684   6.097
12073SOL     OW36468   6.118   9.856   2.453
12073SOL    HW136469   6.075   9.919   2.510
12073SOL    HW236470   6.046   9.816   2.404
12074SOL     OW36471  12.370   7.743   3.146
12074SOL    HW136472  12.357   7.671   3.085
12074SOL    HW236473  12.428   7.804   3.101
12075SOL     OW36474   8.235  10.187   3.011
12075SOL    HW136475   8.227  10.264   2.955
12075SOL    HW236476   8.159  10.190   3.068
12076SOL     OW36477  11.589   6.309   2.761
12076SOL    HW136478  11.670   6.335   2.717
12076SOL    HW236479  11.569   6.222   2.726
12077SOL     OW36480   4.138   4.312   0.645
12077SOL    HW136481   4.176   4.311   0.732
12077SOL    HW236482   4.166   4.230   0.605
12078SOL     OW36483   7.112   3.944   0.938
12078SOL    HW136484   7.043   3.895   0.981
12078SOL    HW236485   7.125   3.899   0.854
12079SOL     OW36486   7.293   5.253   2.762
12079SOL    HW136487   7.280   5.341   2.726
12079SOL    HW236488   7.309   5.198   2.685
12080SOL     OW36489  13.790  13.220   4.674
12080SOL    HW136490  13.698  13.209   4.653
12080SOL    HW236491  13.820  13.134   4.702
12081SOL     OW36492   6.726   9.453   6.992
12081SOL    HW136493   6.706   9.466   7.085
12081SOL    HW236494   6.642   9.465   6.947
12082SOL     OW36495   6.399  12.225   7.140
12082SOL    HW136496   6.383  12.189   7.053
12082SOL    HW236497   6.322  12.278   7.159
12083SOL     OW36498   1.768   2.542   0.278
12083SOL    HW136499   1.695   2.480   0.273
12083SOL    HW236500   1.728   2.627   0.264
12084SOL     OW36501   7.265   5.418   2.501
12084SOL    HW136502   7.235   5.502   2.465
12084SOL    HW236503   7.207   5.353   2.463
12085SOL     OW36504   9.103  11.819   5.647
12085SOL    HW136505   9.032  11.803   5.709
12085SOL    HW236506   9.115  11.734   5.603
12086SOL     OW36507  14.943  10.951   7.451
12086SOL    HW136508  15.004  10.982   7.385
12086SOL    HW236509  14.862  11.000   7.434
12087SOL     OW36510   5.624   2.612   0.890
12087SOL    HW136511   5.632   2.678   0.958
12087SOL    HW236512   5.602   2.531   0.938
12088SOL     OW36513  11.360   5.269   3.942
12088SOL    HW136514  11.375   5.294   4.033
12088SOL    HW236515  11.264   5.264   3.933
12089SOL     OW36516   3.049   3.296   1.576
12089SOL    HW136517   3.097   3.379   1.568
12089SOL    HW236518   3.104   3.242   1.632
12090SOL     OW36519   2.741  10.940   3.454
12090SOL    HW136520   2.834  10.963   3.451
12090SOL    HW236521   2.698  11.006   3.399
12091SOL     OW36522   6.073   5.234   5.777
12091SOL    HW136523   6.086   5.174   5.851
12091SOL    HW236524   6.013   5.187   5.719
12092SOL     OW36525   7.337   6.060   4.809
12092SOL    HW136526   7.258   6.025   4.769
12092SOL    HW236527   7.311   6.083   4.898
12093SOL     OW36528   2.969   2.006   1.910
12093SOL    HW136529   3.028   2.072   1.948
12093SOL    HW236530   3.008   1.922   1.933
12094SOL     OW36531   8.622  13.804   6.886
12094SOL    HW136532   8.648  13.790   6.977
12094SOL    HW236533   8.599  13.897   6.882
12095SOL     OW36534   8.118   5.276   5.433
12095SOL    HW136535   8.205   5.283   5.474
12095SOL    HW236536   8.136   5.249   5.343
12096SOL     OW36537  12.595  11.565   6.510
12096SOL    HW136538  12.642  11.530   6.586
12096SOL    HW236539  12.551  11.644   6.543
12097SOL     OW36540  13.910   9.047   4.772
12097SOL    HW136541  13.942   9.047   4.862
12097SOL    HW236542  13.983   9.012   4.721
12098SOL     OW36543  12.344   5.150   4.579
12098SOL    HW136544  12.396   5.129   4.501
12098SOL    HW236545  12.310   5.238   4.562
12099SOL     OW36546   4.165   7.960   4.460
12099SOL    HW136547   4.182   8.003   4.544
12099SOL    HW236548   4.072   7.937   4.463
12100SOL     OW36549   5.428   3.082   3.639
12100SOL    HW136550   5.506   3.103   3.691
12100SOL    HW236551   5.448   2.996   3.601
12101SOL     OW36552  10.384   4.817   3.866
12101SOL    HW136553  10.473   4.813   3.830
12101SOL    HW236554  10.353   4.905   3.844
12102SOL     OW36555   4.764  10.451   5.634
12102SOL    HW136556   4.795  10.360   5.635
12102SOL    HW236557   4.739  10.469   5.724
12103SOL     OW36558   6.392   4.316   4.611
12103SOL    HW136559   6.438   4.364   4.543
12103SOL    HW236560   6.460   4.268   4.658
12104SOL     OW36561   9.190   9.375   1.207
12104SOL    HW136562   9.283   9.389   1.187
12104SOL    HW236563   9.187   9.288   1.248
12105SOL     OW36564   8.506  10.272   1.453
12105SOL    HW136565   8.495  10.306   1.542
12105SOL    HW236566   8.585  10.316   1.421
12106SOL     OW36567   0.822   2.660   1.055
12106SOL    HW136568   0.791   2.747   1.081
12106SOL    HW236569   0.916   2.662   1.075
12107SOL     OW36570   5.091   4.758   5.074
12107SOL    HW136571   5.165   4.698   5.063
12107SOL    HW236572   5.106   4.827   5.009
12108SOL     OW36573   9.981  10.736   1.456
12108SOL    HW136574  10.031  10.817   1.448
12108SOL    HW236575  10.023  10.689   1.528
12109SOL     OW36576   3.180   4.656   1.316
12109SOL    HW136577   3.174   4.698   1.230
12109SOL    HW236578   3.265   4.683   1.350
12110SOL     OW36579  11.793   5.638   7.323
12110SOL    HW136580  11.852   5.632   7.398
12110SOL    HW236581  11.706   5.647   7.362
12111SOL     OW36582   1.765   9.312   0.745
12111SOL    HW136583   1.767   9.401   0.781
12111SOL    HW236584   1.750   9.324   0.651
12112SOL     OW36585  13.835  14.689   6.809
12112SOL    HW136586  13.794  14.618   6.858
12112SOL    HW236587  13.836  14.763   6.869
12113SOL     OW36588   7.743  11.800   1.740
12113SOL    HW136589   7.708  11.881   1.701
12113SOL    HW236590   7.759  11.822   1.831
12114SOL     OW36591   4.050   9.909   4.828
12114SOL    HW136592   3.975   9.908   4.769
12114SOL    HW236593   4.067   9.817   4.848
12115SOL     OW36594   7.135   8.877   3.760
12115SOL    HW136595   7.194   8.817   3.715
12115SOL    HW236596   7.113   8.943   3.694
12116SOL     OW36597  10.208  13.730   6.893
12116SOL    HW136598  10.227  13.754   6.983
12116SOL    HW236599  10.160  13.804   6.857
12117SOL     OW36600  10.517   9.760   0.489
12117SOL    HW136601  10.458   9.835   0.498
12117SOL    HW236602  10.594   9.784   0.540
12118SOL     OW36603  13.427  14.365   7.316
12118SOL    HW136604  13.431  14.402   7.405
12118SOL    HW236605  13.510  14.389   7.276
12119SOL     OW36606   7.046   8.852   2.023
12119SOL    HW136607   7.116   8.798   1.985
12119SOL    HW236608   6.983   8.863   1.951
12120SOL     OW36609  11.452   1.853   1.472
12120SOL    HW136610  11.375   1.892   1.430
12120SOL    HW236611  11.521   1.863   1.408
12121SOL     OW36612  12.939  11.967   4.231
12121SOL    HW136613  12.890  12.019   4.295
12121SOL    HW236614  12.875  11.904   4.198
12122SOL     OW36615   7.727   8.050   1.995
12122SOL    HW136616   7.646   8.050   2.046
12122SOL    HW236617   7.796   8.059   2.061
12123SOL     OW36618   8.007   5.031   6.765
12123SOL    HW136619   7.998   5.085   6.687
12123SOL    HW236620   8.080   5.070   6.813
12124SOL     OW36621   8.006   7.951   2.268
12124SOL    HW136622   7.947   8.027   2.266
12124SOL    HW236623   7.952   7.881   2.306
12125SOL     OW36624   8.811   4.057   1.760
12125SOL    HW136625   8.782   3.989   1.820
12125SOL    HW236626   8.888   4.019   1.717
12126SOL     OW36627   1.436   3.649   1.938
12126SOL    HW136628   1.502   3.688   1.995
12126SOL    HW236629  12.139   3.625   1.997
12127SOL     OW36630  10.909   8.377   4.563
12127SOL    HW136631  10.844   8.436   4.525
12127SOL    HW236632  10.993   8.406   4.527
12128SOL     OW36633  13.127   5.098   3.416
12128SOL    HW136634  13.146   5.171   3.356
12128SOL    HW236635   2.439   5.069   3.446
12129SOL     OW36636  12.485  15.083   7.373
12129SOL    HW136637  12.483  15.038   7.288
12129SOL    HW236638  12.564  15.049   7.415
12130SOL     OW36639   1.953   2.063   1.060
12130SOL    HW136640   1.875   2.055   1.004
12130SOL    HW236641   1.988   2.149   1.041
12131SOL     OW36642  12.211   4.972   5.332
12131SOL    HW136643  12.241   5.049   5.380
12131SOL    HW236644  12.242   4.898   5.383
12132SOL     OW36645   7.718   7.282   0.112
12132SOL    HW136646   7.691   7.196   0.142
12132SOL    HW236647   7.720   7.275   0.017
12133SOL     OW36648   8.585  15.248   7.551
12133SOL    HW136649   8.504  15.252   7.501
12133SOL    HW236650   8.641  15.317   7.514
12134SOL     OW36651   6.298   6.199   3.500
12134SOL    HW136652   6.208   6.221   3.474
12134SOL    HW236653   6.314   6.253   3.577
12135SOL     OW36654   3.605   5.619   0.267
12135SOL    HW136655   3.587   5.525   0.258
12135SOL    HW236656   3.638   5.628   0.356
12136SOL     OW36657  14.704  13.408   7.291
12136SOL    HW136658  14.709  13.503   7.302
12136SOL    HW236659  14.769  13.373   7.352
12137SOL     OW36660  11.749   7.596   6.764
12137SOL    HW136661  11.774   7.507   6.789
12137SOL    HW236662  11.670   7.614   6.816
12138SOL     OW36663   9.918  10.424   2.843
12138SOL    HW136664   9.836  10.457   2.882
12138SOL    HW236665   9.983  10.434   2.913
12139SOL     OW36666  10.849   3.863   2.435
12139SOL    HW136667  10.759   3.839   2.457
12139SOL    HW236668  10.844   3.956   2.412
12140SOL     OW36669  12.468   5.573   6.392
12140SOL    HW136670  12.456   5.581   6.486
12140SOL    HW236671  12.520   5.494   6.380
12141SOL     OW36672   5.137   8.505   6.909
12141SOL    HW136673   5.132   8.523   7.003
12141SOL    HW236674   5.226   8.530   6.885
12142SOL     OW36675  12.007   5.052   4.339
12142SOL    HW136676  12.003   4.973   4.285
12142SOL    HW236677  11.928   5.048   4.392
12143SOL     OW36678   7.302   2.632   1.625
12143SOL    HW136679   7.344   2.702   1.576
12143SOL    HW236680   7.375   2.581   1.661
12144SOL     OW36681   4.862   8.762   6.491
12144SOL    HW136682   4.833   8.756   6.582
12144SOL    HW236683   4.784   8.790   6.443
12145SOL     OW36684  12.785  10.666   6.619
12145SOL    HW136685  12.765  10.636   6.530
12145SOL    HW236686  12.829  10.591   6.660
12146SOL     OW36687   9.950   6.307   2.032
12146SOL    HW136688  10.002   6.247   2.086
12146SOL    HW236689   9.881   6.252   1.995
12147SOL     OW36690   3.636  10.682   3.395
12147SOL    HW136691   3.596  10.687   3.308
12147SOL    HW236692   3.575  10.628   3.446
12148SOL     OW36693  13.108   8.418   5.041
12148SOL    HW136694  13.166   8.432   5.116
12148SOL    HW236695  13.091   8.324   5.041
12149SOL     OW36696  13.696   7.388   5.360
12149SOL    HW136697  13.727   7.317   5.417
12149SOL    HW236698  13.758   7.387   5.287
12150SOL     OW36699  11.280   3.804   1.345
12150SOL    HW136700  11.371   3.823   1.371
12150SOL    HW236701  11.254   3.882   1.295
12151SOL     OW36702   8.721  12.120   5.091
12151SOL    HW136703   8.769  12.097   5.012
12151SOL    HW236704   8.652  12.054   5.097
12152SOL     OW36705   7.775   6.610   0.743
12152SOL    HW136706   7.824   6.672   0.690
12152SOL    HW236707   7.685   6.616   0.710
12153SOL     OW36708   9.612   7.560   4.620
12153SOL    HW136709   9.688   7.615   4.608
12153SOL    HW236710   9.537   7.617   4.603
12154SOL     OW36711   5.850  14.922   6.419
12154SOL    HW136712   5.822  14.851   6.477
12154SOL    HW236713   5.794  14.914   6.342
12155SOL     OW36714   8.479   6.634   5.099
12155SOL    HW136715   8.561   6.592   5.072
12155SOL    HW236716   8.412   6.589   5.047
12156SOL     OW36717   7.430  11.537   2.035
12156SOL    HW136718   7.432  11.629   2.060
12156SOL    HW236719   7.347  11.527   1.987
12157SOL     OW36720  13.324  10.465   5.597
12157SOL    HW136721  13.338  10.491   5.688
12157SOL    HW236722  13.365  10.380   5.589
12158SOL     OW36723   9.409   7.940   6.640
12158SOL    HW136724   9.354   7.862   6.651
12158SOL    HW236725   9.390   7.994   6.716
12159SOL     OW36726   2.250   6.842   1.793
12159SOL    HW136727   2.228   6.824   1.885
12159SOL    HW236728   2.322   6.782   1.774
12160SOL     OW36729  11.585   7.797   5.255
12160SOL    HW136730  11.616   7.882   5.224
12160SOL    HW236731  11.492   7.811   5.273
12161SOL     OW36732   4.554   8.414   3.333
12161SOL    HW136733   4.594   8.335   3.298
12161SOL    HW236734   4.564   8.406   3.428
12162SOL     OW36735   5.236  10.223   3.487
12162SOL    HW136736   5.234  10.204   3.581
12162SOL    HW236737   5.327  10.246   3.469
12163SOL     OW36738   8.197   4.415   0.456
12163SOL    HW136739   8.221   4.478   0.524
12163SOL    HW236740   8.128   4.459   0.406
12164SOL     OW36741  10.509   5.269   3.758
12164SOL    HW136742  10.592   5.316   3.756
12164SOL    HW236743  10.512   5.211   3.683
12165SOL     OW36744   2.845  13.166   3.905
12165SOL    HW136745   2.842  13.229   3.977
12165SOL    HW236746   2.938  13.149   3.891
12166SOL     OW36747   7.005   6.957   0.895
12166SOL    HW136748   7.020   6.879   0.948
12166SOL    HW236749   7.091   6.996   0.884
12167SOL     OW36750   8.015   9.281   1.907
12167SOL    HW136751   8.079   9.228   1.860
12167SOL    HW236752   8.015   9.365   1.860
12168SOL     OW36753  12.292   9.851   3.911
12168SOL    HW136754  12.292   9.927   3.853
12168SOL    HW236755  12.271   9.887   3.997
12169SOL     OW36756  12.478   8.384   4.017
12169SOL    HW136757  12.493   8.309   4.075
12169SOL    HW236758  12.389   8.371   3.983
12170SOL     OW36759  12.028   8.865   5.972
12170SOL    HW136760  11.997   8.914   5.896
12170SOL    HW236761  11.950   8.822   6.006
12171SOL     OW36762   9.375   5.292   2.528
12171SOL    HW136763   9.412   5.264   2.445
12171SOL    HW236764   9.342   5.211   2.568
12172SOL     OW36765   3.147   9.453   1.069
12172SOL    HW136766   3.136   9.379   1.009
12172SOL    HW236767   3.066   9.503   1.060
12173SOL     OW36768   6.847  12.900   3.754
12173SOL    HW136769   6.779  12.967   3.757
12173SOL    HW236770   6.866  12.881   3.846
12174SOL     OW36771   8.255   9.477   6.469
12174SOL    HW136772   8.239   9.535   6.543
12174SOL    HW236773   8.350   9.478   6.457
12175SOL     OW36774   3.807   7.682   1.201
12175SOL    HW136775   3.830   7.691   1.294
12175SOL    HW236776   3.874   7.734   1.156
12176SOL     OW36777   7.971   8.982   7.214
12176SOL    HW136778   8.050   9.009   7.262
12176SOL    HW236779   7.997   8.982   7.122
12177SOL     OW36780  12.709   7.980   5.246
12177SOL    HW136781  12.791   7.939   5.274
12177SOL    HW236782  12.707   8.064   5.294
12178SOL     OW36783   4.835   9.992   3.304
12178SOL    HW136784   4.900  10.046   3.348
12178SOL    HW236785   4.840  10.017   3.212
12179SOL     OW36786   4.168   7.569   3.512
12179SOL    HW136787   4.096   7.524   3.468
12179SOL    HW236788   4.211   7.620   3.443
12180SOL     OW36789  10.407  13.741   5.280
12180SOL    HW136790  10.456  13.735   5.362
12180SOL    HW236791  10.467  13.704   5.215
12181SOL     OW36792  10.424  12.287   5.420
12181SOL    HW136793  10.495  12.234   5.454
12181SOL    HW236794  10.452  12.310   5.331
12182SOL     OW36795   7.655  12.014   2.019
12182SOL    HW136796   7.617  12.076   2.081
12182SOL    HW236797   7.594  12.013   1.945
12183SOL     OW36798  10.072   0.619   0.515
12183SOL    HW136799  10.154   0.615   0.467
12183SOL    HW236800  10.068   0.536   0.563
12184SOL     OW36801  10.709  10.374   4.418
12184SOL    HW136802  10.756  10.457   4.428
12184SOL    HW236803  10.757  10.313   4.474
12185SOL     OW36804  15.164  14.259   6.295
12185SOL    HW136805  15.105  14.288   6.365
12185SOL    HW236806   4.448  14.334   6.281
12186SOL     OW36807  13.660   9.030   6.366
12186SOL    HW136808  13.603   9.106   6.382
12186SOL    HW236809  13.615   8.981   6.297
12187SOL     OW36810   0.384   3.910   0.359
12187SOL    HW136811   0.388   3.983   0.421
12187SOL    HW236812   0.312   3.856   0.392
12188SOL     OW36813   6.997   6.417   1.400
12188SOL    HW136814   6.938   6.408   1.325
12188SOL    HW236815   6.967   6.351   1.463
12189SOL     OW36816   8.717  14.189   5.852
12189SOL    HW136817   8.734  14.206   5.759
12189SOL    HW236818   8.797  14.147   5.884
12190SOL     OW36819   6.094  15.193   7.065
12190SOL    HW136820   6.064  15.255   6.999
12190SOL    HW236821   6.023  15.191   7.130
12191SOL     OW36822   9.952  10.038   6.482
12191SOL    HW136823   9.877   9.983   6.461
12191SOL    HW236824   9.992  10.058   6.397
12192SOL     OW36825  15.551   6.698   7.561
12192SOL    HW136826  15.526   6.788   7.539
12192SOL    HW236827  10.139   1.301   0.035
12193SOL     OW36828   6.724  10.186   3.316
12193SOL    HW136829   6.628  10.182   3.325
12193SOL    HW236830   6.754  10.100   3.344
12194SOL     OW36831  14.612  13.766   7.543
12194SOL    HW136832  14.531  13.716   7.542
12194SOL    HW236833  14.669  13.720   7.481
12195SOL     OW36834   7.731  13.152   5.457
12195SOL    HW136835   7.693  13.068   5.481
12195SOL    HW236836   7.655  13.207   5.435
12196SOL     OW36837   7.969  11.956   5.121
12196SOL    HW136838   7.881  11.979   5.093
12196SOL    HW236839   7.970  11.860   5.119
12197SOL     OW36840   7.859  13.529   6.361
12197SOL    HW136841   7.946  13.492   6.346
12197SOL    HW236842   7.815  13.466   6.418
12198SOL     OW36843  15.338  10.497   6.912
12198SOL    HW136844  15.324  10.455   6.828
12198SOL    HW236845  15.280  10.573   6.912
12199SOL     OW36846   9.111  11.394   6.146
12199SOL    HW136847   9.140  11.315   6.100
12199SOL    HW236848   9.190  11.447   6.155
12200SOL     OW36849   4.029   8.342   4.404
12200SOL    HW136850   4.087   8.402   4.452
12200SOL    HW236851   4.003   8.391   4.326
12201SOL     OW36852  13.945   9.002   5.048
12201SOL    HW136853  13.873   8.961   5.096
12201SOL    HW236854  14.024   8.961   5.084
12202SOL     OW36855   3.866   9.482   1.079
12202SOL    HW136856   3.829   9.433   1.153
12202SOL    HW236857   3.848   9.428   1.003
12203SOL     OW36858   6.865   8.932   5.446
12203SOL    HW136859   6.786   8.891   5.412
12203SOL    HW236860   6.906   8.972   5.370
12204SOL     OW36861   9.011   3.278   3.508
12204SOL    HW136862   8.971   3.194   3.530
12204SOL    HW236863   8.981   3.297   3.419
12205SOL     OW36864   1.331   9.680   1.237
12205SOL    HW136865   1.345   9.771   1.262
12205SOL    HW236866   1.249   9.656   1.280
12206SOL     OW36867   3.962  13.157   3.951
12206SOL    HW136868   3.898  13.212   3.996
12206SOL    HW236869   3.916  13.075   3.935
12207SOL     OW36870   4.743  12.364   2.905
12207SOL    HW136871   4.830  12.393   2.933
12207SOL    HW236872   4.734  12.397   2.816
12208SOL     OW36873  11.805  11.414   6.607
12208SOL    HW136874  11.855  11.364   6.672
12208SOL    HW236875  11.786  11.350   6.539
12209SOL     OW36876   7.600   5.762   0.132
12209SOL    HW136877   7.543   5.763   0.055
12209SOL    HW236878   7.617   5.854   0.151
12210SOL     OW36879  14.158  11.036   6.412
12210SOL    HW136880  14.101  10.960   6.418
12210SOL    HW236881  14.247  11.000   6.411
12211SOL     OW36882  10.843   1.065   0.425
12211SOL    HW136883  10.829   1.151   0.384
12211SOL    HW236884  10.931   1.071   0.462
12212SOL     OW36885   4.712  11.219   3.297
12212SOL    HW136886   4.799  11.259   3.294
12212SOL    HW236887   4.659  11.274   3.240
12213SOL     OW36888   9.839   9.724   4.460
12213SOL    HW136889   9.808   9.681   4.381
12213SOL    HW236890   9.877   9.654   4.513
12214SOL     OW36891   1.089   4.926   1.032
12214SOL    HW136892   1.061   4.871   0.959
12214SOL    HW236893   1.023   4.995   1.036
12215SOL     OW36894   7.178   6.273   5.279
12215SOL    HW136895   7.246   6.211   5.255
12215SOL    HW236896   7.175   6.335   5.206
12216SOL     OW36897   7.787   3.943   1.949
12216SOL    HW136898   7.805   4.036   1.950
12216SOL    HW236899   7.766   3.924   1.858
12217SOL     OW36900   5.353  13.861   6.829
12217SOL    HW136901   5.356  13.956   6.819
12217SOL    HW236902   5.294  13.832   6.759
12218SOL     OW36903   4.191   8.743   3.022
12218SOL    HW136904   4.204   8.786   3.106
12218SOL    HW236905   4.278   8.710   2.998
12219SOL     OW36906  12.891  13.000   3.405
12219SOL    HW136907  12.939  13.048   3.472
12219SOL    HW236908  12.799  13.019   3.423
12220SOL     OW36909   9.319   9.439   4.145
12220SOL    HW136910   9.365   9.413   4.225
12220SOL    HW236911   9.232   9.466   4.174
12221SOL     OW36912   7.897  14.068   5.275
12221SOL    HW136913   7.900  13.976   5.300
12221SOL    HW236914   7.956  14.075   5.200
12222SOL     OW36915  10.029   7.205   0.356
12222SOL    HW136916  10.109   7.190   0.407
12222SOL    HW236917   9.958   7.190   0.418
12223SOL     OW36918  12.150  10.786   3.657
12223SOL    HW136919  12.160  10.803   3.751
12223SOL    HW236920  12.066  10.741   3.650
12224SOL     OW36921   6.270  10.024   3.615
12224SOL    HW136922   6.263   9.930   3.601
12224SOL    HW236923   6.195  10.061   3.570
12225SOL     OW36924   9.920   3.018   2.780
12225SOL    HW136925   9.968   2.942   2.813
12225SOL    HW236926   9.847   2.982   2.730
12226SOL     OW36927   3.015   4.219   3.442
12226SOL    HW136928   3.070   4.287   3.402
12226SOL    HW236929   2.927   4.256   3.441
12227SOL     OW36930  13.058  10.502   5.534
12227SOL    HW136931  13.123  10.524   5.600
12227SOL    HW236932  13.085  10.550   5.456
12228SOL     OW36933  12.272   7.047   6.060
12228SOL    HW136934  12.337   7.044   6.130
12228SOL    HW236935  12.189   7.026   6.103
12229SOL     OW36936   5.216  10.531   3.424
12229SOL    HW136937   5.161  10.485   3.488
12229SOL    HW236938   5.157  10.594   3.382
12230SOL     OW36939   4.859   8.132   5.773
12230SOL    HW136940   4.808   8.194   5.720
12230SOL    HW236941   4.936   8.112   5.720
12231SOL     OW36942   8.018  10.463   4.748
12231SOL    HW136943   8.039  10.374   4.721
12231SOL    HW236944   7.922  10.466   4.748
12232SOL     OW36945   6.703   9.845   2.277
12232SOL    HW136946   6.618   9.818   2.242
12232SOL    HW236947   6.705   9.807   2.365
12233SOL     OW36948  10.726  13.017   6.171
12233SOL    HW136949  10.783  12.949   6.134
12233SOL    HW236950  10.682  12.974   6.244
12234SOL     OW36951  10.064   2.057   0.952
12234SOL    HW136952  10.001   1.987   0.966
12234SOL    HW236953  10.142   2.014   0.917
12235SOL     OW36954   0.668   4.162   0.691
12235SOL    HW136955   0.745   4.154   0.749
12235SOL    HW236956   0.676   4.249   0.652
12236SOL     OW36957   3.546  11.569   4.070
12236SOL    HW136958   3.583  11.497   4.121
12236SOL    HW236959   3.463  11.589   4.113
12237SOL     OW36960   3.205   5.039   1.689
12237SOL    HW136961   3.239   5.128   1.689
12237SOL    HW236962   3.141   5.037   1.760
12238SOL     OW36963  11.534   3.230   2.173
12238SOL    HW136964  11.585   3.262   2.099
12238SOL    HW236965  11.551   3.293   2.243
12239SOL     OW36966  10.689   9.460   1.755
12239SOL    HW136967  10.766   9.403   1.763
12239SOL    HW236968  10.707   9.532   1.816
12240SOL     OW36969   7.118  10.816   1.316
12240SOL    HW136970   7.119  10.774   1.402
12240SOL    HW236971   7.048  10.772   1.268
12241SOL     OW36972   6.306   8.501   1.726
12241SOL    HW136973   6.301   8.503   1.821
12241SOL    HW236974   6.215   8.507   1.697
12242SOL     OW36975   7.456   8.756   0.576
12242SOL    HW136976   7.440   8.847   0.550
12242SOL    HW236977   7.527   8.727   0.519
12243SOL     OW36978  12.612   5.504   5.132
12243SOL    HW136979  12.665   5.437   5.091
12243SOL    HW236980  12.627   5.583   5.080
12244SOL     OW36981  12.093   7.263   4.476
12244SOL    HW136982  12.070   7.264   4.383
12244SOL    HW236983  12.185   7.290   4.478
12245SOL     OW36984   6.960   8.059   2.056
12245SOL    HW136985   6.887   8.002   2.032
12245SOL    HW236986   6.925   8.115   2.125
12246SOL     OW36987   5.123  11.257   4.095
12246SOL    HW136988   5.051  11.199   4.071
12246SOL    HW236989   5.124  11.324   4.027
12247SOL     OW36990   3.285   9.825   4.018
12247SOL    HW136991   3.374   9.842   4.050
12247SOL    HW236992   3.248   9.911   4.000
12248SOL     OW36993  12.914  10.500   5.017
12248SOL    HW136994  12.994  10.499   4.964
12248SOL    HW236995  12.919  10.583   5.065
12249SOL     OW36996   6.028  14.429   6.529
12249SOL    HW136997   6.110  14.379   6.525
12249SOL    HW236998   5.961  14.369   6.496
12250SOL     OW36999   7.224  10.541   3.929
12250SOL    HW137000   7.184  10.603   3.990
12250SOL    HW237001   7.290  10.591   3.883
12251SOL     OW37002   8.103  12.246   4.125
12251SOL    HW137003   8.134  12.280   4.210
12251SOL    HW237004   8.056  12.319   4.086
12252SOL     OW37005   6.448  11.037   0.995
12252SOL    HW137006   6.419  10.948   0.976
12252SOL    HW237007   6.541  11.028   1.017
12253SOL     OW37008   0.480   9.647   0.621
12253SOL    HW137009   0.472   9.698   0.540
12253SOL    HW237010   0.447   9.560   0.597
12254SOL     OW37011   3.791   3.677   0.544
12254SOL    HW137012   3.868   3.652   0.595
12254SOL    HW237013   3.806   3.639   0.457
12255SOL     OW37014   5.913   3.488   2.187
12255SOL    HW137015   5.904   3.416   2.248
12255SOL    HW237016   6.002   3.521   2.201
12256SOL     OW37017  11.496  10.510   7.479
12256SOL    HW137018  11.466  10.553   7.399
12256SOL    HW237019  11.461  10.421   7.473
12257SOL     OW37020  14.684   9.721   7.255
12257SOL    HW137021  14.731   9.773   7.190
12257SOL    HW237022  14.641   9.785   7.311
12258SOL     OW37023  14.058   8.401   6.405
12258SOL    HW137024  13.973   8.361   6.423
12258SOL    HW237025  14.094   8.420   6.492
12259SOL     OW37026   1.750   7.255   1.516
12259SOL    HW137027   1.838   7.292   1.515
12259SOL    HW237028   1.693   7.329   1.538
12260SOL     OW37029  13.448   8.688   6.515
12260SOL    HW137030  13.507   8.729   6.578
12260SOL    HW237031  13.442   8.597   6.543
12261SOL     OW37032   6.420   3.584   3.502
12261SOL    HW137033   6.452   3.505   3.459
12261SOL    HW237034   6.480   3.653   3.474
12262SOL     OW37035  11.147   5.869   2.110
12262SOL    HW137036  11.119   5.894   2.022
12262SOL    HW237037  11.095   5.923   2.169
12263SOL     OW37038   5.343   6.675   0.800
12263SOL    HW137039   5.253   6.668   0.768
12263SOL    HW237040   5.358   6.769   0.808
12264SOL     OW37041   4.831  10.245   5.498
12264SOL    HW137042   4.844  10.185   5.425
12264SOL    HW237043   4.740  10.231   5.524
12265SOL     OW37044   8.423   4.824   4.204
12265SOL    HW137045   8.328   4.821   4.196
12265SOL    HW237046   8.442   4.771   4.281
12266SOL     OW37047   9.450   4.925   0.186
12266SOL    HW137048   9.542   4.951   0.186
12266SOL    HW237049   9.410   4.980   0.254
12267SOL     OW37050   5.321  11.367   3.593
12267SOL    HW137051   5.255  11.354   3.660
12267SOL    HW237052   5.370  11.285   3.590
12268SOL     OW37053   5.172  13.686   6.945
12268SOL    HW137054   5.221  13.765   6.968
12268SOL    HW237055   5.233  13.614   6.961
12269SOL     OW37056  11.043  10.770   0.988
12269SOL    HW137057  11.019  10.849   1.036
12269SOL    HW237058  11.023  10.791   0.896
12270SOL     OW37059   6.760  11.139   5.649
12270SOL    HW137060   6.670  11.170   5.638
12270SOL    HW237061   6.801  11.153   5.564
12271SOL     OW37062   5.550   7.689   6.262
12271SOL    HW137063   5.571   7.754   6.329
12271SOL    HW237064   5.610   7.617   6.279
12272SOL     OW37065  10.533   9.584   0.676
12272SOL    HW137066  10.611   9.636   0.698
12272SOL    HW237067  10.505   9.619   0.591
12273SOL     OW37068  11.101   9.770   1.727
12273SOL    HW137069  11.080   9.811   1.643
12273SOL    HW237070  11.108   9.677   1.707
12274SOL     OW37071  13.926  11.539   5.540
12274SOL    HW137072  14.008  11.497   5.515
12274SOL    HW237073  13.878  11.472   5.588
12275SOL     OW37074   8.596   2.607   3.317
12275SOL    HW137075   8.657   2.663   3.366
12275SOL    HW237076   8.621   2.618   3.226
12276SOL     OW37077   5.335   7.244   4.707
12276SOL    HW137078   5.368   7.286   4.787
12276SOL    HW237079   5.298   7.316   4.656
12277SOL     OW37080   4.397   6.806   3.990
12277SOL    HW137081   4.388   6.892   3.948
12277SOL    HW237082   4.488   6.781   3.972
12278SOL     OW37083  10.384   3.338   1.185
12278SOL    HW137084  10.327   3.368   1.255
12278SOL    HW237085  10.438   3.414   1.164
12279SOL     OW37086   8.216   4.863   5.074
12279SOL    HW137087   8.286   4.800   5.093
12279SOL    HW237088   8.261   4.935   5.030
12280SOL     OW37089  12.084   3.259   3.919
12280SOL    HW137090  11.996   3.253   3.883
12280SOL    HW237091  12.140   3.219   3.853
12281SOL     OW37092  14.483   7.821   6.820
12281SOL    HW137093  14.572   7.786   6.811
12281SOL    HW237094  14.430   7.745   6.843
12282SOL     OW37095  11.740   9.432   4.889
12282SOL    HW137096  11.758   9.374   4.963
12282SOL    HW237097  11.791   9.396   4.817
12283SOL     OW37098   3.008   4.751   2.535
12283SOL    HW137099   2.948   4.702   2.591
12283SOL    HW237100   2.956   4.824   2.501
12284SOL     OW37101   3.770   7.634   0.206
12284SOL    HW137102   3.838   7.630   0.274
12284SOL    HW237103   3.738   7.724   0.209
12285SOL     OW37104   4.584  12.058   4.061
12285SOL    HW137105   4.593  11.964   4.047
12285SOL    HW237106   4.661  12.096   4.017
12286SOL     OW37107  10.992   6.486   4.753
12286SOL    HW137108  11.060   6.426   4.783
12286SOL    HW237109  10.910   6.444   4.779
12287SOL     OW37110   8.662  11.189   2.395
12287SOL    HW137111   8.650  11.128   2.468
12287SOL    HW237112   8.756  11.191   2.381
12288SOL     OW37113   5.872   5.049   4.060
12288SOL    HW137114   5.833   4.963   4.075
12288SOL    HW237115   5.834   5.078   3.977
12289SOL     OW37116   9.898   2.578   2.302
12289SOL    HW137117   9.872   2.661   2.261
12289SOL    HW237118   9.978   2.553   2.257
12290SOL     OW37119   8.534   7.333   7.357
12290SOL    HW137120   8.499   7.287   7.281
12290SOL    HW237121   8.480   7.412   7.364
12291SOL     OW37122  12.829   6.951   7.245
12291SOL    HW137123  12.735   6.938   7.253
12291SOL    HW237124  12.841   7.045   7.255
12292SOL     OW37125   4.951   7.456   4.200
12292SOL    HW137126   4.887   7.392   4.171
12292SOL    HW237127   4.983   7.496   4.119
12293SOL     OW37128   7.395   7.430   3.902
12293SOL    HW137129   7.452   7.401   3.831
12293SOL    HW237130   7.342   7.500   3.864
12294SOL     OW37131   9.824   4.228   5.085
12294SOL    HW137132   9.904   4.179   5.105
12294SOL    HW237133   9.821   4.297   5.151
12295SOL     OW37134  14.357  12.010   6.199
12295SOL    HW137135  14.364  11.935   6.139
12295SOL    HW237136  14.376  11.973   6.285
12296SOL     OW37137   5.300  12.568   7.445
12296SOL    HW137138  15.994  12.534   7.407
12296SOL    HW237139   5.318  12.648   7.397
12297SOL     OW37140  12.587  10.940   7.137
12297SOL    HW137141  12.597  10.913   7.228
12297SOL    HW237142  12.524  11.012   7.139
12298SOL     OW37143  11.813   7.873   2.551
12298SOL    HW137144  11.841   7.953   2.596
12298SOL    HW237145  11.777   7.818   2.621
12299SOL     OW37146  11.290  11.107   5.647
12299SOL    HW137147  11.298  11.167   5.721
12299SOL    HW237148  11.233  11.153   5.585
12300SOL     OW37149   7.136   5.170   5.230
12300SOL    HW137150   7.217   5.217   5.210
12300SOL    HW237151   7.077   5.193   5.159
12301SOL     OW37152   6.336   6.917   1.893
12301SOL    HW137153   6.260   6.881   1.940
12301SOL    HW237154   6.312   7.009   1.876
12302SOL     OW37155  10.749   8.429   5.877
12302SOL    HW137156  10.828   8.422   5.823
12302SOL    HW237157  10.778   8.407   5.966
12303SOL     OW37158   6.469   2.328   0.365
12303SOL    HW137159   6.482   2.239   0.398
12303SOL    HW237160   6.490   2.321   0.271
12304SOL     OW37161   2.163   8.706   0.406
12304SOL    HW137162   2.105   8.774   0.372
12304SOL    HW237163   2.239   8.754   0.440
12305SOL     OW37164  11.205   4.716   2.457
12305SOL    HW137165  11.167   4.703   2.544
12305SOL    HW237166  11.289   4.759   2.473
12306SOL     OW37167   1.166  11.048   1.215
12306SOL    HW137168   1.112  11.097   1.277
12306SOL    HW237169   1.102  11.004   1.158
12307SOL     OW37170  12.505   7.240   6.110
12307SOL    HW137171  12.579   7.300   6.104
12307SOL    HW237172  12.534   7.160   6.066
12308SOL     OW37173   9.890   6.926   3.421
12308SOL    HW137174   9.871   6.924   3.327
12308SOL    HW237175   9.831   6.861   3.459
12309SOL     OW37176  15.431  12.242   7.544
12309SOL    HW137177  15.435  12.271   7.453
12309SOL    HW237178  15.449  12.320   7.596
12310SOL     OW37179   6.887   9.338   1.296
12310SOL    HW137180   6.879   9.294   1.381
12310SOL    HW237181   6.968   9.388   1.303
12311SOL     OW37182   2.699  11.796   2.233
12311SOL    HW137183   2.670  11.725   2.292
12311SOL    HW237184   2.701  11.874   2.289
12312SOL     OW37185   3.712   3.343   0.517
12312SOL    HW137186   3.805   3.338   0.540
12312SOL    HW237187   3.689   3.253   0.493
12313SOL     OW37188   8.645   7.162   4.282
12313SOL    HW137189   8.674   7.139   4.194
12313SOL    HW237190   8.690   7.244   4.301
12314SOL     OW37191  10.489  12.293   2.513
12314SOL    HW137192  10.531  12.272   2.596
12314SOL    HW237193  10.439  12.215   2.491
12315SOL     OW37194   5.391   1.671   2.116
12315SOL    HW137195   5.470   1.714   2.146
12315SOL    HW237196   5.377   1.705   2.027
12316SOL     OW37197   4.000   2.759   1.435
12316SOL    HW137198   4.075   2.700   1.442
12316SOL    HW237199   3.934   2.709   1.387
12317SOL     OW37200   6.003   6.582   7.579
12317SOL    HW137201   5.918   6.625   7.577
12317SOL    HW237202   6.064   6.648   7.548
12318SOL     OW37203   6.157  12.049   3.520
12318SOL    HW137204   6.206  12.114   3.471
12318SOL    HW237205   6.215  11.972   3.523
12319SOL     OW37206   4.246   6.520   3.398
12319SOL    HW137207   4.298   6.441   3.379
12319SOL    HW237208   4.269   6.542   3.488
12320SOL     OW37209  14.845   5.331   7.208
12320SOL    HW137210  14.808   5.371   7.286
12320SOL    HW237211  14.818   5.239   7.212
12321SOL     OW37212   9.479  10.844   3.780
12321SOL    HW137213   9.400  10.832   3.832
12321SOL    HW237214   9.527  10.914   3.824
12322SOL     OW37215  10.476   8.534   0.732
12322SOL    HW137216  10.389   8.565   0.707
12322SOL    HW237217  10.460   8.464   0.795
12323SOL     OW37218   3.527   1.973   2.774
12323SOL    HW137219   3.598   1.930   2.727
12323SOL    HW237220   3.448  12.703   2.744
12324SOL     OW37221  14.159   6.540   6.239
12324SOL    HW137222  14.229   6.576   6.184
12324SOL    HW237223  14.103   6.615   6.259
12325SOL     OW37224   7.848   3.793   0.998
12325SOL    HW137225   7.894   3.798   0.915
12325SOL    HW237226   7.756   3.782   0.974
12326SOL     OW37227   5.201   6.097   0.743
12326SOL    HW137228   5.212   6.186   0.710
12326SOL    HW237229   5.233   6.101   0.834
12327SOL     OW37230  13.636   7.053   4.306
12327SOL    HW137231  13.701   6.984   4.317
12327SOL    HW237232  13.576   7.042   4.380
12328SOL     OW37233   2.787   5.365   2.493
12328SOL    HW137234   2.807   5.310   2.417
12328SOL    HW237235   2.795   5.306   2.568
12329SOL     OW37236   2.193   2.593   0.914
12329SOL    HW137237   2.278   2.626   0.884
12329SOL    HW237238   2.170   2.649   0.988
12330SOL     OW37239   4.576   3.582   1.204
12330SOL    HW137240   4.585   3.622   1.117
12330SOL    HW237241   4.564   3.489   1.186
12331SOL     OW37242   5.664  13.153   4.804
12331SOL    HW137243   5.639  13.206   4.728
12331SOL    HW237244   5.582  13.110   4.830
12332SOL     OW37245  10.201   6.803   6.813
12332SOL    HW137246  10.181   6.715   6.784
12332SOL    HW237247  10.181   6.802   6.907
12333SOL     OW37248  10.021   5.272   2.419
12333SOL    HW137249   9.926   5.278   2.413
12333SOL    HW237250  10.036   5.195   2.475
12334SOL     OW37251   3.134   1.553   0.219
12334SOL    HW137252   3.105   1.515   0.302
12334SOL    HW237253   3.054   1.588   0.179
12335SOL     OW37254   6.662   8.220   1.561
12335SOL    HW137255   6.659   8.130   1.527
12335SOL    HW237256   6.608   8.218   1.640
12336SOL     OW37257  10.152  12.779   2.835
12336SOL    HW137258  10.179   2.095   2.850
12336SOL    HW237259  10.065  12.772   2.875
12337SOL     OW37260   7.956   5.476   6.435
12337SOL    HW137261   7.991   5.562   6.456
12337SOL    HW237262   7.911   5.488   6.351
12338SOL     OW37263   7.309   2.057   2.376
12338SOL    HW137264   7.371   1.985   2.379
12338SOL    HW237265   7.349   2.126   2.428
12339SOL     OW37266  13.035   5.379   7.459
12339SOL    HW137267  13.076   5.465   7.452
12339SOL    HW237268  13.075   5.327   7.389
12340SOL     OW37269   5.895   2.511   1.852
12340SOL    HW137270   5.823   2.462   1.891
12340SOL    HW237271   5.861   2.600   1.842
12341SOL     OW37272  10.013   5.732   5.392
12341SOL    HW137273  10.094   5.772   5.424
12341SOL    HW237274  10.019   5.737   5.297
12342SOL     OW37275   8.552   6.391   4.056
12342SOL    HW137276   8.497   6.393   3.978
12342SOL    HW237277   8.641   6.381   4.022
12343SOL     OW37278   8.432   8.962   0.440
12343SOL    HW137279   8.437   9.032   0.506
12343SOL    HW237280   8.383   8.892   0.483
12344SOL     OW37281  13.342   6.727   4.623
12344SOL    HW137282  13.430   6.719   4.658
12344SOL    HW237283  13.321   6.640   4.589
12345SOL     OW37284   6.349  11.281   6.936
12345SOL    HW137285   6.431  11.293   6.983
12345SOL    HW237286   6.290  11.240   6.999
12346SOL     OW37287  10.524  15.330   7.583
12346SOL    HW137288  10.596  15.340   7.521
12346SOL    HW237289   5.178   9.952   0.050
12347SOL     OW37290  11.873   6.471   5.375
12347SOL    HW137291  11.892   6.536   5.443
12347SOL    HW237292  11.915   6.391   5.408
12348SOL     OW37293   9.210  11.459   1.904
12348SOL    HW137294   9.254  11.447   1.820
12348SOL    HW237295   9.231  11.380   1.954
12349SOL     OW37296   8.929   7.855   6.894
12349SOL    HW137297   8.972   7.831   6.976
12349SOL    HW237298   8.838   7.872   6.919
12350SOL     OW37299  13.497   3.758   3.869
12350SOL    HW137300   2.799   3.814   3.859
12350SOL    HW237301   2.733   3.690   3.802
12351SOL     OW37302   6.358   8.861   5.899
12351SOL    HW137303   6.290   8.889   5.838
12351SOL    HW237304   6.428   8.925   5.889
12352SOL     OW37305   8.973   8.316   5.006
12352SOL    HW137306   9.034   8.292   4.936
12352SOL    HW237307   8.990   8.408   5.023
12353SOL     OW37308   2.894   9.205   1.114
12353SOL    HW137309   2.847   9.288   1.119
12353SOL    HW237310   2.936   9.197   1.200
12354SOL     OW37311   7.044   7.411   1.523
12354SOL    HW137312   6.974   7.407   1.588
12354SOL    HW237313   7.029   7.336   1.466
12355SOL     OW37314  15.563   8.004   7.405
12355SOL    HW137315  15.561   8.044   7.318
12355SOL    HW237316  15.541   8.075   7.465
12356SOL     OW37317   9.175  14.377   5.649
12356SOL    HW137318   9.180  14.303   5.590
12356SOL    HW237319   9.230  14.444   5.609
12357SOL     OW37320   6.429   7.522   3.235
12357SOL    HW137321   6.422   7.615   3.256
12357SOL    HW237322   6.517   7.513   3.196
12358SOL     OW37323  11.612   7.771   7.043
12358SOL    HW137324  11.576   7.774   7.132
12358SOL    HW237325  11.580   7.688   7.008
12359SOL     OW37326  10.383   9.211   2.306
12359SOL    HW137327  10.472   9.244   2.316
12359SOL    HW237328  10.333   9.257   2.373
12360SOL     OW37329   7.896  10.811   2.600
12360SOL    HW137330   7.841  10.875   2.645
12360SOL    HW237331   7.976  10.859   2.578
12361SOL     OW37332   8.059   8.957   6.935
12361SOL    HW137333   7.998   8.923   6.870
12361SOL    HW237334   8.109   9.024   6.887
12362SOL     OW37335  10.458   6.437   0.196
12362SOL    HW137336  10.492   6.423   0.107
12362SOL    HW237337  10.382   6.495   0.184
12363SOL     OW37338  12.746   5.496   4.633
12363SOL    HW137339  12.770   5.404   4.648
12363SOL    HW237340  12.710   5.525   4.717
12364SOL     OW37341   5.702  13.741   4.600
12364SOL    HW137342   5.694  13.798   4.676
12364SOL    HW237343   5.614  13.703   4.589
12365SOL     OW37344  12.629   8.120   4.802
12365SOL    HW137345  12.640   8.105   4.896
12365SOL    HW237346  12.536   8.102   4.786
12366SOL     OW37347  12.269   8.619   7.432
12366SOL    HW137348  12.354   8.646   7.466
12366SOL    HW237349  12.243   8.689   7.373
12367SOL     OW37350   2.868  12.769   3.609
12367SOL    HW137351   2.783  12.804   3.582
12367SOL    HW237352   2.848  12.683   3.646
12368SOL     OW37353   5.809   2.584   2.091
12368SOL    HW137354   5.796   2.496   2.128
12368SOL    HW237355   5.893   2.578   2.045
12369SOL     OW37356  11.300   5.210   3.125
12369SOL    HW137357  11.300   5.232   3.032
12369SOL    HW237358  11.363   5.139   3.133
12370SOL     OW37359   5.321  13.135   6.240
12370SOL    HW137360   5.230  13.162   6.249
12370SOL    HW237361   5.370  13.217   6.234
12371SOL     OW37362   6.686   3.081   1.468
12371SOL    HW137363   6.629   3.021   1.515
12371SOL    HW237364   6.770   3.075   1.513
12372SOL     OW37365   8.244  14.110   7.495
12372SOL    HW137366   8.280  14.174   7.557
12372SOL    HW237367   8.290  14.029   7.516
12373SOL     OW37368   4.095   3.824   3.360
12373SOL    HW137369   4.016   3.773   3.342
12373SOL    HW237370   4.067   3.893   3.419
12374SOL     OW37371   8.812   8.818   1.134
12374SOL    HW137372   8.779   8.743   1.183
12374SOL    HW237373   8.770   8.811   1.048
12375SOL     OW37374   6.351   5.882   6.005
12375SOL    HW137375   6.284   5.863   5.939
12375SOL    HW237376   6.300   5.910   6.082
12376SOL     OW37377   6.244   8.090   4.696
12376SOL    HW137378   6.312   8.102   4.630
12376SOL    HW237379   6.203   8.007   4.672
12377SOL     OW37380   6.936   2.850   3.615
12377SOL    HW137381   6.960   2.795   3.540
12377SOL    HW237382   7.006   2.916   3.620
12378SOL     OW37383   3.662   2.725   1.978
12378SOL    HW137384   3.586   2.670   1.999
12378SOL    HW237385   3.657   2.798   2.039
12379SOL     OW37386   5.739   4.589   4.396
12379SOL    HW137387   5.805   4.646   4.435
12379SOL    HW237388   5.786   4.508   4.376
12380SOL     OW37389   7.687  11.940   6.258
12380SOL    HW137390   7.678  12.016   6.201
12380SOL    HW237391   7.780  11.934   6.276
12381SOL     OW37392   9.685   6.987   0.584
12381SOL    HW137393   9.752   6.957   0.523
12381SOL    HW237394   9.638   6.908   0.610
12382SOL     OW37395   6.369   9.878   7.563
12382SOL    HW137396   0.986   4.462   0.035
12382SOL    HW237397   6.279   9.859   7.536
12383SOL     OW37398   9.354   7.826   4.243
12383SOL    HW137399   9.405   7.749   4.217
12383SOL    HW237400   9.264   7.805   4.216
12384SOL     OW37401   6.070   2.595   1.108
12384SOL    HW137402   6.150   2.549   1.132
12384SOL    HW237403   6.100   2.667   1.053
12385SOL     OW37404   6.791  10.303   1.857
12385SOL    HW137405   6.716  10.273   1.909
12385SOL    HW237406   6.752  10.356   1.788
12386SOL     OW37407   5.186  10.446   0.156
12386SOL    HW137408   5.120  10.515   0.152
12386SOL    HW237409   5.252  10.480   0.217
12387SOL     OW37410   3.543   2.619   0.858
12387SOL    HW137411   3.560   2.535   0.900
12387SOL    HW237412   3.448   2.622   0.847
12388SOL     OW37413   8.535   3.191   3.271
12388SOL    HW137414   8.601   3.168   3.206
12388SOL    HW237415   8.459   3.219   3.220
12389SOL     OW37416   4.617  12.371   4.534
12389SOL    HW137417   4.626  12.302   4.468
12389SOL    HW237418   4.522  12.384   4.541
12390SOL     OW37419  10.259   2.034   1.841
12390SOL    HW137420  10.336   2.055   1.895
12390SOL    HW237421  10.202   1.983   1.899
12391SOL     OW37422   2.236   7.915   0.872
12391SOL    HW137423   2.198   7.906   0.784
12391SOL    HW237424   2.248   7.825   0.902
12392SOL     OW37425   5.250   1.608   1.257
12392SOL    HW137426   5.305   1.596   1.334
12392SOL    HW237427   5.232   1.702   1.254
12393SOL     OW37428   5.824   5.276   2.888
12393SOL    HW137429   5.890   5.215   2.855
12393SOL    HW237430   5.802   5.331   2.813
12394SOL     OW37431   9.372  11.861   2.234
12394SOL    HW137432   9.411  11.809   2.163
12394SOL    HW237433   9.316  11.925   2.188
12395SOL     OW37434   9.728  12.861   5.896
12395SOL    HW137435   9.786  12.798   5.937
12395SOL    HW237436   9.786  12.921   5.848
12396SOL     OW37437   5.781   6.355   3.439
12396SOL    HW137438   5.705   6.412   3.434
12396SOL    HW237439   5.806   6.340   3.348
12397SOL     OW37440   1.787   9.842   1.791
12397SOL    HW137441   1.708   9.870   1.744
12397SOL    HW237442   1.758   9.770   1.847
12398SOL     OW37443   9.878   3.755   4.300
12398SOL    HW137444   9.844   3.696   4.233
12398SOL    HW237445   9.852   3.714   4.383
12399SOL     OW37446   5.672   7.057   3.805
12399SOL    HW137447   5.626   7.123   3.753
12399SOL    HW237448   5.660   6.976   3.756
12400SOL     OW37449   8.919   7.482   5.010
12400SOL    HW137450   8.969   7.428   5.072
12400SOL    HW237451   8.937   7.442   4.924
12401SOL     OW37452   9.008  14.928   6.583
12401SOL    HW137453   9.057  14.864   6.635
12401SOL    HW237454   9.000  15.004   6.641
12402SOL     OW37455  11.533  13.766   4.575
12402SOL    HW137456  11.498  13.813   4.650
12402SOL    HW237457  11.475  13.691   4.563
12403SOL     OW37458  12.352   2.969   3.101
12403SOL    HW137459  12.404   2.893   3.126
12403SOL    HW237460  12.305   2.994   3.181
12404SOL     OW37461  11.205  13.235   5.628
12404SOL    HW137462  11.211  13.292   5.704
12404SOL    HW237463  11.178  13.293   5.556
12405SOL     OW37464   4.608   2.146   1.337
12405SOL    HW137465   4.636   2.062   1.373
12405SOL    HW237466   4.591   2.128   1.245
12406SOL     OW37467  10.648   7.502   4.883
12406SOL    HW137468  10.663   7.492   4.789
12406SOL    HW237469  10.685   7.587   4.904
12407SOL     OW37470  10.822   5.536   3.270
12407SOL    HW137471  10.745   5.577   3.310
12407SOL    HW237472  10.882   5.519   3.342
12408SOL     OW37473   3.465   3.607   0.119
12408SOL    HW137474   3.404   3.534   0.106
12408SOL    HW237475   3.414   3.673   0.166
12409SOL     OW37476   4.502   4.389   6.107
12409SOL    HW137477   4.446   4.466   6.111
12409SOL    HW237478   4.569   4.405   6.174
12410SOL     OW37479   7.821   8.329   4.587
12410SOL    HW137480   7.834   8.423   4.601
12410SOL    HW237481   7.733   8.312   4.621
12411SOL     OW37482   5.179   0.824   0.706
12411SOL    HW137483   5.084   0.814   0.701
12411SOL    HW237484   5.196   0.908   0.662
12412SOL     OW37485  12.274   7.983   4.317
12412SOL    HW137486  12.325   8.064   4.304
12412SOL    HW237487  12.221   8.000   4.395
12413SOL     OW37488  11.676  11.674   4.091
12413SOL    HW137489  11.621  11.602   4.062
12413SOL    HW237490  11.644  11.696   4.178
12414SOL     OW37491   6.458   6.479   3.935
12414SOL    HW137492   6.459   6.394   3.979
12414SOL    HW237493   6.512   6.535   3.991
12415SOL     OW37494   7.426   6.904   2.331
12415SOL    HW137495   7.517   6.934   2.331
12415SOL    HW237496   7.375   6.985   2.324
12416SOL     OW37497   9.804   8.967   4.235
12416SOL    HW137498   9.732   8.929   4.186
12416SOL    HW237499   9.837   9.038   4.179
12417SOL     OW37500   8.652   4.235   0.640
12417SOL    HW137501   8.570   4.242   0.689
12417SOL    HW237502   8.700   4.165   0.684
12418SOL     OW37503  12.534  12.078   6.853
12418SOL    HW137504  12.509  11.998   6.898
12418SOL    HW237505  12.457  12.134   6.859
12419SOL     OW37506   3.918   6.564   4.294
12419SOL    HW137507   3.834   6.610   4.294
12419SOL    HW237508   3.982   6.632   4.276
12420SOL     OW37509  13.932   7.184   5.199
12420SOL    HW137510  13.873   7.177   5.274
12420SOL    HW237511  14.000   7.119   5.216
12421SOL     OW37512   5.664   7.499   2.288
12421SOL    HW137513   5.680   7.581   2.336
12421SOL    HW237514   5.651   7.434   2.357
12422SOL     OW37515  13.400  11.597   4.761
12422SOL    HW137516  13.409  11.672   4.819
12422SOL    HW237517  13.325  11.619   4.706
12423SOL     OW37518   8.182   4.137   0.751
12423SOL    HW137519   8.264   4.186   0.752
12423SOL    HW237520   8.116   4.200   0.778
12424SOL     OW37521   8.470   8.392   5.082
12424SOL    HW137522   8.383   8.401   5.042
12424SOL    HW237523   8.497   8.302   5.060
12425SOL     OW37524   8.000  10.890   4.817
12425SOL    HW137525   8.032  10.914   4.730
12425SOL    HW237526   7.962  10.971   4.852
12426SOL     OW37527   6.960   8.923   6.939
12426SOL    HW137528   7.033   8.918   6.877
12426SOL    HW237529   6.885   8.951   6.887
12427SOL     OW37530   4.063   8.247   0.553
12427SOL    HW137531   4.150   8.226   0.521
12427SOL    HW237532   4.023   8.301   0.484
12428SOL     OW37533   6.303  14.074   6.897
12428SOL    HW137534   6.227  14.016   6.892
12428SOL    HW237535   6.316  14.106   6.808
12429SOL     OW37536   7.047  11.809   5.859
12429SOL    HW137537   6.988  11.791   5.786
12429SOL    HW237538   7.124  11.755   5.841
12430SOL     OW37539   7.540  13.263   4.039
12430SOL    HW137540   7.553  13.347   4.083
12430SOL    HW237541   7.466  13.277   3.980
12431SOL     OW37542   9.654  10.520   2.971
12431SOL    HW137543   9.586  10.457   2.993
12431SOL    HW237544   9.614  10.577   2.906
12432SOL     OW37545   2.610   8.880   0.861
12432SOL    HW137546   2.546   8.846   0.799
12432SOL    HW237547   2.574   8.964   0.888
12433SOL     OW37548  12.321   5.898   3.629
12433SOL    HW137549  12.348   5.966   3.568
12433SOL    HW237550  12.256   5.847   3.581
12434SOL     OW37551   5.926   9.429   1.011
12434SOL    HW137552   5.856   9.459   0.953
12434SOL    HW237553   5.996   9.402   0.951
12435SOL     OW37554  11.822  10.200   5.344
12435SOL    HW137555  11.785  10.116   5.373
12435SOL    HW237556  11.859  10.238   5.424
12436SOL     OW37557   9.519   8.765   2.597
12436SOL    HW137558   9.529   8.736   2.688
12436SOL    HW237559   9.425   8.781   2.588
12437SOL     OW37560   9.468  13.592   5.188
12437SOL    HW137561   9.399  13.568   5.250
12437SOL    HW237562   9.468  13.520   5.124
12438SOL     OW37563   7.762  12.327   2.771
12438SOL    HW137564   7.840  12.347   2.720
12438SOL    HW237565   7.690  12.369   2.724
12439SOL     OW37566   2.658   7.657   1.445
12439SOL    HW137567   2.706   7.648   1.527
12439SOL    HW237568   2.694   7.737   1.406
12440SOL     OW37569   7.342   4.400   3.727
12440SOL    HW137570   7.416   4.340   3.718
12440SOL    HW237571   7.380   4.478   3.767
12441SOL     OW37572   4.148   3.802   1.091
12441SOL    HW137573   4.172   3.840   1.006
12441SOL    HW237574   4.054   3.783   1.083
12442SOL     OW37575   3.908   4.869   0.244
12442SOL    HW137576   3.975   4.915   0.193
12442SOL    HW237577   3.831   4.925   0.238
12443SOL     OW37578   6.352  11.710   7.037
12443SOL    HW137579   6.288  11.689   6.969
12443SOL    HW237580   6.430  11.737   6.988
12444SOL     OW37581  11.526  11.130   1.671
12444SOL    HW137582  11.475  11.128   1.590
12444SOL    HW237583  11.575  11.212   1.667
12445SOL     OW37584  10.215   8.976   4.978
12445SOL    HW137585  10.157   8.997   5.051
12445SOL    HW237586  10.196   8.884   4.958
12446SOL     OW37587   6.110  12.619   3.402
12446SOL    HW137588   6.131  12.529   3.378
12446SOL    HW237589   6.090  12.662   3.319
12447SOL     OW37590  12.356   6.420   6.706
12447SOL    HW137591  12.288   6.357   6.683
12447SOL    HW237592  12.403   6.434   6.624
12448SOL     OW37593   7.686   9.739   0.989
12448SOL    HW137594   7.719   9.725   1.078
12448SOL    HW237595   7.723   9.823   0.963
12449SOL     OW37596   6.358   8.608   6.000
12449SOL    HW137597   6.273   8.604   6.043
12449SOL    HW237598   6.359   8.693   5.957
12450SOL     OW37599   6.074   1.755   1.492
12450SOL    HW137600   5.998   1.759   1.434
12450SOL    HW237601   6.043   1.794   1.574
12451SOL     OW37602   8.690  12.196   5.887
12451SOL    HW137603   8.639  12.162   5.813
12451SOL    HW237604   8.709  12.286   5.864
12452SOL     OW37605  10.327  12.400   4.018
12452SOL    HW137606  10.345  12.410   4.112
12452SOL    HW237607  10.338  12.306   4.001
12453SOL     OW37608  13.291   9.832   6.216
12453SOL    HW137609  13.264   9.903   6.274
12453SOL    HW237610  13.299   9.756   6.274
12454SOL     OW37611   5.477   4.226   4.231
12454SOL    HW137612   5.545   4.286   4.201
12454SOL    HW237613   5.510   4.139   4.209
12455SOL     OW37614  10.757   2.197   1.267
12455SOL    HW137615  10.822   2.207   1.199
12455SOL    HW237616  10.705   2.278   1.263
12456SOL     OW37617   5.200  10.815   6.302
12456SOL    HW137618   5.170  10.890   6.252
12456SOL    HW237619   5.130  10.797   6.365
12457SOL     OW37620  10.845   3.661   3.624
12457SOL    HW137621  10.789   3.666   3.703
12457SOL    HW237622  10.808   3.590   3.573
12458SOL     OW37623  13.857  12.318   7.270
12458SOL    HW137624  13.945  12.354   7.282
12458SOL    HW237625  13.811  12.383   7.216
12459SOL     OW37626   9.982   5.390   4.549
12459SOL    HW137627   9.918   5.457   4.523
12459SOL    HW237628  10.065   5.437   4.553
12460SOL     OW37629   8.683  11.716   1.848
12460SOL    HW137630   8.738  11.660   1.792
12460SOL    HW237631   8.598  11.716   1.805
12461SOL     OW37632   6.878   7.426   6.606
12461SOL    HW137633   6.849   7.511   6.640
12461SOL    HW237634   6.884   7.370   6.684
12462SOL     OW37635   2.665   8.146   0.194
12462SOL    HW137636   2.666   8.069   0.136
12462SOL    HW237637   2.734   8.128   0.258
12463SOL     OW37638   7.678   6.405   3.345
12463SOL    HW137639   7.715   6.489   3.317
12463SOL    HW237640   7.753   6.354   3.374
12464SOL     OW37641  12.895  11.084   6.240
12464SOL    HW137642  12.946  11.053   6.314
12464SOL    HW237643  12.854  11.005   6.204
12465SOL     OW37644   6.300   8.067   5.422
12465SOL    HW137645   6.374   8.048   5.480
12465SOL    HW237646   6.237   7.998   5.440
12466SOL     OW37647   7.950   7.456   3.469
12466SOL    HW137648   7.901   7.374   3.477
12466SOL    HW237649   7.913   7.513   3.536
12467SOL     OW37650  12.320   4.337   3.672
12467SOL    HW137651  12.243   4.381   3.709
12467SOL    HW237652  12.309   4.345   3.578
12468SOL     OW37653   5.884  11.808   5.125
12468SOL    HW137654   5.830  11.855   5.188
12468SOL    HW237655   5.859  11.716   5.135
12469SOL     OW37656  11.177   1.794   2.021
12469SOL    HW137657  11.083   1.780   2.015
12469SOL    HW237658  11.194   1.803   2.115
12470SOL     OW37659   3.142  12.227   3.810
12470SOL    HW137660   3.058  12.268   3.791
12470SOL    HW237661   3.206  12.284   3.769
12471SOL     OW37662   9.076  13.010   5.020
12471SOL    HW137663   8.997  13.064   5.025
12471SOL    HW237664   9.072  12.969   4.934
12472SOL     OW37665   5.963   3.983   1.417
12472SOL    HW137666   5.971   3.894   1.383
12472SOL    HW237667   5.873   3.990   1.448
12473SOL     OW37668   7.891  13.789   5.340
12473SOL    HW137669   7.841  13.715   5.304
12473SOL    HW237670   7.960  13.748   5.392
12474SOL     OW37671   3.168   6.768   2.306
12474SOL    HW137672   3.089   6.736   2.262
12474SOL    HW237673   3.233   6.775   2.236
12475SOL     OW37674   9.524  11.747   7.052
12475SOL    HW137675   9.480  11.807   7.112
12475SOL    HW237676   9.614  11.780   7.048
12476SOL     OW37677  11.480   5.298   7.450
12476SOL    HW137678  11.534   5.329   7.522
12476SOL    HW237679  11.528   5.323   7.371
12477SOL     OW37680   6.783   9.700   4.235
12477SOL    HW137681   6.859   9.747   4.269
12477SOL    HW237682   6.768   9.737   4.148
12478SOL     OW37683  11.555   5.300   6.250
12478SOL    HW137684  11.515   5.220   6.283
12478SOL    HW237685  11.640   5.272   6.216
12479SOL     OW37686   4.608  12.513   6.322
12479SOL    HW137687   4.682  12.523   6.381
12479SOL    HW237688   4.585  12.603   6.297
12480SOL     OW37689   9.302   6.309   4.498
12480SOL    HW137690   9.337   6.264   4.575
12480SOL    HW237691   9.215   6.273   4.486
12481SOL     OW37692   3.421   6.398   0.340
12481SOL    HW137693   3.462   6.461   0.400
12481SOL    HW237694   3.373   6.338   0.397
12482SOL     OW37695  10.489   0.530   0.129
12482SOL    HW137696  10.423   0.533   0.061
12482SOL    HW237697  10.495   0.438   0.153
12483SOL     OW37698   5.807   6.116   7.356
12483SOL    HW137699   5.892   6.152   7.383
12483SOL    HW237700   5.767   6.085   7.437
12484SOL     OW37701   7.364   8.736   5.759
12484SOL    HW137702   7.398   8.726   5.670
12484SOL    HW237703   7.370   8.648   5.797
12485SOL     OW37704   6.178   7.066   1.317
12485SOL    HW137705   6.091   7.062   1.357
12485SOL    HW237706   6.234   7.014   1.374
12486SOL     OW37707   4.951   4.327   5.730
12486SOL    HW137708   4.944   4.386   5.806
12486SOL    HW237709   4.895   4.367   5.664
12487SOL     OW37710   4.715   8.585   0.463
12487SOL    HW137711   4.709   8.570   0.369
12487SOL    HW237712   4.769   8.663   0.472
12488SOL     OW37713   8.205   7.154   3.126
12488SOL    HW137714   8.255   7.148   3.207
12488SOL    HW237715   8.123   7.196   3.152
12489SOL     OW37716   6.447   8.921   7.175
12489SOL    HW137717   6.518   8.964   7.223
12489SOL    HW237718   6.451   8.958   7.087
12490SOL     OW37719   3.562   8.547   1.362
12490SOL    HW137720   3.493   8.581   1.419
12490SOL    HW237721   3.603   8.626   1.325
12491SOL     OW37722   9.060   3.393   1.595
12491SOL    HW137723   9.050   3.432   1.682
12491SOL    HW237724   9.056   3.299   1.611
12492SOL     OW37725  10.569  12.360   5.177
12492SOL    HW137726  10.594  12.435   5.123
12492SOL    HW237727  10.652  12.322   5.205
12493SOL     OW37728   4.795   0.510   0.546
12493SOL    HW137729   4.780   0.578   0.481
12493SOL    HW237730   4.829   0.436   0.496
12494SOL     OW37731   7.141   3.095   3.342
12494SOL    HW137732   7.211   3.140   3.295
12494SOL    HW237733   7.114   3.024   3.284
12495SOL     OW37734  10.990  10.024   5.874
12495SOL    HW137735  10.933  10.059   5.806
12495SOL    HW237736  10.967  10.075   5.953
12496SOL     OW37737   6.006  12.768   5.517
12496SOL    HW137738   6.102  12.764   5.514
12496SOL    HW237739   5.980  12.791   5.428
12497SOL     OW37740   6.525   4.766   1.405
12497SOL    HW137741   6.569   4.808   1.332
12497SOL    HW237742   6.483   4.837   1.452
12498SOL     OW37743   8.917  15.158   7.617
12498SOL    HW137744   3.485   9.798   0.079
12498SOL    HW237745   8.897  15.226   7.554
12499SOL     OW37746  11.286  10.188   3.087
12499SOL    HW137747  11.231  10.226   3.156
12499SOL    HW237748  11.292  10.095   3.109
12500SOL     OW37749   8.543   0.939   0.205
12500SOL    HW137750   8.551   1.024   0.249
12500SOL    HW237751   8.603   0.945   0.131
12501SOL     OW37752  12.325   6.134   3.428
12501SOL    HW137753  12.349   6.187   3.351
12501SOL    HW237754  12.278   6.195   3.485
12502SOL     OW37755   8.749   5.532   6.827
12502SOL    HW137756   8.822   5.549   6.886
12502SOL    HW237757   8.786   5.546   6.740
12503SOL     OW37758  10.034  14.326   6.001
12503SOL    HW137759  10.010  14.413   6.035
12503SOL    HW237760   9.950  14.284   5.984
12504SOL     OW37761   9.668   5.576   1.924
12504SOL    HW137762   9.742   5.610   1.974
12504SOL    HW237763   9.600   5.642   1.935
12505SOL     OW37764   5.317  10.903   2.892
12505SOL    HW137765   5.344  10.813   2.873
12505SOL    HW237766   5.358  10.956   2.823
12506SOL     OW37767   1.255   9.073   0.418
12506SOL    HW137768   1.345   9.099   0.439
12506SOL    HW237769   1.265   8.995   0.363
12507SOL     OW37770  14.096   6.670   4.973
12507SOL    HW137771  14.075   6.763   4.964
12507SOL    HW237772  14.184   6.668   5.011
12508SOL     OW37773   5.959   7.101   7.230
12508SOL    HW137774   6.026   7.106   7.298
12508SOL    HW237775   5.879   7.079   7.277
12509SOL     OW37776   6.845  12.613   4.740
12509SOL    HW137777   6.922  12.668   4.727
12509SOL    HW237778   6.837  12.604   4.835
12510SOL     OW37779  12.443   5.223   4.122
12510SOL    HW137780  12.514   5.282   4.098
12510SOL    HW237781  12.369   5.281   4.140
12511SOL     OW37782   2.735   7.928   1.155
12511SOL    HW137783   2.827   7.926   1.129
12511SOL    HW237784   2.703   7.840   1.134
12512SOL     OW37785   5.515   9.866   4.399
12512SOL    HW137786   5.599   9.910   4.412
12512SOL    HW237787   5.538   9.777   4.374
12513SOL     OW37788   2.829  11.465   3.063
12513SOL    HW137789   2.767  11.430   3.127
12513SOL    HW237790   2.903  11.496   3.116
12514SOL     OW37791   6.165   7.170   3.249
12514SOL    HW137792   6.115   7.103   3.296
12514SOL    HW237793   6.146   7.252   3.296
12515SOL     OW37794  14.757   6.083   7.050
12515SOL    HW137795  14.822   6.031   7.002
12515SOL    HW237796  14.785   6.174   7.036
12516SOL     OW37797  11.187   5.143   4.269
12516SOL    HW137798  11.183   5.048   4.278
12516SOL    HW237799  11.103   5.167   4.231
12517SOL     OW37800   4.514   7.548   0.587
12517SOL    HW137801   4.482   7.583   0.504
12517SOL    HW237802   4.439   7.552   0.646
12518SOL     OW37803   2.390   3.752   2.709
12518SOL    HW137804   2.304   3.786   2.685
12518SOL    HW237805   2.424   3.712   2.629
12519SOL     OW37806   6.808  13.213   6.959
12519SOL    HW137807   6.849  13.145   7.012
12519SOL    HW237808   6.875  13.281   6.951
12520SOL     OW37809   0.195   2.219   0.011
12520SOL    HW137810   5.640   7.648   7.566
12520SOL    HW237811   5.525   7.550   7.578
12521SOL     OW37812  11.327   8.072   4.931
12521SOL    HW137813  11.389   8.062   4.859
12521SOL    HW237814  11.338   8.162   4.961
12522SOL     OW37815   7.297   2.774   0.496
12522SOL    HW137816   7.348   2.696   0.517
12522SOL    HW237817   7.228   2.776   0.562
12523SOL     OW37818   0.929  11.213   0.776
12523SOL    HW137819   0.974  11.150   0.719
12523SOL    HW237820   0.876  11.159   0.835
12524SOL     OW37821  11.590   8.991   3.582
12524SOL    HW137822  11.614   8.903   3.612
12524SOL    HW237823  11.539   9.028   3.653
12525SOL     OW37824  11.585  10.990   3.705
12525SOL    HW137825  11.653  10.928   3.678
12525SOL    HW237826  11.631  11.072   3.722
12526SOL     OW37827   8.018   5.334   7.096
12526SOL    HW137828   8.020   5.248   7.139
12526SOL    HW237829   7.925   5.356   7.090
12527SOL     OW37830   8.452   3.583   1.938
12527SOL    HW137831   8.428   3.499   1.898
12527SOL    HW237832   8.427   3.573   2.030
12528SOL     OW37833   4.323  12.592   4.158
12528SOL    HW137834   4.296  12.527   4.223
12528SOL    HW237835   4.298  12.554   4.074
12529SOL     OW37836  11.953  13.255   5.580
12529SOL    HW137837  11.880  13.269   5.520
12529SOL    HW237838  12.030  13.288   5.533
12530SOL     OW37839   9.935   7.495   6.727
12530SOL    HW137840   9.958   7.402   6.733
12530SOL    HW237841  10.018   7.541   6.738
12531SOL     OW37842  13.222  12.588   7.185
12531SOL    HW137843  13.291  12.637   7.228
12531SOL    HW237844  13.257  12.568   7.098
12532SOL     OW37845   4.247   1.461   1.755
12532SOL    HW137846   4.336   1.443   1.724
12532SOL    HW237847   4.248   1.555   1.776
12533SOL     OW37848   7.869   9.327   2.393
12533SOL    HW137849   7.931   9.392   2.362
12533SOL    HW237850   7.787   9.349   2.348
12534SOL     OW37851   5.648   8.122   1.774
12534SOL    HW137852   5.593   8.068   1.717
12534SOL    HW237853   5.724   8.144   1.720
12535SOL     OW37854  10.185   8.804   4.452
12535SOL    HW137855  10.248   8.843   4.391
12535SOL    HW237856  10.107   8.789   4.399
12536SOL     OW37857   4.370  10.263   3.301
12536SOL    HW137858   4.460  10.248   3.328
12536SOL    HW237859   4.331  10.312   3.373
12537SOL     OW37860  10.953  12.982   3.202
12537SOL    HW137861  10.947   2.301   3.186
12537SOL    HW237862  11.047  12.963   3.200
12538SOL     OW37863   6.146   5.169   2.303
12538SOL    HW137864   6.220   5.227   2.290
12538SOL    HW237865   6.167   5.120   2.383
12539SOL     OW37866   8.325  11.721   6.221
12539SOL    HW137867   8.408  11.687   6.254
12539SOL    HW237868   8.313  11.677   6.137
12540SOL     OW37869  11.501   6.601   5.889
12540SOL    HW137870  11.445   6.550   5.948
12540SOL    HW237871  11.587   6.559   5.895
12541SOL     OW37872   9.944   7.678   5.247
12541SOL    HW137873  10.005   7.606   5.262
12541SOL    HW237874   9.909   7.662   5.159
12542SOL     OW37875   8.382  10.458   6.248
12542SOL    HW137876   8.293  10.421   6.249
12542SOL    HW237877   8.433  10.396   6.196
12543SOL     OW37878  12.870   5.991   5.971
12543SOL    HW137879  12.786   6.008   5.928
12543SOL    HW237880  12.850   5.923   6.035
12544SOL     OW37881   5.709  10.888   3.586
12544SOL    HW137882   5.692  10.834   3.509
12544SOL    HW237883   5.722  10.826   3.657
12545SOL     OW37884   4.519   6.727   0.251
12545SOL    HW137885   4.609   6.736   0.282
12545SOL    HW237886   4.476   6.809   0.277
12546SOL     OW37887  10.889   4.861   5.958
12546SOL    HW137888  10.906   4.896   5.870
12546SOL    HW237889  10.945   4.783   5.964
12547SOL     OW37890  11.699   3.651   1.419
12547SOL    HW137891  11.762   3.631   1.488
12547SOL    HW237892  11.614   3.627   1.456
12548SOL     OW37893  12.756  11.019   4.278
12548SOL    HW137894  12.828  11.006   4.340
12548SOL    HW237895  12.681  11.040   4.333
12549SOL     OW37896   6.704  12.358   5.045
12549SOL    HW137897   6.755  12.277   5.044
12549SOL    HW237898   6.636  12.344   4.979
12550SOL     OW37899   4.488  10.467   4.830
12550SOL    HW137900   4.581  10.442   4.828
12550SOL    HW237901   4.476  10.518   4.750
12551SOL     OW37902   5.041   5.376   0.683
12551SOL    HW137903   5.027   5.445   0.619
12551SOL    HW237904   5.086   5.419   0.756
12552SOL     OW37905   3.027  10.029   2.487
12552SOL    HW137906   2.968  10.048   2.560
12552SOL    HW237907   3.074   9.950   2.514
12553SOL     OW37908  11.541  12.683   4.125
12553SOL    HW137909  11.624  12.706   4.085
12553SOL    HW237910  11.546  12.589   4.139
12554SOL     OW37911  10.674  14.497   5.973
12554SOL    HW137912  10.600  14.527   6.026
12554SOL    HW237913  10.636  14.481   5.887
12555SOL     OW37914  13.736   9.520   6.816
12555SOL    HW137915  13.685   9.444   6.842
12555SOL    HW237916  13.800   9.485   6.754
12556SOL     OW37917   4.930   4.088   5.156
12556SOL    HW137918   4.870   4.056   5.224
12556SOL    HW237919   4.990   4.015   5.140
12557SOL     OW37920  13.793   6.043   4.305
12557SOL    HW137921  13.730   6.116   4.302
12557SOL    HW237922  13.740   5.967   4.329
12558SOL     OW37923  12.743   5.304   5.574
12558SOL    HW137924  12.723   5.377   5.633
12558SOL    HW237925  12.838   5.297   5.576
12559SOL     OW37926  10.083   7.319   1.181
12559SOL    HW137927  10.054   7.398   1.134
12559SOL    HW237928  10.010   7.258   1.173
12560SOL     OW37929  15.055   7.901   7.215
12560SOL    HW137930  15.089   7.955   7.144
12560SOL    HW237931  14.971   7.868   7.183
12561SOL     OW37932   3.277   4.994   0.103
12561SOL    HW137933   3.262   4.904   0.132
12561SOL    HW237934   3.245   4.995   0.013
12562SOL     OW37935   7.197   7.094   2.495
12562SOL    HW137936   7.114   7.139   2.512
12562SOL    HW237937   7.235   7.140   2.421
12563SOL     OW37938   9.839  10.918   2.280
12563SOL    HW137939   9.786  10.986   2.322
12563SOL    HW237940   9.921  10.918   2.329
12564SOL     OW37941  10.690   5.184   0.450
12564SOL    HW137942  10.611   5.229   0.479
12564SOL    HW237943  10.659   5.112   0.396
12565SOL     OW37944   7.905  11.284   1.652
12565SOL    HW137945   7.907  11.352   1.720
12565SOL    HW237946   7.995  11.253   1.645
12566SOL     OW37947  10.542   5.757   4.087
12566SOL    HW137948  10.503   5.747   4.000
12566SOL    HW237949  10.602   5.683   4.095
12567SOL     OW37950  10.472  12.003   5.488
12567SOL    HW137951  10.542  11.986   5.425
12567SOL    HW237952  10.517  12.007   5.573
12568SOL     OW37953  11.085   5.487   6.051
12568SOL    HW137954  11.137   5.535   6.114
12568SOL    HW237955  11.134   5.493   5.969
12569SOL     OW37956   8.693   7.433   0.786
12569SOL    HW137957   8.765   7.420   0.849
12569SOL    HW237958   8.616   7.396   0.829
12570SOL     OW37959  11.769  10.999   2.314
12570SOL    HW137960  11.727  11.083   2.335
12570SOL    HW237961  11.699  10.935   2.324
12571SOL     OW37962   7.559   6.556   6.713
12571SOL    HW137963   7.531   6.478   6.761
12571SOL    HW237964   7.567   6.624   6.779
12572SOL     OW37965  15.325  12.972   7.565
12572SOL    HW137966  15.274  13.044   7.603
12572SOL    HW237967  15.376  13.012   7.495
12573SOL     OW37968   7.435   2.534   0.606
12573SOL    HW137969   7.425   2.496   0.693
12573SOL    HW237970   7.529   2.552   0.598
12574SOL     OW37971   6.542   8.585   1.813
12574SOL    HW137972   6.464   8.593   1.759
12574SOL    HW237973   6.558   8.491   1.819
12575SOL     OW37974   6.505   6.704   1.664
12575SOL    HW137975   6.583   6.720   1.719
12575SOL    HW237976   6.453   6.642   1.714
12576SOL     OW37977  11.865  10.343   2.149
12576SOL    HW137978  11.802  10.271   2.156
12576SOL    HW237979  11.864  10.383   2.236
12577SOL     OW37980   2.643   3.017   2.418
12577SOL    HW137981   2.623   2.936   2.464
12577SOL    HW237982   2.738   3.015   2.405
12578SOL     OW37983   7.019   9.232   6.706
12578SOL    HW137984   6.994   9.310   6.754
12578SOL    HW237985   7.018   9.162   6.772
12579SOL     OW37986   1.134   8.446   0.624
12579SOL    HW137987   1.048   8.471   0.657
12579SOL    HW237988   1.156   8.366   0.672
12580SOL     OW37989   2.704   2.350   0.704
12580SOL    HW137990   2.656   2.337   0.785
12580SOL    HW237991   2.724   2.262   0.672
12581SOL     OW37992  14.235   6.897   6.831
12581SOL    HW137993  14.304   6.869   6.892
12581SOL    HW237994  14.154   6.888   6.881
12582SOL     OW37995  10.620   4.639   4.533
12582SOL    HW137996  10.592   4.615   4.622
12582SOL    HW237997  10.690   4.702   4.546
12583SOL     OW37998   8.291   8.880   4.245
12583SOL    HW137999   8.262   8.875   4.336
12583SOL    HW238000   8.334   8.796   4.228
12584SOL     OW38001   1.145   4.948   0.395
12584SOL    HW138002   1.150   5.040   0.420
12584SOL    HW238003   1.228   4.931   0.350
12585SOL     OW38004  13.909   7.438   5.118
12585SOL    HW138005  13.883   7.440   5.025
12585SOL    HW238006  13.917   7.345   5.138
12586SOL     OW38007   9.952  15.110   7.060
12586SOL    HW138008  10.014  15.051   7.104
12586SOL    HW238009   9.963  15.194   7.105
12587SOL     OW38010   3.919   6.364   4.631
12587SOL    HW138011   3.972   6.284   4.624
12587SOL    HW238012   3.977   6.426   4.677
12588SOL     OW38013   1.513   4.301   1.233
12588SOL    HW138014   1.429   4.346   1.231
12588SOL    HW238015   1.555   4.325   1.150
12589SOL     OW38016  14.542  13.180   5.539
12589SOL    HW138017  14.585  13.259   5.505
12589SOL    HW238018  14.599  13.108   5.513
12590SOL     OW38019   9.051   6.138   5.990
12590SOL    HW138020   9.145   6.154   5.990
12590SOL    HW238021   9.023   6.154   5.900
12591SOL     OW38022   6.201  11.033   7.429
12591SOL    HW138023   6.263  11.049   7.358
12591SOL    HW238024   6.118  11.011   7.385
12592SOL     OW38025  10.640   5.324   5.052
12592SOL    HW138026  10.731   5.332   5.081
12592SOL    HW238027  10.641   5.256   4.985
12593SOL     OW38028   2.632  11.874   1.656
12593SOL    HW138029   2.587  11.799   1.692
12593SOL    HW238030   2.689  11.838   1.588
12594SOL     OW38031   9.046   8.526   4.596
12594SOL    HW138032   8.991   8.524   4.674
12594SOL    HW238033   8.985   8.520   4.523
12595SOL     OW38034   2.390   9.889   2.105
12595SOL    HW138035   2.417   9.807   2.065
12595SOL    HW238036   2.471   9.938   2.118
12596SOL     OW38037   9.466   6.513   0.392
12596SOL    HW138038   9.557   6.488   0.407
12596SOL    HW238039   9.469   6.573   0.317
12597SOL     OW38040   6.132   8.784   3.847
12597SOL    HW138041   6.140   8.845   3.773
12597SOL    HW238042   6.064   8.722   3.820
12598SOL     OW38043   9.916   9.596   4.735
12598SOL    HW138044   9.913   9.654   4.811
12598SOL    HW238045   9.972   9.524   4.763
12599SOL     OW38046   5.413   4.795   6.395
12599SOL    HW138047   5.424   4.739   6.319
12599SOL    HW238048   5.335   4.847   6.375
12600SOL     OW38049  12.888   3.426   3.755
12600SOL    HW138050  12.931   3.392   3.677
12600SOL    HW238051  12.947   3.495   3.786
12601SOL     OW38052   3.831   8.739   3.643
12601SOL    HW138053   3.795   8.692   3.719
12601SOL    HW238054   3.852   8.826   3.676
12602SOL     OW38055   4.173  10.762   3.530
12602SOL    HW138056   4.081  10.738   3.536
12602SOL    HW238057   4.194  10.801   3.615
12603SOL     OW38058   9.864   6.493   4.308
12603SOL    HW138059   9.876   6.478   4.401
12603SOL    HW238060   9.894   6.412   4.266
12604SOL     OW38061  13.070   9.778   6.641
12604SOL    HW138062  13.018   9.857   6.658
12604SOL    HW238063  13.122   9.766   6.721
12605SOL     OW38064   8.814  12.320   4.663
12605SOL    HW138065   8.871  12.396   4.657
12605SOL    HW238066   8.860  12.251   4.615
12606SOL     OW38067  12.179  12.949   5.865
12606SOL    HW138068  12.245  12.939   5.796
12606SOL    HW238069  12.180  12.865   5.911
12607SOL     OW38070   6.902  11.497   1.288
12607SOL    HW138071   6.924  11.589   1.274
12607SOL    HW238072   6.874  11.492   1.380
12608SOL     OW38073   9.014   7.846   1.045
12608SOL    HW138074   9.015   7.751   1.051
12608SOL    HW238075   8.976   7.864   0.959
12609SOL     OW38076   7.493  11.395   6.978
12609SOL    HW138077   7.550  11.402   6.901
12609SOL    HW238078   7.404  11.392   6.942
12610SOL     OW38079   8.220  15.135   6.633
12610SOL    HW138080   8.308  15.150   6.668
12610SOL    HW238081   8.163  15.187   6.690
12611SOL     OW38082  10.929  11.911   2.497
12611SOL    HW138083  10.853  11.869   2.455
12611SOL    HW238084  10.965  11.968   2.429
12612SOL     OW38085   5.989   9.426   1.825
12612SOL    HW138086   6.080   9.403   1.843
12612SOL    HW238087   5.992   9.472   1.741
12613SOL     OW38088  12.372  14.362   5.321
12613SOL    HW138089  12.364  14.274   5.357
12613SOL    HW238090  12.415  14.350   5.236
12614SOL     OW38091   5.839   4.050   0.533
12614SOL    HW138092   5.899   4.107   0.581
12614SOL    HW238093   5.844   3.966   0.577
12615SOL     OW38094   2.295   8.441   0.714
12615SOL    HW138095   2.259   8.523   0.681
12615SOL    HW238096   2.255   8.429   0.800
12616SOL     OW38097  11.376   1.253   1.223
12616SOL    HW138098  11.447   1.270   1.161
12616SOL    HW238099  11.301   1.230   1.168
12617SOL     OW38100   9.843   4.802   5.334
12617SOL    HW138101   9.812   4.856   5.261
12617SOL    HW238102   9.937   4.820   5.340
12618SOL     OW38103   3.229  11.688   2.444
12618SOL    HW138104   3.295  11.690   2.514
12618SOL    HW238105   3.247  11.607   2.397
12619SOL     OW38106  10.227   6.638   4.019
12619SOL    HW138107  10.204   6.730   4.009
12619SOL    HW238108  10.163   6.591   3.966
12620SOL     OW38109  11.942  13.545   4.335
12620SOL    HW138110  12.016  13.590   4.293
12620SOL    HW238111  11.967  13.452   4.333
12621SOL     OW38112   5.910   4.162   2.080
12621SOL    HW138113   5.920   4.257   2.071
12621SOL    HW238114   5.846   4.139   2.013
12622SOL     OW38115   9.480  11.616   3.800
12622SOL    HW138116   9.502  11.684   3.864
12622SOL    HW238117   9.405  11.570   3.837
12623SOL     OW38118   4.051   6.230   2.061
12623SOL    HW138119   4.058   6.317   2.022
12623SOL    HW238120   4.053   6.245   2.156
12624SOL     OW38121   3.555   1.398   0.495
12624SOL    HW138122   3.525   1.411   0.405
12624SOL    HW238123   3.505   1.322   0.526
12625SOL     OW38124   5.427   7.328   7.146
12625SOL    HW138125   5.450   7.313   7.238
12625SOL    HW238126   5.432   7.423   7.134
12626SOL     OW38127   2.362   1.463   0.345
12626SOL    HW138128   2.435   1.405   0.367
12626SOL    HW238129   2.328   1.428   0.263
12627SOL     OW38130   2.425   9.078   0.493
12627SOL    HW138131   2.334   9.062   0.518
12627SOL    HW238132   2.462   8.991   0.482
12628SOL     OW38133   6.959   5.378   3.605
12628SOL    HW138134   6.991   5.432   3.677
12628SOL    HW238135   7.038   5.337   3.569
12629SOL     OW38136  13.092  12.651   7.438
12629SOL    HW138137  13.141  12.733   7.424
12629SOL    HW238138  13.098  12.605   7.355
12630SOL     OW38139   5.772  10.195   6.674
12630SOL    HW138140   5.832  10.261   6.709
12630SOL    HW238141   5.811  10.112   6.700
12631SOL     OW38142  15.796  10.567   7.158
12631SOL    HW138143   5.107  10.525   7.147
12631SOL    HW238144  15.763  10.577   7.069
12632SOL     OW38145   5.221   1.894   1.564
12632SOL    HW138146   5.240   1.863   1.476
12632SOL    HW238147   5.127   1.880   1.575
12633SOL     OW38148  12.819   6.870   5.258
12633SOL    HW138149  12.836   6.960   5.229
12633SOL    HW238150  12.744   6.843   5.207
12634SOL     OW38151   9.412   5.749   1.212
12634SOL    HW138152   9.369   5.770   1.129
12634SOL    HW238153   9.340   5.721   1.269
12635SOL     OW38154   3.953   7.574   2.951
12635SOL    HW138155   3.948   7.481   2.970
12635SOL    HW238156   3.872   7.610   2.988
12636SOL     OW38157   6.181   7.676   0.350
12636SOL    HW138158   6.157   7.710   0.264
12636SOL    HW238159   6.121   7.604   0.366
12637SOL     OW38160  11.567   9.485   2.723
12637SOL    HW138161  11.649   9.522   2.693
12637SOL    HW238162  11.554   9.521   2.811
12638SOL     OW38163   5.768  14.685   6.568
12638SOL    HW138164   5.784  14.611   6.510
12638SOL    HW238165   5.675  14.678   6.591
12639SOL     OW38166  11.201  10.656   4.572
12639SOL    HW138167  11.161  10.619   4.651
12639SOL    HW238168  11.231  10.580   4.523
12640SOL     OW38169   3.739   7.901   0.190
12640SOL    HW138170   3.653   7.943   0.179
12640SOL    HW238171   3.765   7.924   0.279
12641SOL     OW38172   3.656   6.797   5.051
12641SOL    HW138173  14.381   6.784   5.132
12641SOL    HW238174   3.602   6.857   4.999
12642SOL     OW38175   5.376   2.706   1.466
12642SOL    HW138176   5.325   2.786   1.455
12642SOL    HW238177   5.313   2.635   1.453
12643SOL     OW38178   8.339  10.445   5.649
12643SOL    HW138179   8.432  10.437   5.668
12643SOL    HW238180   8.305  10.356   5.658
12644SOL     OW38181   2.769   4.145   1.443
12644SOL    HW138182   2.739   4.095   1.518
12644SOL    HW238183   2.800   4.228   1.480
12645SOL     OW38184   6.196  11.300   5.101
12645SOL    HW138185   6.114  11.321   5.055
12645SOL    HW238186   6.251  11.377   5.088
12646SOL     OW38187   3.719  14.326   5.190
12646SOL    HW138188   3.814  14.318   5.181
12646SOL    HW238189  14.478  14.332   5.284
12647SOL     OW38190   1.582   3.944   1.569
12647SOL    HW138191   1.621   3.899   1.644
12647SOL    HW238192   1.585   3.880   1.498
12648SOL     OW38193   1.251  10.744   0.255
12648SOL    HW138194   1.286  10.826   0.220
12648SOL    HW238195   1.183  10.719   0.194
12649SOL     OW38196   7.877   7.345   0.390
12649SOL    HW138197   7.940   7.284   0.354
12649SOL    HW238198   7.828   7.377   0.315
12650SOL     OW38199   2.086   9.948   0.356
12650SOL    HW138200   2.060  10.019   0.414
12650SOL    HW238201   2.021   9.880   0.370
12651SOL     OW38202   9.749   7.791   4.827
12651SOL    HW138203   9.805   7.741   4.886
12651SOL    HW238204   9.695   7.844   4.885
12652SOL     OW38205   8.944   2.511   1.449
12652SOL    HW138206   8.984   2.513   1.536
12652SOL    HW238207   8.896   2.428   1.447
12653SOL     OW38208  10.263  11.180   2.128
12653SOL    HW138209  10.341  11.193   2.182
12653SOL    HW238210  10.286  11.219   2.044
12654SOL     OW38211  14.751  15.606   7.372
12654SOL    HW138212  14.704  15.523   7.382
12654SOL    HW238213  14.771  15.612   7.279
12655SOL     OW38214  12.090   9.592   7.024
12655SOL    HW138215  12.176   9.635   7.027
12655SOL    HW238216  12.060   9.606   6.934
12656SOL     OW38217   3.763   6.347   1.960
12656SOL    HW138218   3.680   6.386   1.987
12656SOL    HW238219   3.767   6.263   2.006
12657SOL     OW38220   2.604   3.865   2.902
12657SOL    HW138221   2.541   3.802   2.867
12657SOL    HW238222   2.581   3.947   2.859
12658SOL     OW38223   4.845   9.908   5.270
12658SOL    HW138224   4.829   9.843   5.202
12658SOL    HW238225   4.892   9.979   5.225
12659SOL     OW38226  12.609   7.084   5.355
12659SOL    HW138227  12.563   7.032   5.420
12659SOL    HW238228  12.543   7.145   5.322
12660SOL     OW38229  10.959   2.720   1.252
12660SOL    HW138230  10.883   2.775   1.273
12660SOL    HW238231  10.963   2.656   1.323
12661SOL     OW38232   7.368   4.806   5.785
12661SOL    HW138233   7.304   4.872   5.811
12661SOL    HW238234   7.321   4.723   5.794
12662SOL     OW38235   7.008  10.205   3.806
12662SOL    HW138236   6.967  10.200   3.720
12662SOL    HW238237   6.964  10.138   3.857
12663SOL     OW38238   8.837  10.155   2.351
12663SOL    HW138239   8.817  10.156   2.258
12663SOL    HW238240   8.907  10.089   2.360
12664SOL     OW38241   9.711   4.166   1.103
12664SOL    HW138242   9.648   4.238   1.107
12664SOL    HW238243   9.773   4.185   1.173
12665SOL     OW38244   5.014   7.354   5.158
12665SOL    HW138245   5.019   7.372   5.252
12665SOL    HW238246   4.927   7.384   5.132
12666SOL     OW38247  10.196   9.412   4.277
12666SOL    HW138248  10.170   9.325   4.306
12666SOL    HW238249  10.124   9.441   4.221
12667SOL     OW38250   8.296   8.851   4.534
12667SOL    HW138251   8.269   8.942   4.523
12667SOL    HW238252   8.217   8.800   4.519
12668SOL     OW38253   3.995   7.869   1.421
12668SOL    HW138254   4.048   7.853   1.499
12668SOL    HW238255   3.916   7.912   1.455
12669SOL     OW38256   8.511  15.555   7.038
12669SOL    HW138257   8.430  15.545   6.988
12669SOL    HW238258   8.551  15.634   7.001
12670SOL     OW38259   0.644   3.770   0.655
12670SOL    HW138260   0.695   3.828   0.598
12670SOL    HW238261   0.556   3.808   0.656
12671SOL     OW38262   9.124  10.272   7.435
12671SOL    HW138263   9.133  10.199   7.374
12671SOL    HW238264   9.055  10.246   7.495
12672SOL     OW38265   6.975  10.768   4.969
12672SOL    HW138266   6.963  10.692   5.026
12672SOL    HW238267   6.932  10.744   4.887
12673SOL     OW38268   6.917  12.584   4.220
12673SOL    HW138269   6.978  12.517   4.188
12673SOL    HW238270   6.866  12.539   4.288
12674SOL     OW38271   7.973   1.350   0.130
12674SOL    HW138272   8.066   1.347   0.110
12674SOL    HW238273   7.937   1.271   0.090
12675SOL     OW38274   5.551  12.866   6.900
12675SOL    HW138275   5.544  12.919   6.821
12675SOL    HW238276   5.644  12.842   6.905
12676SOL     OW38277   9.443   1.725   0.733
12676SOL    HW138278   9.357   1.682   0.737
12676SOL    HW238279   9.423   1.819   0.731
12677SOL     OW38280   7.202   8.022   6.065
12677SOL    HW138281   7.205   7.999   6.158
12677SOL    HW238282   7.189   7.938   6.020
12678SOL     OW38283   8.816   8.184   7.033
12678SOL    HW138284   8.872   8.114   7.067
12678SOL    HW238285   8.872   8.262   7.034
12679SOL     OW38286   8.143   8.916   3.004
12679SOL    HW138287   8.144   8.942   2.912
12679SOL    HW238288   8.081   8.977   3.045
12680SOL     OW38289  10.893   5.782   2.992
12680SOL    HW138290  10.966   5.827   2.951
12680SOL    HW238291  10.903   5.800   3.086
12681SOL     OW38292   9.018   6.456   4.280
12681SOL    HW138293   9.053   6.370   4.259
12681SOL    HW238294   9.087   6.498   4.332
12682SOL     OW38295   8.697  11.223   6.756
12682SOL    HW138296   8.775  11.177   6.787
12682SOL    HW238297   8.624  11.167   6.781
12683SOL     OW38298   9.488   5.864   1.619
12683SOL    HW138299   9.574   5.893   1.590
12683SOL    HW238300   9.501   5.775   1.651
12684SOL     OW38301   9.851   7.231   3.220
12684SOL    HW138302   9.885   7.171   3.154
12684SOL    HW238303   9.757   7.234   3.202
12685SOL     OW38304  10.601   9.538   6.422
12685SOL    HW138305  10.511   9.568   6.433
12685SOL    HW238306  10.616   9.540   6.328
12686SOL     OW38307  14.913   5.634   7.408
12686SOL    HW138308  14.939   5.601   7.494
12686SOL    HW238309  14.817   5.634   7.410
12687SOL     OW38310   7.375   9.152   4.074
12687SOL    HW138311   7.465   9.187   4.076
12687SOL    HW238312   7.387   9.058   4.058
12688SOL     OW38313   3.899   3.791   1.008
12688SOL    HW138314   3.886   3.886   1.006
12688SOL    HW238315   3.911   3.766   0.916
12689SOL     OW38316   2.912   6.768   3.075
12689SOL    HW138317   2.913   6.863   3.061
12689SOL    HW238318   2.822   6.743   3.055
12690SOL     OW38319   5.912   7.665   0.490
12690SOL    HW138320   5.832   7.677   0.541
12690SOL    HW238321   5.882   7.654   0.400
12691SOL     OW38322  11.406   9.771   1.723
12691SOL    HW138323  11.337   9.726   1.673
12691SOL    HW238324  11.374   9.860   1.733
12692SOL     OW38325   2.866   8.670   3.715
12692SOL    HW138326   2.839   8.761   3.720
12692SOL    HW238327   2.783   8.621   3.717
12693SOL     OW38328   8.909  12.670   5.038
12693SOL    HW138329   8.861  12.589   5.056
12693SOL    HW238330   8.846  12.726   4.992
12694SOL     OW38331   5.584   4.052   0.219
12694SOL    HW138332   5.549   4.117   0.281
12694SOL    HW238333   5.512   3.990   0.207
12695SOL     OW38334   8.930   8.505   2.166
12695SOL    HW138335   8.965   8.556   2.239
12695SOL    HW238336   8.836   8.497   2.183
12696SOL     OW38337   4.721   6.979   4.273
12696SOL    HW138338   4.638   7.012   4.238
12696SOL    HW238339   4.782   7.052   4.263
12697SOL     OW38340   5.677   9.684   5.299
12697SOL    HW138341   5.670   9.605   5.353
12697SOL    HW238342   5.648   9.755   5.356
12698SOL     OW38343  13.428  12.887   5.774
12698SOL    HW138344  13.501  12.829   5.756
12698SOL    HW238345  13.370  12.877   5.698
12699SOL     OW38346  13.177   3.593   4.437
12699SOL    HW138347  13.204   3.681   4.463
12699SOL    HW238348  13.246   3.564   4.377
12700SOL     OW38349   4.654   5.625   3.685
12700SOL    HW138350   4.652   5.605   3.591
12700SOL    HW238351   4.593   5.562   3.724
12701SOL     OW38352   9.058   9.275   6.367
12701SOL    HW138353   9.090   9.364   6.356
12701SOL    HW238354   9.111   9.238   6.438
12702SOL     OW38355  10.430   5.603   6.064
12702SOL    HW138356  10.517   5.602   6.102
12702SOL    HW238357  10.422   5.691   6.026
12703SOL     OW38358   9.181   6.095   4.783
12703SOL    HW138359   9.239   6.097   4.858
12703SOL    HW238360   9.190   6.007   4.748
12704SOL     OW38361  14.115  12.132   7.307
12704SOL    HW138362  14.135  12.136   7.400
12704SOL    HW238363  14.021  12.149   7.301
12705SOL     OW38364   4.824   5.021   1.335
12705SOL    HW138365   4.915   4.991   1.328
12705SOL    HW238366   4.792   4.980   1.415
12706SOL     OW38367  12.375   5.414   6.871
12706SOL    HW138368  12.369   5.335   6.817
12706SOL    HW238369  12.319   5.396   6.946
12707SOL     OW38370  10.846   5.378   1.382
12707SOL    HW138371  10.904   5.354   1.454
12707SOL    HW238372  10.821   5.469   1.399
12708SOL     OW38373   1.992   5.953   0.795
12708SOL    HW138374   2.033   5.876   0.755
12708SOL    HW238375   2.045   5.971   0.873
12709SOL     OW38376  11.369   1.501   2.042
12709SOL    HW138377  11.452   1.509   1.996
12709SOL    HW238378  11.324   1.583   2.024
12710SOL     OW38379   7.966  10.778   3.989
12710SOL    HW138380   7.921  10.720   3.927
12710SOL    HW238381   7.895  10.823   4.035
12711SOL     OW38382  13.194   7.695   6.588
12711SOL    HW138383  13.202   7.629   6.520
12711SOL    HW238384  13.282   7.704   6.624
12712SOL     OW38385  12.719   8.520   6.154
12712SOL    HW138386  12.623   8.517   6.154
12712SOL    HW238387  12.741   8.568   6.233
12713SOL     OW38388   8.144   5.751   6.768
12713SOL    HW138389   8.147   5.847   6.760
12713SOL    HW238390   8.225   5.729   6.814
12714SOL     OW38391  13.964  10.672   6.031
12714SOL    HW138392  13.904  10.691   5.959
12714SOL    HW238393  14.019  10.601   5.998
12715SOL     OW38394   4.588   3.188   0.903
12715SOL    HW138395   4.626   3.146   0.825
12715SOL    HW238396   4.576   3.279   0.877
12716SOL     OW38397   4.423   4.959   4.693
12716SOL    HW138398   4.476   5.020   4.640
12716SOL    HW238399   4.340   5.005   4.705
12717SOL     OW38400   3.870  10.591   4.608
12717SOL    HW138401   3.797  10.622   4.554
12717SOL    HW238402   3.943  10.648   4.583
12718SOL     OW38403   9.290   4.590   2.018
12718SOL    HW138404   9.375   4.590   1.976
12718SOL    HW238405   9.247   4.511   1.985
12719SOL     OW38406   6.442  10.450   6.333
12719SOL    HW138407   6.472  10.368   6.295
12719SOL    HW238408   6.381  10.424   6.402
12720SOL     OW38409   2.614   2.714   3.466
12720SOL    HW138410   2.684   2.778   3.454
12720SOL    HW238411   2.549   2.759   3.519
12721SOL     OW38412   5.096   9.354   4.965
12721SOL    HW138413   5.128   9.369   4.876
12721SOL    HW238414   5.003   9.337   4.955
12722SOL     OW38415  14.278   5.311   6.991
12722SOL    HW138416  14.349   5.363   6.954
12722SOL    HW238417  14.285   5.226   6.947
12723SOL     OW38418  14.158   7.295   6.329
12723SOL    HW138419  14.145   7.352   6.405
12723SOL    HW238420  14.147   7.352   6.253
12724SOL     OW38421   6.936   7.691   5.823
12724SOL    HW138422   6.848   7.729   5.825
12724SOL    HW238423   6.927   7.615   5.765
12725SOL     OW38424   5.426  11.116   5.519
12725SOL    HW138425   5.466  11.102   5.433
12725SOL    HW238426   5.501  11.131   5.578
12726SOL     OW38427   7.504   1.660   1.076
12726SOL    HW138428   7.486   1.720   1.148
12726SOL    HW238429   7.487   1.573   1.113
12727SOL     OW38430   8.353   2.641   0.111
12727SOL    HW138431   8.319   2.563   0.156
12727SOL    HW238432   8.448   2.634   0.121
12728SOL     OW38433   1.270  11.426   1.480
12728SOL    HW138434   1.297  11.347   1.528
12728SOL    HW238435   1.316  11.497   1.523
12729SOL     OW38436  12.668   7.587   3.746
12729SOL    HW138437  12.738   7.629   3.695
12729SOL    HW238438  12.638   7.656   3.804
12730SOL     OW38439  12.727  11.569   6.040
12730SOL    HW138440  12.717  11.497   5.978
12730SOL    HW238441  12.814  11.556   6.078
12731SOL     OW38442   6.200   8.082   2.790
12731SOL    HW138443   6.141   8.060   2.717
12731SOL    HW238444   6.142   8.087   2.867
12732SOL     OW38445  10.591   7.321   1.279
12732SOL    HW138446  10.554   7.319   1.367
12732SOL    HW238447  10.607   7.414   1.262
12733SOL     OW38448   3.665   9.360   1.956
12733SOL    HW138449   3.597   9.298   1.983
12733SOL    HW238450   3.689   9.333   1.868
12734SOL     OW38451  10.565  10.150   4.612
12734SOL    HW138452  10.562  10.056   4.633
12734SOL    HW238453  10.524  10.156   4.526
12735SOL     OW38454   3.100   3.165   2.466
12735SOL    HW138455   3.156   3.120   2.402
12735SOL    HW238456   3.155   3.234   2.501
12736SOL     OW38457   7.716  11.727   5.272
12736SOL    HW138458   7.665  11.806   5.291
12736SOL    HW238459   7.702  11.671   5.349
12737SOL     OW38460   8.223   7.048   4.745
12737SOL    HW138461   8.234   7.140   4.720
12737SOL    HW238462   8.136   7.045   4.786
12738SOL     OW38463  10.148   3.797   2.262
12738SOL    HW138464  10.172   3.854   2.189
12738SOL    HW238465  10.141   3.856   2.337
12739SOL     OW38466   9.823  11.113   6.082
12739SOL    HW138467   9.911  11.107   6.118
12739SOL    HW238468   9.782  11.029   6.106
12740SOL     OW38469  10.363   5.889   7.435
12740SOL    HW138470  10.269   5.873   7.442
12740SOL    HW238471  10.383   5.877   7.342
12741SOL     OW38472   8.653   8.393   7.371
12741SOL    HW138473   8.705   8.388   7.451
12741SOL    HW238474   8.663   8.307   7.330
12742SOL     OW38475  13.685  14.469   7.358
12742SOL    HW138476  13.765  14.522   7.358
12742SOL    HW238477  13.707  14.393   7.412
12743SOL     OW38478   9.873  11.427   4.280
12743SOL    HW138479   9.959  11.469   4.282
12743SOL    HW238480   9.818  11.488   4.231
12744SOL     OW38481   4.116   2.214   0.563
12744SOL    HW138482   4.023   2.213   0.588
12744SOL    HW238483   4.115   2.234   0.469
12745SOL     OW38484   1.409   9.450   0.752
12745SOL    HW138485   1.393   9.450   0.846
12745SOL    HW238486   1.322   9.459   0.713
12746SOL     OW38487   7.338  11.314   2.573
12746SOL    HW138488   7.266  11.309   2.510
12746SOL    HW238489   7.329  11.235   2.626
12747SOL     OW38490   9.108  10.076   3.930
12747SOL    HW138491   9.065  10.150   3.974
12747SOL    HW238492   9.167  10.116   3.867
12748SOL     OW38493   6.212   8.528   1.999
12748SOL    HW138494   6.229   8.617   2.030
12748SOL    HW238495   6.223   8.473   2.076
12749SOL     OW38496  11.738   7.588   2.725
12749SOL    HW138497  11.657   7.542   2.703
12749SOL    HW238498  11.795   7.520   2.762
12750SOL     OW38499   8.660  10.940   5.615
12750SOL    HW138500   8.606  10.918   5.691
12750SOL    HW238501   8.714  10.863   5.601
12751SOL     OW38502   7.536   7.340   5.653
12751SOL    HW138503   7.523   7.427   5.614
12751SOL    HW238504   7.602   7.299   5.596
12752SOL     OW38505  12.485  11.389   7.357
12752SOL    HW138506  12.515  11.457   7.418
12752SOL    HW238507  12.532  11.409   7.275
12753SOL     OW38508  12.294  10.595   7.360
12753SOL    HW138509  12.336  10.532   7.302
12753SOL    HW238510  12.359  10.611   7.428
12754SOL     OW38511   1.907   9.446   2.468
12754SOL    HW138512   1.967   9.374   2.452
12754SOL    HW238513   1.949   9.522   2.427
12755SOL     OW38514  11.342   2.933   3.832
12755SOL    HW138515  11.283   2.910   3.904
12755SOL    HW238516  11.427   2.947   3.874
12756SOL     OW38517   6.505   6.878   7.024
12756SOL    HW138518   6.592   6.857   6.991
12756SOL    HW238519   6.446   6.825   6.971
12757SOL     OW38520   4.798  12.045   3.192
12757SOL    HW138521   4.736  12.030   3.264
12757SOL    HW238522   4.832  12.133   3.207
12758SOL     OW38523   5.829   6.895   6.454
12758SOL    HW138524   5.735   6.906   6.441
12758SOL    HW238525   5.853   6.964   6.517
12759SOL     OW38526  10.221   9.451   0.652
12759SOL    HW138527  10.295   9.467   0.711
12759SOL    HW238528  10.165   9.528   0.662
12760SOL     OW38529   3.880   1.232   0.233
12760SOL    HW138530   3.853   1.234   0.324
12760SOL    HW238531   3.939   1.307   0.223
12761SOL     OW38532   9.907   5.238   1.928
12761SOL    HW138533   9.870   5.317   1.890
12761SOL    HW238534   9.893   5.171   1.861
12762SOL     OW38535  11.353   8.951   5.659
12762SOL    HW138536  11.416   8.895   5.706
12762SOL    HW238537  11.275   8.951   5.715
12763SOL     OW38538   0.820   9.799   0.542
12763SOL    HW138539   0.900   9.841   0.574
12763SOL    HW238540   0.851   9.718   0.501
12764SOL     OW38541   9.720   7.219   3.512
12764SOL    HW138542   9.766   7.161   3.573
12764SOL    HW238543   9.788   7.248   3.451
12765SOL     OW38544   7.614  11.165   4.038
12765SOL    HW138545   7.704  11.188   4.062
12765SOL    HW238546   7.586  11.236   3.981
12766SOL     OW38547   5.945   7.264   5.248
12766SOL    HW138548   5.998   7.243   5.325
12766SOL    HW238549   5.863   7.218   5.263
12767SOL     OW38550   2.938   7.678   1.117
12767SOL    HW138551   2.960   7.586   1.132
12767SOL    HW238552   2.928   7.715   1.205
12768SOL     OW38553  13.020   4.926   6.204
12768SOL    HW138554  12.981   4.869   6.137
12768SOL    HW238555  13.114   4.915   6.191
12769SOL     OW38556  12.104  12.598   3.450
12769SOL    HW138557  12.038  12.656   3.411
12769SOL    HW238558  12.054  12.540   3.507
12770SOL     OW38559   9.220   3.232   1.931
12770SOL    HW138560   9.198   3.297   1.998
12770SOL    HW238561   9.142   3.177   1.926
12771SOL     OW38562   4.602   8.342   5.249
12771SOL    HW138563   4.528   8.281   5.250
12771SOL    HW238564   4.589   8.396   5.328
12772SOL     OW38565   7.601  10.861   7.201
12772SOL    HW138566   7.682  10.907   7.224
12772SOL    HW238567   7.532  10.913   7.242
12773SOL     OW38568   7.448   6.325   2.133
12773SOL    HW138569   7.472   6.236   2.107
12773SOL    HW238570   7.488   6.381   2.066
12774SOL     OW38571   5.087   6.774   2.346
12774SOL    HW138572   5.145   6.703   2.374
12774SOL    HW238573   5.131   6.814   2.271
12775SOL     OW38574   2.936   5.042   0.078
12775SOL    HW138575   2.928   5.108   0.009
12775SOL    HW238576   3.014   5.069   0.128
12776SOL     OW38577  10.679   8.713   6.610
12776SOL    HW138578  10.608   8.651   6.629
12776SOL    HW238579  10.748   8.689   6.671
12777SOL     OW38580   7.191   5.649   7.063
12777SOL    HW138581   7.223   5.716   7.004
12777SOL    HW238582   7.121   5.692   7.112
12778SOL     OW38583   3.051   4.591   3.078
12778SOL    HW138584   3.106   4.544   3.142
12778SOL    HW238585   2.963   4.555   3.092
12779SOL     OW38586   5.870   1.702   2.028
12779SOL    HW138587   5.924   1.774   1.996
12779SOL    HW238588   5.780   1.735   2.024
12780SOL     OW38589   6.659   6.296   0.395
12780SOL    HW138590   6.681   6.373   0.447
12780SOL    HW238591   6.566   6.306   0.375
12781SOL     OW38592   5.613   5.114   4.239
12781SOL    HW138593   5.683   5.094   4.177
12781SOL    HW238594   5.570   5.191   4.202
12782SOL     OW38595   4.838  11.283   2.993
12782SOL    HW138596   4.833  11.379   2.987
12782SOL    HW238597   4.747  11.254   2.984
12783SOL     OW38598  11.224   4.034   1.200
12783SOL    HW138599  11.275   4.007   1.123
12783SOL    HW238600  11.138   4.059   1.164
12784SOL     OW38601   6.392   5.810   3.557
12784SOL    HW138602   6.471   5.841   3.601
12784SOL    HW238603   6.393   5.853   3.472
12785SOL     OW38604   5.084   6.360   0.328
12785SOL    HW138605   4.990   6.353   0.312
12785SOL    HW238606   5.092   6.376   0.422
12786SOL     OW38607   0.364   9.044   0.004
12786SOL    HW138608   0.304   9.037   0.078
12786SOL    HW238609   5.694  14.451   7.548
12787SOL     OW38610   4.460  12.474   6.019
12787SOL    HW138611   4.528  12.491   6.084
12787SOL    HW238612   4.433  12.384   6.036
12788SOL     OW38613   6.968   8.518   1.315
12788SOL    HW138614   6.882   8.491   1.349
12788SOL    HW238615   6.973   8.612   1.333
12789SOL     OW38616   8.260  14.338   6.805
12789SOL    HW138617   8.207  14.365   6.880
12789SOL    HW238618   8.272  14.244   6.817
12790SOL     OW38619   5.115   3.142   1.851
12790SOL    HW138620   5.077   3.085   1.917
12790SOL    HW238621   5.130   3.225   1.897
12791SOL     OW38622   8.623  13.274   7.239
12791SOL    HW138623   8.696  13.223   7.272
12791SOL    HW238624   8.563  13.280   7.314
12792SOL     OW38625   7.059   9.850   4.014
12792SOL    HW138626   7.068   9.859   4.109
12792SOL    HW238627   6.996   9.918   3.989
12793SOL     OW38628  11.561  11.553   7.263
12793SOL    HW138629  11.483  11.577   7.213
12793SOL    HW238630  11.529  11.490   7.327
12794SOL     OW38631   8.118   6.753   2.492
12794SOL    HW138632   8.106   6.741   2.398
12794SOL    HW238633   8.029   6.764   2.527
12795SOL     OW38634   7.380   6.316   0.035
12795SOL    HW138635  12.766  11.646   7.578
12795SOL    HW238636   7.471   6.314   0.066
12796SOL     OW38637   9.119  12.088   5.178
12796SOL    HW138638   9.184  12.090   5.109
12796SOL    HW238639   9.035  12.093   5.133
12797SOL     OW38640  12.044  11.531   1.895
12797SOL    HW138641   1.292  11.512   1.804
12797SOL    HW238642  11.958  11.491   1.907
12798SOL     OW38643  14.928   9.237   7.567
12798SOL    HW138644  14.888   9.321   7.542
12798SOL    HW238645   9.485   3.817   0.019
12799SOL     OW38646   4.720  11.089   3.698
12799SOL    HW138647   4.670  11.168   3.677
12799SOL    HW238648   4.809  11.109   3.668
12800SOL     OW38649   5.878  13.150   4.602
12800SOL    HW138650   5.827  13.209   4.657
12800SOL    HW238651   5.969  13.163   4.631
12801SOL     OW38652  12.695  12.512   6.587
12801SOL    HW138653  12.629  12.503   6.656
12801SOL    HW238654  12.662  12.460   6.514
12802SOL     OW38655   7.215   6.595   1.352
12802SOL    HW138656   7.197   6.502   1.361
12802SOL    HW238657   7.129   6.637   1.360
12803SOL     OW38658   7.371   9.434   2.594
12803SOL    HW138659   7.348   9.438   2.501
12803SOL    HW238660   7.382   9.525   2.620
12804SOL     OW38661   8.530  14.121   5.592
12804SOL    HW138662   8.445  14.080   5.609
12804SOL    HW238663   8.594  14.056   5.622
12805SOL     OW38664   5.595   2.635   1.298
12805SOL    HW138665   5.563   2.671   1.215
12805SOL    HW238666   5.527   2.658   1.362
12806SOL     OW38667   9.880   4.998   4.017
12806SOL    HW138668   9.796   5.010   3.971
12806SOL    HW238669   9.943   4.982   3.947
12807SOL     OW38670  11.592  11.920   7.275
12807SOL    HW138671  11.502  11.951   7.287
12807SOL    HW238672  11.615  11.950   7.187
12808SOL     OW38673   5.379  12.441   5.893
12808SOL    HW138674   5.286  12.425   5.903
12808SOL    HW238675   5.403  12.490   5.971
12809SOL     OW38676   8.511  11.809   2.281
12809SOL    HW138677   8.461  11.891   2.286
12809SOL    HW238678   8.493  11.764   2.363
12810SOL     OW38679   2.356   8.795   0.865
12810SOL    HW138680   2.292   8.743   0.914
12810SOL    HW238681   2.367   8.875   0.917
12811SOL     OW38682   2.793   7.298   0.408
12811SOL    HW138683   2.737   7.354   0.353
12811SOL    HW238684   2.732   7.246   0.460
12812SOL     OW38685   1.389   2.604   0.617
12812SOL    HW138686   1.475   2.621   0.657
12812SOL    HW238687   1.393   2.512   0.591
12813SOL     OW38688  13.200   3.237   3.803
12813SOL    HW138689  13.198   3.333   3.812
12813SOL    HW238690  13.259   3.208   3.873
12814SOL     OW38691  11.305   6.815   3.619
12814SOL    HW138692  11.381   6.872   3.608
12814SOL    HW238693  11.248   6.837   3.545
12815SOL     OW38694   8.920   8.859   0.562
12815SOL    HW138695   8.962   8.920   0.501
12815SOL    HW238696   8.906   8.779   0.511
12816SOL     OW38697   9.564  11.048   2.028
12816SOL    HW138698   9.483  11.091   2.056
12816SOL    HW238699   9.632  11.112   2.048
12817SOL     OW38700  11.221  11.863   5.601
12817SOL    HW138701  11.243  11.770   5.592
12817SOL    HW238702  11.303  11.909   5.585
12818SOL     OW38703   9.227   5.829   0.405
12818SOL    HW138704   9.276   5.793   0.332
12818SOL    HW238705   9.245   5.769   0.478
12819SOL     OW38706   6.328   8.602   4.160
12819SOL    HW138707   6.260   8.670   4.149
12819SOL    HW238708   6.306   8.562   4.244
12820SOL     OW38709   1.101   9.135   1.512
12820SOL    HW138710   1.118   9.054   1.463
12820SOL    HW238711  11.781   9.150   1.501
12821SOL     OW38712   4.919  10.279   2.147
12821SOL    HW138713   4.855  10.341   2.182
12821SOL    HW238714   4.926  10.212   2.215
12822SOL     OW38715  11.327  11.891   6.393
12822SOL    HW138716  11.232  11.892   6.401
12822SOL    HW238717  11.346  11.944   6.316
12823SOL     OW38718   9.353   2.414   0.670
12823SOL    HW138719   9.379   2.390   0.758
12823SOL    HW238720   9.328   2.507   0.677
12824SOL     OW38721   5.195  11.595   1.618
12824SOL    HW138722   5.109  11.620   1.652
12824SOL    HW238723   5.245  11.676   1.615
12825SOL     OW38724  10.808   5.750   6.946
12825SOL    HW138725  10.727   5.796   6.965
12825SOL    HW238726  10.871   5.782   7.010
12826SOL     OW38727  10.324   6.271   4.654
12826SOL    HW138728  10.296   6.240   4.740
12826SOL    HW238729  10.249   6.254   4.597
12827SOL     OW38730  10.105   9.662   3.461
12827SOL    HW138731  10.103   9.732   3.395
12827SOL    HW238732  10.025   9.612   3.445
12828SOL     OW38733  10.070  12.479   6.171
12828SOL    HW138734  10.000  12.424   6.136
12828SOL    HW238735  10.124  12.500   6.094
12829SOL     OW38736   8.919  10.655   1.394
12829SOL    HW138737   8.837  10.606   1.403
12829SOL    HW238738   8.973  10.624   1.467
12830SOL     OW38739   7.402  12.672   7.084
12830SOL    HW138740   7.485  12.660   7.129
12830SOL    HW238741   7.425  12.720   7.004
12831SOL     OW38742  12.813   4.701   4.355
12831SOL    HW138743  12.860   4.783   4.367
12831SOL    HW238744  12.820   4.683   4.261
12832SOL     OW38745  12.950  10.684   3.324
12832SOL    HW138746  12.859  10.709   3.336
12832SOL    HW238747  12.946  10.602   3.274
12833SOL     OW38748  14.144  12.357   5.013
12833SOL    HW138749  14.056  12.325   5.032
12833SOL    HW238750  14.130  12.446   4.980
12834SOL     OW38751  12.637  12.508   4.836
12834SOL    HW138752  12.628  12.604   4.841
12834SOL    HW238753  12.726  12.495   4.802
12835SOL     OW38754   4.428   5.656   1.274
12835SOL    HW138755   4.496   5.646   1.207
12835SOL    HW238756   4.415   5.750   1.282
12836SOL     OW38757   2.549  10.230   0.606
12836SOL    HW138758   2.496  10.161   0.564
12836SOL    HW238759   2.574  10.287   0.534
12837SOL     OW38760   9.624   2.804   2.785
12837SOL    HW138761   9.612   2.714   2.818
12837SOL    HW238762   9.637   2.793   2.691
12838SOL     OW38763  11.658   6.929   6.944
12838SOL    HW138764  11.745   6.910   6.908
12838SOL    HW238765  11.598   6.880   6.889
12839SOL     OW38766  12.695   9.085   2.775
12839SOL    HW138767  12.691   9.027   2.851
12839SOL    HW238768  12.715   9.172   2.812
12840SOL     OW38769   4.906   1.612   1.217
12840SOL    HW138770   4.825   1.612   1.165
12840SOL    HW238771   4.972   1.577   1.158
12841SOL     OW38772  11.086  10.353   2.168
12841SOL    HW138773  11.117  10.414   2.236
12841SOL    HW238774  11.159  10.346   2.107
12842SOL     OW38775   5.231  10.789   3.286
12842SOL    HW138776   5.184  10.752   3.211
12842SOL    HW238777   5.191  10.875   3.299
12843SOL     OW38778   8.199  11.120   7.333
12843SOL    HW138779   8.178  11.038   7.289
12843SOL    HW238780   8.294  11.130   7.323
12844SOL     OW38781  14.608  14.757   6.544
12844SOL    HW138782  14.559  14.680   6.516
12844SOL    HW238783  14.565  14.784   6.625
12845SOL     OW38784   3.229   9.160   0.121
12845SOL    HW138785   3.245   9.141   0.213
12845SOL    HW238786   3.316   9.175   0.084
12846SOL     OW38787   9.179  10.354   1.927
12846SOL    HW138788   9.246  10.311   1.980
12846SOL    HW238789   9.225  10.379   1.847
12847SOL     OW38790  12.210   9.995   4.777
12847SOL    HW138791  12.138  10.056   4.789
12847SOL    HW238792  12.279  10.027   4.836
12848SOL     OW38793   7.700   2.020   1.996
12848SOL    HW138794   7.744   2.056   1.920
12848SOL    HW238795   7.622   2.074   2.006
12849SOL     OW38796   6.619   4.784   3.154
12849SOL    HW138797   6.531   4.765   3.187
12849SOL    HW238798   6.644   4.865   3.198
12850SOL     OW38799   8.106  11.808   7.233
12850SOL    HW138800   8.112  11.744   7.304
12850SOL    HW238801   8.163  11.880   7.261
12851SOL     OW38802   9.310  12.893   5.728
12851SOL    HW138803   9.217  12.871   5.718
12851SOL    HW238804   9.314  12.943   5.810
12852SOL     OW38805   6.430  12.920   4.809
12852SOL    HW138806   6.518  12.937   4.776
12852SOL    HW238807   6.433  12.829   4.839
12853SOL     OW38808   2.680   4.404   3.665
12853SOL    HW138809   2.706   4.437   3.751
12853SOL    HW238810   2.681   4.309   3.674
12854SOL     OW38811  11.277   8.595   4.977
12854SOL    HW138812  11.268   8.598   5.072
12854SOL    HW238813  11.240   8.678   4.947
12855SOL     OW38814  12.133  13.849   4.959
12855SOL    HW138815  12.141  13.938   4.992
12855SOL    HW238816  12.040  13.839   4.938
12856SOL     OW38817  11.871  11.716   6.729
12856SOL    HW138818  11.885  11.700   6.636
12856SOL    HW238819  11.781  11.688   6.745
12857SOL     OW38820  11.195   9.772   4.112
12857SOL    HW138821  11.151   9.703   4.062
12857SOL    HW238822  11.210   9.842   4.048
12858SOL     OW38823   5.239   5.616   5.397
12858SOL    HW138824   5.156   5.624   5.444
12858SOL    HW238825   5.270   5.528   5.419
12859SOL     OW38826  14.322  12.956   6.514
12859SOL    HW138827  14.372  12.914   6.444
12859SOL    HW238828  14.232  12.927   6.499
12860SOL     OW38829   5.658   4.907   0.221
12860SOL    HW138830   5.589   4.964   0.188
12860SOL    HW238831   5.682   4.944   0.306
12861SOL     OW38832   7.233  13.767   4.563
12861SOL    HW138833   7.260  13.750   4.653
12861SOL    HW238834   7.274  13.697   4.512
12862SOL     OW38835   6.781  12.772   7.174
12862SOL    HW138836   6.766  12.678   7.160
12862SOL    HW238837   6.704  12.815   7.138
12863SOL     OW38838   8.948  10.008   0.537
12863SOL    HW138839   8.907   9.949   0.600
12863SOL    HW238840   8.971   9.951   0.463
12864SOL     OW38841   9.970   4.827   2.702
12864SOL    HW138842   9.964   4.787   2.615
12864SOL    HW238843   9.988   4.753   2.761
12865SOL     OW38844   6.845  11.989   2.499
12865SOL    HW138845   6.903  11.947   2.435
12865SOL    HW238846   6.905  12.023   2.566
12866SOL     OW38847   1.823   5.842   1.199
12866SOL    HW138848   1.801   5.868   1.289
12866SOL    HW238849   1.766   5.895   1.144
12867SOL     OW38850  13.121  11.669   4.520
12867SOL    HW138851  13.105  11.664   4.425
12867SOL    HW238852  13.207  11.712   4.527
12868SOL     OW38853   3.411  12.665   3.664
12868SOL    HW138854   3.442  12.642   3.576
12868SOL    HW238855   3.470  12.619   3.723
12869SOL     OW38856  12.055  11.672   4.765
12869SOL    HW138857  11.974  11.621   4.766
12869SOL    HW238858  12.086  11.668   4.856
12870SOL     OW38859   8.755  11.782   6.098
12870SOL    HW138860   8.758  11.861   6.151
12870SOL    HW238861   8.718  11.810   6.014
12871SOL     OW38862   8.436  13.508   4.213
12871SOL    HW138863   8.468  13.547   4.131
12871SOL    HW238864   8.341  13.522   4.210
12872SOL     OW38865  10.047   5.873   2.328
12872SOL    HW138866  10.104   5.856   2.404
12872SOL    HW238867   9.961   5.842   2.355
12873SOL     OW38868  10.733  12.854   4.902
12873SOL    HW138869  10.702  12.943   4.889
12873SOL    HW238870  10.819  12.864   4.944
12874SOL     OW38871   5.420  10.405   7.563
12874SOL    HW138872   5.470  10.370   7.489
12874SOL    HW238873   5.408  10.497   7.543
12875SOL     OW38874   7.999   2.995   1.399
12875SOL    HW138875   7.911   2.978   1.366
12875SOL    HW238876   8.044   3.038   1.325
12876SOL     OW38877   4.388   9.799   2.920
12876SOL    HW138878   4.393   9.704   2.913
12876SOL    HW238879   4.402   9.831   2.831
12877SOL     OW38880  10.347  10.504   2.491
12877SOL    HW138881  10.262  10.544   2.507
12877SOL    HW238882  10.334  10.452   2.412
12878SOL     OW38883  11.237   5.314   2.419
12878SOL    HW138884  11.301   5.263   2.468
12878SOL    HW238885  11.154   5.300   2.466
12879SOL     OW38886  11.131   8.958   6.881
12879SOL    HW138887  11.048   9.004   6.873
12879SOL    HW238888  11.137   8.934   6.974
12880SOL     OW38889   3.758   3.663   1.658
12880SOL    HW138890   3.742   3.757   1.664
12880SOL    HW238891   3.689   3.631   1.600
12881SOL     OW38892   9.407   9.382   1.449
12881SOL    HW138893   9.332   9.427   1.409
12881SOL    HW238894   9.455   9.345   1.374
12882SOL     OW38895   7.754  13.207   3.758
12882SOL    HW138896   7.829  13.204   3.700
12882SOL    HW238897   7.761  13.291   3.802
12883SOL     OW38898   7.701  10.102   1.623
12883SOL    HW138899   7.786  10.135   1.594
12883SOL    HW238900   7.661  10.176   1.669
12884SOL     OW38901  14.981   6.581   6.684
12884SOL    HW138902  14.889   6.590   6.661
12884SOL    HW238903  15.016   6.670   6.679
12885SOL     OW38904   9.082  11.640   2.094
12885SOL    HW138905   9.116  11.581   2.027
12885SOL    HW238906   9.145  11.634   2.167
12886SOL     OW38907   7.306   7.801   3.671
12886SOL    HW138908   7.361   7.826   3.746
12886SOL    HW238909   7.361   7.741   3.621
12887SOL     OW38910   5.857  12.415   6.800
12887SOL    HW138911   5.876  12.327   6.765
12887SOL    HW238912   5.841  12.469   6.723
12888SOL     OW38913  10.090  11.066   6.177
12888SOL    HW138914  10.046  10.987   6.147
12888SOL    HW238915  10.091  11.059   6.272
12889SOL     OW38916  10.534   4.134   0.272
12889SOL    HW138917  10.612   4.157   0.222
12889SOL    HW238918  10.546   4.042   0.295
12890SOL     OW38919   1.848   9.346   1.590
12890SOL    HW138920   1.872   9.254   1.580
12890SOL    HW238921   1.814   9.353   1.679
12891SOL     OW38922   8.553   5.455   4.728
12891SOL    HW138923   8.533   5.481   4.638
12891SOL    HW238924   8.486   5.390   4.750
12892SOL     OW38925  10.285   7.436   1.953
12892SOL    HW138926  10.302   7.445   1.859
12892SOL    HW238927  10.286   7.525   1.986
12893SOL     OW38928  12.679  11.626   6.929
12893SOL    HW138929  12.765  11.614   6.969
12893SOL    HW238930  12.642  11.701   6.976
12894SOL     OW38931   8.004   9.070   0.891
12894SOL    HW138932   8.072   9.099   0.952
12894SOL    HW238933   8.047   9.003   0.838
12895SOL     OW38934   7.108  10.319   7.300
12895SOL    HW138935   7.027  10.290   7.344
12895SOL    HW238936   7.078  10.357   7.217
12896SOL     OW38937   9.538   9.916   3.969
12896SOL    HW138938   9.468   9.862   3.932
12896SOL    HW238939   9.497  10.001   3.982
12897SOL     OW38940  12.092  11.568   5.021
12897SOL    HW138941  12.050  11.495   5.067
12897SOL    HW238942  12.020  11.619   4.986
12898SOL     OW38943   6.561   6.030   5.370
12898SOL    HW138944   6.589   6.117   5.397
12898SOL    HW238945   6.473   6.042   5.334
12899SOL     OW38946   7.576   2.931   0.972
12899SOL    HW138947   7.512   2.991   0.935
12899SOL    HW238948   7.614   2.886   0.896
12900SOL     OW38949   7.544   6.684   1.016
12900SOL    HW138950   7.521   6.770   1.051
12900SOL    HW238951   7.635   6.671   1.041
12901SOL     OW38952   8.085   5.059   2.072
12901SOL    HW138953   8.077   5.056   2.168
12901SOL    HW238954   8.032   4.986   2.041
12902SOL     OW38955  10.709  12.840   5.582
12902SOL    HW138956  10.672  12.769   5.530
12902SOL    HW238957  10.634  12.891   5.611
12903SOL     OW38958  11.439  10.396   3.901
12903SOL    HW138959  11.356  10.443   3.903
12903SOL    HW238960  11.505  10.463   3.921
12904SOL     OW38961   8.132   6.846   1.233
12904SOL    HW138962   8.207   6.814   1.182
12904SOL    HW238963   8.059   6.844   1.171
12905SOL     OW38964  13.027   7.642   4.082
12905SOL    HW138965  13.105   7.686   4.049
12905SOL    HW238966  12.984   7.607   4.004
12906SOL     OW38967   3.810   3.919   3.271
12906SOL    HW138968   3.805   4.015   3.269
12906SOL    HW238969   3.868   3.896   3.199
12907SOL     OW38970   6.765   5.082   5.541
12907SOL    HW138971   6.770   5.109   5.633
12907SOL    HW238972   6.706   5.144   5.500
12908SOL     OW38973   4.759   1.837   2.044
12908SOL    HW138974   4.752   1.931   2.031
12908SOL    HW238975   4.669   1.807   2.058
12909SOL     OW38976  13.251  12.530   4.924
12909SOL    HW138977  13.266  12.482   5.006
12909SOL    HW238978  13.232  12.620   4.953
12910SOL     OW38979   4.684   9.349   1.183
12910SOL    HW138980   4.701   9.442   1.169
12910SOL    HW238981   4.658   9.316   1.097
12911SOL     OW38982   4.646   8.417   3.850
12911SOL    HW138983   4.635   8.325   3.827
12911SOL    HW238984   4.557   8.454   3.844
12912SOL     OW38985   9.344  13.261   4.790
12912SOL    HW138986   9.412  13.315   4.751
12912SOL    HW238987   9.332  13.297   4.878
12913SOL     OW38988   9.040   7.356   4.077
12913SOL    HW138989   9.115   7.399   4.037
12913SOL    HW238990   9.072   7.327   4.163
12914SOL     OW38991   4.247   9.883   3.374
12914SOL    HW138992   4.261   9.938   3.296
12914SOL    HW238993   4.322   9.824   3.375
12915SOL     OW38994   4.818  12.879   5.938
12915SOL    HW138995   4.734  12.891   5.983
12915SOL    HW238996   4.801  12.908   5.848
12916SOL     OW38997   9.568  14.296   7.118
12916SOL    HW138998   9.555  14.390   7.130
12916SOL    HW238999   9.537  14.256   7.200
12917SOL     OW39000   7.070   4.475   1.268
12917SOL    HW139001   7.046   4.459   1.359
12917SOL    HW239002   7.160   4.507   1.272
12918SOL     OW39003   7.035  10.760   0.620
12918SOL    HW139004   7.044  10.848   0.585
12918SOL    HW239005   6.995  10.710   0.549
12919SOL     OW39006  14.904  14.756   6.647
12919SOL    HW139007  14.869  14.833   6.692
12919SOL    HW239008  14.841  14.740   6.576
12920SOL     OW39009   9.978   4.161   3.552
12920SOL    HW139010   9.885   4.151   3.530
12920SOL    HW239011   9.988   4.114   3.634
12921SOL     OW39012  11.705   6.581   4.920
12921SOL    HW139013  11.661   6.526   4.985
12921SOL    HW239014  11.717   6.525   4.844
12922SOL     OW39015   5.392   8.972   1.182
12922SOL    HW139016   5.484   8.948   1.193
12922SOL    HW239017   5.345   8.912   1.242
12923SOL     OW39018   5.545  11.046   2.406
12923SOL    HW139019   5.530  10.978   2.341
12923SOL    HW239020   5.473  11.108   2.392
12924SOL     OW39021   6.919   7.405   3.144
12924SOL    HW139022   6.923   7.463   3.068
12924SOL    HW239023   6.961   7.454   3.214
12925SOL     OW39024  11.130  10.226   7.325
12925SOL    HW139025  11.035  10.227   7.317
12925SOL    HW239026  11.161  10.190   7.242
12926SOL     OW39027   9.751   4.802   5.021
12926SOL    HW139028   9.682   4.741   4.995
12926SOL    HW239029   9.832   4.756   4.999
12927SOL     OW39030  11.700   6.202   6.924
12927SOL    HW139031  11.631   6.267   6.910
12927SOL    HW239032  11.654   6.123   6.952
12928SOL     OW39033   5.752   3.082   4.035
12928SOL    HW139034   5.829   3.027   4.018
12928SOL    HW239035   5.682   3.020   4.054
12929SOL     OW39036   6.626   7.071   7.253
12929SOL    HW139037   6.624   7.048   7.160
12929SOL    HW239038   6.555   7.135   7.262
12930SOL     OW39039  15.071   5.257   7.415
12930SOL    HW139040  15.097   5.330   7.358
12930SOL    HW239041  15.091  15.953   7.364
12931SOL     OW39042   5.004   1.408   0.663
12931SOL    HW139043   4.935   1.468   0.693
12931SOL    HW239044   4.997   1.410   0.567
12932SOL     OW39045   0.858   7.620   0.042
12932SOL    HW139046   0.897   7.653   0.123
12932SOL    HW239047   6.240  13.084   7.603
12933SOL     OW39048   3.401  12.520   4.243
12933SOL    HW139049   3.328  12.506   4.183
12933SOL    HW239050   3.455  12.442   4.234
12934SOL     OW39051   4.417   9.780   1.689
12934SOL    HW139052   4.391   9.800   1.779
12934SOL    HW239053   4.336   9.787   1.639
12935SOL     OW39054  12.075   9.826   2.701
12935SOL    HW139055  12.081   9.898   2.765
12935SOL    HW239056  12.138   9.849   2.633
12936SOL     OW39057   9.288  11.076   5.879
12936SOL    HW139058   9.257  11.007   5.820
12936SOL    HW239059   9.209  11.124   5.904
12937SOL     OW39060  10.822   1.896   1.082
12937SOL    HW139061  10.772   1.943   1.015
12937SOL    HW239062  10.817   1.804   1.056
12938SOL     OW39063   3.721   6.020   1.982
12938SOL    HW139064   3.715   6.003   2.076
12938SOL    HW239065   3.813   6.004   1.961
12939SOL     OW39066   6.073   3.037   2.290
12939SOL    HW139067   6.067   2.978   2.365
12939SOL    HW239068   5.991   3.087   2.292
12940SOL     OW39069  10.648  13.698   5.755
12940SOL    HW139070  10.634  13.784   5.794
12940SOL    HW239071  10.721  13.661   5.804
12941SOL     OW39072  10.915   9.600   4.176
12941SOL    HW139073  10.946   9.528   4.232
12941SOL    HW239074  10.910   9.562   4.088
12942SOL     OW39075   6.027  10.773   3.269
12942SOL    HW139076   6.086  10.703   3.242
12942SOL    HW239077   6.084  10.838   3.311
12943SOL     OW39078   4.671  15.143   6.316
12943SOL    HW139079   4.701  15.054   6.334
12943SOL    HW239080   4.728  15.199   6.368
12944SOL     OW39081  11.708   6.300   3.140
12944SOL    HW139082  11.793   6.257   3.136
12944SOL    HW239083  11.659   6.262   3.067
12945SOL     OW39084  10.914   7.204   7.469
12945SOL    HW139085  10.868   7.132   7.511
12945SOL    HW239086  10.859   7.281   7.488
12946SOL     OW39087  11.378   5.063   2.708
12946SOL    HW139088  11.290   5.039   2.736
12946SOL    HW239089  11.436   5.029   2.776
12947SOL     OW39090  12.973   9.075   5.285
12947SOL    HW139091  12.943   9.023   5.360
12947SOL    HW239092  12.959   9.017   5.209
12948SOL     OW39093  10.157   1.718   1.916
12948SOL    HW139094  10.112   1.699   1.833
12948SOL    HW239095  10.087   1.735   1.978
12949SOL     OW39096   9.223  10.608   0.840
12949SOL    HW139097   9.180  10.526   0.864
12949SOL    HW239098   9.313  10.598   0.870
12950SOL     OW39099   5.701  10.842   4.381
12950SOL    HW139100   5.742  10.928   4.394
12950SOL    HW239101   5.753  10.801   4.311
12951SOL     OW39102   8.201   3.707   2.677
12951SOL    HW139103   8.131   3.726   2.613
12951SOL    HW239104   8.278   3.689   2.623
12952SOL     OW39105   6.088  10.658   2.078
12952SOL    HW139106   6.161  10.603   2.105
12952SOL    HW239107   6.129  10.729   2.028
12953SOL     OW39108   7.150  10.760   5.199
12953SOL    HW139109   7.079  10.821   5.184
12953SOL    HW239110   7.113  10.694   5.258
12954SOL     OW39111   9.989   4.736   2.454
12954SOL    HW139112  10.034   4.652   2.461
12954SOL    HW239113  10.051   4.793   2.408
12955SOL     OW39114  10.857   5.419   5.198
12955SOL    HW139115  10.778   5.435   5.250
12955SOL    HW239116  10.894   5.506   5.184
12956SOL     OW39117   6.224  10.539   6.094
12956SOL    HW139118   6.307  10.588   6.097
12956SOL    HW239119   6.183  10.558   6.178
12957SOL     OW39120   8.330  11.758   1.945
12957SOL    HW139121   8.358  11.839   1.988
12957SOL    HW239122   8.401  11.738   1.884
12958SOL     OW39123   1.914   8.038   1.548
12958SOL    HW139124   1.849   8.107   1.544
12958SOL    HW239125   1.947   8.042   1.638
12959SOL     OW39126   9.129   3.957   3.834
12959SOL    HW139127   9.191   4.010   3.784
12959SOL    HW239128   9.078   3.911   3.768
12960SOL     OW39129   8.344  10.857   1.222
12960SOL    HW139130   8.409  10.823   1.160
12960SOL    HW239131   8.346  10.952   1.208
12961SOL     OW39132   9.717   6.982   2.309
12961SOL    HW139133   9.787   6.934   2.355
12961SOL    HW239134   9.636   6.942   2.341
12962SOL     OW39135   6.874  12.061   3.330
12962SOL    HW139136   6.829  11.985   3.294
12962SOL    HW239137   6.949  12.024   3.378
12963SOL     OW39138   9.354  13.005   5.058
12963SOL    HW139139   9.294  13.061   5.108
12963SOL    HW239140   9.441  13.032   5.087
12964SOL     OW39141   4.049  13.320   4.760
12964SOL    HW139142   3.957  13.336   4.778
12964SOL    HW239143   4.064  13.360   4.674
12965SOL     OW39144  11.353  10.222   5.257
12965SOL    HW139145  11.403  10.257   5.332
12965SOL    HW239146  11.344  10.297   5.198
12966SOL     OW39147   7.942   9.484   5.884
12966SOL    HW139148   8.008   9.463   5.950
12966SOL    HW239149   7.872   9.420   5.899
12967SOL     OW39150   5.547   9.008   4.048
12967SOL    HW139151   5.609   9.043   3.982
12967SOL    HW239152   5.542   8.915   4.029
12968SOL     OW39153  14.552   4.786   6.507
12968SOL    HW139154  14.589   4.757   6.423
12968SOL    HW239155  14.586   4.723   6.571
12969SOL     OW39156  11.612  10.327   6.619
12969SOL    HW139157  11.550  10.368   6.559
12969SOL    HW239158  11.565  10.322   6.702
12970SOL     OW39159   7.770   9.151   1.455
12970SOL    HW139160   7.793   9.174   1.365
12970SOL    HW239161   7.688   9.198   1.471
12971SOL     OW39162   6.611   9.071   2.113
12971SOL    HW139163   6.643   8.985   2.142
12971SOL    HW239164   6.537   9.090   2.171
12972SOL     OW39165   8.134   8.874   5.454
12972SOL    HW139166   8.197   8.875   5.526
12972SOL    HW239167   8.188   8.877   5.375
12973SOL     OW39168   9.261  11.265   3.683
12973SOL    HW139169   9.334  11.281   3.624
12973SOL    HW239170   9.198  11.334   3.663
12974SOL     OW39171   9.633   2.322   2.254
12974SOL    HW139172   9.632   2.359   2.342
12974SOL    HW239173   9.598   2.391   2.198
12975SOL     OW39174   3.323  10.227   1.483
12975SOL    HW139175   3.409  10.249   1.519
12975SOL    HW239176   3.265  10.227   1.558
12976SOL     OW39177   8.053   4.578   2.207
12976SOL    HW139178   8.106   4.588   2.286
12976SOL    HW239179   8.088   4.500   2.164
12977SOL     OW39180  14.469  12.062   7.113
12977SOL    HW139181  14.455  12.119   7.189
12977SOL    HW239182  14.405  11.991   7.124
12978SOL     OW39183   4.450   8.206   4.294
12978SOL    HW139184   4.478   8.118   4.317
12978SOL    HW239185   4.410   8.240   4.374
12979SOL     OW39186  15.392  14.286   6.909
12979SOL    HW139187  15.358  14.365   6.952
12979SOL    HW239188  15.417  14.228   6.981
12980SOL     OW39189   5.508  15.141   6.622
12980SOL    HW139190   5.603  15.144   6.609
12980SOL    HW239191   5.479  15.069   6.566
12981SOL     OW39192   8.239   4.202   0.262
12981SOL    HW139193   8.259   4.265   0.193
12981SOL    HW239194   8.241   4.253   0.343
12982SOL     OW39195  10.504  12.024   6.551
12982SOL    HW139196  10.579  11.980   6.512
12982SOL    HW239197  10.531  12.116   6.559
12983SOL     OW39198   6.055   6.563   3.193
12983SOL    HW139199   6.124   6.618   3.156
12983SOL    HW239200   5.974   6.602   3.159
12984SOL     OW39201   4.344   4.866   3.952
12984SOL    HW139202   4.417   4.915   3.989
12984SOL    HW239203   4.276   4.932   3.938
12985SOL     OW39204  12.707  10.749   3.476
12985SOL    HW139205  12.629  10.799   3.500
12985SOL    HW239206  12.680  10.658   3.483
12986SOL     OW39207   5.937   3.363   3.007
12986SOL    HW139208   6.015   3.318   2.976
12986SOL    HW239209   5.894   3.394   2.927
12987SOL     OW39210   3.494   1.585   1.238
12987SOL    HW139211   3.577   1.622   1.267
12987SOL    HW239212   3.510   1.558   1.147
12988SOL     OW39213   9.110   0.369   0.116
12988SOL    HW139214   9.067   0.407   0.192
12988SOL    HW239215   9.201   0.358   0.144
12989SOL     OW39216   5.283  11.291   5.124
12989SOL    HW139217   5.255  11.311   5.214
12989SOL    HW239218   5.218  11.335   5.069
12990SOL     OW39219  13.862  13.832   4.375
12990SOL    HW139220  13.772  13.806   4.355
12990SOL    HW239221   3.141  13.759   4.345
12991SOL     OW39222   6.992   5.513   6.311
12991SOL    HW139223   7.053   5.466   6.254
12991SOL    HW239224   6.986   5.601   6.273
12992SOL     OW39225   8.698  10.218   3.323
12992SOL    HW139226   8.735  10.293   3.275
12992SOL    HW239227   8.725  10.142   3.271
12993SOL     OW39228   3.485   2.382   1.516
12993SOL    HW139229   3.419   2.375   1.585
12993SOL    HW239230   3.514   2.473   1.520
12994SOL     OW39231  10.215  14.243   5.414
12994SOL    HW139232  10.299  14.287   5.404
12994SOL    HW239233  10.152  14.314   5.429
12995SOL     OW39234   5.486   5.726   0.068
12995SOL    HW139235   5.522   5.654   0.120
12995SOL    HW239236   5.478   5.799   0.130
12996SOL     OW39237   5.379   9.123   1.821
12996SOL    HW139238   5.453   9.134   1.880
12996SOL    HW239239   5.314   9.186   1.853
12997SOL     OW39240  12.689  14.584   6.598
12997SOL    HW139241  12.691  14.525   6.522
12997SOL    HW239242  12.775  14.626   6.598
12998SOL     OW39243  11.199  12.811   7.602
12998SOL    HW139244  11.228  12.799   7.511
12998SOL    HW239245   5.826   7.338   0.024
12999SOL     OW39246   6.632   4.332   2.421
12999SOL    HW139247   6.714   4.380   2.415
12999SOL    HW239248   6.652   4.254   2.473
13000SOL     OW39249   5.946  12.483   4.471
13000SOL    HW139250   5.894  12.458   4.395
13000SOL    HW239251   5.951  12.402   4.523
13001SOL     OW39252   7.210  13.901   6.322
13001SOL    HW139253   7.285  13.862   6.366
13001SOL    HW239254   7.240  13.988   6.295
13002SOL     OW39255   7.814   9.147   5.877
13002SOL    HW139256   7.856   9.141   5.791
13002SOL    HW239257   7.878   9.111   5.938
13003SOL     OW39258   5.173  11.445   2.199
13003SOL    HW139259   5.177  11.442   2.295
13003SOL    HW239260   5.082  11.426   2.178
13004SOL     OW39261   7.735  12.294   5.165
13004SOL    HW139262   7.688  12.361   5.115
13004SOL    HW239263   7.748  12.222   5.104
13005SOL     OW39264  10.679  10.270   3.580
13005SOL    HW139265  10.692  10.242   3.490
13005SOL    HW239266  10.621  10.346   3.574
13006SOL     OW39267  10.778   8.373   6.737
13006SOL    HW139268  10.780   8.280   6.713
13006SOL    HW239269  10.685   8.394   6.741
13007SOL     OW39270  10.424  11.539   5.419
13007SOL    HW139271  10.339  11.546   5.461
13007SOL    HW239272  10.413  11.585   5.336
13008SOL     OW39273   2.695   5.151   2.677
13008SOL    HW139274   2.774   5.114   2.716
13008SOL    HW239275   2.642   5.179   2.751
13009SOL     OW39276  10.428  15.429   7.286
13009SOL    HW139277  10.418  15.445   7.192
13009SOL    HW239278  10.345  15.455   7.325
13010SOL     OW39279   9.708   8.804   7.519
13010SOL    HW139280   9.772   8.781   7.586
13010SOL    HW239281   9.747   8.879   7.474
13011SOL     OW39282   5.049   3.257   3.411
13011SOL    HW139283   4.991   3.270   3.335
13011SOL    HW239284   4.997   3.287   3.486
13012SOL     OW39285   6.329   2.848   3.560
13012SOL    HW139286   6.323   2.803   3.644
13012SOL    HW239287   6.317   2.941   3.582
13013SOL     OW39288   1.234   2.646   0.188
13013SOL    HW139289   1.206   2.652   0.280
13013SOL    HW239290   1.157   2.614   0.142
13014SOL     OW39291   2.682  10.705   1.929
13014SOL    HW139292   2.641  10.788   1.952
13014SOL    HW239293   2.774  10.715   1.957
13015SOL     OW39294   5.331   7.233   3.838
13015SOL    HW139295   5.238   7.211   3.850
13015SOL    HW239296   5.347   7.218   3.745
13016SOL     OW39297  10.707   5.501   3.683
13016SOL    HW139298  10.707   5.596   3.693
13016SOL    HW239299  10.748   5.469   3.763
13017SOL     OW39300   8.289  11.601   6.676
13017SOL    HW139301   8.372  11.608   6.722
13017SOL    HW239302   8.289  11.514   6.637
13018SOL     OW39303   4.925   8.488   6.516
13018SOL    HW139304   4.866   8.528   6.452
13018SOL    HW239305   4.936   8.555   6.583
13019SOL     OW39306   7.992   8.823   4.446
13019SOL    HW139307   7.946   8.776   4.376
13019SOL    HW239308   8.002   8.912   4.412
13020SOL     OW39309   3.278  12.805   4.249
13020SOL    HW139310   3.283  12.775   4.158
13020SOL    HW239311   3.282  12.725   4.301
13021SOL     OW39312  12.378   6.829   5.706
13021SOL    HW139313  12.313   6.813   5.774
13021SOL    HW239314  12.436   6.896   5.743
13022SOL     OW39315   5.152   4.139   0.614
13022SOL    HW139316   5.171   4.163   0.704
13022SOL    HW239317   5.205   4.198   0.561
13023SOL     OW39318   4.420   8.738   0.155
13023SOL    HW139319   4.403   8.648   0.185
13023SOL    HW239320   4.433   8.729   0.061
13024SOL     OW39321   3.753   4.576   3.316
13024SOL    HW139322   3.778   4.653   3.265
13024SOL    HW239323   3.804   4.582   3.397
13025SOL     OW39324  15.056  13.013   6.724
13025SOL    HW139325  15.127  12.994   6.663
13025SOL    HW239326  15.019  12.928   6.745
13026SOL     OW39327   7.502   2.276   0.375
13026SOL    HW139328   7.551   2.345   0.419
13026SOL    HW239329   7.441   2.244   0.441
13027SOL     OW39330   4.549   2.784   3.500
13027SOL    HW139331   4.481   2.779   3.567
13027SOL    HW239332   4.602   2.860   3.525
13028SOL     OW39333   4.239  10.359   3.793
13028SOL    HW139334   4.218  10.340   3.884
13028SOL    HW239335   4.335  10.354   3.789
13029SOL     OW39336   5.257   3.057   3.371
13029SOL    HW139337   5.208   3.119   3.317
13029SOL    HW239338   5.272   3.103   3.453
13030SOL     OW39339   5.119   9.450   0.062
13030SOL    HW139340   5.171   9.377   0.028
13030SOL    HW239341   5.140   9.453   0.156
13031SOL     OW39342  15.065  11.723   6.204
13031SOL    HW139343  15.015  11.722   6.286
13031SOL    HW239344  15.098  11.634   6.195
13032SOL     OW39345   9.709   1.816   0.720
13032SOL    HW139346   9.716   1.901   0.675
13032SOL    HW239347   9.627   1.779   0.687
13033SOL     OW39348   9.783   6.489   3.411
13033SOL    HW139349   9.844   6.552   3.373
13033SOL    HW239350   9.825   6.460   3.492
13034SOL     OW39351   9.008   7.688   3.566
13034SOL    HW139352   9.043   7.772   3.536
13034SOL    HW239353   8.965   7.651   3.489
13035SOL     OW39354   9.255   5.398   6.212
13035SOL    HW139355   9.264   5.315   6.165
13035SOL    HW239356   9.341   5.412   6.253
13036SOL     OW39357   8.436   7.952   5.156
13036SOL    HW139358   8.420   7.900   5.235
13036SOL    HW239359   8.401   7.900   5.084
13037SOL     OW39360   9.068   7.727   7.143
13037SOL    HW139361   9.121   7.696   7.217
13037SOL    HW239362   9.132   7.751   7.076
13038SOL     OW39363   5.814  12.451   5.054
13038SOL    HW139364   5.825  12.513   4.982
13038SOL    HW239365   5.824  12.365   5.013
13039SOL     OW39366   9.865  10.758   3.203
13039SOL    HW139367   9.849  10.667   3.177
13039SOL    HW239368   9.786  10.805   3.174
13040SOL     OW39369  10.307   4.051   3.209
13040SOL    HW139370  10.281   4.001   3.131
13040SOL    HW239371  10.248   4.020   3.278
13041SOL     OW39372  12.070  12.062   6.858
13041SOL    HW139373  12.014  12.031   6.929
13041SOL    HW239374  12.016  12.057   6.779
13042SOL     OW39375   2.919   9.369   4.112
13042SOL    HW139376   2.986   9.358   4.179
13042SOL    HW239377  13.636   9.436   4.146
13043SOL     OW39378   6.793   8.647   3.950
13043SOL    HW139379   6.866   8.592   3.980
13043SOL    HW239380   6.715   8.599   3.974
13044SOL     OW39381  13.649  13.146   7.088
13044SOL    HW139382  13.717  13.172   7.150
13044SOL    HW239383  13.582  13.104   7.142
13045SOL     OW39384  14.857  11.965   6.760
13045SOL    HW139385  14.902  11.884   6.786
13045SOL    HW239386  14.769  11.936   6.737
13046SOL     OW39387  12.770   8.637   4.704
13046SOL    HW139388  12.706   8.597   4.644
13046SOL    HW239389  12.728   8.633   4.790
13047SOL     OW39390  10.226   5.389   1.580
13047SOL    HW139391  10.310   5.354   1.610
13047SOL    HW239392  10.163   5.362   1.647
13048SOL     OW39393   9.042  12.409   2.616
13048SOL    HW139394   9.071  12.393   2.706
13048SOL    HW239395   8.974  12.476   2.624
13049SOL     OW39396  14.359  11.269   5.386
13049SOL    HW139397  14.388  11.181   5.367
13049SOL    HW239398  14.341  11.269   5.480
13050SOL     OW39399   0.381   8.026   0.246
13050SOL    HW139400   0.365   8.116   0.272
13050SOL    HW239401   0.440   8.033   0.171
13051SOL     OW39402  13.835  11.366   4.962
13051SOL    HW139403  13.884  11.411   4.893
13051SOL    HW239404  13.805  11.285   4.921
13052SOL     OW39405  12.645   4.383   3.332
13052SOL    HW139406  12.556   4.352   3.346
13052SOL    HW239407  12.700   4.323   3.384
13053SOL     OW39408   7.215   6.084   3.459
13053SOL    HW139409   7.130   6.108   3.495
13053SOL    HW239410   7.240   6.159   3.405
13054SOL     OW39411   2.378   7.649   1.671
13054SOL    HW139412   2.360   7.586   1.601
13054SOL    HW239413   2.292   7.668   1.709
13055SOL     OW39414   7.075  11.313   2.502
13055SOL    HW139415   6.996  11.341   2.549
13055SOL    HW239416   7.042  11.277   2.420
13056SOL     OW39417   5.328  13.628   5.157
13056SOL    HW139418   5.412  13.621   5.203
13056SOL    HW239419   5.307  13.539   5.131
13057SOL     OW39420   5.391  11.120   3.722
13057SOL    HW139421   5.482  11.090   3.723
13057SOL    HW239422   5.352  11.079   3.799
13058SOL     OW39423  11.728  10.776   6.206
13058SOL    HW139424  11.745  10.767   6.112
13058SOL    HW239425  11.690  10.864   6.215
13059SOL     OW39426  12.284   7.044   6.627
13059SOL    HW139427  12.370   7.068   6.661
13059SOL    HW239428  12.281   7.084   6.540
13060SOL     OW39429   8.999   8.001   2.751
13060SOL    HW139430   8.911   8.028   2.726
13060SOL    HW239431   9.049   8.083   2.756
13061SOL     OW39432   6.319  11.549   2.747
13061SOL    HW139433   6.264  11.585   2.817
13061SOL    HW239434   6.386  11.616   2.733
13062SOL     OW39435  13.816   5.076   4.432
13062SOL    HW139436  13.743   5.015   4.441
13062SOL    HW239437  13.855   5.080   4.519
13063SOL     OW39438   5.193   4.813   3.201
13063SOL    HW139439   5.229   4.789   3.115
13063SOL    HW239440   5.243   4.889   3.228
13064SOL     OW39441   8.334  12.023   4.908
13064SOL    HW139442   8.307  11.937   4.940
13064SOL    HW239443   8.329  12.017   4.813
13065SOL     OW39444  10.638   6.448   7.493
13065SOL    HW139445  10.699   6.519   7.472
13065SOL    HW239446  10.621   6.406   7.409
13066SOL     OW39447   3.816   4.387   1.342
13066SOL    HW139448   3.744   4.447   1.323
13066SOL    HW239449   3.837   4.403   1.434
13067SOL     OW39450  11.476   7.979   4.442
13067SOL    HW139451  11.407   8.045   4.434
13067SOL    HW239452  11.547   8.012   4.387
13068SOL     OW39453   1.655   6.300   0.810
13068SOL    HW139454   1.578   6.351   0.785
13068SOL    HW239455   1.704   6.289   0.729
13069SOL     OW39456   7.885  14.691   6.392
13069SOL    HW139457   7.811  14.740   6.428
13069SOL    HW239458   7.919  14.641   6.466
13070SOL     OW39459   8.877  11.736   6.994
13070SOL    HW139460   8.789  11.716   6.962
13070SOL    HW239461   8.886  11.831   6.981
13071SOL     OW39462   9.714  12.421   6.562
13071SOL    HW139463   9.622  12.433   6.539
13071SOL    HW239464   9.752  12.373   6.488
13072SOL     OW39465  12.155   8.493   5.636
13072SOL    HW139466  12.171   8.492   5.731
13072SOL    HW239467  12.149   8.586   5.614
13073SOL     OW39468   8.772   9.990   3.453
13073SOL    HW139469   8.757   9.936   3.376
13073SOL    HW239470   8.748  10.078   3.425
13074SOL     OW39471   9.082   6.024   2.759
13074SOL    HW139472   9.101   6.112   2.790
13074SOL    HW239473   9.164   5.996   2.717
13075SOL     OW39474   8.423   9.369   7.083
13075SOL    HW139475   8.467   9.447   7.117
13075SOL    HW239476   8.493   9.319   7.042
13076SOL     OW39477   4.065  10.565   3.781
13076SOL    HW139478   4.140  10.506   3.783
13076SOL    HW239479   4.064  10.606   3.867
13077SOL     OW39480   8.420   2.938   2.858
13077SOL    HW139481   8.464   2.854   2.861
13077SOL    HW239482   8.342   2.923   2.805
13078SOL     OW39483   6.476   5.018   2.128
13078SOL    HW139484   6.458   5.075   2.203
13078SOL    HW239485   6.568   5.034   2.107
13079SOL     OW39486   8.718   6.236   3.003
13079SOL    HW139487   8.638   6.279   2.973
13079SOL    HW239488   8.691   6.147   3.024
13080SOL     OW39489   4.132   2.162   2.647
13080SOL    HW139490   4.192   2.150   2.573
13080SOL    HW239491   4.111   2.256   2.645
13081SOL     OW39492  12.730   8.249   3.053
13081SOL    HW139493  12.709   8.327   3.001
13081SOL    HW239494  12.808   8.213   3.011
13082SOL     OW39495  12.305   9.754   4.637
13082SOL    HW139496  12.277   9.826   4.693
13082SOL    HW239497  12.235   9.689   4.645
13083SOL     OW39498  12.195  15.970   7.566
13083SOL    HW139499   6.836  10.531   0.022
13083SOL    HW239500  12.176  16.057   7.603
13084SOL     OW39501   5.439   7.287   5.319
13084SOL    HW139502   5.388   7.314   5.243
13084SOL    HW239503   5.394   7.325   5.394
13085SOL     OW39504  15.533  10.659   7.147
13085SOL    HW139505  15.519  10.588   7.085
13085SOL    HW239506  15.625  10.654   7.169
13086SOL     OW39507   3.009   3.508   1.305
13086SOL    HW139508   2.999   3.495   1.211
13086SOL    HW239509   3.104   3.509   1.319
13087SOL     OW39510   9.854   9.694   0.116
13087SOL    HW139511   9.894   9.781   0.119
13087SOL    HW239512   9.905   9.646   0.050
13088SOL     OW39513   4.437  10.602   1.690
13088SOL    HW139514   4.525  10.640   1.702
13088SOL    HW239515   4.437  10.571   1.599
13089SOL     OW39516  12.735  10.005   3.453
13089SOL    HW139517  12.786  10.085   3.466
13089SOL    HW239518  12.799   9.934   3.456
13090SOL     OW39519   5.401   7.450   1.548
13090SOL    HW139520   5.417   7.356   1.559
13090SOL    HW239521   5.489   7.488   1.542
13091SOL     OW39522   6.989  14.190   6.384
13091SOL    HW139523   7.038  14.270   6.365
13091SOL    HW239524   7.000  14.175   6.478
13092SOL     OW39525  13.152  13.725   6.196
13092SOL    HW139526  13.214  13.680   6.138
13092SOL    HW239527  13.106  13.654   6.240
13093SOL     OW39528   8.919   5.699   3.661
13093SOL    HW139529   9.014   5.714   3.665
13093SOL    HW239530   8.897   5.709   3.569
13094SOL     OW39531  13.041   7.335   5.634
13094SOL    HW139532  12.983   7.408   5.654
13094SOL    HW239533  13.116   7.375   5.590
13095SOL     OW39534  10.644  10.515   3.240
13095SOL    HW139535  10.699  10.456   3.188
13095SOL    HW239536  10.698  10.538   3.315
13096SOL     OW39537   6.654   5.490   2.785
13096SOL    HW139538   6.738   5.537   2.784
13096SOL    HW239539   6.639   5.468   2.693
13097SOL     OW39540   1.748   4.567   0.620
13097SOL    HW139541   1.713   4.655   0.632
13097SOL    HW239542   1.694   4.529   0.551
13098SOL     OW39543   9.077   4.507   0.378
13098SOL    HW139544   9.107   4.459   0.301
13098SOL    HW239545   8.981   4.497   0.377
13099SOL     OW39546  13.385  10.131   6.413
13099SOL    HW139547  13.451  10.067   6.441
13099SOL    HW239548  13.431  10.187   6.350
13100SOL     OW39549   5.187  11.493   2.486
13100SOL    HW139550   5.110  11.507   2.541
13100SOL    HW239551   5.252  11.455   2.545
13101SOL     OW39552   4.283   3.927   5.222
13101SOL    HW139553   4.245   4.011   5.197
13101SOL    HW239554   4.371   3.950   5.253
13102SOL     OW39555  11.502   9.099   1.961
13102SOL    HW139556  11.435   9.130   2.022
13102SOL    HW239557  11.454   9.060   1.889
13103SOL     OW39558   6.673  11.214   2.244
13103SOL    HW139559   6.656  11.146   2.309
13103SOL    HW239560   6.625  11.185   2.166
13104SOL     OW39561   9.693   9.483   1.988
13104SOL    HW139562   9.697   9.424   1.913
13104SOL    HW239563   9.777   9.530   1.986
13105SOL     OW39564  12.078  10.930   6.284
13105SOL    HW139565  12.058  10.882   6.364
13105SOL    HW239566  12.173  10.943   6.286
13106SOL     OW39567  12.059   8.187   7.520
13106SOL    HW139568  12.141   8.138   7.513
13106SOL    HW239569  12.010   8.143   7.590
13107SOL     OW39570   6.801  10.622   2.423
13107SOL    HW139571   6.815  10.545   2.368
13107SOL    HW239572   6.863  10.687   2.390
13108SOL     OW39573  12.466   5.539   4.871
13108SOL    HW139574  12.513   5.460   4.843
13108SOL    HW239575  12.374   5.513   4.870
13109SOL     OW39576   4.181   3.783   2.100
13109SOL    HW139577   4.106   3.726   2.115
13109SOL    HW239578   4.149   3.850   2.040
13110SOL     OW39579  11.087  13.810   5.401
13110SOL    HW139580  11.156  13.874   5.382
13110SOL    HW239581  11.133  13.738   5.443
13111SOL     OW39582   2.094   9.093   2.568
13111SOL    HW139583   2.021   9.092   2.629
13111SOL    HW239584   2.167   9.130   2.617
13112SOL     OW39585  15.137  11.069   7.242
13112SOL    HW139586  15.185  11.045   7.163
13112SOL    HW239587  15.105  11.158   7.224
13113SOL     OW39588  13.541   7.185   4.794
13113SOL    HW139589  13.598   7.261   4.806
13113SOL    HW239590  13.586   7.131   4.729
13114SOL     OW39591   8.484   6.366   0.252
13114SOL    HW139592   8.498   6.334   0.341
13114SOL    HW239593   8.424   6.303   0.213
13115SOL     OW39594   1.347   8.551   0.183
13115SOL    HW139595   1.348   8.530   0.277
13115SOL    HW239596   1.263   8.517   0.152
13116SOL     OW39597  12.112   5.971   5.382
13116SOL    HW139598  12.060   5.893   5.367
13116SOL    HW239599  12.183   5.943   5.440
13117SOL     OW39600   6.735   9.130   6.079
13117SOL    HW139601   6.765   9.162   5.994
13117SOL    HW239602   6.765   9.195   6.142
13118SOL     OW39603   2.467   4.330   1.905
13118SOL    HW139604   2.466   4.377   1.988
13118SOL    HW239605   2.384   4.352   1.863
13119SOL     OW39606   3.832   5.916   1.601
13119SOL    HW139607   3.780   5.900   1.680
13119SOL    HW239608   3.821   5.837   1.548
13120SOL     OW39609   9.219   8.983   7.228
13120SOL    HW139610   9.143   8.980   7.285
13120SOL    HW239611   9.210   8.906   7.172
13121SOL     OW39612  12.423   5.938   5.963
13121SOL    HW139613  12.406   5.850   5.998
13121SOL    HW239614  12.485   5.924   5.892
13122SOL     OW39615  10.772   9.428   2.293
13122SOL    HW139616  10.728   9.379   2.223
13122SOL    HW239617  10.801   9.360   2.354
13123SOL     OW39618  12.552   7.876   2.955
13123SOL    HW139619  12.537   7.930   2.878
13123SOL    HW239620  12.627   7.821   2.933
13124SOL     OW39621   5.500   6.520   0.974
13124SOL    HW139622   5.438   6.572   0.923
13124SOL    HW239623   5.582   6.525   0.924
13125SOL     OW39624  10.215  11.886   3.374
13125SOL    HW139625  10.147  11.866   3.310
13125SOL    HW239626  10.236  11.801   3.414
13126SOL     OW39627   1.987   8.696   2.653
13126SOL    HW139628   2.059   8.719   2.595
13126SOL    HW239629   2.022   8.625   2.708
13127SOL     OW39630   8.179  11.961   6.190
13127SOL    HW139631   8.215  12.033   6.241
13127SOL    HW239632   8.234  11.886   6.212
13128SOL     OW39633   7.458  10.683   1.213
13128SOL    HW139634   7.410  10.697   1.131
13128SOL    HW239635   7.519  10.756   1.218
13129SOL     OW39636  11.049  10.825   2.477
13129SOL    HW139637  11.110  10.875   2.531
13129SOL    HW239638  11.079  10.839   2.387
13130SOL     OW39639   6.745   8.546   3.415
13130SOL    HW139640   6.802   8.558   3.491
13130SOL    HW239641   6.805   8.529   3.342
13131SOL     OW39642   1.937  10.585   0.713
13131SOL    HW139643   2.004  10.520   0.735
13131SOL    HW239644   1.854  10.537   0.722
13132SOL     OW39645  13.941   6.913   7.391
13132SOL    HW139646  14.019   6.955   7.426
13132SOL    HW239647  13.871   6.938   7.451
13133SOL     OW39648  14.101  14.868   7.185
13133SOL    HW139649  14.131  14.893   7.098
13133SOL    HW239650  14.006  14.879   7.182
13134SOL     OW39651   4.125   9.816   2.977
13134SOL    HW139652   4.218   9.812   2.956
13134SOL    HW239653   4.120   9.785   3.068
13135SOL     OW39654   8.735   4.141   4.244
13135SOL    HW139655   8.655   4.149   4.192
13135SOL    HW239656   8.806   4.140   4.179
13136SOL     OW39657   9.926  14.330   5.057
13136SOL    HW139658   9.947  14.237   5.068
13136SOL    HW239659   9.997  14.376   5.101
13137SOL     OW39660  11.537   4.737   6.014
13137SOL    HW139661  11.575   4.649   6.006
13137SOL    HW239662  11.609   4.796   5.992
13138SOL     OW39663   6.673  12.446   6.003
13138SOL    HW139664   6.703  12.525   6.048
13138SOL    HW239665   6.668  12.379   6.072
13139SOL     OW39666   8.129   5.674   6.477
13139SOL    HW139667   8.128   5.706   6.567
13139SOL    HW239668   8.221   5.671   6.453
13140SOL     OW39669   7.420   4.208   1.878
13140SOL    HW139670   7.515   4.202   1.866
13140SOL    HW239671   7.383   4.182   1.794
13141SOL     OW39672   4.849   7.521   3.229
13141SOL    HW139673   4.859   7.615   3.219
13141SOL    HW239674   4.894   7.483   3.154
13142SOL     OW39675   7.489   9.227   6.533
13142SOL    HW139676   7.459   9.306   6.489
13142SOL    HW239677   7.444   9.228   6.618
13143SOL     OW39678   3.470   3.417   3.864
13143SOL    HW139679   3.416   3.460   3.929
13143SOL    HW239680   3.544   3.477   3.849
13144SOL     OW39681   8.749  11.024   7.407
13144SOL    HW139682   8.777  10.944   7.363
13144SOL    HW239683   8.827  11.055   7.453
13145SOL     OW39684  12.946   5.179   3.873
13145SOL    HW139685  12.866   5.215   3.836
13145SOL    HW239686  12.997   5.255   3.901
13146SOL     OW39687   4.503   4.398   1.764
13146SOL    HW139688   4.524   4.436   1.849
13146SOL    HW239689   4.560   4.444   1.702
13147SOL     OW39690  12.214   7.892   4.986
13147SOL    HW139691  12.288   7.878   5.046
13147SOL    HW239692  12.137   7.889   5.042
13148SOL     OW39693   7.703  12.895   7.514
13148SOL    HW139694   7.771  12.933   7.570
13148SOL    HW239695   7.622  12.937   7.543
13149SOL     OW39696   8.975  11.368   3.347
13149SOL    HW139697   8.952  11.320   3.426
13149SOL    HW239698   8.900  11.355   3.288
13150SOL     OW39699  11.736  10.911   2.670
13150SOL    HW139700  11.711  11.003   2.668
13150SOL    HW239701  11.824  10.909   2.633
13151SOL     OW39702   4.629   4.162   4.521
13151SOL    HW139703   4.657   4.089   4.465
13151SOL    HW239704   4.534   4.166   4.509
13152SOL     OW39705  11.298   1.254   1.707
13152SOL    HW139706  11.374   1.294   1.666
13152SOL    HW239707  11.269   1.319   1.771
13153SOL     OW39708  11.484   3.963   3.071
13153SOL    HW139709  11.472   4.007   3.155
13153SOL    HW239710  11.477   4.033   3.006
13154SOL     OW39711   5.356   5.830   2.430
13154SOL    HW139712   5.317   5.787   2.506
13154SOL    HW239713   5.445   5.852   2.457
13155SOL     OW39714   7.794  13.789   6.379
13155SOL    HW139715   7.798  13.694   6.374
13155SOL    HW239716   7.874  13.814   6.424
13156SOL     OW39717   4.653   8.644   2.542
13156SOL    HW139718   4.616   8.694   2.616
13156SOL    HW239719   4.726   8.595   2.580
13157SOL     OW39720  12.730  12.593   5.967
13157SOL    HW139721  12.664  12.580   6.035
13157SOL    HW239722  12.681  12.582   5.885
13158SOL     OW39723   5.404   4.604   3.040
13158SOL    HW139724   5.352   4.525   3.022
13158SOL    HW239725   5.443   4.587   3.126
13159SOL     OW39726   3.765  12.329   2.567
13159SOL    HW139727   3.853  12.291   2.574
13159SOL    HW239728   3.743  12.356   2.656
13160SOL     OW39729   9.665   2.174   0.268
13160SOL    HW139730   9.708   2.144   0.349
13160SOL    HW239731   9.664   2.097   0.212
13161SOL     OW39732  13.967  12.779   5.736
13161SOL    HW139733  14.020  12.798   5.813
13161SOL    HW239734  13.969  12.859   5.684
13162SOL     OW39735   4.052   9.831   1.334
13162SOL    HW139736   4.103   9.868   1.262
13162SOL    HW239737   3.961   9.832   1.301
13163SOL     OW39738   4.868   5.459   5.808
13163SOL    HW139739   4.911   5.395   5.865
13163SOL    HW239740   4.875   5.542   5.855
13164SOL     OW39741  11.920   4.127   2.845
13164SOL    HW139742  11.967   4.050   2.876
13164SOL    HW239743  11.943   4.196   2.908
13165SOL     OW39744  14.415  14.623   6.042
13165SOL    HW139745  14.458  14.571   6.109
13165SOL    HW239746  14.475  14.696   6.027
13166SOL     OW39747   4.693   7.782   6.249
13166SOL    HW139748   4.702   7.852   6.313
13166SOL    HW239749   4.782   7.767   6.217
13167SOL     OW39750   8.862  10.092   1.800
13167SOL    HW139751   8.860  10.081   1.895
13167SOL    HW239752   8.770  10.104   1.776
13168SOL     OW39753   9.447  12.468   6.738
13168SOL    HW139754   9.425  12.462   6.646
13168SOL    HW239755   9.538  12.439   6.743
13169SOL     OW39756   4.716   4.622   0.910
13169SOL    HW139757   4.734   4.536   0.949
13169SOL    HW239758   4.624   4.617   0.884
13170SOL     OW39759   9.289   9.304   2.030
13170SOL    HW139760   9.278   9.302   1.935
13170SOL    HW239761   9.282   9.397   2.053
13171SOL     OW39762   7.952  14.414   5.147
13171SOL    HW139763   7.942  14.332   5.098
13171SOL    HW239764   8.026   3.683   5.107
13172SOL     OW39765   8.928   9.033   1.919
13172SOL    HW139766   8.957   9.123   1.933
13172SOL    HW239767   8.833   9.035   1.935
13173SOL     OW39768   4.319   7.651   3.302
13173SOL    HW139769   4.315   7.675   3.209
13173SOL    HW239770   4.407   7.675   3.330
13174SOL     OW39771  12.136  12.529   2.995
13174SOL    HW139772  12.155  12.490   3.081
13174SOL    HW239773  12.051  12.572   3.007
13175SOL     OW39774   8.989   4.904   6.507
13175SOL    HW139775   8.993   4.875   6.415
13175SOL    HW239776   9.078   4.934   6.526
13176SOL     OW39777   9.335   2.981   1.168
13176SOL    HW139778   9.406   3.044   1.175
13176SOL    HW239779   9.372   2.908   1.118
13177SOL     OW39780  15.594   6.826   7.249
13177SOL    HW139781  15.522   6.791   7.302
13177SOL    HW239782  15.582   6.920   7.252
13178SOL     OW39783   8.790   3.078   0.241
13178SOL    HW139784   8.880   3.106   0.259
13178SOL    HW239785   8.799   2.985   0.220
13179SOL     OW39786   6.216   2.501   0.256
13179SOL    HW139787   6.270   2.445   0.312
13179SOL    HW239788   6.254   2.588   0.266
13180SOL     OW39789   3.657   8.575   3.425
13180SOL    HW139790   3.666   8.638   3.497
13180SOL    HW239791   3.590   8.615   3.368
13181SOL     OW39792  10.804   5.562   5.840
13181SOL    HW139793  10.887   5.559   5.791
13181SOL    HW239794  10.774   5.652   5.829
13182SOL     OW39795   5.137   4.538   2.672
13182SOL    HW139796   5.113   4.484   2.747
13182SOL    HW239797   5.177   4.476   2.610
13183SOL     OW39798   5.395  11.512   1.120
13183SOL    HW139799   5.380   0.785   1.038
13183SOL    HW239800   5.411  11.580   1.185
13184SOL     OW39801   3.300   3.918   3.795
13184SOL    HW139802   3.371   3.855   3.791
13184SOL    HW239803   3.294   3.941   3.888
13185SOL     OW39804   8.772   3.407   0.416
13185SOL    HW139805   8.788   3.498   0.389
13185SOL    HW239806   8.710   3.374   0.351
13186SOL     OW39807   7.302   0.420   0.264
13186SOL    HW139808   7.386   0.419   0.309
13186SOL    HW239809   7.250   0.486   0.311
13187SOL     OW39810   8.609   8.611   3.231
13187SOL    HW139811   8.653   8.601   3.315
13187SOL    HW239812   8.667   8.667   3.180
13188SOL     OW39813  10.887   2.962   1.671
13188SOL    HW139814  10.872   2.934   1.761
13188SOL    HW239815  10.944   2.895   1.634
13189SOL     OW39816   4.734   7.455   1.178
13189SOL    HW139817   4.697   7.460   1.090
13189SOL    HW239818   4.711   7.539   1.219
13190SOL     OW39819   4.996   3.873   4.356
13190SOL    HW139820   5.075   3.833   4.393
13190SOL    HW239821   4.924   3.825   4.396
13191SOL     OW39822  10.996   6.076   2.576
13191SOL    HW139823  10.944   6.139   2.526
13191SOL    HW239824  10.998   5.997   2.522
13192SOL     OW39825  10.438   5.689   2.948
13192SOL    HW139826  10.481   5.625   2.892
13192SOL    HW239827  10.399   5.638   3.018
13193SOL     OW39828   9.465   7.312   4.646
13193SOL    HW139829   9.514   7.261   4.582
13193SOL    HW239830   9.520   7.389   4.663
13194SOL     OW39831   8.900   5.819   4.468
13194SOL    HW139832   8.911   5.824   4.563
13194SOL    HW239833   8.816   5.773   4.457
13195SOL     OW39834   4.537   5.897   0.274
13195SOL    HW139835   4.576   5.875   0.358
13195SOL    HW239836   4.600   5.866   0.209
13196SOL     OW39837   4.807  13.361   4.211
13196SOL    HW139838   4.863  13.296   4.169
13196SOL    HW239839   4.833  13.358   4.303
13197SOL     OW39840  11.717   5.607   3.958
13197SOL    HW139841  11.782   5.673   3.933
13197SOL    HW239842  11.768   5.527   3.972
13198SOL     OW39843   6.135  12.186   7.452
13198SOL    HW139844   6.181  12.174   7.535
13198SOL    HW239845   6.048  12.149   7.468
13199SOL     OW39846   4.883   5.735   3.257
13199SOL    HW139847   4.920   5.663   3.206
13199SOL    HW239848   4.954   5.800   3.261
13200SOL     OW39849  12.782   9.623   5.590
13200SOL    HW139850  12.690   9.606   5.613
13200SOL    HW239851  12.815   9.539   5.559
13201SOL     OW39852   9.384   2.960   4.092
13201SOL    HW139853   9.404   2.961   3.998
13201SOL    HW239854   9.466   2.934   4.134
13202SOL     OW39855  10.674  10.995   3.684
13202SOL    HW139856  10.598  11.053   3.685
13202SOL    HW239857  10.681  10.963   3.774
13203SOL     OW39858   6.555  10.112   0.231
13203SOL    HW139859   6.632  10.103   0.286
13203SOL    HW239860   6.582  10.171   0.160
13204SOL     OW39861   7.241   9.475   7.514
13204SOL    HW139862   7.266   9.566   7.504
13204SOL    HW239863   7.320   9.431   7.546
13205SOL     OW39864  10.845  12.586   5.649
13205SOL    HW139865  10.808  12.674   5.641
13205SOL    HW239866  10.911  12.593   5.717
13206SOL     OW39867  10.932   9.493   3.924
13206SOL    HW139868  10.985   9.511   3.846
13206SOL    HW239869  10.878   9.419   3.899
13207SOL     OW39870  12.174   8.380   5.152
13207SOL    HW139871  12.129   8.459   5.121
13207SOL    HW239872  12.161   8.316   5.082
13208SOL     OW39873   9.301   3.998   2.113
13208SOL    HW139874   9.209   4.018   2.094
13208SOL    HW239875   9.298   3.928   2.178
13209SOL     OW39876   5.159   4.093   4.267
13209SOL    HW139877   5.090   4.037   4.301
13209SOL    HW239878   5.193   4.045   4.191
13210SOL     OW39879   9.047   6.470   6.452
13210SOL    HW139880   8.978   6.521   6.411
13210SOL    HW239881   9.046   6.386   6.406
13211SOL     OW39882   8.870   9.822   4.909
13211SOL    HW139883   8.779   9.847   4.923
13211SOL    HW239884   8.866   9.752   4.843
13212SOL     OW39885   6.300   1.172   1.178
13212SOL    HW139886   6.298   1.093   1.233
13212SOL    HW239887   6.367   1.154   1.113
13213SOL     OW39888   8.566   6.406   6.842
13213SOL    HW139889   8.585   6.328   6.789
13213SOL    HW239890   8.644   6.460   6.836
13214SOL     OW39891   6.775   5.850   7.008
13214SOL    HW139892   6.760   5.854   7.102
13214SOL    HW239893   6.740   5.765   6.981
13215SOL     OW39894  10.274  11.455   4.321
13215SOL    HW139895  10.220  11.403   4.260
13215SOL    HW239896  10.267  11.545   4.289
13216SOL     OW39897  12.693   4.749   6.432
13216SOL    HW139898  12.651   4.666   6.454
13216SOL    HW239899  12.780   4.725   6.401
13217SOL     OW39900   8.665  13.734   7.170
13217SOL    HW139901   8.588  13.695   7.211
13217SOL    HW239902   8.738  13.679   7.198
13218SOL     OW39903   8.367   8.425   4.674
13218SOL    HW139904   8.317   8.346   4.652
13218SOL    HW239905   8.324   8.459   4.753
13219SOL     OW39906   3.078  10.171   1.291
13219SOL    HW139907   3.133  10.147   1.365
13219SOL    HW239908   3.124  10.243   1.248
13220SOL     OW39909  10.739   4.324   1.723
13220SOL    HW139910  10.758   4.255   1.659
13220SOL    HW239911  10.757   4.282   1.808
13221SOL     OW39912  10.671   1.413   0.507
13221SOL    HW139913  10.688   1.479   0.574
13221SOL    HW239914  10.575   1.404   0.506
13222SOL     OW39915   9.160  10.571   7.390
13222SOL    HW139916   9.125  10.528   7.313
13222SOL    HW239917   9.165  10.502   7.456
13223SOL     OW39918   4.201   8.792   1.146
13223SOL    HW139919   4.274   8.854   1.154
13223SOL    HW239920   4.218   8.745   1.064
13224SOL     OW39921   6.047  11.492   6.149
13224SOL    HW139922   6.033  11.479   6.055
13224SOL    HW239923   6.074  11.584   6.157
13225SOL     OW39924   9.234   3.355   2.590
13225SOL    HW139925   9.322   3.382   2.616
13225SOL    HW239926   9.213   3.282   2.649
13226SOL     OW39927  10.186  13.667   4.138
13226SOL    HW139928  10.200   2.894   4.043
13226SOL    HW239929  10.097  13.702   4.149
13227SOL     OW39930   2.015   4.511   2.631
13227SOL    HW139931   2.054   4.494   2.717
13227SOL    HW239932   2.054   4.445   2.574
13228SOL     OW39933   7.732   7.913   4.065
13228SOL    HW139934   7.648   7.949   4.036
13228SOL    HW239935   7.749   7.956   4.148
13229SOL     OW39936   9.222   8.388   4.828
13229SOL    HW139937   9.213   8.404   4.922
13229SOL    HW239938   9.151   8.440   4.789
13230SOL     OW39939  12.866  10.585   7.358
13230SOL    HW139940  12.951  10.583   7.402
13230SOL    HW239941  12.836  10.675   7.367
13231SOL     OW39942  10.518   5.151   1.179
13231SOL    HW139943  10.525   5.103   1.097
13231SOL    HW239944  10.464   5.096   1.235
13232SOL     OW39945  15.330  10.324   6.695
13232SOL    HW139946  15.275  10.247   6.707
13232SOL    HW239947  15.419  10.291   6.703
13233SOL     OW39948   0.993   7.806   1.068
13233SOL    HW139949   0.988   7.874   1.135
13233SOL    HW239950   0.937   7.836   0.997
13234SOL     OW39951   9.333   7.802   6.386
13234SOL    HW139952   9.345   7.846   6.470
13234SOL    HW239953   9.414   7.753   6.373
13235SOL     OW39954   7.009  10.158   1.812
13235SOL    HW139955   6.923  10.197   1.830
13235SOL    HW239956   7.064  10.233   1.788
13236SOL     OW39957   9.048   4.872   2.546
13236SOL    HW139958   9.002   4.931   2.606
13236SOL    HW239959   9.085   4.804   2.603
13237SOL     OW39960  11.687   4.865   5.817
13237SOL    HW139961  11.643   4.897   5.738
13237SOL    HW239962  11.729   4.784   5.789
13238SOL     OW39963   9.199  15.103   6.998
13238SOL    HW139964   9.172  15.171   6.937
13238SOL    HW239965   9.250  15.149   7.065
13239SOL     OW39966  11.848   7.865   5.606
13239SOL    HW139967  11.939   7.885   5.582
13239SOL    HW239968  11.811   7.824   5.527
13240SOL     OW39969   6.309  13.067   5.510
13240SOL    HW139970   6.255  13.061   5.589
13240SOL    HW239971   6.264  13.011   5.446
13241SOL     OW39972   6.758  12.289   3.445
13241SOL    HW139973   6.781  12.222   3.381
13241SOL    HW239974   6.830  12.352   3.442
13242SOL     OW39975   7.016  11.174   2.268
13242SOL    HW139976   7.000  11.207   2.180
13242SOL    HW239977   6.942  11.115   2.285
13243SOL     OW39978   5.661   6.009   5.194
13243SOL    HW139979   5.595   6.078   5.196
13243SOL    HW239980   5.712   6.026   5.115
13244SOL     OW39981   0.722   2.022   0.399
13244SOL    HW139982   0.659   1.951   0.410
13244SOL    HW239983   0.735   2.028   0.304
13245SOL     OW39984  13.511   7.528   4.230
13245SOL    HW139985  13.502   7.437   4.259
13245SOL    HW239986  13.519   7.579   4.310
13246SOL     OW39987  12.975   4.978   4.357
13246SOL    HW139988  12.975   4.993   4.263
13246SOL    HW239989  13.050   5.028   4.389
13247SOL     OW39990   9.473   6.777   4.632
13247SOL    HW139991   9.531   6.845   4.596
13247SOL    HW239992   9.445   6.727   4.556
13248SOL     OW39993   2.694  13.003   3.752
13248SOL    HW139994   2.754  13.058   3.803
13248SOL    HW239995   2.703  12.916   3.791
13249SOL     OW39996   4.050  13.152   3.483
13249SOL    HW139997   4.025  13.064   3.455
13249SOL    HW239998   4.123  13.176   3.426
13250SOL     OW39999   7.330   3.915   1.514
13250SOL    HW140000   7.238   3.902   1.535
13250SOL    HW240001   7.356   3.834   1.470
13251SOL     OW40002  10.726  13.139   5.479
13251SOL    HW140003  10.688  13.056   5.448
13251SOL    HW240004  10.722  13.133   5.574
13252SOL     OW40005   5.650   2.414   2.571
13252SOL    HW140006   5.570   2.401   2.621
13252SOL    HW240007   5.630   2.382   2.484
13253SOL     OW40008   3.795   2.485   3.315
13253SOL    HW140009   3.816   2.398   3.280
13253SOL    HW240010   3.821   2.481   3.407
13254SOL     OW40011   2.517   6.490   1.909
13254SOL    HW140012   2.468   6.504   1.990
13254SOL    HW240013   2.497   6.400   1.884
13255SOL     OW40014  13.133  10.902   5.917
13255SOL    HW140015  13.188  10.898   5.839
13255SOL    HW240016  13.074  10.975   5.901
13256SOL     OW40017  10.235  12.203   5.656
13256SOL    HW140018  10.288  12.220   5.734
13256SOL    HW240019  10.296  12.212   5.583
13257SOL     OW40020   6.550   6.579   5.165
13257SOL    HW140021   6.529   6.487   5.154
13257SOL    HW240022   6.645   6.584   5.157
13258SOL     OW40023   5.151   7.865   4.777
13258SOL    HW140024   5.195   7.815   4.846
13258SOL    HW240025   5.060   7.836   4.781
13259SOL     OW40026  11.538  10.677   5.246
13259SOL    HW140027  11.579  10.591   5.250
13259SOL    HW240028  11.478  10.678   5.321
13260SOL     OW40029   3.280   6.041   1.417
13260SOL    HW140030   3.349   6.058   1.481
13260SOL    HW240031   3.199   6.042   1.468
13261SOL     OW40032   9.293   9.573   5.773
13261SOL    HW140033   9.318   9.639   5.709
13261SOL    HW240034   9.331   9.492   5.740
13262SOL     OW40035   9.099   7.048   6.144
13262SOL    HW140036   9.051   7.013   6.219
13262SOL    HW240037   9.191   7.036   6.167
13263SOL     OW40038   1.495   7.973   0.847
13263SOL    HW140039   1.517   8.002   0.935
13263SOL    HW240040   1.407   7.937   0.854
13264SOL     OW40041   5.703   4.029   1.066
13264SOL    HW140042   5.666   4.087   0.998
13264SOL    HW240043   5.790   4.065   1.083
13265SOL     OW40044  13.998   7.431   5.533
13265SOL    HW140045  13.910   7.448   5.500
13265SOL    HW240046  14.042   7.516   5.530
13266SOL     OW40047   8.004   6.053   6.596
13266SOL    HW140048   8.055   6.134   6.602
13266SOL    HW240049   7.917   6.077   6.627
13267SOL     OW40050   6.073  10.612   6.336
13267SOL    HW140051   5.984  10.585   6.360
13267SOL    HW240052   6.063  10.700   6.301
13268SOL     OW40053  11.638   6.999   6.490
13268SOL    HW140054  11.616   7.066   6.425
13268SOL    HW240055  11.605   6.918   6.453
13269SOL     OW40056  15.594   6.324   7.180
13269SOL    HW140057  15.649   6.250   7.208
13269SOL    HW240058  15.621   6.396   7.236
13270SOL     OW40059  14.589  14.357   5.780
13270SOL    HW140060  14.617  14.284   5.836
13270SOL    HW240061  14.575  14.429   5.841
13271SOL     OW40062   3.722   7.856   3.433
13271SOL    HW140063   3.780   7.932   3.428
13271SOL    HW240064   3.699   7.851   3.526
13272SOL     OW40065   3.622   5.413   1.380
13272SOL    HW140066   3.582   5.482   1.328
13272SOL    HW240067   3.558   5.395   1.449
13273SOL     OW40068   5.938   7.412   1.426
13273SOL    HW140069   5.945   7.336   1.484
13273SOL    HW240070   6.028   7.434   1.404
13274SOL     OW40071   2.256   8.477   2.172
13274SOL    HW140072   2.210   8.412   2.224
13274SOL    HW240073   2.323   8.427   2.125
13275SOL     OW40074  13.817  13.212   7.320
13275SOL    HW140075  13.879  13.149   7.359
13275SOL    HW240076  13.844  13.297   7.356
13276SOL     OW40077  13.563  14.475   6.737
13276SOL    HW140078  13.552  14.568   6.718
13276SOL    HW240079  13.618  14.473   6.816
13277SOL     OW40080   5.135   7.644   4.079
13277SOL    HW140081   5.163   7.734   4.064
13277SOL    HW240082   5.194   7.592   4.024
13278SOL     OW40083  10.470   8.735   6.866
13278SOL    HW140084  10.501   8.645   6.873
13278SOL    HW240085  10.531   8.776   6.805
13279SOL     OW40086  12.581  12.973   6.279
13279SOL    HW140087  12.627  12.894   6.308
13279SOL    HW240088  12.544  13.010   6.359
13280SOL     OW40089  10.267  10.356   7.496
13280SOL    HW140090  10.360  10.341   7.481
13280SOL    HW240091  10.248  10.438   7.450
13281SOL     OW40092   8.382  12.769   6.202
13281SOL    HW140093   8.343  12.687   6.231
13281SOL    HW240094   8.463  12.743   6.158
13282SOL     OW40095   6.534   7.872   0.860
13282SOL    HW140096   6.537   7.814   0.784
13282SOL    HW240097   6.593   7.944   0.837
13283SOL     OW40098  10.072   5.318   7.125
13283SOL    HW140099   9.996   5.303   7.068
13283SOL    HW240100  10.058   5.406   7.160
13284SOL     OW40101   2.374   3.173   1.939
13284SOL    HW140102   2.365   3.203   2.029
13284SOL    HW240103   2.341   3.246   1.886
13285SOL     OW40104   7.096   4.703   5.711
13285SOL    HW140105   7.189   4.681   5.712
13285SOL    HW240106   7.059   4.648   5.642
13286SOL     OW40107   6.227   6.991   4.782
13286SOL    HW140108   6.170   7.064   4.760
13286SOL    HW240109   6.309   7.033   4.811
13287SOL     OW40110  14.561   6.361   6.176
13287SOL    HW140111  14.559   6.372   6.080
13287SOL    HW240112  14.521   6.442   6.209
13288SOL     OW40113   8.724   4.528   3.207
13288SOL    HW140114   8.747   4.619   3.224
13288SOL    HW240115   8.771   4.506   3.127
13289SOL     OW40116   1.660  10.153   0.514
13289SOL    HW140117   1.661  10.095   0.438
13289SOL    HW240118   1.594  10.219   0.493
13290SOL     OW40119   3.165   4.259   1.830
13290SOL    HW140120   3.116   4.332   1.869
13290SOL    HW240121   3.164   4.277   1.736
13291SOL     OW40122  11.299  11.365   5.833
13291SOL    HW140123  11.249  11.445   5.846
13291SOL    HW240124  11.385  11.394   5.803
13292SOL     OW40125   4.511   6.333   1.260
13292SOL    HW140126   4.495   6.329   1.166
13292SOL    HW240127   4.500   6.243   1.291
13293SOL     OW40128  14.572   6.813   7.368
13293SOL    HW140129  14.562   6.793   7.275
13293SOL    HW240130  14.492   6.861   7.391
13294SOL     OW40131   4.939   6.162   2.912
13294SOL    HW140132   4.946   6.150   2.817
13294SOL    HW240133   5.030   6.161   2.942
13295SOL     OW40134  11.844   9.516   3.641
13295SOL    HW140135  11.772   9.479   3.591
13295SOL    HW240136  11.852   9.460   3.718
13296SOL     OW40137   7.542   5.107   4.702
13296SOL    HW140138   7.595   5.131   4.778
13296SOL    HW240139   7.497   5.188   4.678
13297SOL     OW40140  12.603  10.611   7.256
13297SOL    HW140141  12.683  10.599   7.307
13297SOL    HW240142  12.543  10.656   7.316
13298SOL     OW40143  11.601   5.407   6.835
13298SOL    HW140144  11.594   5.473   6.767
13298SOL    HW240145  11.601   5.456   6.917
13299SOL     OW40146   8.856   1.991   0.801
13299SOL    HW140147   8.932   2.044   0.822
13299SOL    HW240148   8.853   1.925   0.871
13300SOL     OW40149  11.435   4.521   5.846
13300SOL    HW140150  11.416   4.442   5.898
13300SOL    HW240151  11.378   4.588   5.883
13301SOL     OW40152   7.471   5.859   3.129
13301SOL    HW140153   7.562   5.881   3.110
13301SOL    HW240154   7.431   5.942   3.155
13302SOL     OW40155   0.784   8.105   0.350
13302SOL    HW140156   0.869   8.062   0.358
13302SOL    HW240157   0.791   8.183   0.404
13303SOL     OW40158  11.813   7.374   4.277
13303SOL    HW140159  11.866   7.297   4.257
13303SOL    HW240160  11.866   7.425   4.338
13304SOL     OW40161  11.403  10.767   6.589
13304SOL    HW140162  11.449  10.847   6.612
13304SOL    HW240163  11.467  10.715   6.541
13305SOL     OW40164   5.628  11.444   4.405
13305SOL    HW140165   5.622  11.360   4.359
13305SOL    HW240166   5.636  11.420   4.498
13306SOL     OW40167   4.668   7.376   5.775
13306SOL    HW140168   4.627   7.408   5.694
13306SOL    HW240169   4.748   7.428   5.784
13307SOL     OW40170   7.973  10.194   6.218
13307SOL    HW140171   7.895  10.150   6.253
13307SOL    HW240172   7.941  10.240   6.140
13308SOL     OW40173   2.855   5.702   3.809
13308SOL    HW140174   2.784   5.655   3.765
13308SOL    HW240175   2.905   5.742   3.738
13309SOL     OW40176   5.213  10.053   5.699
13309SOL    HW140177   5.277  10.093   5.757
13309SOL    HW240178   5.139  10.113   5.700
13310SOL     OW40179   7.679   3.689   2.073
13310SOL    HW140180   7.692   3.690   2.168
13310SOL    HW240181   7.717   3.772   2.043
13311SOL     OW40182  14.658   7.747   5.496
13311SOL    HW140183  14.569   7.778   5.480
13311SOL    HW240184   3.911   7.706   5.414
13312SOL     OW40185   9.022   8.857   2.113
13312SOL    HW140186   8.988   8.911   2.042
13312SOL    HW240187   9.061   8.919   2.174
13313SOL     OW40188   6.745   4.325   5.566
13313SOL    HW140189   6.707   4.276   5.492
13313SOL    HW240190   6.788   4.258   5.619
13314SOL     OW40191  13.606   9.718   6.650
13314SOL    HW140192  13.581   9.628   6.670
13314SOL    HW240193  13.649   9.750   6.730
13315SOL     OW40194   3.781  13.095   4.912
13315SOL    HW140195   3.856  13.136   4.957
13315SOL    HW240196   3.769  13.148   4.833
13316SOL     OW40197  10.733  10.110   5.667
13316SOL    HW140198  10.682  10.153   5.736
13316SOL    HW240199  10.758  10.182   5.608
13317SOL     OW40200   9.457   3.193   0.319
13317SOL    HW140201   9.443   3.286   0.301
13317SOL    HW240202   9.552   3.183   0.327
13318SOL     OW40203  12.904   3.863   4.903
13318SOL    HW140204  12.923   3.775   4.870
13318SOL    HW240205  12.990   3.903   4.916
13319SOL     OW40206  12.273  11.478   4.591
13319SOL    HW140207  12.243  11.425   4.517
13319SOL    HW240208  12.343  11.426   4.630
13320SOL     OW40209   4.776  11.586   3.834
13320SOL    HW140210   4.782  11.656   3.900
13320SOL    HW240211   4.787  11.505   3.884
13321SOL     OW40212   9.227  12.009   5.875
13321SOL    HW140213   9.176  11.932   5.850
13321SOL    HW240214   9.256  12.047   5.792
13322SOL     OW40215   6.719   2.728   3.271
13322SOL    HW140216   6.699   2.663   3.339
13322SOL    HW240217   6.633   2.754   3.237
13323SOL     OW40218  11.008  13.219   6.594
13323SOL    HW140219  11.059  13.242   6.516
13323SOL    HW240220  10.987  13.304   6.634
13324SOL     OW40221   6.131   8.938   2.039
13324SOL    HW140222   6.103   8.920   1.950
13324SOL    HW240223   6.187   9.015   2.032
13325SOL     OW40224  12.583  12.298   5.082
13325SOL    HW140225  12.547  12.216   5.116
13325SOL    HW240226  12.591  12.283   4.987
13326SOL     OW40227   5.221  12.224   5.238
13326SOL    HW140228   5.191  12.301   5.189
13326SOL    HW240229   5.232  12.156   5.171
13327SOL     OW40230  11.107  10.141   3.502
13327SOL    HW140231  11.044  10.187   3.446
13327SOL    HW240232  11.067  10.055   3.517
13328SOL     OW40233   6.530   9.472   2.497
13328SOL    HW140234   6.625   9.461   2.499
13328SOL    HW240235   6.516   9.565   2.513
13329SOL     OW40236   2.456   7.048   2.861
13329SOL    HW140237   2.550   7.059   2.877
13329SOL    HW240238   2.452   6.985   2.789
13330SOL     OW40239   7.722   4.583   5.183
13330SOL    HW140240   7.802   4.550   5.143
13330SOL    HW240241   7.735   4.570   5.277
13331SOL     OW40242  11.687  12.798   5.987
13331SOL    HW140243  11.653  12.709   5.990
13331SOL    HW240244  11.780  12.788   5.968
13332SOL     OW40245   7.321  10.572   6.235
13332SOL    HW140246   7.356  10.630   6.167
13332SOL    HW240247   7.398  10.542   6.283
13333SOL     OW40248   7.224   7.424   1.757
13333SOL    HW140249   7.187   7.430   1.669
13333SOL    HW240250   7.276   7.343   1.756
13334SOL     OW40251   9.017   8.271   2.941
13334SOL    HW140252   8.995   8.315   3.022
13334SOL    HW240253   9.113   8.272   2.938
13335SOL     OW40254  12.250   5.208   5.833
13335SOL    HW140255  12.344   5.221   5.816
13335SOL    HW240256  12.236   5.114   5.821
13336SOL     OW40257   4.156   7.747   4.081
13336SOL    HW140258   4.128   7.834   4.111
13336SOL    HW240259   4.127   7.687   4.149
13337SOL     OW40260  15.125   7.418   6.934
13337SOL    HW140261  15.119   7.333   6.890
13337SOL    HW240262  15.165   7.476   6.869
13338SOL     OW40263   9.659  11.244   4.091
13338SOL    HW140264   9.703  11.320   4.053
13338SOL    HW240265   9.566  11.266   4.089
13339SOL     OW40266  10.559   1.631   1.035
13339SOL    HW140267  10.567   1.647   0.941
13339SOL    HW240268  10.647   1.607   1.063
13340SOL     OW40269   3.313   6.218   3.703
13340SOL    HW140270   3.346   6.288   3.646
13340SOL    HW240271   3.268   6.265   3.774
13341SOL     OW40272   6.104   4.887   2.814
13341SOL    HW140273   6.113   4.805   2.862
13341SOL    HW240274   6.156   4.950   2.863
13342SOL     OW40275   6.598   7.616   0.697
13342SOL    HW140276   6.520   7.597   0.645
13342SOL    HW240277   6.669   7.576   0.648
13343SOL     OW40278   7.767  10.964   6.726
13343SOL    HW140279   7.718  11.046   6.728
13343SOL    HW240280   7.721  10.910   6.662
13344SOL     OW40281   6.066  13.918   6.940
13344SOL    HW140282   6.007  13.955   7.006
13344SOL    HW240283   6.054  13.824   6.947
13345SOL     OW40284   6.554   8.586   4.415
13345SOL    HW140285   6.466   8.563   4.386
13345SOL    HW240286   6.550   8.579   4.511
13346SOL     OW40287   4.859  10.785   2.081
13346SOL    HW140288   4.932  10.762   2.140
13346SOL    HW240289   4.787  10.807   2.140
13347SOL     OW40290   4.160   6.073   3.313
13347SOL    HW140291   4.094   6.021   3.267
13347SOL    HW240292   4.109   6.128   3.373
13348SOL     OW40293   5.110   5.026   1.373
13348SOL    HW140294   5.103   5.119   1.395
13348SOL    HW240295   5.173   4.992   1.436
13349SOL     OW40296   7.914  10.748   3.005
13349SOL    HW140297   8.006  10.770   3.024
13349SOL    HW240298   7.903  10.772   2.913
13350SOL     OW40299   9.229   4.616   5.266
13350SOL    HW140300   9.267   4.692   5.220
13350SOL    HW240301   9.194   4.653   5.347
13351SOL     OW40302   9.810   3.745   1.986
13351SOL    HW140303   9.882   3.745   1.923
13351SOL    HW240304   9.815   3.831   2.027
13352SOL     OW40305  14.269  12.611   6.413
13352SOL    HW140306  14.246  12.546   6.479
13352SOL    HW240307  14.208  12.683   6.428
13353SOL     OW40308  10.549   5.346   4.267
13353SOL    HW140309  10.599   5.324   4.346
13353SOL    HW240310  10.458   5.330   4.290
13354SOL     OW40311   8.999   5.823   5.845
13354SOL    HW140312   8.947   5.744   5.857
13354SOL    HW240313   8.952   5.891   5.893
13355SOL     OW40314  14.898   6.814   5.925
13355SOL    HW140315   4.211   6.851   5.932
13355SOL    HW240316  14.865   6.813   6.015
13356SOL     OW40317   3.635   4.716   4.934
13356SOL    HW140318   3.581   4.795   4.937
13356SOL    HW240319   3.718   4.742   4.975
13357SOL     OW40320   3.683   4.601   1.190
13357SOL    HW140321   3.676   4.682   1.141
13357SOL    HW240322   3.596   4.562   1.184
13358SOL     OW40323   8.158   6.143   5.077
13358SOL    HW140324   8.210   6.221   5.098
13358SOL    HW240325   8.077   6.155   5.127
13359SOL     OW40326   2.027   8.525   1.150
13359SOL    HW140327   2.113   8.486   1.169
13359SOL    HW240328   1.993   8.473   1.078
13360SOL     OW40329   8.309   8.393   3.510
13360SOL    HW140330   8.363   8.472   3.510
13360SOL    HW240331   8.224   8.422   3.478
13361SOL     OW40332   4.119  12.512   3.707
13361SOL    HW140333   4.025  12.531   3.709
13361SOL    HW240334   4.155  12.573   3.642
13362SOL     OW40335  12.035   8.743   4.102
13362SOL    HW140336  12.044   8.707   4.190
13362SOL    HW240337  12.025   8.667   4.045
13363SOL     OW40338   3.498   0.488   0.358
13363SOL    HW140339   3.492   0.560   0.421
13363SOL    HW240340   3.497   0.531   0.272
13364SOL     OW40341   6.975   5.850   4.469
13364SOL    HW140342   6.989   5.937   4.433
13364SOL    HW240343   6.880   5.837   4.466
13365SOL     OW40344  10.736   1.612   1.248
13365SOL    HW140345  10.686   1.534   1.275
13365SOL    HW240346  10.817   1.606   1.298
13366SOL     OW40347  12.975   8.772   6.605
13366SOL    HW140348  13.013   8.795   6.520
13366SOL    HW240349  12.892   8.818   6.608
13367SOL     OW40350   5.747   5.712   2.507
13367SOL    HW140351   5.820   5.764   2.539
13367SOL    HW240352   5.774   5.682   2.420
13368SOL     OW40353  12.380  13.513   5.686
13368SOL    HW140354  12.361  13.491   5.777
13368SOL    HW240355  12.335  13.446   5.635
13369SOL     OW40356   5.129  10.594   1.063
13369SOL    HW140357   5.185  10.672   1.062
13369SOL    HW240358   5.081  10.601   1.145
13370SOL     OW40359  11.427  10.153   6.268
13370SOL    HW140360  11.335  10.130   6.259
13370SOL    HW240361  11.469  10.120   6.188
13371SOL     OW40362  10.096  13.955   6.789
13371SOL    HW140363  10.004  13.977   6.799
13371SOL    HW240364  10.137  14.035   6.756
13372SOL     OW40365   9.895   4.687   6.256
13372SOL    HW140366   9.866   4.774   6.283
13372SOL    HW240367   9.849   4.669   6.174
13373SOL     OW40368   6.080   8.572   6.029
13373SOL    HW140369   6.052   8.515   6.100
13373SOL    HW240370   6.036   8.656   6.047
13374SOL     OW40371  12.407   7.597   3.378
13374SOL    HW140372  12.442   7.522   3.329
13374SOL    HW240373  12.396   7.665   3.312
13375SOL     OW40374   8.239   7.280   4.307
13375SOL    HW140375   8.175   7.324   4.363
13375SOL    HW240376   8.280   7.350   4.257
13376SOL     OW40377  11.120  10.061   6.671
13376SOL    HW140378  11.063  10.010   6.729
13376SOL    HW240379  11.078  10.147   6.666
13377SOL     OW40380   7.356  11.936   4.955
13377SOL    HW140381   7.437  11.903   4.917
13377SOL    HW240382   7.372  12.029   4.969
13378SOL     OW40383  12.203   8.313   6.446
13378SOL    HW140384  12.190   8.231   6.493
13378SOL    HW240385  12.267   8.292   6.378
13379SOL     OW40386   3.557   7.943   1.887
13379SOL    HW140387   3.479   7.907   1.845
13379SOL    HW240388   3.527   8.025   1.926
13380SOL     OW40389   3.704   5.378   4.561
13380SOL    HW140390   3.658   5.400   4.480
13380SOL    HW240391   3.773   5.444   4.568
13381SOL     OW40392   7.410   3.034   0.536
13381SOL    HW140393   7.360   2.960   0.501
13381SOL    HW240394   7.501   3.010   0.519
13382SOL     OW40395   3.440   7.422   0.663
13382SOL    HW140396   3.432   7.344   0.718
13382SOL    HW240397   3.350   7.445   0.641
13383SOL     OW40398  13.083   3.375   4.142
13383SOL    HW140399  13.022   3.312   4.104
13383SOL    HW240400  13.047   3.460   4.119
13384SOL     OW40401   6.457  14.111   5.661
13384SOL    HW140402   6.550  14.106   5.682
13384SOL    HW240403   6.445  14.049   5.589
13385SOL     OW40404  13.907   7.705   5.203
13385SOL    HW140405  13.843   7.734   5.139
13385SOL    HW240406  13.932   7.617   5.174
13386SOL     OW40407   8.794   2.293   1.468
13386SOL    HW140408   8.793   2.197   1.473
13386SOL    HW240409   8.704   2.319   1.488
13387SOL     OW40410  15.736   7.988   7.059
13387SOL    HW140411  15.776   8.059   7.109
13387SOL    HW240412   4.993   8.001   6.970
13388SOL     OW40413  11.399   8.355   6.567
13388SOL    HW140414  11.422   8.408   6.642
13388SOL    HW240415  11.483   8.322   6.534
13389SOL     OW40416   8.756   7.663   1.649
13389SOL    HW140417   8.811   7.693   1.721
13389SOL    HW240418   8.703   7.739   1.626
13390SOL     OW40419   7.290   9.771   5.140
13390SOL    HW140420   7.241   9.830   5.083
13390SOL    HW240421   7.300   9.820   5.222
13391SOL     OW40422  11.794   3.557   3.044
13391SOL    HW140423  11.868   3.616   3.033
13391SOL    HW240424  11.827   3.472   3.018
13392SOL     OW40425  14.325   6.094   7.198
13392SOL    HW140426  14.388   6.155   7.236
13392SOL    HW240427  14.350   6.009   7.235
13393SOL     OW40428  13.379   5.749   7.156
13393SOL    HW140429  13.398   5.667   7.203
13393SOL    HW240430  13.285   5.759   7.165
13394SOL     OW40431   0.934   1.836   0.063
13394SOL    HW140432   0.841   1.818   0.054
13394SOL    HW240433   6.363   7.168   7.615
13395SOL     OW40434  13.877  11.658   5.053
13395SOL    HW140435  13.940  11.635   4.984
13395SOL    HW240436  13.911  11.739   5.091
13396SOL     OW40437   0.943   2.848   0.897
13396SOL    HW140438   1.020   2.840   0.841
13396SOL    HW240439   0.913   2.758   0.910
13397SOL     OW40440   9.300  12.586   7.053
13397SOL    HW140441   9.342  12.671   7.068
13397SOL    HW240442   9.371  12.527   7.031
13398SOL     OW40443   9.107  10.480   6.331
13398SOL    HW140444   9.192  10.463   6.291
13398SOL    HW240445   9.067  10.547   6.275
13399SOL     OW40446   7.606   5.551   1.163
13399SOL    HW140447   7.608   5.465   1.205
13399SOL    HW240448   7.670   5.603   1.212
13400SOL     OW40449   3.833   0.661   0.864
13400SOL    HW140450   3.894  11.369   0.894
13400SOL    HW240451   3.887   0.738   0.848
13401SOL     OW40452   4.568   4.226   2.225
13401SOL    HW140453   4.592   4.185   2.307
13401SOL    HW240454   4.497   4.286   2.249
13402SOL     OW40455   6.553  14.940   7.132
13402SOL    HW140456   6.468  14.947   7.087
13402SOL    HW240457   6.617  14.941   7.061
13403SOL     OW40458   4.715  10.654   2.625
13403SOL    HW140459   4.626  10.680   2.649
13403SOL    HW240460   4.747  10.606   2.702
13404SOL     OW40461   2.007   4.114   2.124
13404SOL    HW140462   1.948   4.140   2.195
13404SOL    HW240463   1.952   4.115   2.045
13405SOL     OW40464  10.582   6.097   3.091
13405SOL    HW140465  10.600   6.066   3.003
13405SOL    HW240466  10.503   6.151   3.082
13406SOL     OW40467  10.712   2.012   1.493
13406SOL    HW140468  10.740   2.048   1.409
13406SOL    HW240469  10.660   1.935   1.471
13407SOL     OW40470   5.460   7.612   4.805
13407SOL    HW140471   5.552   7.587   4.798
13407SOL    HW240472   5.454   7.698   4.764
13408SOL     OW40473  12.530   4.509   3.962
13408SOL    HW140474  12.508   4.429   3.914
13408SOL    HW240475  12.497   4.494   4.050
13409SOL     OW40476   5.238   0.315   0.176
13409SOL    HW140477   5.225   0.243   0.115
13409SOL    HW240478   5.159   0.368   0.168
13410SOL     OW40479   9.983  10.919   2.517
13410SOL    HW140480   9.963  10.826   2.520
13410SOL    HW240481  10.077  10.924   2.537
13411SOL     OW40482  11.171   8.874   3.912
13411SOL    HW140483  11.092   8.826   3.890
13411SOL    HW240484  11.238   8.840   3.852
13412SOL     OW40485  11.998  10.468   3.756
13412SOL    HW140486  11.911  10.475   3.717
13412SOL    HW240487  11.981  10.444   3.847
13413SOL     OW40488   2.494  11.577   2.454
13413SOL    HW140489   2.418  11.633   2.433
13413SOL    HW240490   2.466  11.528   2.531
13414SOL     OW40491  12.027   3.912   4.235
13414SOL    HW140492  12.090   3.865   4.290
13414SOL    HW240493  11.964   3.845   4.208
13415SOL     OW40494   7.592   8.268   5.613
13415SOL    HW140495   7.521   8.239   5.671
13415SOL    HW240496   7.671   8.228   5.650
13416SOL     OW40497  10.848   6.969   5.575
13416SOL    HW140498  10.941   6.986   5.561
13416SOL    HW240499  10.845   6.890   5.628
13417SOL     OW40500   3.185   3.190   3.665
13417SOL    HW140501   3.120   3.229   3.606
13417SOL    HW240502   3.209   3.261   3.724
13418SOL     OW40503   2.883  10.217   1.461
13418SOL    HW140504   2.805  10.246   1.414
13418SOL    HW240505   2.951  10.211   1.393
13419SOL     OW40506  10.515   0.764   0.661
13419SOL    HW140507  10.569   0.770   0.582
13419SOL    HW240508  10.516   0.671   0.683
13420SOL     OW40509  10.917   0.806   0.388
13420SOL    HW140510  10.875   0.890   0.404
13420SOL    HW240511  10.990   0.826   0.329
13421SOL     OW40512   3.901  13.804   4.989
13421SOL    HW140513   3.819  13.762   5.016
13421SOL    HW240514   3.969  13.753   5.032
13422SOL     OW40515   5.188  11.929   4.768
13422SOL    HW140516   5.186  12.024   4.753
13422SOL    HW240517   5.249  11.896   4.701
13423SOL     OW40518   9.210   8.653   2.048
13423SOL    HW140519   9.128   8.674   2.003
13423SOL    HW240520   9.211   8.710   2.125
13424SOL     OW40521  11.202  13.181   4.820
13424SOL    HW140522  11.290  13.192   4.857
13424SOL    HW240523  11.161  13.116   4.877
13425SOL     OW40524  11.970   8.834   4.791
13425SOL    HW140525  11.947   8.917   4.748
13425SOL    HW240526  12.058   8.848   4.825
13426SOL     OW40527   5.320   9.992   6.797
13426SOL    HW140528   5.414  10.007   6.787
13426SOL    HW240529   5.300  10.025   6.885
13427SOL     OW40530   8.718   2.024   0.525
13427SOL    HW140531   8.712   2.018   0.620
13427SOL    HW240532   8.809   2.046   0.507
13428SOL     OW40533  13.997  11.917   6.013
13428SOL    HW140534  13.985  11.875   5.928
13428SOL    HW240535  13.937  11.992   6.011
13429SOL     OW40536   5.625   9.918   7.592
13429SOL    HW140537   0.266   4.583   0.049
13429SOL    HW240538   5.646   9.972   7.516
13430SOL     OW40539   3.303   7.615   3.831
13430SOL    HW140540   3.362   7.574   3.768
13430SOL    HW240541   3.355   7.684   3.872
13431SOL     OW40542  13.161   5.688   4.599
13431SOL    HW140543  13.077   5.699   4.555
13431SOL    HW240544  13.142   5.637   4.677
13432SOL     OW40545   7.934   9.955   2.244
13432SOL    HW140546   7.991  10.032   2.242
13432SOL    HW240547   7.889   9.956   2.160
13433SOL     OW40548   8.462   4.593   5.634
13433SOL    HW140549   8.530   4.540   5.593
13433SOL    HW240550   8.397   4.606   5.565
13434SOL     OW40551   6.917   9.073   1.835
13434SOL    HW140552   6.854   9.127   1.786
13434SOL    HW240553   6.919   9.113   1.922
13435SOL     OW40554   4.352  12.817   5.479
13435SOL    HW140555   4.272  12.774   5.509
13435SOL    HW240556   4.360  12.894   5.535
13436SOL     OW40557   9.362   5.772   6.889
13436SOL    HW140558   9.294   5.743   6.829
13436SOL    HW240559   9.432   5.708   6.879
13437SOL     OW40560   8.181   5.941   3.411
13437SOL    HW140561   8.262   5.913   3.452
13437SOL    HW240562   8.148   6.011   3.467
13438SOL     OW40563  11.396  13.834   5.382
13438SOL    HW140564  11.465  13.769   5.393
13438SOL    HW240565  11.439  13.908   5.339
13439SOL     OW40566   0.735   2.695   0.486
13439SOL    HW140567   0.734   2.633   0.559
13439SOL    HW240568   0.809   2.753   0.504
13440SOL     OW40569  10.269   8.909   3.215
13440SOL    HW140570  10.225   8.868   3.290
13440SOL    HW240571  10.357   8.873   3.217
13441SOL     OW40572  12.910  10.231   7.290
13441SOL    HW140573  12.900  10.146   7.247
13441SOL    HW240574  12.987  10.221   7.346
13442SOL     OW40575  14.535  11.995   5.856
13442SOL    HW140576  14.544  12.084   5.822
13442SOL    HW240577  14.590  11.941   5.800
13443SOL     OW40578   5.984   5.040   1.392
13443SOL    HW140579   6.043   5.031   1.317
13443SOL    HW240580   5.920   4.971   1.381
13444SOL     OW40581   7.958   4.263   5.179
13444SOL    HW140582   7.931   4.278   5.089
13444SOL    HW240583   7.920   4.178   5.202
13445SOL     OW40584   9.804  14.881   6.919
13445SOL    HW140585   9.805  14.805   6.977
13445SOL    HW240586   9.830  14.954   6.976
13446SOL     OW40587   4.885   7.689   1.666
13446SOL    HW140588   4.920   7.623   1.607
13446SOL    HW240589   4.955   7.755   1.672
13447SOL     OW40590  12.657   4.013   4.996
13447SOL    HW140591  12.724   3.952   4.965
13447SOL    HW240592  12.700   4.061   5.067
13448SOL     OW40593   4.480   5.528   4.974
13448SOL    HW140594   4.424   5.575   4.911
13448SOL    HW240595   4.457   5.436   4.962
13449SOL     OW40596  15.512  13.113   7.070
13449SOL    HW140597  15.581  13.051   7.092
13449SOL    HW240598  15.436  13.059   7.049
13450SOL     OW40599  11.721   5.870   1.849
13450SOL    HW140600  11.672   5.788   1.861
13450SOL    HW240601  11.759   5.863   1.762
13451SOL     OW40602   6.622  13.073   4.535
13451SOL    HW140603   6.624  12.978   4.541
13451SOL    HW240604   6.529  13.094   4.527
13452SOL     OW40605  11.239   6.987   4.285
13452SOL    HW140606  11.204   7.074   4.265
13452SOL    HW240607  11.259   6.949   4.200
13453SOL     OW40608   8.115  12.181   2.209
13453SOL    HW140609   8.059  12.108   2.181
13453SOL    HW240610   8.154  12.213   2.127
13454SOL     OW40611  11.186   2.887   1.377
13454SOL    HW140612  11.189   2.810   1.320
13454SOL    HW240613  11.112   2.871   1.436
13455SOL     OW40614   8.629   3.561   4.508
13455SOL    HW140615   8.637   3.651   4.542
13455SOL    HW240616   8.534   3.546   4.505
13456SOL     OW40617   7.587  12.343   3.634
13456SOL    HW140618   7.511  12.400   3.642
13456SOL    HW240619   7.641  12.364   3.711
13457SOL     OW40620   3.765   5.211   2.789
13457SOL    HW140621   3.802   5.232   2.704
13457SOL    HW240622   3.731   5.295   2.822
13458SOL     OW40623   5.311  11.021   5.982
13458SOL    HW140624   5.238  10.978   5.938
13458SOL    HW240625   5.307  11.112   5.953
13459SOL     OW40626   9.290   7.322   4.194
13459SOL    HW140627   9.278   7.232   4.223
13459SOL    HW240628   9.248   7.375   4.262
13460SOL     OW40629  10.207   7.413   5.205
13460SOL    HW140630  10.294   7.402   5.167
13460SOL    HW240631  10.196   7.508   5.213
13461SOL     OW40632   1.451   9.531   0.087
13461SOL    HW140633   1.372   9.585   0.080
13461SOL    HW240634   1.510   9.565   0.020
13462SOL     OW40635  15.049   6.253   6.906
13462SOL    HW140636  15.059   6.238   7.000
13462SOL    HW240637  15.079   6.343   6.893
13463SOL     OW40638   7.293   9.471   2.079
13463SOL    HW140639   7.285   9.465   1.984
13463SOL    HW240640   7.370   9.526   2.093
13464SOL     OW40641   9.357   4.708   4.335
13464SOL    HW140642   9.272   4.748   4.354
13464SOL    HW240643   9.342   4.660   4.253
13465SOL     OW40644   9.652   6.208   7.525
13465SOL    HW140645   9.747   6.201   7.534
13465SOL    HW240646   9.620   6.218   7.614
13466SOL     OW40647  12.792  11.273   5.535
13466SOL    HW140648  12.716  11.331   5.531
13466SOL    HW240649  12.847  11.300   5.461
13467SOL     OW40650   2.526   3.213   0.086
13467SOL    HW140651   2.501   3.174   0.002
13467SOL    HW240652   2.446   3.211   0.138
13468SOL     OW40653   9.006  11.477   2.723
13468SOL    HW140654   9.034  11.556   2.769
13468SOL    HW240655   8.911  11.472   2.738
13469SOL     OW40656  10.987   8.262   1.782
13469SOL    HW140657  10.893   8.252   1.800
13469SOL    HW240658  11.020   8.314   1.856
13470SOL     OW40659   5.709  11.235   2.060
13470SOL    HW140660   5.667  11.156   2.025
13470SOL    HW240661   5.738  11.210   2.148
13471SOL     OW40662  12.751   9.210   5.510
13471SOL    HW140663  12.690   9.283   5.498
13471SOL    HW240664  12.832   9.252   5.539
13472SOL     OW40665  11.285  11.263   4.088
13472SOL    HW140666  11.319  11.209   4.017
13472SOL    HW240667  11.346  11.247   4.161
13473SOL     OW40668   4.426   6.591   4.926
13473SOL    HW140669   4.505   6.615   4.877
13473SOL    HW240670   4.354   6.614   4.868
13474SOL     OW40671   7.529   5.782   4.869
13474SOL    HW140672   7.519   5.863   4.818
13474SOL    HW240673   7.441   5.743   4.869
13475SOL     OW40674   4.415   2.941   1.744
13475SOL    HW140675   4.467   3.021   1.746
13475SOL    HW240676   4.472   2.876   1.705
13476SOL     OW40677  12.914   7.899   3.241
13476SOL    HW140678  12.820   7.894   3.227
13476SOL    HW240679  12.938   7.986   3.209
13477SOL     OW40680   8.722   4.638   0.243
13477SOL    HW140681   8.711   4.692   0.321
13477SOL    HW240682   8.639   4.646   0.197
13478SOL     OW40683   6.488   3.614   2.340
13478SOL    HW140684   6.510   3.525   2.370
13478SOL    HW240685   6.437   3.601   2.260
13479SOL     OW40686   4.465   8.399   3.605
13479SOL    HW140687   4.424   8.457   3.669
13479SOL    HW240688   4.392   8.348   3.569
13480SOL     OW40689   4.982   7.628   6.363
13480SOL    HW140690   5.019   7.685   6.296
13480SOL    HW240691   4.993   7.678   6.445
13481SOL     OW40692   5.789   9.179   5.513
13481SOL    HW140693   5.847   9.167   5.588
13481SOL    HW240694   5.823   9.119   5.447
13482SOL     OW40695  10.956   8.699   1.775
13482SOL    HW140696  10.945   8.636   1.703
13482SOL    HW240697  10.931   8.651   1.853
13483SOL     OW40698   6.838   4.004   4.409
13483SOL    HW140699   6.867   4.039   4.493
13483SOL    HW240700   6.768   4.063   4.381
13484SOL     OW40701  10.593   8.161   0.105
13484SOL    HW140702  10.518   8.191   0.054
13484SOL    HW240703  10.609   8.232   0.167
13485SOL     OW40704   5.928  10.714   1.051
13485SOL    HW140705   5.841  10.727   1.015
13485SOL    HW240706   5.981  10.681   0.978
13486SOL     OW40707  10.372   7.084   0.307
13486SOL    HW140708  10.412   7.171   0.298
13486SOL    HW240709  10.278   7.102   0.310
13487SOL     OW40710   9.383   3.449   3.147
13487SOL    HW140711   9.446   3.417   3.083
13487SOL    HW240712   9.368   3.375   3.205
13488SOL     OW40713   4.683  10.794   4.673
13488SOL    HW140714   4.626  10.801   4.750
13488SOL    HW240715   4.766  10.832   4.701
13489SOL     OW40716   1.371   9.669   0.441
13489SOL    HW140717   1.360   9.691   0.348
13489SOL    HW240718   1.416   9.745   0.478
13490SOL     OW40719   9.838   4.899   2.029
13490SOL    HW140720   9.916   4.912   1.974
13490SOL    HW240721   9.770   4.873   1.967
13491SOL     OW40722   7.181  10.632   0.256
13491SOL    HW140723   7.129  10.659   0.332
13491SOL    HW240724   7.145  10.547   0.232
13492SOL     OW40725  11.119  12.744   6.980
13492SOL    HW140726  11.098  12.702   7.064
13492SOL    HW240727  11.089  12.835   6.991
13493SOL     OW40728   9.801   6.498   0.740
13493SOL    HW140729   9.881   6.547   0.756
13493SOL    HW240730   9.731   6.554   0.774
13494SOL     OW40731   3.735   4.057   3.524
13494SOL    HW140732   3.639   4.058   3.529
13494SOL    HW240733   3.763   4.032   3.612
13495SOL     OW40734  10.084   2.474   3.248
13495SOL    HW140735  10.074   2.383   3.218
13495SOL    HW240736  10.035   2.478   3.329
13496SOL     OW40737  11.470   7.831   2.986
13496SOL    HW140738  11.408   7.802   2.918
13496SOL    HW240739  11.415   7.845   3.063
13497SOL     OW40740   7.746   7.743   6.988
13497SOL    HW140741   7.738   7.771   6.897
13497SOL    HW240742   7.840   7.728   7.000
13498SOL     OW40743   5.645   9.902   4.070
13498SOL    HW140744   5.730   9.859   4.082
13498SOL    HW240745   5.612   9.917   4.158
13499SOL     OW40746  14.345  15.161   6.951
13499SOL    HW140747  14.436  15.139   6.969
13499SOL    HW240748  14.349  15.237   6.894
13500SOL     OW40749   9.583   1.221   0.913
13500SOL    HW140750   9.489   1.206   0.902
13500SOL    HW240751   9.592   1.258   1.000
13501SOL     OW40752   7.386   6.246   3.731
13501SOL    HW140753   7.297   6.277   3.718
13501SOL    HW240754   7.420   6.300   3.802
13502SOL     OW40755   5.850   7.933   2.132
13502SOL    HW140756   5.857   7.999   2.063
13502SOL    HW240757   5.932   7.884   2.128
13503SOL     OW40758  13.335   6.262   4.353
13503SOL    HW140759  13.347   6.356   4.368
13503SOL    HW240760  13.262   6.238   4.410
13504SOL     OW40761  10.531   9.213   6.608
13504SOL    HW140762  10.605   9.274   6.611
13504SOL    HW240763  10.482   9.240   6.530
13505SOL     OW40764  12.536   9.865   3.068
13505SOL    HW140765  12.564   9.952   3.041
13505SOL    HW240766  12.525   9.817   2.986
13506SOL     OW40767   4.138  13.688   5.058
13506SOL    HW140768   4.154  13.595   5.047
13506SOL    HW240769   4.215  13.731   5.022
13507SOL     OW40770   8.273  12.244   6.992
13507SOL    HW140771   8.345  12.263   7.052
13507SOL    HW240772   8.240  12.159   7.019
13508SOL     OW40773  11.827   9.572   2.155
13508SOL    HW140774  11.774   9.516   2.212
13508SOL    HW240775  11.763   9.628   2.111
13509SOL     OW40776  10.552   3.019   1.083
13509SOL    HW140777  10.510   3.059   1.007
13509SOL    HW240778  10.601   3.091   1.123
13510SOL     OW40779   9.278   8.348   1.494
13510SOL    HW140780   9.254   8.327   1.404
13510SOL    HW240781   9.202   8.321   1.546
13511SOL     OW40782  14.088   9.473   5.040
13511SOL    HW140783  14.141   9.465   5.119
13511SOL    HW240784  13.998   9.478   5.071
13512SOL     OW40785   3.416   8.841   2.840
13512SOL    HW140786   3.387   8.918   2.889
13512SOL    HW240787   3.335   8.800   2.809
13513SOL     OW40788   6.880  15.356   6.860
13513SOL    HW140789   6.841  15.443   6.850
13513SOL    HW240790   6.809  15.296   6.838
13514SOL     OW40791   4.580   0.471   0.297
13514SOL    HW140792   4.566   0.535   0.367
13514SOL    HW240793   4.591   0.524   0.218
13515SOL     OW40794  11.249   9.958   5.197
13515SOL    HW140795  11.290  10.045   5.198
13515SOL    HW240796  11.300   9.908   5.134
13516SOL     OW40797   2.919  11.501   3.556
13516SOL    HW140798   2.978  11.568   3.522
13516SOL    HW240799   2.920  11.513   3.651
13517SOL     OW40800   9.572   4.404   5.841
13517SOL    HW140801   9.504   4.378   5.778
13517SOL    HW240802   9.546   4.492   5.869
13518SOL     OW40803  11.207  11.155   7.269
13518SOL    HW140804  11.279  11.206   7.231
13518SOL    HW240805  11.197  11.190   7.357
13519SOL     OW40806   1.346   7.483   1.828
13519SOL    HW140807   1.428   7.522   1.859
13519SOL    HW240808  12.068   7.473   1.907
13520SOL     OW40809  10.067   6.644   3.025
13520SOL    HW140810  10.018   6.634   2.943
13520SOL    HW240811  10.018   6.593   3.089
13521SOL     OW40812  11.060   4.423   0.659
13521SOL    HW140813  10.968   4.448   0.643
13521SOL    HW240814  11.085   4.474   0.737
13522SOL     OW40815   9.454   6.005   6.395
13522SOL    HW140816   9.500   5.991   6.312
13522SOL    HW240817   9.448   5.917   6.433
13523SOL     OW40818   6.107   9.816   7.489
13523SOL    HW140819   6.018   9.828   7.457
13523SOL    HW240820   6.131   9.728   7.460
13524SOL     OW40821   4.405  13.782   4.982
13524SOL    HW140822   4.470  13.712   4.983
13524SOL    HW240823   4.456  13.863   4.985
13525SOL     OW40824   5.393   7.209   1.134
13525SOL    HW140825   5.316   7.187   1.081
13525SOL    HW240826   5.359   7.265   1.204
13526SOL     OW40827   7.244   5.439   3.317
13526SOL    HW140828   7.260   5.389   3.237
13526SOL    HW240829   7.322   5.495   3.327
13527SOL     OW40830   4.587   2.770   3.060
13527SOL    HW140831   4.594   2.678   3.085
13527SOL    HW240832   4.499   2.778   3.021
13528SOL     OW40833   9.981   4.769   5.974
13528SOL    HW140834  10.042   4.699   5.953
13528SOL    HW240835   9.981   4.826   5.897
13529SOL     OW40836   8.788   9.109   1.166
13529SOL    HW140837   8.822   9.025   1.136
13529SOL    HW240838   8.795   9.106   1.262
13530SOL     OW40839   7.597  13.851   6.956
13530SOL    HW140840   7.568  13.766   6.923
13530SOL    HW240841   7.663  13.880   6.893
13531SOL     OW40842  11.753   6.750   2.371
13531SOL    HW140843  11.746   6.690   2.297
13531SOL    HW240844  11.773   6.835   2.332
13532SOL     OW40845  10.221  10.825   2.336
13532SOL    HW140846  10.179  10.835   2.421
13532SOL    HW240847  10.312  10.803   2.357
13533SOL     OW40848   1.733   2.516   1.100
13533SOL    HW140849   1.696   2.438   1.058
13533SOL    HW240850   1.733   2.495   1.194
13534SOL     OW40851   6.521   9.261   1.939
13534SOL    HW140852   6.565   9.234   2.019
13534SOL    HW240853   6.506   9.355   1.950
13535SOL     OW40854  10.540   8.934   0.974
13535SOL    HW140855  10.518   8.946   1.066
13535SOL    HW240856  10.518   8.843   0.955
13536SOL     OW40857   6.951   8.927   2.263
13536SOL    HW140858   6.894   8.995   2.227
13536SOL    HW240859   7.001   8.896   2.187
13537SOL     OW40860   5.594   6.513   1.484
13537SOL    HW140861   5.616   6.528   1.392
13537SOL    HW240862   5.568   6.421   1.487
13538SOL     OW40863   9.209   8.058   5.897
13538SOL    HW140864   9.245   8.041   5.810
13538SOL    HW240865   9.286   8.072   5.952
13539SOL     OW40866  12.987  12.058   5.982
13539SOL    HW140867  12.922  12.108   6.031
13539SOL    HW240868  12.986  11.971   6.022
13540SOL     OW40869  12.280  10.538   2.949
13540SOL    HW140870  12.239  10.543   3.035
13540SOL    HW240871  12.206  10.540   2.888
13541SOL     OW40872   6.651   4.445   4.608
13541SOL    HW140873   6.583   4.505   4.640
13541SOL    HW240874   6.730   4.498   4.606
13542SOL     OW40875   9.271  12.634   2.646
13542SOL    HW140876   9.366  12.620   2.637
13542SOL    HW240877   9.233  12.549   2.627
13543SOL     OW40878   5.364  10.318   5.591
13543SOL    HW140879   5.414  10.271   5.658
13543SOL    HW240880   5.288  10.352   5.636
13544SOL     OW40881   9.886   3.456   2.052
13544SOL    HW140882   9.802   3.494   2.027
13544SOL    HW240883   9.918   3.412   1.973
13545SOL     OW40884  13.972   5.728   6.820
13545SOL    HW140885  13.976   5.638   6.788
13545SOL    HW240886  14.061   5.761   6.811
13546SOL     OW40887   3.528   5.249   0.823
13546SOL    HW140888   3.499   5.330   0.864
13546SOL    HW240889   3.450   5.195   0.817
13547SOL     OW40890   1.537   6.609   1.009
13547SOL    HW140891   1.487   6.578   1.085
13547SOL    HW240892   1.625   6.573   1.024
13548SOL     OW40893   9.843   1.658   1.454
13548SOL    HW140894   9.832   1.729   1.391
13548SOL    HW240895   9.855   1.579   1.400
13549SOL     OW40896  14.229   7.731   6.088
13549SOL    HW140897  14.256   7.653   6.039
13549SOL    HW240898  14.310   7.763   6.129
13550SOL     OW40899   6.247  12.230   2.781
13550SOL    HW140900   6.184  12.191   2.842
13550SOL    HW240901   6.196  12.293   2.731
13551SOL     OW40902   7.948   7.953   2.587
13551SOL    HW140903   8.031   7.975   2.546
13551SOL    HW240904   7.885   8.014   2.548
13552SOL     OW40905  11.848   8.850   6.951
13552SOL    HW140906  11.864   8.843   7.045
13552SOL    HW240907  11.795   8.929   6.941
13553SOL     OW40908  10.698   8.457   1.791
13553SOL    HW140909  10.622   8.411   1.828
13553SOL    HW240910  10.724   8.519   1.858
13554SOL     OW40911   8.744   7.655   4.774
13554SOL    HW140912   8.650   7.651   4.756
13554SOL    HW240913   8.778   7.570   4.746
13555SOL     OW40914  11.714   4.457   3.548
13555SOL    HW140915  11.632   4.495   3.581
13555SOL    HW240916  11.775   4.530   3.544
13556SOL     OW40917   5.472   7.207   1.444
13556SOL    HW140918   5.399   7.260   1.413
13556SOL    HW240919   5.490   7.147   1.373
13557SOL     OW40920   5.694   7.753   5.088
13557SOL    HW140921   5.750   7.720   5.158
13557SOL    HW240922   5.608   7.714   5.105
13558SOL     OW40923   6.377   5.310   6.670
13558SOL    HW140924   6.384   5.219   6.697
13558SOL    HW240925   6.409   5.360   6.745
13559SOL     OW40926  10.277   6.746   5.569
13559SOL    HW140927  10.214   6.688   5.526
13559SOL    HW240928  10.351   6.751   5.508
13560SOL     OW40929   8.003   3.371   3.656
13560SOL    HW140930   8.096   3.366   3.678
13560SOL    HW240931   7.988   3.464   3.638
13561SOL     OW40932   4.260   0.247   0.208
13561SOL    HW140933   4.220   0.319   0.159
13561SOL    HW240934   4.295   0.288   0.287
13562SOL     OW40935  11.224  11.018   6.637
13562SOL    HW140936  11.185  10.987   6.555
13562SOL    HW240937  11.149  11.051   6.688
13563SOL     OW40938   9.556  13.823   4.744
13563SOL    HW140939   9.523  13.840   4.833
13563SOL    HW240940   9.593  13.735   4.749
13564SOL     OW40941  10.369   9.296   6.384
13564SOL    HW140942  10.405   9.367   6.332
13564SOL    HW240943  10.336   9.233   6.319
13565SOL     OW40944   7.090   3.536   4.092
13565SOL    HW140945   7.109   3.501   4.179
13565SOL    HW240946   7.005   3.499   4.069
13566SOL     OW40947   3.944   1.886   1.677
13566SOL    HW140948   3.882   1.907   1.747
13566SOL    HW240949   3.992   1.968   1.662
13567SOL     OW40950   7.585  13.061   6.221
13567SOL    HW140951   7.648  13.094   6.156
13567SOL    HW240952   7.637  13.048   6.300
13568SOL     OW40953  10.840   4.263   5.225
13568SOL    HW140954  10.889   4.188   5.256
13568SOL    HW240955  10.892   4.339   5.252
13569SOL     OW40956   6.936   9.090   4.310
13569SOL    HW140957   6.927   8.997   4.332
13569SOL    HW240958   7.012   9.093   4.252
13570SOL     OW40959   5.537   9.056   2.463
13570SOL    HW140960   5.446   9.058   2.434
13570SOL    HW240961   5.588   9.072   2.383
13571SOL     OW40962   6.951   7.439   2.610
13571SOL    HW140963   6.948   7.441   2.706
13571SOL    HW240964   6.955   7.345   2.589
13572SOL     OW40965   7.385   8.649   5.395
13572SOL    HW140966   7.432   8.566   5.404
13572SOL    HW240967   7.354   8.649   5.304
13573SOL     OW40968   3.172   8.616   3.299
13573SOL    HW140969   3.089   8.603   3.344
13573SOL    HW240970   3.232   8.648   3.367
13574SOL     OW40971   8.467   9.694   2.144
13574SOL    HW140972   8.455   9.601   2.160
13574SOL    HW240973   8.382   9.724   2.111
13575SOL     OW40974  14.497   9.115   5.361
13575SOL    HW140975  14.471   9.023   5.367
13575SOL    HW240976  14.414   9.163   5.369
13576SOL     OW40977   8.962  11.268   2.428
13576SOL    HW140978   9.015  11.229   2.498
13576SOL    HW240979   8.912  11.338   2.472
13577SOL     OW40980   6.086   7.412   0.185
13577SOL    HW140981   6.072   7.346   0.117
13577SOL    HW240982   6.181   7.427   0.185
13578SOL     OW40983  14.039  10.168   6.353
13578SOL    HW140984  14.068  10.257   6.372
13578SOL    HW240985  13.949  10.164   6.387
13579SOL     OW40986  11.856  10.630   6.429
13579SOL    HW140987  11.864  10.725   6.427
13579SOL    HW240988  11.870  10.607   6.521
13580SOL     OW40989   4.778   6.323   0.409
13580SOL    HW140990   4.728   6.267   0.469
13580SOL    HW240991   4.758   6.289   0.322
13581SOL     OW40992   1.974   4.444   1.035
13581SOL    HW140993   1.923   4.509   0.987
13581SOL    HW240994   1.998   4.379   0.970
13582SOL     OW40995   6.360   4.283   1.790
13582SOL    HW140996   6.266   4.279   1.773
13582SOL    HW240997   6.393   4.197   1.766
13583SOL     OW40998   4.340   7.613   5.344
13583SOL    HW140999   4.320   7.684   5.283
13583SOL    HW241000   4.258   7.564   5.352
13584SOL     OW41001   6.440  12.332   3.965
13584SOL    HW141002   6.493  12.334   3.885
13584SOL    HW241003   6.374  12.265   3.948
13585SOL     OW41004   7.810  13.762   7.162
13585SOL    HW141005   7.858  13.722   7.089
13585SOL    HW241006   7.737  13.807   7.120
13586SOL     OW41007   6.576   3.913   4.254
13586SOL    HW141008   6.655   3.891   4.204
13586SOL    HW241009   6.578   4.009   4.259
13587SOL     OW41010  10.605  11.306   5.662
13587SOL    HW141011  10.637  11.395   5.677
13587SOL    HW241012  10.624  11.260   5.744
13588SOL     OW41013   6.706   2.631   2.665
13588SOL    HW141014   6.616   2.637   2.635
13588SOL    HW241015   6.744   2.560   2.613
13589SOL     OW41016   2.991   6.478   2.469
13589SOL    HW141017   3.071   6.465   2.418
13589SOL    HW241018   2.925   6.427   2.422
13590SOL     OW41019  12.046   9.594   3.360
13590SOL    HW141020  12.054   9.564   3.270
13590SOL    HW241021  12.102   9.673   3.364
13591SOL     OW41022   8.168  10.532   1.102
13591SOL    HW141023   8.120  10.574   1.030
13591SOL    HW241024   8.234  10.478   1.058
13592SOL     OW41025   1.919   7.575   0.790
13592SOL    HW141026   1.955   7.602   0.706
13592SOL    HW241027   1.882   7.489   0.774
13593SOL     OW41028   7.952  10.315   3.325
13593SOL    HW141029   7.897  10.242   3.351
13593SOL    HW241030   8.001  10.337   3.404
13594SOL     OW41031   3.102  13.342   4.154
13594SOL    HW141032   3.187  13.297   4.155
13594SOL    HW241033   3.065  13.323   4.241
13595SOL     OW41034  12.264   9.653   4.230
13595SOL    HW141035  12.349   9.616   4.208
13595SOL    HW241036  12.285   9.734   4.278
13596SOL     OW41037  10.065  11.911   5.048
13596SOL    HW141038  10.073  12.002   5.019
13596SOL    HW241039  10.031  11.865   4.971
13597SOL     OW41040   7.038  11.305   5.336
13597SOL    HW141041   6.984  11.237   5.377
13597SOL    HW241042   7.014  11.303   5.244
13598SOL     OW41043  14.150  11.679   4.941
13598SOL    HW141044  14.173  11.592   4.909
13598SOL    HW241045  14.233  11.715   4.973
13599SOL     OW41046  11.526  14.072   7.074
13599SOL    HW141047  11.493  14.106   6.991
13599SOL    HW241048  11.615  14.044   7.054
13600SOL     OW41049   8.462   5.669   6.513
13600SOL    HW141050   8.470   5.591   6.568
13600SOL    HW241051   8.437   5.739   6.573
13601SOL     OW41052   9.478   5.085   3.589
13601SOL    HW141053   9.526   5.015   3.546
13601SOL    HW241054   9.391   5.048   3.606
13602SOL     OW41055  12.385   8.663   5.127
13602SOL    HW141056  12.364   8.594   5.189
13602SOL    HW241057  12.444   8.721   5.175
13603SOL     OW41058   7.762   5.309   3.425
13603SOL    HW141059   7.677   5.286   3.462
13603SOL    HW241060   7.743   5.379   3.362
13604SOL     OW41061   5.998   7.663   6.027
13604SOL    HW141062   5.990   7.644   6.121
13604SOL    HW241063   5.991   7.759   6.021
13605SOL     OW41064   5.461   6.295   1.187
13605SOL    HW141065   5.555   6.295   1.169
13605SOL    HW241066   5.437   6.387   1.187
13606SOL     OW41067  12.034   4.193   3.499
13606SOL    HW141068  11.944   4.193   3.467
13606SOL    HW241069  12.065   4.282   3.483
13607SOL     OW41070   3.655   8.966   5.144
13607SOL    HW141071  14.375   9.038   5.111
13607SOL    HW241072  14.371   8.890   5.144
13608SOL     OW41073  10.981   8.278   3.712
13608SOL    HW141074  10.940   8.365   3.716
13608SOL    HW241075  10.908   8.217   3.720
13609SOL     OW41076   0.982   4.435   0.211
13609SOL    HW141077   0.929   4.405   0.284
13609SOL    HW241078   1.008   4.524   0.235
13610SOL     OW41079   8.656   8.561   1.923
13610SOL    HW141080   8.626   8.650   1.941
13610SOL    HW241081   8.635   8.511   2.002
13611SOL     OW41082   8.047   4.315   2.454
13611SOL    HW141083   8.014   4.371   2.524
13611SOL    HW241084   8.058   4.374   2.379
13612SOL     OW41085  15.270   6.381   7.396
13612SOL    HW141086  15.346   6.404   7.449
13612SOL    HW241087  15.196   6.425   7.438
13613SOL     OW41088  10.838  13.432   6.407
13613SOL    HW141089  10.757  13.478   6.428
13613SOL    HW241090  10.907  13.498   6.418
13614SOL     OW41091   6.063   7.974   1.730
13614SOL    HW141092   6.040   7.947   1.641
13614SOL    HW241093   6.118   7.904   1.764
13615SOL     OW41094   7.703   8.028   0.536
13615SOL    HW141095   7.725   8.068   0.452
13615SOL    HW241096   7.637   8.086   0.574
13616SOL     OW41097   5.084   7.505   1.100
13616SOL    HW141098   5.033   7.565   1.154
13616SOL    HW241099   5.041   7.420   1.110
13617SOL     OW41100   9.177   6.976   0.053
13617SOL    HW141101   9.094   6.950   0.012
13617SOL    HW241102  14.631  12.335   7.609
13618SOL     OW41103   1.974   8.035   0.946
13618SOL    HW141104   1.909   7.971   0.917
13618SOL    HW241105   2.051   7.983   0.969
13619SOL     OW41106   3.531   5.307   3.407
13619SOL    HW141107   3.546   5.312   3.501
13619SOL    HW241108   3.448   5.352   3.393
13620SOL     OW41109   8.357   1.241   1.309
13620SOL    HW141110   8.317   1.244   1.397
13620SOL    HW241111   8.413   1.318   1.306
13621SOL     OW41112   9.089  11.055   4.657
13621SOL    HW141113   9.069  11.145   4.633
13621SOL    HW241114   9.157  11.062   4.724
13622SOL     OW41115   8.906   9.601   1.658
13622SOL    HW141116   8.902   9.696   1.649
13622SOL    HW241117   8.990   9.577   1.618
13623SOL     OW41118   3.116   0.736   0.516
13623SOL    HW141119   3.210   0.722   0.530
13623SOL    HW241120   3.107   0.831   0.508
13624SOL     OW41121  13.808   6.671   5.822
13624SOL    HW141122  13.790   6.578   5.807
13624SOL    HW241123  13.894   6.672   5.864
13625SOL     OW41124   7.718  12.960   3.557
13625SOL    HW141125   7.810  12.959   3.583
13625SOL    HW241126   7.670  12.976   3.639
13626SOL     OW41127   3.250   8.807   3.701
13626SOL    HW141128   3.300   8.811   3.782
13626SOL    HW241129   3.179   8.745   3.719
13627SOL     OW41130   6.803  11.550   1.539
13627SOL    HW141131   6.732  11.615   1.537
13627SOL    HW241132   6.765  11.475   1.586
13628SOL     OW41133   1.991  10.420   2.200
13628SOL    HW141134   2.001  10.430   2.105
13628SOL    HW241135   1.954  10.332   2.211
13629SOL     OW41136  12.684   5.347   4.039
13629SOL    HW141137  12.732   5.425   4.010
13629SOL    HW241138  12.668   5.298   3.958
13630SOL     OW41139  11.464  14.344   6.721
13630SOL    HW141140  11.444  14.408   6.653
13630SOL    HW241141  11.387  14.345   6.778
13631SOL     OW41142   3.623   8.735   4.756
13631SOL    HW141143   3.533   8.732   4.787
13631SOL    HW241144   3.665   8.659   4.798
13632SOL     OW41145   6.882   7.213   4.945
13632SOL    HW141146   6.919   7.146   5.002
13632SOL    HW241147   6.901   7.296   4.989
13633SOL     OW41148   7.557   7.555   2.276
13633SOL    HW141149   7.606   7.473   2.265
13633SOL    HW241150   7.486   7.533   2.336
13634SOL     OW41151   9.531  11.155   5.210
13634SOL    HW141152   9.450  11.126   5.251
13634SOL    HW241153   9.502  11.208   5.135
13635SOL     OW41154   3.092   2.580   1.972
13635SOL    HW141155   3.065   2.641   1.903
13635SOL    HW241156   3.178   2.549   1.944
13636SOL     OW41157   3.602  11.520   2.147
13636SOL    HW141158   3.691  11.524   2.182
13636SOL    HW241159   3.572  11.611   2.147
13637SOL     OW41160   3.666  10.303   2.235
13637SOL    HW141161   3.669  10.306   2.139
13637SOL    HW241162   3.640  10.213   2.255
13638SOL     OW41163   4.276   7.378   0.627
13638SOL    HW141164   4.296   7.347   0.715
13638SOL    HW241165   4.324   7.318   0.569
13639SOL     OW41166   6.968   4.351   1.766
13639SOL    HW141167   6.974   4.418   1.697
13639SOL    HW241168   7.058   4.338   1.795
13640SOL     OW41169   5.564  13.584   7.608
13640SOL    HW141170   0.235   8.204   0.064
13640SOL    HW241171   0.092   8.226   0.022
13641SOL     OW41172   9.181   7.335   2.922
13641SOL    HW141173   9.112   7.310   2.861
13641SOL    HW241174   9.254   7.361   2.867
13642SOL     OW41175   9.150   4.290   3.184
13642SOL    HW141176   9.235   4.311   3.225
13642SOL    HW241177   9.087   4.299   3.255
13643SOL     OW41178   2.459   4.599   2.290
13643SOL    HW141179   2.488   4.657   2.360
13643SOL    HW241180   2.540   4.569   2.248
13644SOL     OW41181   8.779  12.459   2.791
13644SOL    HW141182   8.744  12.480   2.704
13644SOL    HW241183   8.852  12.519   2.802
13645SOL     OW41184   7.295  10.755   3.577
13645SOL    HW141185   7.384  10.789   3.586
13645SOL    HW241186   7.291  10.720   3.488
13646SOL     OW41187   4.419   8.451   6.236
13646SOL    HW141188   4.397   8.532   6.191
13646SOL    HW241189  15.145   8.384   6.189
13647SOL     OW41190  12.769  13.853   4.972
13647SOL    HW141191  12.852  13.888   5.004
13647SOL    HW241192  12.783  13.839   4.878
13648SOL     OW41193  10.956   4.592   3.698
13648SOL    HW141194  10.887   4.656   3.681
13648SOL    HW241195  10.910   4.515   3.732
13649SOL     OW41196   7.351  12.322   4.228
13649SOL    HW141197   7.393  12.321   4.142
13649SOL    HW241198   7.400  12.388   4.278
13650SOL     OW41199  10.538   3.793   1.393
13650SOL    HW141200  10.618   3.837   1.421
13650SOL    HW241201  10.549   3.779   1.299
13651SOL     OW41202   5.399  11.557   1.988
13651SOL    HW141203   5.330  11.515   1.937
13651SOL    HW241204   5.471  11.568   1.926
13652SOL     OW41205  12.203  15.079   6.215
13652SOL    HW141206  12.118  15.059   6.177
13652SOL    HW241207  12.249  14.995   6.216
13653SOL     OW41208  10.851   7.126   0.572
13653SOL    HW141209  10.897   7.181   0.635
13653SOL    HW241210  10.896   7.142   0.489
13654SOL     OW41211   3.216  10.381   1.190
13654SOL    HW141212   3.218  10.430   1.272
13654SOL    HW241213   3.308  10.362   1.171
13655SOL     OW41214   9.529   6.821   2.630
13655SOL    HW141215   9.521   6.916   2.620
13655SOL    HW241216   9.590   6.810   2.703
13656SOL     OW41217   6.215   2.258   0.105
13656SOL    HW141218   6.120   2.259   0.101
13656SOL    HW241219   6.237   2.299   0.188
13657SOL     OW41220  14.168  11.283   7.553
13657SOL    HW141221  14.104  11.289   7.482
13657SOL    HW241222  14.246  11.328   7.520
13658SOL     OW41223   8.175   7.601   6.297
13658SOL    HW141224   8.196   7.508   6.296
13658SOL    HW241225   8.116   7.613   6.223
13659SOL     OW41226  13.366  12.796   6.593
13659SOL    HW141227  13.330  12.847   6.666
13659SOL    HW241228  13.328  12.709   6.603
13660SOL     OW41229   7.318   4.421   0.697
13660SOL    HW141230   7.305   4.333   0.663
13660SOL    HW241231   7.253   4.430   0.767
13661SOL     OW41232   6.124  14.993   7.557
13661SOL    HW141233   6.158  14.916   7.604
13661SOL    HW241234   6.127  14.968   7.465
13662SOL     OW41235  12.254  14.391   6.798
13662SOL    HW141236  12.282  14.386   6.706
13662SOL    HW241237  12.336  14.401   6.847
13663SOL     OW41238   2.033   1.514   1.115
13663SOL    HW141239   2.084   1.530   1.194
13663SOL    HW241240   2.070   1.433   1.078
13664SOL     OW41241   8.247   7.178   0.465
13664SOL    HW141242   8.297   7.098   0.481
13664SOL    HW241243   8.156   7.149   0.458
13665SOL     OW41244   8.092   9.295   5.202
13665SOL    HW141245   8.152   9.306   5.275
13665SOL    HW241246   8.041   9.376   5.200
13666SOL     OW41247   8.404   7.293   5.199
13666SOL    HW141248   8.462   7.283   5.123
13666SOL    HW241249   8.345   7.363   5.174
13667SOL     OW41250   3.012  11.621   3.762
13667SOL    HW141251   3.103  11.651   3.761
13667SOL    HW241252   2.968  11.681   3.823
13668SOL     OW41253   6.171   6.965   3.692
13668SOL    HW141254   6.240   7.030   3.703
13668SOL    HW241255   6.127   6.961   3.777
13669SOL     OW41256   6.442   9.962   6.502
13669SOL    HW141257   6.524   9.928   6.537
13669SOL    HW241258   6.457   9.968   6.408
13670SOL     OW41259   4.386  12.426   5.238
13670SOL    HW141260   4.327  12.439   5.312
13670SOL    HW241261   4.388  12.511   5.194
13671SOL     OW41262   5.340  12.183   2.647
13671SOL    HW141263   5.374  12.102   2.611
13671SOL    HW241264   5.345  12.172   2.742
13672SOL     OW41265   7.363   3.146   3.603
13672SOL    HW141266   7.362   3.241   3.621
13672SOL    HW241267   7.368   3.140   3.508
13673SOL     OW41268  11.572   9.707   3.409
13673SOL    HW141269  11.630   9.727   3.481
13673SOL    HW241270  11.490   9.752   3.430
13674SOL     OW41271   5.611   8.598   0.091
13674SOL    HW141272   5.561   8.557   0.162
13674SOL    HW241273   5.649   8.524   0.042
13675SOL     OW41274   8.618   2.661   0.133
13675SOL    HW141275   8.592   2.731   0.073
13675SOL    HW241276   8.710   2.644   0.112
13676SOL     OW41277   6.093  12.287   3.818
13676SOL    HW141278   6.172  12.312   3.771
13676SOL    HW241279   6.121  12.217   3.877
13677SOL     OW41280   1.845   8.674   0.424
13677SOL    HW141281   1.909   8.604   0.411
13677SOL    HW241282   1.763   8.639   0.389
13678SOL     OW41283   5.320  11.274   3.326
13678SOL    HW141284   5.342  11.335   3.256
13678SOL    HW241285   5.249  11.317   3.374
13679SOL     OW41286  10.668   6.814   4.737
13679SOL    HW141287  10.690   6.894   4.690
13679SOL    HW241288  10.572   6.811   4.736
13680SOL     OW41289   8.988   8.903   1.692
13680SOL    HW141290   8.915   8.846   1.668
13680SOL    HW241291   8.953   8.957   1.763
13681SOL     OW41292  10.974  14.041   7.254
13681SOL    HW141293  11.067  14.041   7.275
13681SOL    HW241294  10.953  14.132   7.233
13682SOL     OW41295   8.994   4.156   5.220
13682SOL    HW141296   8.908   4.184   5.251
13682SOL    HW241297   8.994   4.177   5.126
13683SOL     OW41298   6.192   5.303   5.498
13683SOL    HW141299   6.177   5.397   5.506
13683SOL    HW241300   6.140   5.265   5.569
13684SOL     OW41301   7.836   8.630   4.300
13684SOL    HW141302   7.776   8.703   4.286
13684SOL    HW241303   7.782   8.552   4.289
13685SOL     OW41304  13.564   7.231   7.525
13685SOL    HW141305  13.471   7.231   7.548
13685SOL    HW241306  13.610   7.252   7.606
13686SOL     OW41307   8.760   3.717   4.132
13686SOL    HW141308   8.774   3.635   4.083
13686SOL    HW241309   8.821   3.711   4.205
13687SOL     OW41310   6.881   3.315   0.904
13687SOL    HW141311   6.790   3.328   0.928
13687SOL    HW241312   6.902   3.389   0.847
13688SOL     OW41313   3.698   0.421   0.020
13688SOL    HW141314   3.699   0.438   0.115
13688SOL    HW241315   9.067   5.894   7.600
13689SOL     OW41316   4.523  11.442   5.470
13689SOL    HW141317   4.604  11.474   5.431
13689SOL    HW241318   4.524  11.347   5.456
13690SOL     OW41319  13.628   9.037   7.037
13690SOL    HW141320  13.658   8.947   7.052
13690SOL    HW241321  13.686   9.070   6.968
13691SOL     OW41322  10.813  14.041   6.269
13691SOL    HW141323  10.743  14.034   6.204
13691SOL    HW241324  10.887  13.995   6.229
13692SOL     OW41325   6.745   8.538   2.423
13692SOL    HW141326   6.756   8.515   2.331
13692SOL    HW241327   6.815   8.491   2.468
13693SOL     OW41328   4.088   7.056   3.407
13693SOL    HW141329   3.993   7.063   3.400
13693SOL    HW241330   4.104   7.028   3.497
13694SOL     OW41331  10.162   9.405   2.407
13694SOL    HW141332  10.078   9.450   2.402
13694SOL    HW241333  10.227   9.472   2.388
13695SOL     OW41334  13.441   6.706   5.799
13695SOL    HW141335  13.409   6.785   5.755
13695SOL    HW241336  13.402   6.710   5.886
13696SOL     OW41337   7.233  11.654   2.875
13696SOL    HW141338   7.327  11.664   2.889
13696SOL    HW241339   7.200  11.744   2.870
13697SOL     OW41340   4.656  11.756   1.698
13697SOL    HW141341   4.579  11.808   1.720
13697SOL    HW241342   4.725  11.821   1.681
13698SOL     OW41343   5.377   4.386   3.687
13698SOL    HW141344   5.439   4.406   3.616
13698SOL    HW241345   5.432   4.350   3.757
13699SOL     OW41346  13.051  13.742   6.647
13699SOL    HW141347  12.955  13.735   6.652
13699SOL    HW241348  13.067  13.832   6.619
13700SOL     OW41349   5.418   4.801   2.024
13700SOL    HW141350   5.360   4.779   1.951
13700SOL    HW241351   5.393   4.889   2.049
13701SOL     OW41352  11.405  11.523   5.208
13701SOL    HW141353  11.445  11.438   5.228
13701SOL    HW241354  11.432  11.580   5.279
13702SOL     OW41355   4.593   6.472   3.295
13702SOL    HW141356   4.553   6.387   3.279
13702SOL    HW241357   4.528   6.535   3.264
13703SOL     OW41358  10.409  10.480   5.108
13703SOL    HW141359  10.439  10.550   5.049
13703SOL    HW241360  10.469  10.407   5.090
13704SOL     OW41361   6.913  13.891   7.324
13704SOL    HW141362   6.906  13.811   7.272
13704SOL    HW241363   6.957  13.864   7.404
13705SOL     OW41364  13.696  12.071   5.836
13705SOL    HW141365  13.737  12.050   5.920
13705SOL    HW241366  13.769  12.101   5.781
13706SOL     OW41367  12.637   9.448   5.323
13706SOL    HW141368  12.713   9.505   5.309
13706SOL    HW241369  12.561   9.504   5.307
13707SOL     OW41370   5.692   7.994   6.672
13707SOL    HW141371   5.670   7.971   6.762
13707SOL    HW241372   5.788   7.993   6.670
13708SOL     OW41373  11.979   5.905   4.031
13708SOL    HW141374  11.946   5.985   4.072
13708SOL    HW241375  12.054   5.934   3.979
13709SOL     OW41376   8.860   9.006   1.440
13709SOL    HW141377   8.819   9.031   1.523
13709SOL    HW241378   8.930   8.946   1.465
13710SOL     OW41379   7.205   9.405   1.753
13710SOL    HW141380   7.290   9.446   1.764
13710SOL    HW241381   7.208   9.328   1.810
13711SOL     OW41382   8.532   4.761   6.634
13711SOL    HW141383   8.602   4.799   6.686
13711SOL    HW241384   8.458   4.755   6.695
13712SOL     OW41385   7.810  14.883   7.450
13712SOL    HW141386   7.792  14.791   7.469
13712SOL    HW241387   7.903  14.894   7.467
13713SOL     OW41388  11.126  13.428   6.151
13713SOL    HW141389  11.122  13.494   6.082
13713SOL    HW241390  11.209  13.382   6.135
13714SOL     OW41391  11.213   3.867   2.552
13714SOL    HW141392  11.194   3.859   2.645
13714SOL    HW241393  11.175   3.951   2.527
13715SOL     OW41394   7.173  10.459   6.557
13715SOL    HW141395   7.245  10.511   6.521
13715SOL    HW241396   7.216  10.384   6.598
13716SOL     OW41397   3.294  10.604   0.948
13716SOL    HW141398   3.377  10.617   0.994
13716SOL    HW241399   3.228  10.639   1.007
13717SOL     OW41400   4.027  11.263   0.986
13717SOL    HW141401   4.007  11.171   1.002
13717SOL    HW241402   4.054  11.297   1.071
13718SOL     OW41403   9.571   1.799   0.980
13718SOL    HW141404   9.535   1.844   0.903
13718SOL    HW241405   9.494   1.764   1.025
13719SOL     OW41406   6.511   4.808   1.922
13719SOL    HW141407   6.485   4.857   2.001
13719SOL    HW241408   6.544   4.725   1.956
13720SOL     OW41409  15.742  13.323   7.073
13720SOL    HW141410  15.648  13.314   7.057
13720SOL    HW241411   5.008  13.299   6.990
13721SOL     OW41412  12.127  11.230   2.498
13721SOL    HW141413  12.191  11.161   2.515
13721SOL    HW241414  12.178  11.311   2.498
13722SOL     OW41415  11.474  11.133   7.477
13722SOL    HW141416  11.540  11.166   7.417
13722SOL    HW241417  11.434  11.059   7.430
13723SOL     OW41418  11.403  12.721   6.057
13723SOL    HW141419  11.476  12.723   5.995
13723SOL    HW241420  11.356  12.803   6.043
13724SOL     OW41421  10.887   5.472   0.270
13724SOL    HW141422   0.162   5.517   0.202
13724SOL    HW241423  10.875   5.537   0.339
13725SOL     OW41424   5.428   2.425   0.391
13725SOL    HW141425   5.405   2.511   0.427
13725SOL    HW241426   5.435   2.368   0.467
13726SOL     OW41427   7.326  15.955   7.491
13726SOL    HW141428   7.413  15.915   7.497
13726SOL    HW241429   7.281  15.926   7.571
13727SOL     OW41430   7.794  10.076   3.304
13727SOL    HW141431   7.716  10.099   3.354
13727SOL    HW241432   7.778   9.987   3.272
13728SOL     OW41433  10.225   7.873   1.161
13728SOL    HW141434  10.165   7.920   1.104
13728SOL    HW241435  10.300   7.931   1.170
13729SOL     OW41436  10.981   9.863   1.157
13729SOL    HW141437  10.944   9.951   1.164
13729SOL    HW241438  10.934   9.823   1.083
13730SOL     OW41439   0.719   7.854   0.174
13730SOL    HW141440   0.642   7.796   0.171
13730SOL    HW241441   0.703   7.918   0.105
13731SOL     OW41442  13.393   5.817   7.612
13731SOL    HW141443  13.418   5.750   7.549
13731SOL    HW241444  13.465   5.879   7.612
13732SOL     OW41445  11.656   4.469   5.130
13732SOL    HW141446  11.663   4.379   5.097
13732SOL    HW241447  11.696   4.523   5.062
13733SOL     OW41448   4.187   9.778   2.293
13733SOL    HW141449   4.265   9.735   2.330
13733SOL    HW241450   4.124   9.778   2.364
13734SOL     OW41451  11.334  11.826   2.418
13734SOL    HW141452  11.253  11.845   2.371
13734SOL    HW241453  11.385  11.772   2.357
13735SOL     OW41454  11.250  10.931   5.412
13735SOL    HW141455  11.330  10.979   5.433
13735SOL    HW241456  11.180  10.995   5.427
13736SOL     OW41457  10.005  10.191   7.066
13736SOL    HW141458   9.935  10.145   7.112
13736SOL    HW241459  10.054  10.235   7.136
13737SOL     OW41460  11.401   8.053   6.656
13737SOL    HW141461  11.486   8.095   6.641
13737SOL    HW241462  11.377   8.079   6.745
13738SOL     OW41463   8.717   5.712   5.956
13738SOL    HW141464   8.754   5.800   5.947
13738SOL    HW241465   8.638   5.714   5.901
13739SOL     OW41466   7.166   4.473   3.171
13739SOL    HW141467   7.120   4.557   3.169
13739SOL    HW241468   7.202   4.466   3.259
13740SOL     OW41469  11.413  12.615   2.811
13740SOL    HW141470  11.456  12.696   2.839
13740SOL    HW241471  11.481  12.548   2.819
13741SOL     OW41472   6.087   4.323   3.832
13741SOL    HW141473   6.038   4.360   3.759
13741SOL    HW241474   6.147   4.259   3.792
13742SOL     OW41475   9.464   8.168   5.521
13742SOL    HW141476   9.372   8.143   5.529
13742SOL    HW241477   9.503   8.141   5.604
13743SOL     OW41478   7.220   2.429   0.864
13743SOL    HW141479   7.252   2.453   0.952
13743SOL    HW241480   7.174   2.507   0.833
13744SOL     OW41481   8.426   9.298   0.592
13744SOL    HW141482   8.469   9.247   0.662
13744SOL    HW241483   8.499   9.338   0.544
13745SOL     OW41484   8.605  12.808   3.641
13745SOL    HW141485   8.581  12.892   3.601
13745SOL    HW241486   8.685  12.827   3.690
13746SOL     OW41487   2.836  12.367   2.781
13746SOL    HW141488   2.891  12.396   2.854
13746SOL    HW241489   2.751  12.349   2.820
13747SOL     OW41490  14.480   7.567   7.472
13747SOL    HW141491  14.385   7.566   7.465
13747SOL    HW241492  14.502   7.659   7.486
13748SOL     OW41493  13.981  14.370   7.105
13748SOL    HW141494  14.012  14.450   7.063
13748SOL    HW241495  14.055  14.340   7.157
13749SOL     OW41496   0.833   3.613   0.093
13749SOL    HW141497   0.762   3.650   0.146
13749SOL    HW241498   0.789   3.575   0.017
13750SOL     OW41499  10.950   3.928   4.874
13750SOL    HW141500  10.899   4.008   4.863
13750SOL    HW241501  11.039   3.959   4.894
13751SOL     OW41502   6.949   9.587   1.782
13751SOL    HW141503   7.024   9.635   1.747
13751SOL    HW241504   6.955   9.599   1.877
13752SOL     OW41505   3.807  11.825   3.242
13752SOL    HW141506   3.815  11.919   3.258
13752SOL    HW241507   3.728  11.816   3.188
13753SOL     OW41508   3.445   7.776   4.088
13753SOL    HW141509   3.509   7.721   4.043
13753SOL    HW241510   3.496   7.850   4.121
13754SOL     OW41511   8.529   3.772   2.908
13754SOL    HW141512   8.440   3.798   2.931
13754SOL    HW241513   8.569   3.744   2.991
13755SOL     OW41514   5.249  13.995   4.830
13755SOL    HW141515   5.162  14.026   4.802
13755SOL    HW241516   5.285  13.952   4.752
13756SOL     OW41517  11.621   5.004   4.304
13756SOL    HW141518  11.644   5.071   4.368
13756SOL    HW241519  11.691   5.008   4.238
13757SOL     OW41520  11.494  15.268   6.820
13757SOL    HW141521  11.471  15.330   6.889
13757SOL    HW241522  11.589  15.269   6.818
13758SOL     OW41523  11.316  12.661   5.725
13758SOL    HW141524  11.237  12.645   5.777
13758SOL    HW241525  11.306  12.751   5.693
13759SOL     OW41526   9.032   6.465   0.196
13759SOL    HW141527   9.061   6.485   0.107
13759SOL    HW241528   9.029   6.550   0.240
13760SOL     OW41529  11.136   3.388   3.043
13760SOL    HW141530  11.098   3.342   3.118
13760SOL    HW241531  11.140   3.322   2.973
13761SOL     OW41532  14.203   6.560   5.292
13761SOL    HW141533  14.207   6.656   5.295
13761SOL    HW241534  14.291   6.533   5.264
13762SOL     OW41535   8.081   3.499   4.159
13762SOL    HW141536   8.092   3.412   4.119
13762SOL    HW241537   7.990   3.523   4.142
13763SOL     OW41538   5.361   5.223   4.318
13763SOL    HW141539   5.341   5.314   4.298
13763SOL    HW241540   5.430   5.227   4.384
13764SOL     OW41541   7.750   6.612   0.423
13764SOL    HW141542   7.683   6.544   0.425
13764SOL    HW241543   7.733   6.659   0.341
13765SOL     OW41544   9.204  12.789   4.028
13765SOL    HW141545   9.227  12.765   3.938
13765SOL    HW241546   9.283  12.769   4.078
13766SOL     OW41547  13.875  11.669   6.026
13766SOL    HW141548  13.936  11.726   6.073
13766SOL    HW241549  13.807  11.649   6.091
13767SOL     OW41550   9.030  10.433   7.148
13767SOL    HW141551   8.962  10.368   7.169
13767SOL    HW241552   9.093  10.385   7.093
13768SOL     OW41553  11.854   8.135   3.134
13768SOL    HW141554  11.925   8.072   3.121
13768SOL    HW241555  11.781   8.083   3.165
13769SOL     OW41556   4.073  10.877   4.217
13769SOL    HW141557   4.114  10.924   4.145
13769SOL    HW241558   4.055  10.944   4.283
13770SOL     OW41559  10.869   6.631   5.475
13770SOL    HW141560  10.938   6.682   5.432
13770SOL    HW241561  10.912   6.589   5.549
13771SOL     OW41562   5.851   7.685   1.251
13771SOL    HW141563   5.791   7.756   1.274
13771SOL    HW241564   5.936   7.728   1.240
13772SOL     OW41565   4.805   8.405   0.793
13772SOL    HW141566   4.811   8.352   0.713
13772SOL    HW241567   4.887   8.389   0.839
13773SOL     OW41568  11.522   6.387   7.010
13773SOL    HW141569  11.589   6.409   7.075
13773SOL    HW241570  11.476   6.311   7.048
13774SOL     OW41571  12.423   4.471   2.752
13774SOL    HW141572  12.399   4.511   2.669
13774SOL    HW241573  12.359   4.505   2.815
13775SOL     OW41574   2.460  10.951   0.586
13775SOL    HW141575   2.535  10.895   0.606
13775SOL    HW241576   2.393  10.923   0.648
13776SOL     OW41577  10.206   9.028   5.687
13776SOL    HW141578  10.218   9.031   5.592
13776SOL    HW241579  10.241   9.112   5.718
13777SOL     OW41580   8.918  13.534   5.053
13777SOL    HW141581   9.010  13.514   5.036
13777SOL    HW241582   8.889  13.584   4.976
13778SOL     OW41583   1.342   9.327   1.002
13778SOL    HW141584   1.286   9.404   0.995
13778SOL    HW241585   1.281   9.253   1.006
13779SOL     OW41586  15.178  10.107   7.276
13779SOL    HW141587  15.180  10.181   7.216
13779SOL    HW241588  15.235  10.134   7.349
13780SOL     OW41589   9.861   2.203   0.812
13780SOL    HW141590   9.915   2.135   0.851
13780SOL    HW241591   9.909   2.284   0.827
13781SOL     OW41592   1.447   4.190   0.269
13781SOL    HW141593   1.476   4.138   0.343
13781SOL    HW241594   1.383   4.251   0.306
13782SOL     OW41595  10.627   2.345   0.131
13782SOL    HW141596  10.610   2.351   0.225
13782SOL    HW241597  10.690   2.274   0.123
13783SOL     OW41598   8.462   4.644   0.031
13783SOL    HW141599  13.906  10.031   7.572
13783SOL    HW241600   8.427   4.734   0.034
13784SOL     OW41601   9.417   8.151   4.088
13784SOL    HW141602   9.374   8.105   4.017
13784SOL    HW241603   9.480   8.088   4.123
13785SOL     OW41604   8.887   7.534   7.061
13785SOL    HW141605   8.951   7.593   7.100
13785SOL    HW241606   8.820   7.523   7.129
13786SOL     OW41607   4.950   3.541   0.813
13786SOL    HW141608   4.989   3.620   0.775
13786SOL    HW241609   4.865   3.533   0.770
13787SOL     OW41610  10.197   7.570   6.940
13787SOL    HW141611  10.191   7.662   6.912
13787SOL    HW241612  10.265   7.532   6.885
13788SOL     OW41613  12.359   4.031   4.702
13788SOL    HW141614  12.324   4.117   4.725
13788SOL    HW241615  12.449   4.031   4.736
13789SOL     OW41616   8.243   1.623   1.283
13789SOL    HW141617   8.296   1.552   1.320
13789SOL    HW241618   8.303   1.668   1.224
13790SOL     OW41619   6.310   7.993   3.121
13790SOL    HW141620   6.299   8.088   3.115
13790SOL    HW241621   6.397   7.981   3.160
13791SOL     OW41622   8.445   7.087   6.027
13791SOL    HW141623   8.410   7.087   5.938
13791SOL    HW241624   8.538   7.064   6.016
13792SOL     OW41625   7.272  11.116   6.212
13792SOL    HW141626   7.190  11.149   6.175
13792SOL    HW241627   7.308  11.060   6.144
13793SOL     OW41628   5.417   5.681   4.560
13793SOL    HW141629   5.450   5.728   4.636
13793SOL    HW241630   5.363   5.611   4.596
13794SOL     OW41631   4.921  10.561   4.760
13794SOL    HW141632   4.833  10.574   4.796
13794SOL    HW241633   4.907  10.542   4.667
13795SOL     OW41634  12.929   5.561   3.997
13795SOL    HW141635  13.009   5.558   3.944
13795SOL    HW241636  12.915   5.654   4.015
13796SOL     OW41637  11.445   8.528   1.725
13796SOL    HW141638  11.485   8.585   1.660
13796SOL    HW241639  11.486   8.553   1.808
13797SOL     OW41640   4.513  12.662   2.859
13797SOL    HW141641   4.529  12.621   2.944
13797SOL    HW241642   4.529  12.593   2.795
13798SOL     OW41643   5.099   9.030   0.747
13798SOL    HW141644   5.046   9.032   0.667
13798SOL    HW241645   5.187   9.007   0.718
13799SOL     OW41646   7.397   4.429   6.129
13799SOL    HW141647   7.378   4.519   6.103
13799SOL    HW241648   7.402   4.380   6.047
13800SOL     OW41649   8.941  10.359   2.882
13800SOL    HW141650   8.941  10.366   2.978
13800SOL    HW241651   8.850  10.339   2.859
13801SOL     OW41652   7.334   7.348   3.469
13801SOL    HW141653   7.392   7.297   3.412
13801SOL    HW241654   7.287   7.282   3.520
13802SOL     OW41655   7.554   7.067   3.729
13802SOL    HW141656   7.492   6.998   3.708
13802SOL    HW241657   7.624   7.023   3.777
13803SOL     OW41658   3.519  11.355   2.532
13803SOL    HW141659   3.585  11.312   2.477
13803SOL    HW241660   3.546  11.447   2.535
13804SOL     OW41661  10.734   2.670   3.630
13804SOL    HW141662  10.810   2.670   3.571
13804SOL    HW241663  10.765   2.716   3.708
13805SOL     OW41664   9.380   5.872   3.888
13805SOL    HW141665   9.450   5.937   3.885
13805SOL    HW241666   9.314   5.910   3.946
13806SOL     OW41667  11.490  12.948   3.379
13806SOL    HW141668  11.437  12.943   3.459
13806SOL    HW241669  11.580  12.935   3.410
13807SOL     OW41670   6.437   6.798   2.330
13807SOL    HW141671   6.468   6.707   2.328
13807SOL    HW241672   6.454   6.827   2.419
13808SOL     OW41673  13.444  13.715   7.571
13808SOL    HW141674   8.105   8.367   0.025
13808SOL    HW241675  13.357  13.754   7.576
13809SOL     OW41676   8.013   5.227   0.280
13809SOL    HW141677   7.996   5.164   0.350
13809SOL    HW241678   8.033   5.309   0.326
13810SOL     OW41679   9.758  13.874   7.205
13810SOL    HW141680   9.849  13.877   7.234
13810SOL    HW241681   9.732  13.783   7.217
13811SOL     OW41682  11.576   9.309   4.220
13811SOL    HW141683  11.663   9.286   4.252
13811SOL    HW241684  11.591   9.353   4.137
13812SOL     OW41685   8.501   7.444   3.151
13812SOL    HW141686   8.493   7.428   3.057
13812SOL    HW241687   8.420   7.408   3.188
13813SOL     OW41688   9.111   9.045   1.069
13813SOL    HW141689   9.124   9.119   1.009
13813SOL    HW241690   9.068   9.083   1.145
13814SOL     OW41691  13.200   3.761   3.737
13814SOL    HW141692  13.218   3.714   3.655
13814SOL    HW241693  13.274   3.820   3.748
13815SOL     OW41694   5.890   8.751   4.218
13815SOL    HW141695   5.795   8.768   4.218
13815SOL    HW241696   5.922   8.793   4.298
13816SOL     OW41697   8.981   5.741   5.363
13816SOL    HW141698   9.049   5.693   5.315
13816SOL    HW241699   8.907   5.681   5.367
13817SOL     OW41700   9.497  10.246   3.195
13817SOL    HW141701   9.435  10.180   3.227
13817SOL    HW241702   9.495  10.315   3.262
13818SOL     OW41703  14.434  10.806   6.615
13818SOL    HW141704  14.496  10.744   6.654
13818SOL    HW241705  14.353  10.755   6.605
13819SOL     OW41706  11.251   8.917   5.415
13819SOL    HW141707  11.338   8.899   5.451
13819SOL    HW241708  11.259   9.003   5.375
13820SOL     OW41709   4.573   4.247   4.907
13820SOL    HW141710   4.478   4.238   4.917
13820SOL    HW241711   4.601   4.162   4.872
13821SOL     OW41712  10.099  12.941   7.463
13821SOL    HW141713  10.102  13.034   7.442
13821SOL    HW241714  10.181  12.925   7.510
13822SOL     OW41715   6.164   7.693   6.872
13822SOL    HW141716   6.091   7.723   6.927
13822SOL    HW241717   6.242   7.731   6.912
13823SOL     OW41718   5.221  12.699   3.566
13823SOL    HW141719   5.242  12.779   3.519
13823SOL    HW241720   5.306  12.663   3.591
13824SOL     OW41721   4.836  12.060   2.624
13824SOL    HW141722   4.909  12.117   2.644
13824SOL    HW241723   4.763  12.120   2.607
13825SOL     OW41724   5.101   6.181   6.877
13825SOL    HW141725   5.074   6.246   6.812
13825SOL    HW241726   5.159   6.229   6.937
13826SOL     OW41727  10.156  10.704   7.402
13826SOL    HW141728  10.187  10.696   7.492
13826SOL    HW241729  10.231  10.738   7.353
13827SOL     OW41730  10.239  11.355   6.729
13827SOL    HW141731  10.181  11.330   6.802
13827SOL    HW241732  10.194  11.427   6.686
13828SOL     OW41733   6.668   3.709   4.765
13828SOL    HW141734   6.699   3.718   4.855
13828SOL    HW241735   6.587   3.657   4.773
13829SOL     OW41736  11.888  11.357   5.576
13829SOL    HW141737  11.904  11.451   5.567
13829SOL    HW241738  11.905  11.338   5.668
13830SOL     OW41739  11.313  11.412   4.562
13830SOL    HW141740  11.300  11.331   4.513
13830SOL    HW241741  11.396  11.447   4.530
13831SOL     OW41742   9.660   9.251   3.564
13831SOL    HW141743   9.662   9.192   3.488
13831SOL    HW241744   9.666   9.192   3.640
13832SOL     OW41745   9.592   6.224   6.758
13832SOL    HW141746   9.631   6.137   6.770
13832SOL    HW241747   9.656   6.272   6.705
13833SOL     OW41748   4.944  13.730   5.922
13833SOL    HW141749   4.856  13.761   5.905
13833SOL    HW241750   4.947  13.643   5.882
13834SOL     OW41751  11.317   3.075   2.239
13834SOL    HW141752  11.228   3.103   2.221
13834SOL    HW241753  11.373   3.138   2.193
13835SOL     OW41754  10.373   8.105   7.560
13835SOL    HW141755  10.321   8.181   7.536
13835SOL    HW241756  10.334   8.032   7.512
13836SOL     OW41757   4.440   9.859   5.611
13836SOL    HW141758   4.478   9.861   5.524
13836SOL    HW241759   4.380   9.933   5.613
13837SOL     OW41760   3.722   1.092   1.430
13837SOL    HW141761   3.664   1.127   1.362
13837SOL    HW241762   3.810   1.106   1.397
13838SOL     OW41763  10.433   5.734   1.953
13838SOL    HW141764  10.380   5.759   2.028
13838SOL    HW241765  10.455   5.817   1.911
13839SOL     OW41766  11.183   2.892   3.327
13839SOL    HW141767  11.121   2.821   3.347
13839SOL    HW241768  11.155   2.964   3.383
13840SOL     OW41769   3.828   7.639   4.058
13840SOL    HW141770   3.746   7.591   4.062
13840SOL    HW241771   3.806   7.722   4.015
13841SOL     OW41772  12.585   8.813   5.249
13841SOL    HW141773  12.657   8.776   5.301
13841SOL    HW241774  12.613   8.902   5.230
13842SOL     OW41775  13.390   5.815   3.768
13842SOL    HW141776   2.694   5.775   3.806
13842SOL    HW241777  13.414   5.906   3.753
13843SOL     OW41778   9.331   2.045   0.509
13843SOL    HW141779   9.391   1.982   0.470
13843SOL    HW241780   9.384   2.096   0.570
13844SOL     OW41781   7.816   9.303   4.525
13844SOL    HW141782   7.752   9.296   4.596
13844SOL    HW241783   7.887   9.355   4.561
13845SOL     OW41784   9.661   6.085   3.141
13845SOL    HW141785   9.667   6.173   3.179
13845SOL    HW241786   9.675   6.098   3.047
13846SOL     OW41787   4.012   8.523   3.854
13846SOL    HW141788   4.090   8.553   3.808
13846SOL    HW241789   3.982   8.447   3.802
13847SOL     OW41790  10.482   6.059   2.810
13847SOL    HW141791  10.431   6.044   2.730
13847SOL    HW241792  10.542   5.985   2.815
13848SOL     OW41793   0.819   1.470   0.503
13848SOL    HW141794   0.765   1.501   0.430
13848SOL    HW241795   0.893   1.530   0.506
13849SOL     OW41796   9.293  10.496   5.316
13849SOL    HW141797   9.307  10.505   5.410
13849SOL    HW241798   9.276  10.585   5.285
13850SOL     OW41799   4.923  13.747   6.213
13850SOL    HW141800   4.884  13.766   6.128
13850SOL    HW241801   4.946  13.833   6.249
13851SOL     OW41802   5.715   3.549   3.166
13851SOL    HW141803   5.757   3.487   3.107
13851SOL    HW241804   5.663   3.493   3.225
13852SOL     OW41805  12.124   9.146   3.063
13852SOL    HW141806  12.152   9.130   2.973
13852SOL    HW241807  12.036   9.183   3.054
13853SOL     OW41808   7.284  11.577   1.739
13853SOL    HW141809   7.376  11.553   1.738
13853SOL    HW241810   7.279  11.652   1.679
13854SOL     OW41811   6.885   6.783   2.065
13854SOL    HW141812   6.800   6.795   2.108
13854SOL    HW241813   6.945   6.839   2.114
13855SOL     OW41814   6.843   8.901   4.602
13855SOL    HW141815   6.784   8.901   4.526
13855SOL    HW241816   6.788   8.931   4.674
13856SOL     OW41817  10.505   8.796   3.368
13856SOL    HW141818  10.464   8.714   3.342
13856SOL    HW241819  10.576   8.770   3.427
13857SOL     OW41820   9.446   7.222   1.089
13857SOL    HW141821   9.503   7.172   1.029
13857SOL    HW241822   9.360   7.182   1.079
13858SOL     OW41823   8.801  12.443   2.396
13858SOL    HW141824   8.890   1.676   2.361
13858SOL    HW241825   8.768  12.360   2.362
13859SOL     OW41826  14.240   8.098   6.210
13859SOL    HW141827  14.260   8.075   6.119
13859SOL    HW241828  14.150   8.070   6.223
13860SOL     OW41829   0.645   4.211   0.145
13860SOL    HW141830   0.702   4.279   0.110
13860SOL    HW241831   0.556   4.243   0.129
13861SOL     OW41832   3.107   6.063   1.796
13861SOL    HW141833   3.082   6.146   1.757
13861SOL    HW241834   3.055   6.056   1.875
13862SOL     OW41835   9.223   7.781   3.414
13862SOL    HW141836   9.251   7.740   3.496
13862SOL    HW241837   9.285   7.749   3.349
13863SOL     OW41838   7.683  11.351   4.541
13863SOL    HW141839   7.604  11.404   4.542
13863SOL    HW241840   7.691  11.318   4.631
13864SOL     OW41841  15.336  12.737   7.224
13864SOL    HW141842  15.316  12.653   7.184
13864SOL    HW241843  15.256  12.762   7.270
13865SOL     OW41844   4.352   7.769   1.275
13865SOL    HW141845   4.402   7.689   1.291
13865SOL    HW241846   4.262   7.747   1.297
13866SOL     OW41847   7.905  10.895   3.504
13866SOL    HW141848   7.965  10.820   3.506
13866SOL    HW241849   7.822  10.859   3.471
13867SOL     OW41850  11.395   3.917   5.520
13867SOL    HW141851  11.336   3.986   5.492
13867SOL    HW241852  11.342  14.635   5.576
13868SOL     OW41853   1.940   9.127   2.027
13868SOL    HW141854   1.994   9.130   1.948
13868SOL    HW241855   1.995   9.088   2.094
13869SOL     OW41856   9.625  10.252   7.087
13869SOL    HW141857   9.616  10.341   7.053
13869SOL    HW241858   9.665  10.263   7.173
13870SOL     OW41859   2.482   2.907   2.028
13870SOL    HW141860   2.427   2.972   1.983
13870SOL    HW241861   2.424   2.868   2.093
13871SOL     OW41862  12.819   3.932   4.278
13871SOL    HW141863  12.742   3.887   4.242
13871SOL    HW241864  12.798   3.947   4.370
13872SOL     OW41865   9.635   6.577   2.487
13872SOL    HW141866   9.663   6.505   2.543
13872SOL    HW241867   9.713   6.632   2.478
13873SOL     OW41868   1.792   8.686   1.209
13873SOL    HW141869   1.805   8.715   1.118
13873SOL    HW241870   1.880   8.664   1.239
13874SOL     OW41871   3.574   4.612   2.427
13874SOL    HW141872   3.517   4.536   2.421
13874SOL    HW241873   3.662   4.576   2.435
13875SOL     OW41874   8.599   2.028   1.350
13875SOL    HW141875   8.505   2.035   1.364
13875SOL    HW241876   8.633   2.000   1.435
13876SOL     OW41877   2.697  10.345   1.316
13876SOL    HW141878   2.611  10.329   1.277
13876SOL    HW241879   2.756  10.357   1.242
13877SOL     OW41880  14.402  13.119   7.112
13877SOL    HW141881  14.428  13.188   7.051
13877SOL    HW241882  14.332  13.072   7.067
13878SOL     OW41883   7.862   6.640   1.280
13878SOL    HW141884   7.798   6.569   1.287
13878SOL    HW241885   7.849   6.674   1.191
13879SOL     OW41886  12.668  13.792   6.529
13879SOL    HW141887  12.619  13.851   6.587
13879SOL    HW241888  12.676  13.711   6.577
13880SOL     OW41889   8.668   6.771   0.966
13880SOL    HW141890   8.660   6.800   0.875
13880SOL    HW241891   8.746   6.716   0.966
13881SOL     OW41892   7.429   5.000   6.388
13881SOL    HW141893   7.514   5.026   6.354
13881SOL    HW241894   7.427   5.033   6.478
13882SOL     OW41895   2.873   4.726   4.017
13882SOL    HW141896   2.887   4.771   3.934
13882SOL    HW241897  13.564   4.761   4.050
13883SOL     OW41898   2.838   4.465   3.860
13883SOL    HW141899   2.914   4.422   3.900
13883SOL    HW241900   2.856   4.559   3.871
13884SOL     OW41901   4.622   8.146   0.816
13884SOL    HW141902   4.533   8.145   0.780
13884SOL    HW241903   4.676   8.178   0.744
13885SOL     OW41904   8.875  12.678   3.377
13885SOL    HW141905   8.837  12.762   3.400
13885SOL    HW241906   8.908  12.689   3.288
13886SOL     OW41907  10.392   9.725   7.197
13886SOL    HW141908  10.362   9.692   7.112
13886SOL    HW241909  10.334   9.799   7.216
13887SOL     OW41910   6.687   4.241   1.814
13887SOL    HW141911   6.782   4.253   1.811
13887SOL    HW241912   6.655   4.315   1.863
13888SOL     OW41913  11.340   6.161   2.458
13888SOL    HW141914  11.401   6.235   2.461
13888SOL    HW241915  11.256   6.198   2.486
13889SOL     OW41916   5.759  11.979   7.327
13889SOL    HW141917   5.747  11.885   7.340
13889SOL    HW241918   5.705  12.020   7.394
13890SOL     OW41919   5.482   3.527   1.639
13890SOL    HW141920   5.509   3.448   1.686
13890SOL    HW241921   5.564   3.571   1.616
13891SOL     OW41922   7.055   3.843   3.306
13891SOL    HW141923   7.098   3.903   3.366
13891SOL    HW241924   7.092   3.864   3.220
13892SOL     OW41925   4.613   3.393   2.334
13892SOL    HW141926   4.595   3.462   2.398
13892SOL    HW241927   4.708   3.393   2.326
13893SOL     OW41928   8.652  11.070   4.446
13893SOL    HW141929   8.627  11.162   4.440
13893SOL    HW241930   8.569  11.023   4.449
13894SOL     OW41931  10.404   5.823   1.625
13894SOL    HW141932  10.398   5.739   1.579
13894SOL    HW241933  10.491   5.856   1.603
13895SOL     OW41934  16.029   5.309   7.477
13895SOL    HW141935   5.345  16.081   7.507
13895SOL    HW241936   5.257   5.360   7.396
13896SOL     OW41937   1.734   3.025   1.489
13896SOL    HW141938   1.659   3.084   1.501
13896SOL    HW241939   1.748   2.988   1.576
13897SOL     OW41940  11.031   2.312   2.672
13897SOL    HW141941  11.084   2.292   2.749
13897SOL    HW241942  10.987   2.230   2.651
13898SOL     OW41943   7.089   8.671   5.206
13898SOL    HW141944   7.112   8.639   5.293
13898SOL    HW241945   7.000   8.641   5.191
13899SOL     OW41946   4.835   7.572   1.967
13899SOL    HW141947   4.841   7.664   1.941
13899SOL    HW241948   4.849   7.524   1.885
13900SOL     OW41949   4.071   5.679   4.028
13900SOL    HW141950   4.165   5.689   4.012
13900SOL    HW241951   4.061   5.696   4.122
13901SOL     OW41952  10.038  10.549   2.287
13901SOL    HW141953  10.038  10.581   2.377
13901SOL    HW241954  10.106  10.481   2.286
13902SOL     OW41955   4.937  12.252   2.361
13902SOL    HW141956   4.978  12.325   2.408
13902SOL    HW241957   4.936  12.280   2.269
13903SOL     OW41958  11.584   8.434   6.772
13903SOL    HW141959  11.576   8.514   6.825
13903SOL    HW241960  11.674   8.405   6.786
13904SOL     OW41961   8.651   7.267   1.021
13904SOL    HW141962   8.672   7.179   1.052
13904SOL    HW241963   8.637   7.318   1.101
13905SOL     OW41964   9.556  11.899   2.658
13905SOL    HW141965   9.524  11.821   2.612
13905SOL    HW241966   9.478  11.953   2.671
13906SOL     OW41967   7.941   9.445   4.282
13906SOL    HW141968   7.962   9.533   4.314
13906SOL    HW241969   7.900   9.402   4.358
13907SOL     OW41970  10.034   4.578   3.898
13907SOL    HW141971  10.116   4.533   3.914
13907SOL    HW241972   9.986   4.522   3.837
13908SOL     OW41973   7.653   5.741   6.787
13908SOL    HW141974   7.582   5.742   6.852
13908SOL    HW241975   7.668   5.833   6.766
13909SOL     OW41976   3.844   9.509   1.778
13909SOL    HW141977   3.839   9.510   1.682
13909SOL    HW241978   3.938   9.518   1.796
13910SOL     OW41979   6.322   8.580   3.725
13910SOL    HW141980   6.384   8.623   3.665
13910SOL    HW241981   6.303   8.646   3.792
13911SOL     OW41982   4.085   3.896   4.880
13911SOL    HW141983   4.061   3.897   4.973
13911SOL    HW241984   4.002   3.887   4.833
13912SOL     OW41985   9.951   0.908   1.084
13912SOL    HW141986   9.875   0.964   1.066
13912SOL    HW241987  10.020   0.969   1.111
13913SOL     OW41988   6.608   5.524   4.936
13913SOL    HW141989   6.531   5.473   4.962
13913SOL    HW241990   6.683   5.468   4.958
13914SOL     OW41991   9.711  12.714   6.418
13914SOL    HW141992   9.668  12.692   6.500
13914SOL    HW241993   9.804  12.696   6.433
13915SOL     OW41994  12.118  11.835   4.215
13915SOL    HW141995  12.041  11.793   4.252
13915SOL    HW241996  12.140  11.904   4.278
13916SOL     OW41997  11.650   5.708   6.149
13916SOL    HW141998  11.682   5.693   6.238
13916SOL    HW241999  11.704   5.779   6.116
13917SOL     OW42000   4.785  14.328   5.736
13917SOL    HW142001   4.805  14.235   5.746
13917SOL    HW242002   4.722  14.347   5.805
13918SOL     OW42003   4.020   7.426   2.429
13918SOL    HW142004   4.103   7.469   2.410
13918SOL    HW242005   4.044   7.343   2.469
13919SOL     OW42006   8.162   1.912   0.759
13919SOL    HW142007   8.111   1.832   0.761
13919SOL    HW242008   8.106   1.978   0.801
13920SOL     OW42009  13.342   9.646   6.435
13920SOL    HW142010  13.425   9.661   6.479
13920SOL    HW242011  13.290   9.596   6.497
13921SOL     OW42012   1.528  11.098   1.376
13921SOL    HW142013   1.598  11.078   1.314
13921SOL    HW242014   1.543  11.190   1.400
13922SOL     OW42015   3.326   9.246   2.492
13922SOL    HW142016   3.241   9.254   2.449
13922SOL    HW242017   3.316   9.173   2.553
13923SOL     OW42018   5.165  11.425   6.751
13923SOL    HW142019   5.250  11.468   6.749
13923SOL    HW242020   5.119  11.467   6.824
13924SOL     OW42021   8.629   6.422   6.120
13924SOL    HW142022   8.558   6.485   6.115
13924SOL    HW242023   8.586   6.337   6.126
13925SOL     OW42024   2.676  10.772   0.607
13925SOL    HW142025   2.758  10.772   0.558
13925SOL    HW242026   2.630  10.693   0.577
13926SOL     OW42027   1.573   2.750   2.032
13926SOL    HW142028   1.541   2.664   2.059
13926SOL    HW242029   1.661   2.733   1.997
13927SOL     OW42030   0.708   1.456   0.220
13927SOL    HW142031   0.793   1.491   0.194
13927SOL    HW242032   0.710   1.365   0.190
13928SOL     OW42033  12.908   6.037   6.300
13928SOL    HW142034  12.893   6.104   6.234
13928SOL    HW242035  12.831   5.981   6.295
13929SOL     OW42036  11.120   7.604   2.332
13929SOL    HW142037  11.065   7.682   2.325
13929SOL    HW242038  11.170   7.602   2.251
13930SOL     OW42039   2.349   5.529   2.856
13930SOL    HW142040   2.302   5.459   2.811
13930SOL    HW242041   2.422   5.551   2.798
13931SOL     OW42042   9.395  13.020   5.973
13931SOL    HW142043   9.473  13.065   6.005
13931SOL    HW242044   9.322  13.070   6.010
13932SOL     OW42045   4.351  11.327   3.084
13932SOL    HW142046   4.258  11.309   3.073
13932SOL    HW242047   4.353  11.415   3.122
13933SOL     OW42048  10.588  13.149   5.720
13933SOL    HW142049  10.509  13.103   5.749
13933SOL    HW242050  10.627  13.184   5.800
13934SOL     OW42051   9.693  10.737   0.908
13934SOL    HW142052   9.663  10.741   0.999
13934SOL    HW242053   9.787  10.720   0.915
13935SOL     OW42054   5.084   5.184   3.299
13935SOL    HW142055   5.066   5.272   3.266
13935SOL    HW242056   5.173   5.189   3.334
13936SOL     OW42057   9.583  10.056   6.486
13936SOL    HW142058   9.575  10.107   6.566
13936SOL    HW242059   9.611   9.969   6.515
13937SOL     OW42060   9.731   9.193   2.774
13937SOL    HW142061   9.723   9.263   2.710
13937SOL    HW242062   9.649   9.143   2.766
13938SOL     OW42063  14.399   4.963   5.900
13938SOL    HW142064  14.380   4.951   5.993
13938SOL    HW242065  14.464   4.896   5.880
13939SOL     OW42066   4.047  10.748   4.483
13939SOL    HW142067   3.967  10.791   4.516
13939SOL    HW242068   4.058  10.782   4.395
13940SOL     OW42069   4.169   4.999   1.324
13940SOL    HW142070   4.151   5.033   1.236
13940SOL    HW242071   4.248   4.946   1.314
13941SOL     OW42072   3.097   5.846   0.244
13941SOL    HW142073   3.140   5.792   0.178
13941SOL    HW242074   3.065   5.783   0.310
13942SOL     OW42075   5.041   8.964   5.379
13942SOL    HW142076   5.070   8.893   5.436
13942SOL    HW242077   5.055   8.932   5.290
13943SOL     OW42078   6.225   5.906   4.490
13943SOL    HW142079   6.174   5.838   4.534
13943SOL    HW242080   6.164   5.979   4.480
13944SOL     OW42081   5.859  10.232   7.038
13944SOL    HW142082   5.802  10.259   7.110
13944SOL    HW242083   5.920  10.170   7.078
13945SOL     OW42084   6.901  13.948   6.103
13945SOL    HW142085   6.850  13.883   6.150
13945SOL    HW242086   6.992  13.927   6.124
13946SOL     OW42087  12.359   9.727   6.950
13946SOL    HW142088  12.421   9.673   7.000
13946SOL    HW242089  12.326   9.668   6.882
13947SOL     OW42090   2.770   7.790   3.289
13947SOL    HW142091   2.715   7.764   3.363
13947SOL    HW242092   2.857   7.802   3.326
13948SOL     OW42093   4.795   1.772   0.134
13948SOL    HW142094   4.832   1.759   0.221
13948SOL    HW242095   4.872   1.776   0.076
13949SOL     OW42096  10.963  13.158   5.929
13949SOL    HW142097  10.902  13.208   5.874
13949SOL    HW242098  10.946  13.188   6.018
13950SOL     OW42099  12.752  11.225   7.259
13950SOL    HW142100  12.689  11.177   7.205
13950SOL    HW242101  12.758  11.311   7.218
13951SOL     OW42102   7.338  13.523   5.231
13951SOL    HW142103   7.350  13.438   5.188
13951SOL    HW242104   7.405  13.579   5.193
13952SOL     OW42105   8.879   1.081   0.806
13952SOL    HW142106   8.919   1.146   0.748
13952SOL    HW242107   8.898   0.997   0.763
13953SOL     OW42108  14.836  15.061   7.565
13953SOL    HW142109  14.891  15.126   7.608
13953SOL    HW242110  14.767  15.112   7.522
13954SOL     OW42111   5.773  11.519   1.064
13954SOL    HW142112   5.828   0.823   1.064
13954SOL    HW242113   5.798  11.474   1.145
13955SOL     OW42114   9.352  14.149   4.885
13955SOL    HW142115   9.340   3.458   4.841
13955SOL    HW242116   9.445  14.147   4.909
13956SOL     OW42117   6.990  12.911   5.358
13956SOL    HW142118   6.987  13.005   5.377
13956SOL    HW242119   7.019  12.872   5.441
13957SOL     OW42120   9.286   7.065   3.347
13957SOL    HW142121   9.277   7.145   3.399
13957SOL    HW242122   9.204   7.058   3.299
13958SOL     OW42123  13.448  13.229   4.541
13958SOL    HW142124  13.466  13.313   4.582
13958SOL    HW242125  13.440  13.249   4.448
13959SOL     OW42126  12.816   9.661   6.809
13959SOL    HW142127  12.828   9.577   6.765
13959SOL    HW242128  12.898   9.675   6.857
13960SOL     OW42129   2.374   6.546   3.198
13960SOL    HW142130   2.370   6.616   3.263
13960SOL    HW242131   2.319   6.577   3.126
13961SOL     OW42132   6.000   3.679   4.802
13961SOL    HW142133   6.041   3.625   4.869
13961SOL    HW242134   6.073   3.718   4.754
13962SOL     OW42135   7.821  11.748   4.984
13962SOL    HW142136   7.751  11.704   4.936
13962SOL    HW242137   7.777  11.785   5.061
13963SOL     OW42138   6.019   6.447   5.236
13963SOL    HW142139   5.958   6.519   5.252
13963SOL    HW242140   6.105   6.485   5.256
13964SOL     OW42141   1.607  10.560   0.703
13964SOL    HW142142   1.531  10.515   0.666
13964SOL    HW242143   1.609  10.532   0.795
13965SOL     OW42144   2.613   7.159   1.356
13965SOL    HW142145   2.535   7.114   1.389
13965SOL    HW242146   2.612   7.244   1.400
13966SOL     OW42147   7.130  10.238   7.600
13966SOL    HW142148   7.040  10.216   7.577
13966SOL    HW242149   1.746   4.843   0.076
13967SOL     OW42150   6.364   7.789   0.509
13967SOL    HW142151   6.352   7.879   0.479
13967SOL    HW242152   6.295   7.739   0.464
13968SOL     OW42153   7.912   8.143   5.468
13968SOL    HW142154   7.956   8.118   5.549
13968SOL    HW242155   7.856   8.068   5.447
13969SOL     OW42156   7.665   6.533   7.171
13969SOL    HW142157   7.684   6.623   7.198
13969SOL    HW242158   7.570   6.531   7.158
13970SOL     OW42159  13.963   4.507   5.608
13970SOL    HW142160  14.012   4.586   5.631
13970SOL    HW242161  13.913   4.533   5.530
13971SOL     OW42162  13.249  11.510   5.565
13971SOL    HW142163  13.169  11.555   5.592
13971SOL    HW242164  13.255  11.525   5.471
13972SOL     OW42165   6.828   6.215   2.917
13972SOL    HW142166   6.744   6.201   2.961
13972SOL    HW242167   6.870   6.129   2.918
13973SOL     OW42168  14.524  11.470   6.187
13973SOL    HW142169  14.445  11.419   6.168
13973SOL    HW242170  14.518  11.489   6.281
13974SOL     OW42171   9.372   5.608   4.070
13974SOL    HW142172   9.382   5.516   4.045
13974SOL    HW242173   9.370   5.654   3.986
13975SOL     OW42174   7.662   9.818   5.599
13975SOL    HW142175   7.569   9.793   5.602
13975SOL    HW242176   7.693   9.808   5.689
13976SOL     OW42177   2.107  11.576   1.707
13976SOL    HW142178   2.016  11.549   1.718
13976SOL    HW242179   2.122  11.638   1.778
13977SOL     OW42180  12.829   8.097   3.962
13977SOL    HW142181  12.765   8.133   3.900
13977SOL    HW242182  12.782   8.090   4.045
13978SOL     OW42183  11.624   8.636   5.437
13978SOL    HW142184  11.686   8.680   5.495
13978SOL    HW242185  11.538   8.662   5.470
13979SOL     OW42186  12.708   8.558   7.163
13979SOL    HW142187  12.724   8.652   7.151
13979SOL    HW242188  12.628   8.554   7.215
13980SOL     OW42189   7.171   8.364   6.438
13980SOL    HW142190   7.128   8.294   6.390
13980SOL    HW242191   7.224   8.319   6.504
13981SOL     OW42192  11.218   6.073   1.167
13981SOL    HW142193  11.298   6.036   1.129
13981SOL    HW242194  11.147   6.019   1.132
13982SOL     OW42195  12.845   4.846   5.924
13982SOL    HW142196  12.926   4.896   5.927
13982SOL    HW242197  12.792   4.890   5.857
13983SOL     OW42198   3.853  10.364   2.034
13983SOL    HW142199   3.915  10.391   2.101
13983SOL    HW242200   3.904  10.309   1.975
13984SOL     OW42201  11.274   7.921   3.468
13984SOL    HW142202  11.203   7.983   3.485
13984SOL    HW242203  11.307   7.899   3.555
13985SOL     OW42204  10.170   2.598   1.565
13985SOL    HW142205  10.159   2.545   1.644
13985SOL    HW242206  10.141   2.686   1.591
13986SOL     OW42207   3.476   4.470   3.018
13986SOL    HW142208   3.465   4.529   3.092
13986SOL    HW242209   3.416   4.503   2.951
13987SOL     OW42210   6.159   6.042   6.170
13987SOL    HW142211   6.208   6.079   6.243
13987SOL    HW242212   6.087   5.993   6.211
13988SOL     OW42213  14.329  15.225   7.397
13988SOL    HW142214  14.248  15.222   7.448
13988SOL    HW242215  14.375  15.145   7.421
13989SOL     OW42216   0.982  10.501   0.865
13989SOL    HW142217   0.929  10.424   0.883
13989SOL    HW242218   1.009  10.531   0.952
13990SOL     OW42219   8.696  12.849   4.988
13990SOL    HW142220   8.686  12.908   4.913
13990SOL    HW242221   8.650  12.892   5.060
13991SOL     OW42222   8.444   4.114   3.433
13991SOL    HW142223   8.481   4.034   3.470
13991SOL    HW242224   8.349   4.101   3.438
13992SOL     OW42225  13.029  12.561   4.583
13992SOL    HW142226  13.068  12.497   4.523
13992SOL    HW242227  13.097  12.628   4.594
13993SOL     OW42228   3.787   2.263   3.103
13993SOL    HW142229   3.739   2.252   3.021
13993SOL    HW242230   3.877   2.281   3.076
13994SOL     OW42231   7.918  15.157   7.351
13994SOL    HW142232   7.869  15.082   7.317
13994SOL    HW242233   7.927  15.140   7.444
13995SOL     OW42234  12.068   6.563   2.237
13995SOL    HW142235  12.100   6.482   2.197
13995SOL    HW242236  12.089   6.554   2.330
13996SOL     OW42237   7.607   9.375   1.396
13996SOL    HW142238   7.574   9.421   1.473
13996SOL    HW242239   7.666   9.438   1.354
13997SOL     OW42240   7.081   8.184   4.489
13997SOL    HW142241   7.015   8.219   4.429
13997SOL    HW242242   7.046   8.099   4.517
13998SOL     OW42243  14.655   7.142   6.802
13998SOL    HW142244  14.673   7.101   6.717
13998SOL    HW242245  14.741   7.169   6.834
13999SOL     OW42246   1.037  10.929   0.702
13999SOL    HW142247   1.078  10.866   0.643
13999SOL    HW242248   1.098  10.936   0.776
14000SOL     OW42249   3.267   3.131   2.740
14000SOL    HW142250   3.272   3.172   2.826
14000SOL    HW242251   3.176   3.104   2.731
14001SOL     OW42252   6.038   4.488   5.016
14001SOL    HW142253   5.952   4.529   5.025
14001SOL    HW242254   6.093   4.532   5.080
14002SOL     OW42255  11.090   4.674   0.492
14002SOL    HW142256  11.046   4.666   0.577
14002SOL    HW242257  11.058   4.757   0.457
14003SOL     OW42258  10.414  13.503   5.698
14003SOL    HW142259  10.439  13.411   5.704
14003SOL    HW242260  10.455  13.544   5.774
14004SOL     OW42261   2.630   5.096   3.563
14004SOL    HW142262   2.623   5.130   3.652
14004SOL    HW242263   2.628   5.001   3.573
14005SOL     OW42264  10.437   2.540   0.112
14005SOL    HW142265  10.506   2.474   0.105
14005SOL    HW242266  10.398   2.525   0.198
14006SOL     OW42267   8.073   8.128   4.970
14006SOL    HW142268   8.056   8.039   4.937
14006SOL    HW242269   8.092   8.115   5.063
14007SOL     OW42270   7.657   4.784   0.403
14007SOL    HW142271   7.572   4.740   0.405
14007SOL    HW242272   7.718   4.721   0.440
14008SOL     OW42273   4.781  11.538   2.970
14008SOL    HW142274   4.718  11.550   2.900
14008SOL    HW242275   4.804  11.627   2.998
14009SOL     OW42276   8.434   7.700   4.772
14009SOL    HW142277   8.373   7.663   4.709
14009SOL    HW242278   8.461   7.625   4.825
14010SOL     OW42279  11.296   9.733   3.815
14010SOL    HW142280  11.375   9.683   3.794
14010SOL    HW242281  11.260   9.690   3.893
14011SOL     OW42282  11.383  13.387   3.710
14011SOL    HW142283  11.413  13.390   3.801
14011SOL    HW242284  11.431  13.314   3.671
14012SOL     OW42285  14.160  10.729   6.227
14012SOL    HW142286  14.143  10.765   6.140
14012SOL    HW242287  14.233  10.781   6.261
14013SOL     OW42288  12.006   8.792   4.370
14013SOL    HW142289  11.948   8.848   4.422
14013SOL    HW242290  12.077   8.850   4.342
14014SOL     OW42291   5.038   7.125   5.458
14014SOL    HW142292   5.066   7.126   5.550
14014SOL    HW242293   5.112   7.089   5.411
14015SOL     OW42294  12.359  12.553   3.586
14015SOL    HW142295  12.364  12.630   3.642
14015SOL    HW242296  12.278  12.565   3.536
14016SOL     OW42297   7.091  11.153   5.760
14016SOL    HW142298   7.027  11.099   5.714
14016SOL    HW242299   7.176  11.128   5.724
14017SOL     OW42300   5.388  10.035   5.460
14017SOL    HW142301   5.345  10.048   5.544
14017SOL    HW242302   5.320   9.998   5.404
14018SOL     OW42303   9.462  12.386   3.697
14018SOL    HW142304   9.555  12.405   3.709
14018SOL    HW242305   9.436  12.346   3.780
14019SOL     OW42306  13.506  15.065   6.159
14019SOL    HW142307  13.599  15.049   6.139
14019SOL    HW242308  13.463  15.061   6.073
14020SOL     OW42309  10.639   8.393   1.185
14020SOL    HW142310  10.552   8.387   1.144
14020SOL    HW242311  10.700   8.392   1.111
14021SOL     OW42312   9.830  14.841   6.485
14021SOL    HW142313   9.816  14.915   6.426
14021SOL    HW242314   9.759  14.848   6.549
14022SOL     OW42315   5.125   3.545   0.323
14022SOL    HW142316   5.131   3.501   0.407
14022SOL    HW242317   5.216   3.553   0.293
14023SOL     OW42318   6.469   3.692   3.034
14023SOL    HW142319   6.391   3.638   3.020
14023SOL    HW242320   6.542   3.632   3.023
14024SOL     OW42321   3.851   9.670   4.522
14024SOL    HW142322   3.803   9.615   4.584
14024SOL    HW242323   3.852   9.757   4.563
14025SOL     OW42324   7.546   4.883   2.461
14025SOL    HW142325   7.571   4.794   2.485
14025SOL    HW242326   7.528   4.879   2.367
14026SOL     OW42327  10.411   5.317   0.705
14026SOL    HW142328  10.339   5.272   0.660
14026SOL    HW242329  10.434   5.258   0.777
14027SOL     OW42330  10.817  13.838   5.048
14027SOL    HW142331  10.727  13.870   5.038
14027SOL    HW242332  10.866  13.885   4.979
14028SOL     OW42333  12.533   9.638   4.738
14028SOL    HW142334  12.609   9.655   4.682
14028SOL    HW242335  12.459   9.673   4.689
14029SOL     OW42336  13.780  10.748   5.808
14029SOL    HW142337  13.737  10.773   5.726
14029SOL    HW242338  13.733  10.670   5.837
14030SOL     OW42339   3.255   8.232   1.827
14030SOL    HW142340   3.256   8.259   1.919
14030SOL    HW242341   3.288   8.308   1.779
14031SOL     OW42342   4.366   4.523   5.343
14031SOL    HW142343   4.386   4.588   5.411
14031SOL    HW242344   4.338   4.576   5.268
14032SOL     OW42345   6.028   2.373   2.805
14032SOL    HW142346   6.078   2.301   2.767
14032SOL    HW242347   6.094   2.436   2.832
14033SOL     OW42348  13.061   9.992   6.188
14033SOL    HW142349  13.039  10.034   6.105
14033SOL    HW242350  13.063   9.898   6.167
14034SOL     OW42351  11.312   6.075   2.187
14034SOL    HW142352  11.322   5.981   2.173
14034SOL    HW242353  11.282   6.082   2.278
14035SOL     OW42354   5.634   4.285   1.817
14035SOL    HW142355   5.680   4.202   1.827
14035SOL    HW242356   5.627   4.319   1.906
14036SOL     OW42357  10.530  10.804   5.198
14036SOL    HW142358  10.486  10.723   5.174
14036SOL    HW242359  10.466  10.851   5.251
14037SOL     OW42360   8.465  10.813   7.100
14037SOL    HW142361   8.535  10.757   7.065
14037SOL    HW242362   8.480  10.898   7.060
14038SOL     OW42363   7.111   3.032   1.230
14038SOL    HW142364   7.125   3.125   1.216
14038SOL    HW242365   7.172   2.989   1.169
14039SOL     OW42366  13.840   6.885   5.010
14039SOL    HW142367  13.849   6.921   4.921
14039SOL    HW242368  13.761   6.927   5.044
14040SOL     OW42369   6.116  15.554   7.423
14040SOL    HW142370   6.093  15.466   7.453
14040SOL    HW242371   6.127  15.546   7.329
14041SOL     OW42372   8.050  13.123   4.683
14041SOL    HW142373   8.045  13.099   4.591
14041SOL    HW242374   8.085  13.044   4.726
14042SOL     OW42375   6.344   5.768   3.158
14042SOL    HW142376   6.264   5.788   3.111
14042SOL    HW242377   6.394   5.850   3.158
14043SOL     OW42378  10.242  11.806   4.446
14043SOL    HW142379  10.291  11.763   4.516
14043SOL    HW242380  10.270  11.897   4.448
14044SOL     OW42381  10.580  12.394   3.742
14044SOL    HW142382  10.517  12.351   3.684
14044SOL    HW242383  10.562  12.487   3.731
14045SOL     OW42384   8.890   2.536   0.182
14045SOL    HW142385   8.960   2.491   0.135
14045SOL    HW242386   8.895   2.501   0.271
14046SOL     OW42387   8.843   5.393   2.729
14046SOL    HW142388   8.850   5.469   2.672
14046SOL    HW242389   8.793   5.329   2.677
14047SOL     OW42390   3.268   3.026   0.854
14047SOL    HW142391   3.312   2.988   0.778
14047SOL    HW242392   3.239   2.951   0.906
14048SOL     OW42393   6.854   6.102   4.694
14048SOL    HW142394   6.781   6.132   4.641
14048SOL    HW242395   6.929   6.152   4.662
14049SOL     OW42396   5.885   4.728   0.848
14049SOL    HW142397   5.909   4.819   0.832
14049SOL    HW242398   5.792   4.731   0.870
14050SOL     OW42399   7.100  12.288   4.867
14050SOL    HW142400   7.078  12.329   4.951
14050SOL    HW242401   7.179  12.237   4.886
14051SOL     OW42402   1.583   6.920   0.609
14051SOL    HW142403   1.558   6.891   0.521
14051SOL    HW242404   1.568   6.843   0.664
14052SOL     OW42405   6.908   4.803   2.233
14052SOL    HW142406   6.936   4.719   2.268
14052SOL    HW242407   6.816   4.810   2.258
14053SOL     OW42408   9.720  12.227   2.572
14053SOL    HW142409   9.740  12.317   2.547
14053SOL    HW242410   9.626  12.229   2.592
14054SOL     OW42411   9.773   5.684   2.814
14054SOL    HW142412   9.760   5.731   2.896
14054SOL    HW242413   9.765   5.751   2.746
14055SOL     OW42414  13.809   9.436   5.992
14055SOL    HW142415  13.780   9.363   6.046
14055SOL    HW242416  13.769   9.513   6.033
14056SOL     OW42417  12.285   3.539   2.916
14056SOL    HW142418  12.260   3.492   2.836
14056SOL    HW242419  12.219   3.608   2.925
14057SOL     OW42420   6.924   2.094   0.910
14057SOL    HW142421   6.946   2.177   0.868
14057SOL    HW242422   6.839   2.108   0.950
14058SOL     OW42423   9.203   1.619   0.646
14058SOL    HW142424   9.111   1.608   0.668
14058SOL    HW242425   9.221   1.552   0.580
14059SOL     OW42426   3.974   9.685   0.537
14059SOL    HW142427   3.988   9.604   0.487
14059SOL    HW242428   4.007   9.754   0.481
14060SOL     OW42429   9.200   5.269   0.169
14060SOL    HW142430   9.207   5.198   0.233
14060SOL    HW242431   9.118   5.314   0.192
14061SOL     OW42432  10.708   8.342   3.499
14061SOL    HW142433  10.747   8.257   3.477
14061SOL    HW242434  10.766   8.406   3.458
14062SOL     OW42435   4.645   5.919   3.054
14062SOL    HW142436   4.730   5.895   3.017
14062SOL    HW242437   4.647   5.885   3.143
14063SOL     OW42438   8.567   5.411   5.355
14063SOL    HW142439   8.501   5.480   5.356
14063SOL    HW242440   8.518   5.331   5.336
14064SOL     OW42441   6.912   7.074   0.486
14064SOL    HW142442   6.892   7.132   0.560
14064SOL    HW242443   6.927   6.988   0.527
14065SOL     OW42444  13.082   8.460   5.384
14065SOL    HW142445  13.114   8.461   5.474
14065SOL    HW242446  13.038   8.544   5.373
14066SOL     OW42447   3.457   4.148   1.624
14066SOL    HW142448   3.447   4.059   1.659
14066SOL    HW242449   3.427   4.142   1.534
14067SOL     OW42450   5.690  11.726   3.688
14067SOL    HW142451   5.601  11.692   3.698
14067SOL    HW242452   5.745  11.648   3.677
14068SOL     OW42453   7.507   7.605   0.884
14068SOL    HW142454   7.461   7.629   0.964
14068SOL    HW242455   7.534   7.514   0.898
14069SOL     OW42456   4.734   5.932   2.770
14069SOL    HW142457   4.780   5.963   2.692
14069SOL    HW242458   4.772   5.982   2.842
14070SOL     OW42459   2.478   3.139   1.412
14070SOL    HW142460   2.423   3.191   1.471
14070SOL    HW242461   2.559   3.189   1.404
14071SOL     OW42462   4.626   7.239   2.252
14071SOL    HW142463   4.547   7.224   2.304
14071SOL    HW242464   4.692   7.266   2.317
14072SOL     OW42465   8.355   6.824   3.967
14072SOL    HW142466   8.264   6.810   3.939
14072SOL    HW242467   8.350   6.901   4.024
14073SOL     OW42468  11.403   4.928   2.934
14073SOL    HW142469  11.464   4.997   2.961
14073SOL    HW242470  11.444   4.847   2.965
14074SOL     OW42471  13.573   7.134   5.624
14074SOL    HW142472  13.607   7.182   5.699
14074SOL    HW242473  13.523   7.062   5.662
14075SOL     OW42474   8.177   5.616   5.801
14075SOL    HW142475   8.109   5.588   5.862
14075SOL    HW242476   8.168   5.711   5.796
14076SOL     OW42477   5.169   4.339   4.732
14076SOL    HW142478   5.138   4.290   4.656
14076SOL    HW242479   5.226   4.407   4.696
14077SOL     OW42480   7.684   6.935   2.271
14077SOL    HW142481   7.731   6.894   2.344
14077SOL    HW242482   7.737   6.914   2.194
14078SOL     OW42483  12.327   9.697   2.648
14078SOL    HW142484  12.338   9.758   2.721
14078SOL    HW242485  12.259   9.637   2.677
14079SOL     OW42486   5.841  12.634   6.164
14079SOL    HW142487   5.928  12.641   6.204
14079SOL    HW242488   5.821  12.722   6.133
14080SOL     OW42489   3.282   3.528   1.614
14080SOL    HW142490   3.344   3.477   1.666
14080SOL    HW242491   3.311   3.514   1.523
14081SOL     OW42492   9.995   8.120   7.337
14081SOL    HW142493  10.068   8.120   7.275
14081SOL    HW242494   9.918   8.097   7.284
14082SOL     OW42495   8.617   8.743   6.381
14082SOL    HW142496   8.687   8.767   6.442
14082SOL    HW242497   8.662   8.711   6.303
14083SOL     OW42498   5.286   5.214   3.497
14083SOL    HW142499   5.228   5.222   3.573
14083SOL    HW242500   5.373   5.207   3.535
14084SOL     OW42501  11.341   5.608   1.758
14084SOL    HW142502  11.312   5.686   1.805
14084SOL    HW242503  11.433   5.599   1.782
14085SOL     OW42504  11.823   1.395   1.717
14085SOL    HW142505  11.869   1.475   1.743
14085SOL    HW242506  11.873   1.363   1.642
14086SOL     OW42507   5.786   5.666   1.408
14086SOL    HW142508   5.814   5.725   1.338
14086SOL    HW242509   5.692   5.655   1.394
14087SOL     OW42510   5.935   8.450   0.045
14087SOL    HW142511   5.870   8.387   0.015
14087SOL    HW242512   5.921   8.457   0.139
14088SOL     OW42513   2.095   0.807   0.187
14088SOL    HW142514   2.074   0.837   0.275
14088SOL    HW242515   2.065   0.716   0.184
14089SOL     OW42516  10.423  14.297   7.300
14089SOL    HW142517  10.370  14.319   7.223
14089SOL    HW242518  10.462  14.380   7.327
14090SOL     OW42519   4.622  14.692   6.251
14090SOL    HW142520   4.702  14.741   6.271
14090SOL    HW242521   4.575  14.748   6.190
14091SOL     OW42522   8.773   6.495   1.151
14091SOL    HW142523   8.762   6.401   1.138
14091SOL    HW242524   8.715   6.515   1.225
14092SOL     OW42525   9.440   7.530   4.209
14092SOL    HW142526   9.507   7.534   4.278
14092SOL    HW242527   9.423   7.436   4.198
14093SOL     OW42528   9.897   5.127   2.866
14093SOL    HW142529   9.925   5.088   2.783
14093SOL    HW242530   9.972   5.113   2.925
14094SOL     OW42531  11.617  13.553   7.133
14094SOL    HW142532  11.583  13.615   7.069
14094SOL    HW242533  11.625  13.471   7.085
14095SOL     OW42534   4.011   6.168   1.533
14095SOL    HW142535   3.970   6.082   1.521
14095SOL    HW242536   3.940   6.224   1.566
14096SOL     OW42537   8.297   4.332   4.266
14096SOL    HW142538   8.222   4.347   4.325
14096SOL    HW242539   8.319   4.239   4.279
14097SOL     OW42540   3.034   4.909   3.309
14097SOL    HW142541   3.006   4.819   3.326
14097SOL    HW242542   3.053   4.912   3.216
14098SOL     OW42543  11.113  13.459   3.831
14098SOL    HW142544  11.202  13.422   3.825
14098SOL    HW242545  11.106   2.744   3.757
14099SOL     OW42546   1.552   3.975   0.972
14099SOL    HW142547   1.540   3.900   0.914
14099SOL    HW242548   1.646   3.993   0.969
14100SOL     OW42549   8.248   5.763   3.115
14100SOL    HW142550   8.261   5.799   3.203
14100SOL    HW242551   8.159   5.726   3.117
14101SOL     OW42552  14.848   8.439   5.973
14101SOL    HW142553  14.868   8.526   6.008
14101SOL    HW242554  14.920   8.383   6.003
14102SOL     OW42555   8.839   6.972   3.127
14102SOL    HW142556   8.806   7.061   3.143
14102SOL    HW242557   8.890   6.952   3.206
14103SOL     OW42558   3.474  10.469   4.650
14103SOL    HW142559   3.499  10.561   4.655
14103SOL    HW242560   3.516  10.437   4.570
14104SOL     OW42561   8.440   6.659   1.731
14104SOL    HW142562   8.387   6.683   1.655
14104SOL    HW242563   8.378   6.625   1.795
14105SOL     OW42564   3.365   6.055   2.097
14105SOL    HW142565   3.459   6.060   2.112
14105SOL    HW242566   3.348   5.961   2.084
14106SOL     OW42567  12.117  11.011   6.778
14106SOL    HW142568  12.199  11.059   6.761
14106SOL    HW242569  12.084  11.048   6.859
14107SOL     OW42570   6.199   9.470   5.418
14107SOL    HW142571   6.258   9.396   5.401
14107SOL    HW242572   6.137   9.468   5.346
14108SOL     OW42573  10.281  10.925   4.915
14108SOL    HW142574  10.292  11.006   4.965
14108SOL    HW242575  10.231  10.868   4.973
14109SOL     OW42576   6.488  10.324   6.952
14109SOL    HW142577   6.482  10.229   6.943
14109SOL    HW242578   6.490  10.339   7.046
14110SOL     OW42579  14.969  12.220   7.157
14110SOL    HW142580  15.059  12.189   7.170
14110SOL    HW242581  14.931  12.158   7.095
14111SOL     OW42582  10.766   5.649   1.120
14111SOL    HW142583  10.716   5.567   1.124
14111SOL    HW242584  10.831   5.634   1.052
14112SOL     OW42585  11.787  12.322   5.628
14112SOL    HW142586  11.752  12.320   5.717
14112SOL    HW242587  11.794  12.230   5.603
14113SOL     OW42588   6.385   7.633   0.094
14113SOL    HW142589   6.302   7.666   0.062
14113SOL    HW242590   6.431   7.602   0.016
14114SOL     OW42591   9.534   7.067   1.707
14114SOL    HW142592   9.481   7.144   1.689
14114SOL    HW242593   9.589   7.057   1.629
14115SOL     OW42594   6.424   3.623   0.322
14115SOL    HW142595   6.389   3.672   0.248
14115SOL    HW242596   6.441   3.535   0.287
14116SOL     OW42597   4.080   2.946   3.604
14116SOL    HW142598   4.140   3.005   3.649
14116SOL    HW242599   4.127   2.863   3.600
14117SOL     OW42600   7.472   2.535   1.061
14117SOL    HW142601   7.422   2.478   1.119
14117SOL    HW242602   7.552   2.555   1.110
14118SOL     OW42603   7.959   8.603   4.044
14118SOL    HW142604   7.931   8.520   4.082
14118SOL    HW242605   7.941   8.668   4.112
14119SOL     OW42606   7.363  11.924   6.050
14119SOL    HW142607   7.388  11.878   6.130
14119SOL    HW242608   7.438  11.980   6.031
14120SOL     OW42609   6.990  11.915   6.502
14120SOL    HW142610   7.032  11.831   6.523
14120SOL    HW242611   7.032  11.978   6.560
14121SOL     OW42612  10.412   3.568   2.032
14121SOL    HW142613  10.430   3.661   2.044
14121SOL    HW242614  10.486   3.535   1.980
14122SOL     OW42615   1.753   1.338   1.560
14122SOL    HW142616   1.695   1.263   1.573
14122SOL    HW242617   1.828   1.321   1.618
14123SOL     OW42618   5.118   9.645   2.298
14123SOL    HW142619   5.120   9.572   2.237
14123SOL    HW242620   5.200   9.637   2.348
14124SOL     OW42621  11.087  13.366   5.270
14124SOL    HW142622  11.181  13.362   5.287
14124SOL    HW242623  11.079  13.352   5.175
14125SOL     OW42624   9.419   9.990   7.539
14125SOL    HW142625   9.354  10.028   7.599
14125SOL    HW242626   9.481  10.061   7.524
14126SOL     OW42627   9.001   2.066   0.466
14126SOL    HW142628   9.055   2.002   0.420
14126SOL    HW242629   9.033   2.063   0.556
14127SOL     OW42630   4.383  13.264   3.820
14127SOL    HW142631   4.325  13.201   3.864
14127SOL    HW242632   4.455  13.277   3.882
14128SOL     OW42633   2.835  12.821   3.173
14128SOL    HW142634   2.761  12.820   3.233
14128SOL    HW242635   2.910  12.795   3.227
14129SOL     OW42636   5.584   7.117   5.960
14129SOL    HW142637   5.565   7.209   5.940
14129SOL    HW242638   5.678   7.108   5.944
14130SOL     OW42639   3.260   5.606   0.363
14130SOL    HW142640   3.298   5.591   0.449
14130SOL    HW242641   3.295   5.691   0.336
14131SOL     OW42642   3.563  12.922   3.980
14131SOL    HW142643   3.612  12.853   3.936
14131SOL    HW242644   3.580  12.908   4.073
14132SOL     OW42645  10.204  13.366   5.528
14132SOL    HW142646  10.226  13.451   5.566
14132SOL    HW242647  10.285  13.316   5.534
14133SOL     OW42648  13.193   6.674   4.161
14133SOL    HW142649  13.255   6.604   4.141
14133SOL    HW242650  13.246   6.754   4.161
14134SOL     OW42651  11.074   6.404   0.722
14134SOL    HW142652  11.056   6.410   0.815
14134SOL    HW242653  11.061   6.312   0.700
14135SOL     OW42654   4.612  13.122   3.832
14135SOL    HW142655   4.556  13.139   3.907
14135SOL    HW242656   4.559  13.147   3.756
14136SOL     OW42657   0.480   2.572   0.664
14136SOL    HW142658  11.236   2.479   0.668
14136SOL    HW242659   0.558   2.583   0.719
14137SOL     OW42660   9.225  14.186   6.482
14137SOL    HW142661   9.136  14.216   6.464
14137SOL    HW242662   9.282  14.250   6.440
14138SOL     OW42663  13.184   4.456   3.745
14138SOL    HW142664  13.164   4.425   3.833
14138SOL    HW242665  13.278   4.446   3.736
14139SOL     OW42666   5.279   9.777   5.653
14139SOL    HW142667   5.305   9.741   5.738
14139SOL    HW242668   5.286   9.872   5.664
14140SOL     OW42669  11.321  12.762   4.789
14140SOL    HW142670  11.366  12.678   4.804
14140SOL    HW242671  11.363  12.799   4.712
14141SOL     OW42672   4.676   7.024   0.830
14141SOL    HW142673   4.666   6.954   0.894
14141SOL    HW242674   4.597   7.077   0.838
14142SOL     OW42675   7.579   3.394   2.654
14142SOL    HW142676   7.625   3.383   2.737
14142SOL    HW242677   7.603   3.317   2.603
14143SOL     OW42678   9.980  12.265   5.930
14143SOL    HW142679  10.019  12.212   5.998
14143SOL    HW242680   9.904  12.306   5.972
14144SOL     OW42681   6.028   8.481   3.273
14144SOL    HW142682   6.038   8.499   3.367
14144SOL    HW242683   6.034   8.567   3.231
14145SOL     OW42684   8.298   7.193   0.148
14145SOL    HW142685   8.289   7.098   0.143
14145SOL    HW242686   8.228   7.227   0.094
14146SOL     OW42687  10.407  13.935   6.586
14146SOL    HW142688  10.429  13.857   6.637
14146SOL    HW242689  10.382  13.902   6.500
14147SOL     OW42690   5.426  13.691   4.697
14147SOL    HW142691   5.333  13.669   4.700
14147SOL    HW242692   5.447  13.722   4.785
14148SOL     OW42693   2.350   3.463   1.900
14148SOL    HW142694   2.314   3.548   1.875
14148SOL    HW242695   2.381   3.475   1.989
14149SOL     OW42696   4.047   9.215   1.005
14149SOL    HW142697   4.082   9.179   1.087
14149SOL    HW242698   3.952   9.217   1.019
14150SOL     OW42699  10.065   9.305   3.429
14150SOL    HW142700  10.062   9.363   3.352
14150SOL    HW242701   9.987   9.328   3.479
14151SOL     OW42702  11.873   8.329   2.642
14151SOL    HW142703  11.964   8.333   2.612
14151SOL    HW242704  11.841   8.419   2.634
14152SOL     OW42705  13.384  14.965   7.063
14152SOL    HW142706  13.407  15.013   6.984
14152SOL    HW242707  13.399  14.873   7.040
14153SOL     OW42708   7.594   0.214   0.281
14153SOL    HW142709   7.585   0.230   0.187
14153SOL    HW242710   7.589   0.301   0.320
14154SOL     OW42711   5.786   2.597   2.734
14154SOL    HW142712   5.719   2.560   2.677
14154SOL    HW242713   5.822   2.522   2.781
14155SOL     OW42714   7.706   6.753   3.040
14155SOL    HW142715   7.743   6.685   3.096
14155SOL    HW242716   7.735   6.730   2.952
14156SOL     OW42717   4.722   7.902   5.593
14156SOL    HW142718   4.701   7.880   5.503
14156SOL    HW242719   4.645   7.948   5.626
14157SOL     OW42720  12.843   7.773   3.631
14157SOL    HW142721  12.830   7.866   3.649
14157SOL    HW242722  12.930   7.753   3.666
14158SOL     OW42723   8.946   5.765   1.763
14158SOL    HW142724   8.917   5.717   1.841
14158SOL    HW242725   8.867   5.774   1.710
14159SOL     OW42726   5.888   5.532   1.012
14159SOL    HW142727   5.813   5.575   0.971
14159SOL    HW242728   5.851   5.457   1.058
14160SOL     OW42729   5.820  14.327   5.090
14160SOL    HW142730   5.840   3.557   4.997
14160SOL    HW242731   5.735  14.370   5.099
14161SOL     OW42732  10.611   1.120   0.161
14161SOL    HW142733  10.580   1.037   0.196
14161SOL    HW242734  10.532   1.172   0.150
14162SOL     OW42735   3.197  10.919   1.556
14162SOL    HW142736   3.118  10.965   1.585
14162SOL    HW242737   3.176  10.888   1.468
14163SOL     OW42738   9.356   7.063   6.261
14163SOL    HW142739   9.419   7.018   6.204
14163SOL    HW242740   9.402   7.071   6.345
14164SOL     OW42741   9.588  10.963   2.926
14164SOL    HW142742   9.650  10.956   2.853
14164SOL    HW242743   9.643  10.973   3.004
14165SOL     OW42744   2.700   6.073   2.746
14165SOL    HW142745   2.653   6.067   2.662
14165SOL    HW242746   2.778   6.125   2.726
14166SOL     OW42747  10.572   0.996   0.778
14166SOL    HW142748  10.519   1.063   0.734
14166SOL    HW242749  10.547   0.914   0.735
14167SOL     OW42750   8.757  13.626   4.114
14167SOL    HW142751   8.807  13.548   4.136
14167SOL    HW242752   8.779   2.869   4.022
14168SOL     OW42753   8.843  10.260   5.305
14168SOL    HW142754   8.781  10.200   5.345
14168SOL    HW242755   8.793  10.305   5.237
14169SOL     OW42756   6.236   9.186   2.046
14169SOL    HW142757   6.274   9.244   1.980
14169SOL    HW242758   6.248   9.233   2.129
14170SOL     OW42759  12.872  10.731   4.259
14170SOL    HW142760  12.928  10.753   4.333
14170SOL    HW242761  12.813  10.806   4.251
14171SOL     OW42762   8.965  10.395   3.802
14171SOL    HW142763   8.982  10.485   3.774
14171SOL    HW242764   9.036  10.344   3.763
14172SOL     OW42765   4.957   4.143   0.429
14172SOL    HW142766   4.984   4.222   0.382
14172SOL    HW242767   5.020   4.135   0.500
14173SOL     OW42768  12.091   7.519   6.026
14173SOL    HW142769  12.033   7.557   5.960
14173SOL    HW242770  12.171   7.498   5.978
14174SOL     OW42771   8.075  12.772   6.382
14174SOL    HW142772   8.089  12.843   6.444
14174SOL    HW242773   8.081  12.813   6.296
14175SOL     OW42774   2.936   6.049   2.119
14175SOL    HW142775   2.893   6.052   2.205
14175SOL    HW242776   2.865   6.028   2.058
14176SOL     OW42777   4.895   2.684   3.549
14176SOL    HW142778   4.952   2.677   3.473
14176SOL    HW242779   4.883   2.594   3.578
14177SOL     OW42780  11.665  12.357   6.548
14177SOL    HW142781  11.619  12.425   6.499
14177SOL    HW242782  11.637  12.275   6.508
14178SOL     OW42783   1.915   2.378   1.726
14178SOL    HW142784   1.830   2.335   1.720
14178SOL    HW242785   1.979   2.307   1.720
14179SOL     OW42786   3.428   5.497   0.572
14179SOL    HW142787   3.414   5.408   0.541
14179SOL    HW242788   3.522   5.502   0.590
14180SOL     OW42789  13.100  14.517   7.056
14180SOL    HW142790  13.115  14.445   7.117
14180SOL    HW242791  13.119  14.479   6.970
14181SOL     OW42792  11.218   4.433   1.403
14181SOL    HW142793  11.150   4.495   1.376
14181SOL    HW242794  11.230   4.450   1.496
14182SOL     OW42795   4.886   9.644   1.760
14182SOL    HW142796   4.965   9.671   1.714
14182SOL    HW242797   4.815   9.659   1.697
14183SOL     OW42798   9.801  10.198   3.729
14183SOL    HW142799   9.708  10.214   3.712
14183SOL    HW242800   9.845  10.280   3.707
14184SOL     OW42801   4.298   6.219   2.221
14184SOL    HW142802   4.269   6.249   2.135
14184SOL    HW242803   4.228   6.245   2.281
14185SOL     OW42804   6.000   8.288   2.204
14185SOL    HW142805   6.088   8.301   2.168
14185SOL    HW242806   6.004   8.326   2.292
14186SOL     OW42807   3.993  13.994   4.830
14186SOL    HW142808   3.979  13.920   4.889
14186SOL    HW242809   3.964  13.962   4.744
14187SOL     OW42810   8.825   8.565   1.710
14187SOL    HW142811   8.739   8.563   1.752
14187SOL    HW242812   8.886   8.586   1.780
14188SOL     OW42813   9.540   8.681   7.199
14188SOL    HW142814   9.569   8.709   7.113
14188SOL    HW242815   9.619   8.647   7.241
14189SOL     OW42816   2.974   3.094   2.009
14189SOL    HW142817   2.888   3.055   1.989
14189SOL    HW242818   3.037   3.026   1.986
14190SOL     OW42819   9.671   9.812   5.611
14190SOL    HW142820   9.693   9.748   5.544
14190SOL    HW242821   9.639   9.888   5.562
14191SOL     OW42822  11.811  10.596   5.165
14191SOL    HW142823  11.804  10.533   5.093
14191SOL    HW242824  11.759  10.558   5.236
14192SOL     OW42825   5.985  10.076   7.218
14192SOL    HW142826   6.052  10.023   7.174
14192SOL    HW242827   6.035  10.146   7.261
14193SOL     OW42828  11.654   8.859   2.480
14193SOL    HW142829  11.731   8.906   2.449
14193SOL    HW242830  11.649   8.781   2.425
14194SOL     OW42831  10.440  12.616   2.785
14194SOL    HW142832  10.355  12.580   2.808
14194SOL    HW242833  10.498  12.539   2.781
14195SOL     OW42834  13.975   6.969   7.035
14195SOL    HW142835  13.896   6.993   7.083
14195SOL    HW242836  13.958   6.881   7.003
14196SOL     OW42837  10.210  13.053   5.534
14196SOL    HW142838  10.233  13.091   5.449
14196SOL    HW242839  10.127  13.094   5.557
14197SOL     OW42840   0.555   3.462   0.529
14197SOL    HW142841   0.484   3.407   0.561
14197SOL    HW242842   0.555   3.538   0.588
14198SOL     OW42843   2.819   2.455   0.487
14198SOL    HW142844   2.888   2.506   0.531
14198SOL    HW242845   2.766   2.420   0.558
14199SOL     OW42846   5.658  12.224   3.761
14199SOL    HW142847   5.733  12.192   3.811
14199SOL    HW242848   5.599  12.149   3.754
14200SOL     OW42849  14.030   3.964   5.213
14200SOL    HW142850  13.945   3.930   5.240
14200SOL    HW242851  14.017   4.059   5.207
14201SOL     OW42852   1.175   8.295   1.043
14201SOL    HW142853   1.196   8.259   1.129
14201SOL    HW242854   1.082   8.275   1.031
14202SOL     OW42855   8.286   1.005   0.496
14202SOL    HW142856   8.263   1.042   0.582
14202SOL    HW242857   8.234   1.056   0.434
14203SOL     OW42858   5.848   3.546   2.490
14203SOL    HW142859   5.829   3.628   2.446
14203SOL    HW242860   5.837   3.564   2.583
14204SOL     OW42861   8.131  14.205   7.222
14204SOL    HW142862   8.179  14.258   7.286
14204SOL    HW242863   8.188  14.204   7.144
14205SOL     OW42864   7.565  10.823   4.928
14205SOL    HW142865   7.472  10.809   4.944
14205SOL    HW242866   7.591  10.887   4.994
14206SOL     OW42867  11.484   2.112   1.084
14206SOL    HW142868   0.785   2.111   1.026
14206SOL    HW242869  11.497   2.189   1.140
14207SOL     OW42870  11.438   5.578   3.083
14207SOL    HW142871  11.399   5.617   3.005
14207SOL    HW242872  11.399   5.626   3.156
14208SOL     OW42873   9.518   6.581   4.336
14208SOL    HW142874   9.577   6.614   4.405
14208SOL    HW242875   9.555   6.616   4.255
14209SOL     OW42876   9.755  10.531   3.464
14209SOL    HW142877   9.814  10.507   3.393
14209SOL    HW242878   9.736  10.624   3.449
14210SOL     OW42879  10.967   4.345   0.404
14210SOL    HW142880  10.988   4.399   0.480
14210SOL    HW242881   0.274   4.302   0.381
14211SOL     OW42882   9.182   7.362   6.232
14211SOL    HW142883   9.104   7.344   6.284
14211SOL    HW242884   9.216   7.275   6.210
14212SOL     OW42885  11.660  13.843   4.819
14212SOL    HW142886  11.686  13.862   4.909
14212SOL    HW242887  11.599  13.770   4.826
14213SOL     OW42888   2.575   5.343   3.484
14213SOL    HW142889   2.585   5.337   3.389
14213SOL    HW242890   2.587   5.253   3.515
14214SOL     OW42891   9.890   7.213   0.575
14214SOL    HW142892   9.937   7.260   0.644
14214SOL    HW242893   9.798   7.215   0.604
14215SOL     OW42894   8.374   7.514   4.264
14215SOL    HW142895   8.323   7.594   4.275
14215SOL    HW242896   8.465   7.543   4.270
14216SOL     OW42897  11.318  12.456   6.083
14216SOL    HW142898  11.311  12.551   6.075
14216SOL    HW242899  11.343  12.442   6.174
14217SOL     OW42900   5.754   9.177   5.994
14217SOL    HW142901   5.819   9.224   6.046
14217SOL    HW242902   5.679   9.237   5.989
14218SOL     OW42903   6.232   2.682   3.154
14218SOL    HW142904   6.289   2.694   3.230
14218SOL    HW242905   6.152   2.730   3.177
14219SOL     OW42906   3.403  10.819   1.251
14219SOL    HW142907   3.452  10.901   1.241
14219SOL    HW242908   3.376  10.819   1.343
14220SOL     OW42909   5.108   8.698   1.506
14220SOL    HW142910   5.033   8.645   1.477
14220SOL    HW242911   5.095   8.707   1.601
14221SOL     OW42912   5.737   4.521   4.991
14221SOL    HW142913   5.684   4.528   4.911
14221SOL    HW242914   5.676   4.489   5.058
14222SOL     OW42915  11.402   7.677   3.280
14222SOL    HW142916  11.400   7.770   3.256
14222SOL    HW242917  11.472   7.640   3.225
14223SOL     OW42918  11.376  11.397   2.356
14223SOL    HW142919  11.360  11.303   2.354
14223SOL    HW242920  11.418  11.412   2.440
14224SOL     OW42921  11.175   6.633   1.427
14224SOL    HW142922  11.156   6.726   1.437
14224SOL    HW242923  11.206   6.624   1.337
14225SOL     OW42924   4.787  12.923   3.720
14225SOL    HW142925   4.774  12.831   3.743
14225SOL    HW242926   4.724  12.970   3.775
14226SOL     OW42927   2.510   2.789   2.322
14226SOL    HW142928   2.555   2.713   2.285
14226SOL    HW242929   2.427   2.754   2.354
14227SOL     OW42930   4.146   6.122   5.693
14227SOL    HW142931   4.064   6.164   5.720
14227SOL    HW242932   4.215   6.172   5.737
14228SOL     OW42933   3.210   6.943   1.408
14228SOL    HW142934   3.218   6.896   1.325
14228SOL    HW242935   3.116   6.948   1.424
14229SOL     OW42936  12.978   4.696   6.381
14229SOL    HW142937  12.995   4.666   6.292
14229SOL    HW242938  13.036   4.771   6.393
14230SOL     OW42939   5.283  11.353   4.682
14230SOL    HW142940   5.324  11.303   4.611
14230SOL    HW242941   5.210  11.398   4.639
14231SOL     OW42942   5.581  10.942   3.894
14231SOL    HW142943   5.608  10.855   3.865
14231SOL    HW242944   5.486  10.941   3.888
14232SOL     OW42945   7.534   9.972   6.768
14232SOL    HW142946   7.543   9.988   6.675
14232SOL    HW242947   7.608   9.916   6.791
14233SOL     OW42948   3.896   3.170   2.900
14233SOL    HW142949   3.878   3.142   2.810
14233SOL    HW242950   3.891   3.265   2.897
14234SOL     OW42951   6.540   3.746   1.877
14234SOL    HW142952   6.581   3.821   1.833
14234SOL    HW242953   6.478   3.712   1.813
14235SOL     OW42954   2.499  10.989   1.539
14235SOL    HW142955   2.451  11.063   1.502
14235SOL    HW242956   2.542  11.026   1.617
14236SOL     OW42957  10.592  14.814   7.086
14236SOL    HW142958  10.601  14.897   7.038
14236SOL    HW242959  10.515  14.773   7.048
14237SOL     OW42960   9.245  10.856   5.554
14237SOL    HW142961   9.223  10.769   5.523
14237SOL    HW242962   9.278  10.842   5.643
14238SOL     OW42963   6.992   4.343   2.673
14238SOL    HW142964   7.006   4.288   2.750
14238SOL    HW242965   7.074   4.392   2.663
14239SOL     OW42966  11.349   8.248   4.173
14239SOL    HW142967  11.376   8.306   4.101
14239SOL    HW242968  11.264   8.213   4.145
14240SOL     OW42969   8.869  13.197   5.109
14240SOL    HW142970   8.874  13.249   5.029
14240SOL    HW242971   8.782  13.215   5.145
14241SOL     OW42972  14.452   8.871   6.987
14241SOL    HW142973  14.472   8.930   7.060
14241SOL    HW242974  14.359   8.851   6.997
14242SOL     OW42975  12.781  13.009   4.477
14242SOL    HW142976  12.722  13.010   4.401
14242SOL    HW242977  12.869  13.006   4.439
14243SOL     OW42978   7.135  13.106   3.634
14243SOL    HW142979   7.044  13.080   3.649
14243SOL    HW242980   7.158  13.066   3.550
14244SOL     OW42981   2.408   0.232   0.220
14244SOL    HW142982   2.441   0.259   0.306
14244SOL    HW242983   2.315   0.254   0.222
14245SOL     OW42984   8.945  12.015   5.960
14245SOL    HW142985   8.975  12.106   5.961
14245SOL    HW242986   8.885  12.010   6.035
14246SOL     OW42987  15.783  15.939   7.453
14246SOL    HW142988  15.867  15.953   7.496
14246SOL    HW242989  15.803  15.947   7.359
14247SOL     OW42990  11.087   1.240   1.190
14247SOL    HW142991  11.055   1.156   1.157
14247SOL    HW242992  11.075   1.235   1.285
14248SOL     OW42993   5.365   4.107   0.429
14248SOL    HW142994   5.293   4.149   0.382
14248SOL    HW242995   5.338   4.016   0.438
14249SOL     OW42996   5.006   9.341   0.403
14249SOL    HW142997   4.973   9.431   0.401
14249SOL    HW242998   5.057   9.337   0.484
14250SOL     OW42999  11.035  10.640   1.849
14250SOL    HW143000  10.943  10.613   1.849
14250SOL    HW243001  11.039  10.709   1.782
14251SOL     OW43002   9.683   2.475   2.491
14251SOL    HW143003   9.720   2.521   2.567
14251SOL    HW243004   9.713   2.525   2.416
14252SOL     OW43005   6.839   4.884   5.364
14252SOL    HW143006   6.931   4.876   5.338
14252SOL    HW243007   6.838   4.950   5.433
14253SOL     OW43008  12.802   9.727   5.860
14253SOL    HW143009  12.754   9.645   5.873
14253SOL    HW243010  12.790   9.748   5.768
14254SOL     OW43011   6.611   8.926   3.699
14254SOL    HW143012   6.540   8.990   3.691
14254SOL    HW243013   6.596   8.883   3.783
14255SOL     OW43014   4.485  12.023   5.222
14255SOL    HW143015   4.446  12.010   5.308
14255SOL    HW243016   4.578  12.003   5.233
14256SOL     OW43017   6.980   3.933   0.294
14256SOL    HW143018   6.895   3.966   0.264
14256SOL    HW243019   6.958   3.869   0.361
14257SOL     OW43020  11.046   4.638   3.964
14257SOL    HW143021  11.006   4.657   3.879
14257SOL    HW243022  11.031   4.544   3.976
14258SOL     OW43023   5.652   1.870   0.541
14258SOL    HW143024   5.701   1.943   0.504
14258SOL    HW243025   5.591   1.911   0.603
14259SOL     OW43026   5.295   6.369   6.982
14259SOL    HW143027   5.311   6.421   7.061
14259SOL    HW243028   5.382   6.352   6.947
14260SOL     OW43029  11.847   5.319   4.696
14260SOL    HW143030  11.763   5.365   4.704
14260SOL    HW243031  11.912   5.388   4.690
14261SOL     OW43032  10.104  11.256   4.620
14261SOL    HW143033  10.066  11.344   4.617
14261SOL    HW243034  10.137  11.247   4.710
14262SOL     OW43035  10.273   3.080   2.562
14262SOL    HW143036  10.194   3.134   2.571
14262SOL    HW243037  10.268   3.018   2.635
14263SOL     OW43038  11.498   8.523   1.285
14263SOL    HW143039  11.524   8.530   1.193
14263SOL    HW243040  11.432   8.591   1.297
14264SOL     OW43041  13.414  12.015   6.900
14264SOL    HW143042  13.501  12.031   6.864
14264SOL    HW243043  13.410  12.070   6.979
14265SOL     OW43044   7.692   4.155   4.001
14265SOL    HW143045   7.606   4.118   3.982
14265SOL    HW243046   7.728   4.098   4.069
14266SOL     OW43047   2.385  11.206   0.811
14266SOL    HW143048   2.298  11.208   0.773
14266SOL    HW243049   2.429  11.283   0.775
14267SOL     OW43050   2.412   8.040   0.498
14267SOL    HW143051   2.482   8.102   0.519
14267SOL    HW243052   2.338   8.069   0.551
14268SOL     OW43053   9.692   9.572   1.331
14268SOL    HW143054   9.620   9.635   1.325
14268SOL    HW243055   9.718   9.556   1.240
14269SOL     OW43056  10.378   6.596   6.497
14269SOL    HW143057  10.378   6.672   6.438
14269SOL    HW243058  10.426   6.626   6.574
14270SOL     OW43059   7.618   5.760   0.406
14270SOL    HW143060   7.589   5.669   0.416
14270SOL    HW243061   7.643   5.768   0.315
14271SOL     OW43062   6.128   2.340   3.211
14271SOL    HW143063   6.041   2.338   3.173
14271SOL    HW243064   6.187   2.323   3.138
14272SOL     OW43065   4.786   7.569   0.644
14272SOL    HW143066   4.863   7.624   0.660
14272SOL    HW243067   4.713   7.619   0.681
14273SOL     OW43068   4.542  14.276   5.965
14273SOL    HW143069   4.460  14.273   6.014
14273SOL    HW243070   4.557  14.369   5.949
14274SOL     OW43071  13.142   7.308   6.195
14274SOL    HW143072  13.136   7.251   6.118
14274SOL    HW243073  13.085   7.382   6.174
14275SOL     OW43074   5.663   9.409   6.590
14275SOL    HW143075   5.695   9.438   6.505
14275SOL    HW243076   5.637   9.318   6.577
14276SOL     OW43077   9.492   4.279   1.890
14276SOL    HW143078   9.518   4.186   1.890
14276SOL    HW243079   9.433   4.287   1.965
14277SOL     OW43080   5.358   7.343   5.910
14277SOL    HW143081   5.420   7.316   5.978
14277SOL    HW243082   5.276   7.354   5.956
14278SOL     OW43083  12.183   5.966   3.018
14278SOL    HW143084  12.201   5.953   3.111
14278SOL    HW243085  12.087   5.967   3.013
14279SOL     OW43086   6.768  11.491   6.746
14279SOL    HW143087   6.695  11.544   6.778
14279SOL    HW243088   6.740  11.460   6.660
14280SOL     OW43089  11.238   8.530   6.219
14280SOL    HW143090  11.237   8.437   6.239
14280SOL    HW243091  11.215   8.573   6.301
14281SOL     OW43092  13.555   8.808   4.907
14281SOL    HW143093  13.460   8.805   4.899
14281SOL    HW243094  13.582   8.870   4.839
14282SOL     OW43095   9.126   5.105   1.659
14282SOL    HW143096   9.044   5.145   1.630
14282SOL    HW243097   9.190   5.176   1.655
14283SOL     OW43098   2.212   2.910   2.682
14283SOL    HW143099   2.167   2.827   2.661
14283SOL    HW243100   2.227   2.951   2.597
14284SOL     OW43101   3.262   4.327   1.534
14284SOL    HW143102   3.329   4.279   1.582
14284SOL    HW243103   3.254   4.280   1.451
14285SOL     OW43104  11.303  10.653   5.386
14285SOL    HW143105  11.305  10.623   5.477
14285SOL    HW243106  11.287  10.747   5.391
14286SOL     OW43107  15.190  10.544   6.555
14286SOL    HW143108  15.164  10.542   6.646
14286SOL    HW243109  15.256  10.475   6.547
14287SOL     OW43110   6.743  10.197   5.720
14287SOL    HW143111   6.670  10.204   5.782
14287SOL    HW243112   6.727  10.267   5.657
14288SOL     OW43113   9.346   0.867   0.270
14288SOL    HW143114   9.296   0.944   0.297
14288SOL    HW243115   9.289   0.793   0.290
14289SOL     OW43116   3.533   9.203   0.557
14289SOL    HW143117   3.600   9.184   0.491
14289SOL    HW243118   3.471   9.260   0.512
14290SOL     OW43119   1.075   8.107   0.136
14290SOL    HW143120   1.162   8.077   0.110
14290SOL    HW243121   1.064   8.076   0.226
14291SOL     OW43122  10.258   7.231   7.082
14291SOL    HW143123  10.316   7.269   7.015
14291SOL    HW243124  10.261   7.294   7.154
14292SOL     OW43125   9.260   1.648   0.306
14292SOL    HW143126   9.327   1.715   0.315
14292SOL    HW243127   9.282   1.602   0.226
14293SOL     OW43128   5.466   8.368   5.834
14293SOL    HW143129   5.520   8.444   5.858
14293SOL    HW243130   5.392   8.372   5.894
14294SOL     OW43131   5.499  10.553   4.957
14294SOL    HW143132   5.438  10.484   4.931
14294SOL    HW243133   5.449  10.634   4.949
14295SOL     OW43134   7.474  10.843   5.470
14295SOL    HW143135   7.423  10.796   5.536
14295SOL    HW243136   7.410  10.894   5.422
14296SOL     OW43137  10.617  13.565   6.396
14296SOL    HW143138  10.524  13.574   6.375
14296SOL    HW243139  10.661  13.622   6.333
14297SOL     OW43140   4.412   8.847   1.895
14297SOL    HW143141   4.368   8.932   1.904
14297SOL    HW243142   4.440   8.825   1.983
14298SOL     OW43143   3.943  11.067   1.738
14298SOL    HW143144   3.876  11.125   1.700
14298SOL    HW243145   3.894  11.006   1.793
14299SOL     OW43146  11.305  11.239   2.813
14299SOL    HW143147  11.350  11.233   2.897
14299SOL    HW243148  11.374  11.230   2.748
14300SOL     OW43149   9.463   5.600   2.709
14300SOL    HW143150   9.507   5.684   2.718
14300SOL    HW243151   9.437   5.596   2.617
14301SOL     OW43152   3.533   6.349   1.601
14301SOL    HW143153   3.611   6.360   1.548
14301SOL    HW243154   3.552   6.395   1.683
14302SOL     OW43155  10.076   6.367   0.999
14302SOL    HW143156  10.101   6.328   0.915
14302SOL    HW243157   9.987   6.401   0.984
14303SOL     OW43158   8.763   7.584   2.325
14303SOL    HW143159   8.678   7.549   2.354
14303SOL    HW243160   8.741   7.649   2.259
14304SOL     OW43161  12.501   6.578   6.517
14304SOL    HW143162  12.571   6.602   6.578
14304SOL    HW243163  12.546   6.534   6.445
14305SOL     OW43164   4.246  13.463   5.924
14305SOL    HW143165   4.325  13.516   5.911
14305SOL    HW243166  14.948  13.526   5.916
14306SOL     OW43167  11.683   4.859   3.709
14306SOL    HW143168  11.597   4.820   3.724
14306SOL    HW243169  11.686   4.936   3.765
14307SOL     OW43170   7.440   5.136   0.868
14307SOL    HW143171   7.472   5.131   0.957
14307SOL    HW243172   7.412   5.046   0.847
14308SOL     OW43173  14.757  14.499   6.025
14308SOL    HW143174  14.794  14.482   5.938
14308SOL    HW243175  14.776  14.592   6.041
14309SOL     OW43176  12.571   9.813   6.638
14309SOL    HW143177  12.652   9.799   6.687
14309SOL    HW243178  12.598   9.815   6.546
14310SOL     OW43179   7.280   4.347   5.212
14310SOL    HW143180   7.293   4.270   5.156
14310SOL    HW243181   7.194   4.381   5.188
14311SOL     OW43182  11.122   9.870   1.972
14311SOL    HW143183  11.139   9.960   1.943
14311SOL    HW243184  11.110   9.820   1.891
14312SOL     OW43185  10.048   5.357   5.525
14312SOL    HW143186  10.012   5.273   5.498
14312SOL    HW243187   9.977   5.398   5.575
14313SOL     OW43188   5.810   5.124   1.938
14313SOL    HW143189   5.788   5.150   2.028
14313SOL    HW243190   5.759   5.044   1.923
14314SOL     OW43191   7.840  13.145   4.856
14314SOL    HW143192   7.911  13.154   4.793
14314SOL    HW243193   7.879  13.099   4.930
14315SOL     OW43194  15.510  10.163   7.298
14315SOL    HW143195  15.473  10.250   7.315
14315SOL    HW243196  15.604  10.174   7.312
14316SOL     OW43197  14.191   5.484   5.103
14316SOL    HW143198  14.121   5.491   5.168
14316SOL    HW243199  14.246   5.560   5.119
14317SOL     OW43200  10.117  10.944   7.577
14317SOL    HW143201   4.719   5.617   0.032
14317SOL    HW243202  10.200  10.970   7.536
14318SOL     OW43203   5.761   2.912   3.059
14318SOL    HW143204   5.748   2.997   3.102
14318SOL    HW243205   5.722   2.924   2.972
14319SOL     OW43206  10.734   3.377   0.559
14319SOL    HW143207  10.786   3.457   0.551
14319SOL    HW243208  10.710   3.375   0.652
14320SOL     OW43209   4.127  12.263   3.229
14320SOL    HW143210   4.042  12.221   3.242
14320SOL    HW243211   4.107  12.357   3.228
14321SOL     OW43212   8.286  11.516   1.537
14321SOL    HW143213   8.312  11.436   1.581
14321SOL    HW243214   8.362  11.539   1.483
14322SOL     OW43215   9.740   3.181   0.346
14322SOL    HW143216   9.794   3.260   0.351
14322SOL    HW243217   9.802   3.109   0.358
14323SOL     OW43218  12.110   6.225   6.848
14323SOL    HW143219  12.022   6.238   6.812
14323SOL    HW243220  12.133   6.135   6.823
14324SOL     OW43221   8.937   4.866   6.144
14324SOL    HW143222   8.886   4.931   6.192
14324SOL    HW243223   8.927   4.786   6.195
14325SOL     OW43224   6.710   6.780   2.831
14325SOL    HW143225   6.777   6.774   2.899
14325SOL    HW243226   6.753   6.746   2.753
14326SOL     OW43227   0.942   3.562   0.656
14326SOL    HW143228   0.871   3.605   0.609
14326SOL    HW243229   1.018   3.617   0.641
14327SOL     OW43230   2.603   4.399   2.917
14327SOL    HW143231   2.610   4.467   2.850
14327SOL    HW243232   2.510   4.391   2.936
14328SOL     OW43233  13.287   9.230   4.530
14328SOL    HW143234  13.291   9.154   4.472
14328SOL    HW243235  13.206   9.218   4.580
14329SOL     OW43236   6.892   2.317   2.833
14329SOL    HW143237   6.958   2.373   2.874
14329SOL    HW243238   6.913   2.320   2.740
14330SOL     OW43239   4.924   6.913   2.839
14330SOL    HW143240   4.870   6.875   2.770
14330SOL    HW243241   5.013   6.908   2.804
14331SOL     OW43242  13.428   6.464   7.295
14331SOL    HW143243  13.415   6.538   7.355
14331SOL    HW243244  13.346   6.414   7.300
14332SOL     OW43245   7.128  11.571   2.237
14332SOL    HW143246   7.097  11.537   2.153
14332SOL    HW243247   7.144  11.664   2.221
14333SOL     OW43248   2.277   7.678   0.387
14333SOL    HW143249   2.303   7.757   0.434
14333SOL    HW243250   2.243   7.709   0.304
14334SOL     OW43251   7.152  14.264   5.057
14334SOL    HW143252   7.172  14.260   4.963
14334SOL    HW243253   7.098  14.343   5.066
14335SOL     OW43254   7.868   5.597   1.835
14335SOL    HW143255   7.786   5.624   1.876
14335SOL    HW243256   7.871   5.646   1.753
14336SOL     OW43257   7.329   7.307   6.591
14336SOL    HW143258   7.348   7.222   6.630
14336SOL    HW243259   7.291   7.287   6.506
14337SOL     OW43260   8.034   9.569   3.474
14337SOL    HW143261   8.122   9.530   3.470
14337SOL    HW243262   8.025   9.616   3.392
14338SOL     OW43263   9.069  10.737   5.326
14338SOL    HW143264   8.989  10.787   5.337
14338SOL    HW243265   9.127  10.793   5.274
14339SOL     OW43266   5.019  13.762   5.384
14339SOL    HW143267   5.003  13.711   5.463
14339SOL    HW243268   5.113  13.756   5.369
14340SOL     OW43269   5.450  14.563   6.329
14340SOL    HW143270   5.505  14.541   6.403
14340SOL    HW243271   5.511  14.574   6.256
14341SOL     OW43272   0.919   8.074   1.169
14341SOL    HW143273   0.929   8.105   1.079
14341SOL    HW243274   0.858   8.135   1.209
14342SOL     OW43275  11.583  13.878   6.651
14342SOL    HW143276  11.614  13.872   6.561
14342SOL    HW243277  11.639  13.945   6.690
14343SOL     OW43278   9.173   7.772   2.266
14343SOL    HW143279   9.146   7.708   2.200
14343SOL    HW243280   9.105   7.767   2.333
14344SOL     OW43281  10.979  12.956   3.521
14344SOL    HW143282  10.932  12.990   3.445
14344SOL    HW243283  10.918  12.893   3.560
14345SOL     OW43284  13.714   6.655   6.665
14345SOL    HW143285  13.792   6.707   6.643
14345SOL    HW243286  13.681   6.624   6.581
14346SOL     OW43287  10.157   3.285   2.083
14346SOL    HW143288  10.115   3.339   2.016
14346SOL    HW243289  10.134   3.327   2.166
14347SOL     OW43290   3.995  13.357   5.557
14347SOL    HW143291   4.045  13.310   5.624
14347SOL    HW243292   4.057  13.420   5.521
14348SOL     OW43293   9.773  13.579   6.671
14348SOL    HW143294   9.735  13.502   6.628
14348SOL    HW243295   9.857  13.591   6.628
14349SOL     OW43296   1.602   5.972   1.796
14349SOL    HW143297   1.587   6.065   1.813
14349SOL    HW243298   1.610   5.966   1.701
14350SOL     OW43299   5.691   9.393   2.395
14350SOL    HW143300   5.621   9.353   2.446
14350SOL    HW243301   5.753   9.322   2.380
14351SOL     OW43302  11.027   7.369   1.657
14351SOL    HW143303  11.105   7.356   1.603
14351SOL    HW243304  10.984   7.284   1.660
14352SOL     OW43305   5.202   3.039   2.134
14352SOL    HW143306   5.201   2.955   2.089
14352SOL    HW243307   5.125   3.037   2.191
14353SOL     OW43308  14.655   5.445   6.668
14353SOL    HW143309  14.649   5.394   6.588
14353SOL    HW243310  14.720   5.399   6.722
14354SOL     OW43311   6.914   2.113   0.016
14354SOL    HW143312   6.990   2.171   0.024
14354SOL    HW243313  12.256   7.530   7.556
14355SOL     OW43314   5.067   4.401   0.320
14355SOL    HW143315   5.154   4.438   0.338
14355SOL    HW243316   5.034   4.454   0.247
14356SOL     OW43317  10.899   8.440   7.500
14356SOL    HW143318  10.876   8.347   7.496
14356SOL    HW243319  10.990   8.443   7.469
14357SOL     OW43320   5.009   7.202   2.796
14357SOL    HW143321   5.012   7.189   2.701
14357SOL    HW243322   5.015   7.114   2.833
14358SOL     OW43323  11.143   3.684   0.964
14358SOL    HW143324  11.238   3.675   0.957
14358SOL    HW243325  11.120   3.749   0.898
14359SOL     OW43326   8.621   8.281   1.808
14359SOL    HW143327   8.594   8.212   1.868
14359SOL    HW243328   8.576   8.261   1.726
14360SOL     OW43329  11.967  11.183   3.884
14360SOL    HW143330  11.950  11.271   3.919
14360SOL    HW243331  12.062  11.175   3.888
14361SOL     OW43332   6.223   3.966   2.604
14361SOL    HW143333   6.204   3.957   2.697
14361SOL    HW243334   6.207   3.878   2.568
14362SOL     OW43335   7.969  11.958   6.458
14362SOL    HW143336   8.052  11.951   6.505
14362SOL    HW243337   7.934  12.044   6.482
14363SOL     OW43338   7.424  12.356   5.940
14363SOL    HW143339   7.337  12.394   5.930
14363SOL    HW243340   7.454  12.386   6.025
14364SOL     OW43341  11.865  12.531   5.478
14364SOL    HW143342  11.838  12.466   5.544
14364SOL    HW243343  11.798  12.526   5.410
14365SOL     OW43344   3.595   9.092   0.314
14365SOL    HW143345   3.559   9.019   0.262
14365SOL    HW243346   3.645   9.143   0.250
14366SOL     OW43347   5.304   7.575   7.202
14366SOL    HW143348   5.315   7.661   7.244
14366SOL    HW243349   5.267   7.596   7.115
14367SOL     OW43350  12.043   5.031   5.964
14367SOL    HW143351  12.000   4.963   5.912
14367SOL    HW243352  12.128   4.994   5.988
14368SOL     OW43353   4.565   8.745   2.838
14368SOL    HW143354   4.562   8.655   2.871
14368SOL    HW243355   4.598   8.797   2.912
14369SOL     OW43356   7.926   2.973   0.516
14369SOL    HW143357   7.835   2.993   0.537
14369SOL    HW243358   7.976   3.005   0.591
14370SOL     OW43359  10.736  10.165   2.728
14370SOL    HW143360  10.688  10.185   2.648
14370SOL    HW243361  10.718  10.072   2.744
14371SOL     OW43362  11.287   9.557   2.977
14371SOL    HW143363  11.360   9.585   2.922
14371SOL    HW243364  11.251   9.481   2.932
14372SOL     OW43365  10.736   6.818   6.708
14372SOL    HW143366  10.739   6.912   6.726
14372SOL    HW243367  10.826   6.788   6.722
14373SOL     OW43368   5.643  12.021   6.462
14373SOL    HW143369   5.549  12.043   6.463
14373SOL    HW243370   5.685  12.099   6.498
14374SOL     OW43371  12.669   8.726   3.030
14374SOL    HW143372  12.756   8.694   3.003
14374SOL    HW243373  12.681   8.820   3.040
14375SOL     OW43374   6.618  12.850   5.496
14375SOL    HW143375   6.671  12.775   5.523
14375SOL    HW243376   6.553  12.814   5.436
14376SOL     OW43377   8.069   8.318   5.337
14376SOL    HW143378   8.012   8.279   5.403
14376SOL    HW243379   8.121   8.245   5.304
14377SOL     OW43380  11.180  11.674   6.939
14377SOL    HW143381  11.149  11.593   6.900
14377SOL    HW243382  11.193  11.733   6.864
14378SOL     OW43383   6.594   8.677   5.628
14378SOL    HW143384   6.639   8.691   5.711
14378SOL    HW243385   6.592   8.581   5.618
14379SOL     OW43386   9.792   3.956   5.422
14379SOL    HW143387   9.779   3.868   5.457
14379SOL    HW243388   9.709   3.977   5.378
14380SOL     OW43389   4.583   6.549   0.729
14380SOL    HW143390   4.521   6.492   0.683
14380SOL    HW243391   4.610   6.499   0.806
14381SOL     OW43392   6.513   1.715   1.311
14381SOL    HW143393   6.441   1.706   1.373
14381SOL    HW243394   6.502   1.641   1.250
14382SOL     OW43395   5.842   6.970   2.679
14382SOL    HW143396   5.895   7.037   2.635
14382SOL    HW243397   5.867   6.888   2.637
14383SOL     OW43398   9.580   5.109   1.721
14383SOL    HW143399   9.553   5.178   1.782
14383SOL    HW243400   9.664   5.140   1.687
14384SOL     OW43401   7.687   5.130   0.568
14384SOL    HW143402   7.619   5.189   0.601
14384SOL    HW243403   7.668   5.121   0.475
14385SOL     OW43404  10.469  11.855   2.313
14385SOL    HW143405  10.536  11.860   2.244
14385SOL    HW243406  10.500  11.784   2.370
14386SOL     OW43407   6.865  12.094   3.899
14386SOL    HW143408   6.811  12.166   3.931
14386SOL    HW243409   6.913  12.065   3.977
14387SOL     OW43410   9.991   8.522   0.992
14387SOL    HW143411   9.961   8.553   0.907
14387SOL    HW243412  10.042   8.443   0.973
14388SOL     OW43413  11.765  12.115   6.774
14388SOL    HW143414  11.697  12.085   6.714
14388SOL    HW243415  11.736  12.202   6.801
14389SOL     OW43416   8.035   1.185   1.284
14389SOL    HW143417   7.953   1.223   1.254
14389SOL    HW243418   8.100   1.255   1.272
14390SOL     OW43419  12.407   4.753   6.395
14390SOL    HW143420  12.362   4.676   6.361
14390SOL    HW243421  12.482   4.765   6.336
14391SOL     OW43422   4.410   9.514   3.176
14391SOL    HW143423   4.443   9.424   3.169
14391SOL    HW243424   4.456   9.550   3.252
14392SOL     OW43425   9.542   1.355   0.098
14392SOL    HW143426   9.502   1.359   0.012
14392SOL    HW243427   9.621   1.301   0.087
14393SOL     OW43428   5.101   8.675   2.831
14393SOL    HW143429   5.110   8.721   2.915
14393SOL    HW243430   5.122   8.741   2.765
14394SOL     OW43431   6.730   5.615   1.357
14394SOL    HW143432   6.762   5.700   1.386
14394SOL    HW243433   6.672   5.586   1.427
14395SOL     OW43434  11.013   8.092   3.209
14395SOL    HW143435  10.977   8.167   3.161
14395SOL    HW243436  10.945   8.071   3.273
14396SOL     OW43437   7.269   4.701   1.328
14396SOL    HW143438   7.321   4.763   1.278
14396SOL    HW243439   7.328   4.671   1.397
14397SOL     OW43440   4.235   6.136   4.972
14397SOL    HW143441   4.272   6.222   4.989
14397SOL    HW243442   4.196   6.143   4.885
14398SOL     OW43443  11.606  12.738   6.825
14398SOL    HW143444  11.637  12.810   6.770
14398SOL    HW243445  11.511  12.737   6.811
14399SOL     OW43446   9.073   9.548   4.226
14399SOL    HW143447   9.063   9.484   4.297
14399SOL    HW243448   9.025   9.625   4.256
14400SOL     OW43449  12.380   2.487   2.847
14400SOL    HW143450  12.321   2.483   2.771
14400SOL    HW243451  12.446   2.420   2.829
14401SOL     OW43452   8.851   8.563   3.787
14401SOL    HW143453   8.926   8.563   3.846
14401SOL    HW243454   8.879   8.617   3.712
14402SOL     OW43455  13.956  11.307   5.216
14402SOL    HW143456  14.029  11.369   5.228
14402SOL    HW243457  13.909  11.339   5.139
14403SOL     OW43458   7.640  13.499   5.414
14403SOL    HW143459   7.582  13.423   5.404
14403SOL    HW243460   7.655  13.530   5.325
14404SOL     OW43461   8.667  14.396   7.484
14404SOL    HW143462   8.720  14.466   7.522
14404SOL    HW243463   8.661  14.331   7.554
14405SOL     OW43464   6.217  10.145   5.107
14405SOL    HW143465   6.125  10.136   5.133
14405SOL    HW243466   6.221  10.228   5.061
14406SOL     OW43467   7.393   2.016   2.091
14406SOL    HW143468   7.309   1.971   2.090
14406SOL    HW243469   7.412   2.031   2.183
14407SOL     OW43470  10.844   5.559   2.678
14407SOL    HW143471  10.799   5.526   2.600
14407SOL    HW243472  10.864   5.651   2.656
14408SOL     OW43473   9.012   6.680   0.622
14408SOL    HW143474   9.101   6.657   0.597
14408SOL    HW243475   9.010   6.669   0.717
14409SOL     OW43476   7.260  13.484   4.474
14409SOL    HW143477   7.259  13.388   4.472
14409SOL    HW243478   7.175  13.508   4.511
14410SOL     OW43479   4.786   6.320   2.621
14410SOL    HW143480   4.875   6.294   2.642
14410SOL    HW243481   4.785   6.415   2.630
14411SOL     OW43482  11.856  11.863   3.979
14411SOL    HW143483  11.789  11.931   3.990
14411SOL    HW243484  11.821  11.788   4.028
14412SOL     OW43485  11.956  12.725   7.250
14412SOL    HW143486  11.876  12.721   7.303
14412SOL    HW243487  12.010  12.653   7.283
14413SOL     OW43488   7.435   9.891   6.336
14413SOL    HW143489   7.377   9.820   6.307
14413SOL    HW243490   7.442   9.879   6.430
14414SOL     OW43491   9.473  14.117   5.353
14414SOL    HW143492   9.531  14.059   5.303
14414SOL    HW243493   9.475  14.199   5.305
14415SOL     OW43494   7.198   4.231   5.907
14415SOL    HW143495   7.140   4.303   5.932
14415SOL    HW243496   7.152   4.188   5.835
14416SOL     OW43497   6.028   8.051   2.552
14416SOL    HW143498   5.984   8.055   2.637
14416SOL    HW243499   5.967   8.005   2.495
14417SOL     OW43500   9.310   2.664   1.090
14417SOL    HW143501   9.381   2.714   1.050
14417SOL    HW243502   9.252   2.642   1.017
14418SOL     OW43503   7.513   5.122   7.232
14418SOL    HW143504   7.557   5.127   7.147
14418SOL    HW243505   7.554   5.191   7.284
14419SOL     OW43506  10.413   5.402   5.486
14419SOL    HW143507  10.430   5.353   5.566
14419SOL    HW243508  10.441   5.344   5.416
14420SOL     OW43509  10.371   1.241   0.127
14420SOL    HW143510  10.332   1.155   0.111
14420SOL    HW243511  10.308   1.303   0.089
14421SOL     OW43512   6.600   7.407   5.116
14421SOL    HW143513   6.648   7.351   5.177
14421SOL    HW243514   6.508   7.389   5.134
14422SOL     OW43515  14.833  14.968   6.259
14422SOL    HW143516  14.805  14.938   6.345
14422SOL    HW243517  14.928  14.974   6.264
14423SOL     OW43518   3.313  10.722   2.535
14423SOL    HW143519   3.314  10.765   2.450
14423SOL    HW243520   3.220  10.713   2.556
14424SOL     OW43521   4.948   6.779   5.535
14424SOL    HW143522   5.025   6.725   5.517
14424SOL    HW243523   4.913   6.801   5.449
14425SOL     OW43524   4.792   4.991   3.019
14425SOL    HW143525   4.865   5.018   2.964
14425SOL    HW243526   4.833   4.947   3.093
14426SOL     OW43527  14.962   9.375   6.717
14426SOL    HW143528  14.900   9.345   6.783
14426SOL    HW243529  14.918   9.358   6.634
14427SOL     OW43530   8.381  11.637   2.503
14427SOL    HW143531   8.329  11.678   2.572
14427SOL    HW243532   8.321  11.578   2.459
14428SOL     OW43533  11.875   8.783   1.912
14428SOL    HW143534  11.823   8.801   1.834
14428SOL    HW243535  11.843   8.845   1.977
14429SOL     OW43536  15.424  11.064   7.117
14429SOL    HW143537  15.439  10.985   7.169
14429SOL    HW243538  15.494  11.064   7.052
14430SOL     OW43539  11.975   6.492   3.777
14430SOL    HW143540  12.006   6.571   3.733
14430SOL    HW243541  12.053   6.456   3.819
14431SOL     OW43542  10.245   4.731   4.307
14431SOL    HW143543  10.261   4.676   4.230
14431SOL    HW243544  10.174   4.687   4.354
14432SOL     OW43545   9.731  12.551   4.596
14432SOL    HW143546   9.794  12.544   4.524
14432SOL    HW243547   9.785  12.546   4.675
14433SOL     OW43548   9.678   6.725   5.796
14433SOL    HW143549   9.687   6.775   5.877
14433SOL    HW243550   9.584   6.726   5.777
14434SOL     OW43551  12.500   8.188   4.357
14434SOL    HW143552  12.511   8.258   4.421
14434SOL    HW243553  12.561   8.119   4.385
14435SOL     OW43554   4.474   3.454   4.843
14435SOL    HW143555   4.495  14.239   4.936
14435SOL    HW243556   4.382   3.480   4.836
14436SOL     OW43557   3.483   5.426   1.110
14436SOL    HW143558   3.415   5.373   1.153
14436SOL    HW243559   3.436   5.504   1.081
14437SOL     OW43560   6.751   9.964   3.471
14437SOL    HW143561   6.693   9.925   3.406
14437SOL    HW243562   6.815   9.896   3.490
14438SOL     OW43563   4.145   5.434   4.951
14438SOL    HW143564   4.058   5.399   4.930
14438SOL    HW243565   4.182   5.372   5.013
14439SOL     OW43566   7.954   5.586   1.222
14439SOL    HW143567   8.009   5.620   1.293
14439SOL    HW243568   7.910   5.663   1.187
14440SOL     OW43569  10.886   8.699   7.389
14440SOL    HW143570  10.801   8.736   7.411
14440SOL    HW243571  10.891   8.618   7.440
14441SOL     OW43572   4.319   2.926   1.376
14441SOL    HW143573   4.269   2.905   1.298
14441SOL    HW243574   4.266   2.893   1.449
14442SOL     OW43575  10.041  12.485   4.111
14442SOL    HW143576  10.089  12.493   4.029
14442SOL    HW243577  10.002  12.397   4.107
14443SOL     OW43578   5.126   5.670   2.653
14443SOL    HW143579   5.048   5.679   2.600
14443SOL    HW243580   5.094   5.639   2.738
14444SOL     OW43581   7.984   8.544   5.763
14444SOL    HW143582   7.957   8.619   5.709
14444SOL    HW243583   8.047   8.497   5.708
14445SOL     OW43584   2.815   3.672   0.965
14445SOL    HW143585   2.747   3.735   0.987
14445SOL    HW243586   2.897   3.720   0.977
14446SOL     OW43587  12.407   7.930   6.894
14446SOL    HW143588  12.416   8.008   6.839
14446SOL    HW243589  12.442   7.858   6.840
14447SOL     OW43590   4.625   2.928   2.776
14447SOL    HW143591   4.601   2.911   2.867
14447SOL    HW243592   4.552   2.895   2.725
14448SOL     OW43593   4.979  11.516   5.624
14448SOL    HW143594   5.001  11.458   5.697
14448SOL    HW243595   4.912  11.469   5.576
14449SOL     OW43596   3.998  10.205   0.777
14449SOL    HW143597   3.928  10.269   0.762
14449SOL    HW243598   4.074  10.258   0.803
14450SOL     OW43599   2.859  10.673   0.443
14450SOL    HW143600   2.878  10.621   0.365
14450SOL    HW243601   2.889  10.618   0.516
14451SOL     OW43602   5.817   5.455   2.685
14451SOL    HW143603   5.859   5.541   2.692
14451SOL    HW243604   5.754   5.464   2.614
14452SOL     OW43605  12.205   4.802   5.734
14452SOL    HW143606  12.238   4.805   5.823
14452SOL    HW243607  12.110   4.807   5.743
14453SOL     OW43608  11.933   9.464   4.041
14453SOL    HW143609  11.877   9.534   4.073
14453SOL    HW243610  12.001   9.508   3.990
14454SOL     OW43611   6.127   7.809   2.448
14454SOL    HW143612   6.041   7.792   2.410
14454SOL    HW243613   6.122   7.775   2.537
14455SOL     OW43614   4.662   5.857   5.750
14455SOL    HW143615   4.755   5.844   5.766
14455SOL    HW243616   4.657   5.943   5.707
14456SOL     OW43617   9.870  13.015   5.196
14456SOL    HW143618   9.903  13.020   5.286
14456SOL    HW243619   9.850  12.922   5.183
14457SOL     OW43620  12.519  11.772   6.261
14457SOL    HW143621  12.501  11.678   6.254
14457SOL    HW243622  12.600  11.777   6.311
14458SOL     OW43623   7.038   3.259   3.589
14458SOL    HW143624   7.105   3.279   3.655
14458SOL    HW243625   7.080   3.199   3.529
14459SOL     OW43626   3.986   8.487   1.764
14459SOL    HW143627   4.002   8.404   1.718
14459SOL    HW243628   3.959   8.460   1.852
14460SOL     OW43629   9.456   1.633   1.606
14460SOL    HW143630   9.375   1.621   1.656
14460SOL    HW243631   9.478   1.725   1.618
14461SOL     OW43632   6.208   6.635   6.656
14461SOL    HW143633   6.164   6.591   6.583
14461SOL    HW243634   6.192   6.728   6.641
14462SOL     OW43635   7.487   9.746   3.517
14462SOL    HW143636   7.442   9.792   3.588
14462SOL    HW243637   7.575   9.782   3.517
14463SOL     OW43638  11.664   4.591   4.824
14463SOL    HW143639  11.700   4.673   4.856
14463SOL    HW243640  11.695   4.584   4.733
14464SOL     OW43641   5.879   8.477   7.039
14464SOL    HW143642   5.795   8.470   6.993
14464SOL    HW243643   5.883   8.569   7.067
14465SOL     OW43644   6.907  11.685   4.284
14465SOL    HW143645   6.963  11.760   4.304
14465SOL    HW243646   6.825  11.724   4.253
14466SOL     OW43647  10.876   7.601   1.945
14466SOL    HW143648  10.832   7.632   1.866
14466SOL    HW243649  10.891   7.680   1.997
14467SOL     OW43650   5.203   6.115   7.310
14467SOL    HW143651   5.260   6.109   7.387
14467SOL    HW243652   5.253   6.167   7.247
14468SOL     OW43653   7.366   5.260   1.747
14468SOL    HW143654   7.338   5.302   1.829
14468SOL    HW243655   7.368   5.166   1.767
14469SOL     OW43656   3.181  11.733   4.002
14469SOL    HW143657   3.137  11.814   3.976
14469SOL    HW243658   3.210  11.694   3.919
14470SOL     OW43659   7.759   9.385   3.682
14470SOL    HW143660   7.719   9.302   3.655
14470SOL    HW243661   7.770   9.434   3.600
14471SOL     OW43662   9.822   9.860   2.691
14471SOL    HW143663   9.855   9.918   2.623
14471SOL    HW243664   9.726   9.868   2.685
14472SOL     OW43665   7.587   9.062   3.849
14472SOL    HW143666   7.652   9.119   3.808
14472SOL    HW243667   7.551   9.011   3.776
14473SOL     OW43668  13.474   9.517   4.183
14473SOL    HW143669  13.465   9.487   4.274
14473SOL    HW243670  13.384   9.526   4.152
14474SOL     OW43671   8.291  11.213   4.455
14474SOL    HW143672   8.240  11.208   4.536
14474SOL    HW243673   8.372  11.257   4.480
14475SOL     OW43674   1.307   6.069   1.612
14475SOL    HW143675   1.353   6.132   1.668
14475SOL    HW243676   1.366   6.054   1.538
14476SOL     OW43677  12.039  15.197   7.105
14476SOL    HW143678  12.018  15.175   7.014
14476SOL    HW243679  12.060  15.114   7.146
14477SOL     OW43680   6.900   2.295   1.389
14477SOL    HW143681   6.968   2.362   1.383
14477SOL    HW243682   6.822   2.342   1.416
14478SOL     OW43683   5.739   3.939   2.225
14478SOL    HW143684   5.745   4.018   2.172
14478SOL    HW243685   5.829   3.909   2.234
14479SOL     OW43686  10.915   8.855   2.576
14479SOL    HW143687  10.892   8.762   2.575
14479SOL    HW243688  11.010   8.856   2.590
14480SOL     OW43689   4.381   8.265   4.606
14480SOL    HW143690   4.371   8.360   4.611
14480SOL    HW243691   4.444   8.243   4.674
14481SOL     OW43692   7.489   6.540   4.820
14481SOL    HW143693   7.459   6.468   4.876
14481SOL    HW243694   7.442   6.527   4.737
14482SOL     OW43695   8.241   8.496   4.922
14482SOL    HW143696   8.154   8.530   4.944
14482SOL    HW243697   8.290   8.572   4.894
14483SOL     OW43698   4.692   4.623   1.770
14483SOL    HW143699   4.774   4.657   1.735
14483SOL    HW243700   4.644   4.700   1.799
14484SOL     OW43701   6.666   8.822   6.187
14484SOL    HW143702   6.737   8.769   6.225
14484SOL    HW243703   6.588   8.768   6.195
14485SOL     OW43704  14.152  12.121   6.796
14485SOL    HW143705  14.119  12.205   6.829
14485SOL    HW243706  14.227  12.145   6.741
14486SOL     OW43707   7.125   1.039   0.806
14486SOL    HW143708   7.124   0.947   0.833
14486SOL    HW243709   7.210   1.051   0.765
14487SOL     OW43710   4.412   7.104   1.856
14487SOL    HW143711   4.494   7.062   1.883
14487SOL    HW243712   4.429   7.134   1.767
14488SOL     OW43713   3.444  10.873   3.623
14488SOL    HW143714   3.472  10.963   3.609
14488SOL    HW243715   3.352  10.881   3.649
14489SOL     OW43716  11.550   7.304   1.252
14489SOL    HW143717  11.572   7.384   1.204
14489SOL    HW243718  11.589   7.234   1.201
14490SOL     OW43719   9.878   1.866   2.631
14490SOL    HW143720   9.797   1.894   2.586
14490SOL    HW243721   9.881   1.922   2.709
14491SOL     OW43722   6.982   7.099   5.768
14491SOL    HW143723   7.004   7.019   5.815
14491SOL    HW243724   6.893   7.119   5.795
14492SOL     OW43725   9.802  10.523   5.197
14492SOL    HW143726   9.828  10.540   5.288
14492SOL    HW243727   9.838  10.437   5.177
14493SOL     OW43728   8.463   2.595   0.369
14493SOL    HW143729   8.527   2.667   0.367
14493SOL    HW243730   8.381   2.637   0.392
14494SOL     OW43731   8.519   4.650   3.705
14494SOL    HW143732   8.524   4.742   3.677
14494SOL    HW243733   8.493   4.656   3.797
14495SOL     OW43734  11.097   2.920   0.699
14495SOL    HW143735  11.143   2.859   0.641
14495SOL    HW243736  11.035   2.864   0.748
14496SOL     OW43737  11.441   9.346   1.311
14496SOL    HW143738  11.364   9.359   1.256
14496SOL    HW243739  11.473   9.434   1.329
14497SOL     OW43740  12.341   8.796   6.973
14497SOL    HW143741  12.257   8.803   6.929
14497SOL    HW243742  12.395   8.865   6.934
14498SOL     OW43743   5.287   9.102   5.072
14498SOL    HW143744   5.364   9.047   5.084
14498SOL    HW243745   5.293   9.166   5.143
14499SOL     OW43746  13.131   4.758   5.943
14499SOL    HW143747  13.187   4.815   5.996
14499SOL    HW243748  13.188   4.687   5.915
14500SOL     OW43749   5.638   8.856   1.530
14500SOL    HW143750   5.652   8.939   1.484
14500SOL    HW243751   5.545   8.856   1.552
14501SOL     OW43752   0.213   6.619   0.286
14501SOL    HW143753  10.917   6.679   0.262
14501SOL    HW243754   0.262   6.606   0.204
14502SOL     OW43755   9.665   1.311   0.673
14502SOL    HW143756   9.657   1.269   0.759
14502SOL    HW243757   9.576   1.339   0.652
14503SOL     OW43758   7.549   2.344   3.038
14503SOL    HW143759   7.559   2.280   3.109
14503SOL    HW243760   7.622   2.404   3.051
14504SOL     OW43761  10.603   2.414   2.541
14504SOL    HW143762  10.699   2.412   2.548
14504SOL    HW243763  10.584   2.363   2.463
14505SOL     OW43764   8.101   4.130   3.963
14505SOL    HW143765   8.123   4.062   4.026
14505SOL    HW243766   8.162   4.116   3.890
14506SOL     OW43767   9.397  12.149   4.925
14506SOL    HW143768   9.331  12.152   4.856
14506SOL    HW243769   9.429  12.059   4.924
14507SOL     OW43770   9.081   8.462   1.105
14507SOL    HW143771   9.087   8.556   1.088
14507SOL    HW243772   9.028   8.428   1.033
14508SOL     OW43773  10.038   3.318   0.225
14508SOL    HW143774   9.953   3.273   0.228
14508SOL    HW243775  10.016   3.411   0.225
14509SOL     OW43776   6.559  13.830   4.656
14509SOL    HW143777   6.637  13.826   4.600
14509SOL    HW243778   6.549  13.741   4.690
14510SOL     OW43779   2.659  10.984   3.712
14510SOL    HW143780  13.356  11.019   3.669
14510SOL    HW243781   2.732  11.009   3.655
14511SOL     OW43782   9.009   7.595   5.507
14511SOL    HW143783   8.931   7.616   5.558
14511SOL    HW243784   8.979   7.536   5.439
14512SOL     OW43785   4.757   9.394   4.508
14512SOL    HW143786   4.810   9.417   4.584
14512SOL    HW243787   4.706   9.473   4.490
14513SOL     OW43788  14.181   6.183   5.688
14513SOL    HW143789  14.171   6.178   5.783
14513SOL    HW243790  14.103   6.140   5.654
14514SOL     OW43791   9.429   7.434   5.842
14514SOL    HW143792   9.525   7.436   5.849
14514SOL    HW243793   9.405   7.347   5.873
14515SOL     OW43794   9.292   4.227   5.755
14515SOL    HW143795   9.241   4.257   5.680
14515SOL    HW243796   9.369   4.185   5.717
14516SOL     OW43797  12.168   5.063   6.620
14516SOL    HW143798  12.091   5.027   6.576
14516SOL    HW243799  12.188   5.000   6.689
14517SOL     OW43800   4.958   4.497   5.950
14517SOL    HW143801   4.988   4.442   6.022
14517SOL    HW243802   4.908   4.567   5.993
14518SOL     OW43803   9.820   8.366   2.792
14518SOL    HW143804   9.812   8.273   2.770
14518SOL    HW243805   9.746   8.407   2.748
14519SOL     OW43806  10.306  11.657   7.080
14519SOL    HW143807  10.229  11.713   7.087
14519SOL    HW243808  10.311  11.634   6.987
14520SOL     OW43809   8.238   5.496   1.904
14520SOL    HW143810   8.167   5.456   1.953
14520SOL    HW243811   8.255   5.579   1.947
14521SOL     OW43812   3.847  10.465   4.011
14521SOL    HW143813   3.897  10.477   4.092
14521SOL    HW243814   3.765  10.425   4.040
14522SOL     OW43815   7.310   5.120   1.137
14522SOL    HW143816   7.397   5.136   1.173
14522SOL    HW243817   7.250   5.162   1.199
14523SOL     OW43818   3.845  12.808   5.205
14523SOL    HW143819   3.765  12.837   5.161
14523SOL    HW243820   3.844  12.852   5.290
14524SOL     OW43821  12.257  11.987   3.648
14524SOL    HW143822  12.168  11.991   3.684
14524SOL    HW243823  12.304  12.058   3.693
14525SOL     OW43824  11.866   8.950   5.768
14525SOL    HW143825  11.828   8.993   5.691
14525SOL    HW243826  11.821   8.990   5.842
14526SOL     OW43827   7.619   6.550   7.572
14526SOL    HW143828   7.543   6.494   7.588
14526SOL    HW243829   7.587   6.618   7.513
14527SOL     OW43830   5.772  11.684   3.315
14527SOL    HW143831   5.788  11.657   3.405
14527SOL    HW243832   5.677  11.693   3.308
14528SOL     OW43833  10.142   3.347   3.681
14528SOL    HW143834  10.128   3.259   3.645
14528SOL    HW243835  10.118   3.339   3.774
14529SOL     OW43836  10.472   6.085   3.422
14529SOL    HW143837  10.475   6.164   3.368
14529SOL    HW243838  10.533   6.102   3.494
14530SOL     OW43839  12.442  12.535   6.761
14530SOL    HW143840  12.382  12.606   6.784
14530SOL    HW243841  12.394  12.455   6.785
14531SOL     OW43842   7.442  13.058   5.876
14531SOL    HW143843   7.529  13.042   5.913
14531SOL    HW243844   7.427  12.983   5.817
14532SOL     OW43845   6.788   5.905   6.734
14532SOL    HW143846   6.809   5.854   6.812
14532SOL    HW243847   6.790   5.996   6.764
14533SOL     OW43848   3.430   2.777   3.654
14533SOL    HW143849   3.474   2.723   3.587
14533SOL    HW243850   3.337   2.763   3.638
14534SOL     OW43851   3.379   4.465   2.347
14534SOL    HW143852   3.397   4.372   2.351
14534SOL    HW243853   3.289   4.471   2.315
14535SOL     OW43854  14.071   6.728   7.262
14535SOL    HW143855  14.066   6.707   7.169
14535SOL    HW243856  14.013   6.803   7.273
14536SOL     OW43857   9.384  12.972   3.810
14536SOL    HW143858   9.413  13.062   3.815
14536SOL    HW243859   9.453  12.921   3.852
14537SOL     OW43860   7.070   3.388   1.890
14537SOL    HW143861   7.066   3.444   1.967
14537SOL    HW243862   7.133   3.319   1.913
14538SOL     OW43863   4.906   9.664   0.032
14538SOL    HW143864  10.271  14.969   7.606
14538SOL    HW243865   4.822   9.701   0.058
14539SOL     OW43866   6.774  12.804   5.176
14539SOL    HW143867   6.765  12.889   5.133
14539SOL    HW243868   6.734  12.815   5.262
14540SOL     OW43869   4.268   8.582   4.982
14540SOL    HW143870   4.201   8.635   5.024
14540SOL    HW243871   4.344   8.589   5.039
14541SOL     OW43872   8.935   3.175   1.850
14541SOL    HW143873   8.997   3.152   1.781
14541SOL    HW243874   8.864   3.111   1.840
14542SOL     OW43875   9.934  11.251   1.169
14542SOL    HW143876   9.928  11.341   1.202
14542SOL    HW243877  10.023  11.223   1.193
14543SOL     OW43878  13.686   4.400   5.852
14543SOL    HW143879  13.701   4.379   5.944
14543SOL    HW243880  13.591   4.396   5.842
14544SOL     OW43881  10.888  12.459   2.997
14544SOL    HW143882  10.975  12.420   2.987
14544SOL    HW243883  10.880  12.519   2.924
14545SOL     OW43884  13.240  13.449   5.361
14545SOL    HW143885  13.220  13.542   5.352
14545SOL    HW243886  13.278  13.441   5.449
14546SOL     OW43887   1.872   4.202   1.182
14546SOL    HW143888   1.938   4.222   1.116
14546SOL    HW243889   1.828   4.124   1.150
14547SOL     OW43890   7.297  13.128   6.961
14547SOL    HW143891   7.343  13.189   7.019
14547SOL    HW243892   7.367  13.085   6.912
14548SOL     OW43893  10.869   3.804   1.023
14548SOL    HW143894  10.859   3.887   0.976
14548SOL    HW243895  10.957   3.808   1.060
14549SOL     OW43896   1.066   3.906   0.277
14549SOL    HW143897   1.046   3.813   0.267
14549SOL    HW243898   1.160   3.908   0.295
14550SOL     OW43899   9.471   7.018   0.802
14550SOL    HW143900   9.398   7.078   0.815
14550SOL    HW243901   9.449   6.942   0.856
14551SOL     OW43902  11.097   6.215   6.981
14551SOL    HW143903  11.100   6.301   6.938
14551SOL    HW243904  11.020   6.173   6.943
14552SOL     OW43905  10.413   7.392   7.494
14552SOL    HW143906  10.342   7.452   7.519
14552SOL    HW243907  10.492   7.445   7.500
14553SOL     OW43908   4.025  10.515   1.428
14553SOL    HW143909   4.021  10.538   1.336
14553SOL    HW243910   3.936  10.526   1.460
14554SOL     OW43911  10.098   6.010   0.170
14554SOL    HW143912  10.095   5.922   0.206
14554SOL    HW243913  10.045   6.062   0.231
14555SOL     OW43914   9.873   3.727   1.231
14555SOL    HW143915   9.905   3.767   1.150
14555SOL    HW243916   9.916   3.776   1.301
14556SOL     OW43917   7.474   3.404   0.942
14556SOL    HW143918   7.387   3.429   0.912
14556SOL    HW243919   7.493   3.322   0.896
14557SOL     OW43920  10.357   4.003   2.759
14557SOL    HW143921  10.393   3.951   2.831
14557SOL    HW243922  10.284   4.051   2.799
14558SOL     OW43923   6.351   6.797   5.069
14558SOL    HW143924   6.378   6.859   5.001
14558SOL    HW243925   6.406   6.720   5.056
14559SOL     OW43926   3.670   6.209   1.220
14559SOL    HW143927   3.719   6.259   1.284
14559SOL    HW243928   3.634   6.135   1.269
14560SOL     OW43929   5.906   7.871   6.212
14560SOL    HW143930   5.902   7.965   6.195
14560SOL    HW243931   5.847   7.858   6.287
14561SOL     OW43932   6.106   5.312   2.802
14561SOL    HW143933   6.110   5.350   2.889
14561SOL    HW243934   6.142   5.224   2.813
14562SOL     OW43935  10.009  13.223   3.561
14562SOL    HW143936   9.995  13.129   3.553
14562SOL    HW243937  10.097  13.232   3.598
14563SOL     OW43938   7.611   8.487   0.761
14563SOL    HW143939   7.606   8.539   0.681
14563SOL    HW243940   7.682   8.425   0.746
14564SOL     OW43941   3.449   7.967   0.280
14564SOL    HW143942   3.491   7.908   0.342
14564SOL    HW243943   3.397   8.026   0.334
14565SOL     OW43944   6.571   6.272   2.128
14565SOL    HW143945   6.477   6.279   2.147
14565SOL    HW243946   6.586   6.178   2.118
14566SOL     OW43947  11.220  11.701   6.168
14566SOL    HW143948  11.303  11.729   6.129
14566SOL    HW243949  11.182  11.781   6.204
14567SOL     OW43950  10.873   3.539   4.445
14567SOL    HW143951  10.886   3.524   4.539
14567SOL    HW243952  10.813   3.469   4.418
14568SOL     OW43953   9.105  11.472   3.594
14568SOL    HW143954   9.029  11.504   3.642
14568SOL    HW243955   9.149  11.552   3.564
14569SOL     OW43956   3.695   3.156   1.211
14569SOL    HW143957   3.785   3.173   1.187
14569SOL    HW243958   3.654   3.124   1.131
14570SOL     OW43959   8.908   7.725   1.907
14570SOL    HW143960   8.913   7.817   1.881
14570SOL    HW243961   8.864   7.726   1.992
14571SOL     OW43962   5.260   3.135   0.199
14571SOL    HW143963   5.211   3.100   0.124
14571SOL    HW243964   5.192   3.156   0.263
14572SOL     OW43965  15.373   8.628   6.942
14572SOL    HW143966  15.350   8.619   6.849
14572SOL    HW243967  15.422   8.548   6.962
14573SOL     OW43968  10.309   5.961   4.581
14573SOL    HW143969  10.355   6.007   4.510
14573SOL    HW243970  10.299   5.872   4.548
14574SOL     OW43971   9.736  10.202   3.443
14574SOL    HW143972   9.716  10.294   3.460
14574SOL    HW243973   9.722  10.192   3.349
14575SOL     OW43974   3.222   2.080   2.537
14575SOL    HW143975   3.286   2.151   2.549
14575SOL    HW243976   3.138   2.125   2.535
14576SOL     OW43977  13.099   7.971   5.471
14576SOL    HW143978  13.041   7.931   5.537
14576SOL    HW243979  13.041   8.027   5.420
14577SOL     OW43980   4.963   9.162   0.194
14577SOL    HW143981   4.973   9.218   0.270
14577SOL    HW243982   5.040   9.180   0.140
14578SOL     OW43983   4.368  12.467   3.817
14578SOL    HW143984   4.413  12.399   3.767
14578SOL    HW243985   4.280  12.470   3.780
14579SOL     OW43986  12.601  15.392   6.792
14579SOL    HW143987  12.552  15.330   6.737
14579SOL    HW243988  12.685  15.349   6.808
14580SOL     OW43989   2.485   3.527   1.136
14580SOL    HW143990   2.549   3.539   1.066
14580SOL    HW243991   2.537   3.513   1.215
14581SOL     OW43992   4.769   8.835   5.037
14581SOL    HW143993   4.863   8.848   5.054
14581SOL    HW243994   4.750   8.748   5.071
14582SOL     OW43995  14.177   9.085   5.533
14582SOL    HW143996  14.085   9.099   5.554
14582SOL    HW243997  14.216   9.172   5.538
14583SOL     OW43998  14.152  13.628   4.969
14583SOL    HW143999  14.204  13.672   4.902
14583SOL    HW244000  14.091  13.695   5.000
14584SOL     OW44001  13.823  10.659   5.390
14584SOL    HW144002  13.915  10.635   5.402
14584SOL    HW244003  13.785  10.649   5.477
14585SOL     OW44004  10.291   6.842   3.725
14585SOL    HW144005  10.314   6.760   3.680
14585SOL    HW244006  10.212   6.872   3.680
14586SOL     OW44007   3.289   6.456   4.095
14586SOL    HW144008   3.270   6.384   4.156
14586SOL    HW244009   3.384   6.465   4.098
14587SOL     OW44010  10.289   2.383   1.199
14587SOL    HW144011  10.357   2.319   1.178
14587SOL    HW244012  10.304   2.455   1.138
14588SOL     OW44013  10.693   1.433   1.462
14588SOL    HW144014  10.695   1.352   1.512
14588SOL    HW244015  10.758   1.489   1.504
14589SOL     OW44016   5.653  10.902   6.989
14589SOL    HW144017   5.701  10.901   6.906
14589SOL    HW244018   5.580  10.842   6.976
14590SOL     OW44019   8.839  10.139   1.356
14590SOL    HW144020   8.761  10.144   1.300
14590SOL    HW244021   8.823  10.203   1.425
14591SOL     OW44022   8.748  10.236   4.893
14591SOL    HW144023   8.834  10.213   4.928
14591SOL    HW244024   8.725  10.161   4.837
14592SOL     OW44025  11.514   4.661   6.292
14592SOL    HW144026  11.531   4.746   6.333
14592SOL    HW244027  11.573   4.659   6.216
14593SOL     OW44028  13.895  12.301   6.516
14593SOL    HW144029  13.889  12.318   6.422
14593SOL    HW244030  13.849  12.374   6.557
14594SOL     OW44031   4.843   9.056   6.232
14594SOL    HW144032   4.878   9.144   6.243
14594SOL    HW244033   4.919   9.002   6.209
14595SOL     OW44034   5.477   7.017   4.676
14595SOL    HW144035   5.437   7.103   4.681
14595SOL    HW244036   5.513   7.001   4.763
14596SOL     OW44037   3.785   2.636   3.076
14596SOL    HW144038   3.812   2.572   3.141
14596SOL    HW244039   3.861   2.692   3.063
14597SOL     OW44040   7.337   1.113   0.651
14597SOL    HW144041   7.415   1.163   0.675
14597SOL    HW244042   7.290   1.169   0.590
14598SOL     OW44043   0.335  10.600   0.137
14598SOL    HW144044   0.371  10.573   0.221
14598SOL    HW244045   0.409  10.638   0.090
14599SOL     OW44046   4.115   7.507   2.036
14599SOL    HW144047   4.205   7.498   2.002
14599SOL    HW244048   4.115   7.590   2.083
14600SOL     OW44049   6.248   9.629   1.262
14600SOL    HW144050   6.288   9.715   1.247
14600SOL    HW244051   6.308   9.567   1.222
14601SOL     OW44052   1.981   8.204   1.837
14601SOL    HW144053   1.952   8.295   1.838
14601SOL    HW244054   2.076   8.209   1.829
14602SOL     OW44055  13.023   7.511   3.578
14602SOL    HW144056  12.995   7.519   3.487
14602SOL    HW244057  12.941   7.504   3.628
14603SOL     OW44058  13.164   5.262   7.239
14603SOL    HW144059  13.199   5.328   7.179
14603SOL    HW244060  13.230   5.255   7.308
14604SOL     OW44061   9.961   4.132   4.598
14604SOL    HW144062   9.903   4.160   4.527
14604SOL    HW244063  10.026   4.076   4.555
14605SOL     OW44064   7.214   4.248   2.883
14605SOL    HW144065   7.217   4.238   2.787
14605SOL    HW244066   7.265   4.327   2.900
14606SOL     OW44067   8.390  12.598   5.678
14606SOL    HW144068   8.303  12.620   5.710
14606SOL    HW244069   8.375  12.533   5.609
14607SOL     OW44070   7.648   2.666   3.581
14607SOL    HW144071   7.726   2.714   3.608
14607SOL    HW244072   7.669   2.632   3.495
14608SOL     OW44073   7.239   4.780   3.749
14608SOL    HW144074   7.313   4.730   3.784
14608SOL    HW244075   7.203   4.724   3.680
14609SOL     OW44076   2.852   6.052   4.018
14609SOL    HW144077  13.649   5.987   4.083
14609SOL    HW244078   2.929   6.059   3.962
14610SOL     OW44079  11.251   7.758   6.910
14610SOL    HW144080  11.291   7.711   6.983
14610SOL    HW244081  11.326   7.790   6.859
14611SOL     OW44082   9.341   6.077   6.614
14611SOL    HW144083   9.403   6.072   6.541
14611SOL    HW244084   9.389   6.119   6.685
14612SOL     OW44085   9.881  12.860   4.802
14612SOL    HW144086   9.801  12.827   4.843
14612SOL    HW244087   9.922  12.914   4.870
14613SOL     OW44088   9.316  10.029   4.083
14613SOL    HW144089   9.260  10.054   4.010
14613SOL    HW244090   9.276   9.948   4.117
14614SOL     OW44091  14.844   8.418   7.025
14614SOL    HW144092  14.750   8.410   7.009
14614SOL    HW244093  14.884   8.358   6.962
14615SOL     OW44094   6.563   9.768   0.209
14615SOL    HW144095   6.636   9.822   0.179
14615SOL    HW244096   6.601   9.709   0.274
14616SOL     OW44097  11.442  14.623   7.433
14616SOL    HW144098  11.398  14.681   7.495
14616SOL    HW244099  11.403  14.537   7.449
14617SOL     OW44100   5.524   5.392   0.903
14617SOL    HW144101   5.569   5.450   0.965
14617SOL    HW244102   5.579   5.313   0.901
14618SOL     OW44103   8.962  10.305   3.398
14618SOL    HW144104   8.903  10.241   3.438
14618SOL    HW244105   9.046  10.290   3.440
14619SOL     OW44106   6.148   6.392   1.605
14619SOL    HW144107   6.222   6.340   1.574
14619SOL    HW244108   6.142   6.373   1.698
14620SOL     OW44109   6.164   7.249   7.435
14620SOL    HW144110   6.138   7.186   7.501
14620SOL    HW244111   6.132   7.333   7.468
14621SOL     OW44112  12.794   9.741   3.105
14621SOL    HW144113  12.777   9.801   3.032
14621SOL    HW244114  12.889   9.726   3.102
14622SOL     OW44115  11.546   6.527   7.228
14622SOL    HW144116  11.628   6.578   7.221
14622SOL    HW244117  11.507   6.556   7.310
14623SOL     OW44118   7.988   2.159   1.142
14623SOL    HW144119   8.043   2.232   1.171
14623SOL    HW244120   8.050   2.095   1.107
14624SOL     OW44121   4.172   5.706   5.829
14624SOL    HW144122   4.264   5.683   5.817
14624SOL    HW244123  14.927   5.680   5.919
14625SOL     OW44124   5.928   7.945   3.523
14625SOL    HW144125   5.918   7.989   3.438
14625SOL    HW244126   5.955   7.856   3.500
14626SOL     OW44127   2.450   8.031   1.834
14626SOL    HW144128   2.392   8.057   1.762
14626SOL    HW244129   2.404   7.957   1.875
14627SOL     OW44130   7.797  12.027   2.402
14627SOL    HW144131   7.790  11.940   2.363
14627SOL    HW244132   7.788  12.012   2.496
14628SOL     OW44133   7.523   7.126   2.575
14628SOL    HW144134   7.429   7.123   2.594
14628SOL    HW244135   7.564   7.148   2.659
14629SOL     OW44136   2.324   4.564   1.681
14629SOL    HW144137   2.347   4.618   1.757
14629SOL    HW244138   2.282   4.487   1.719
14630SOL     OW44139   8.281  14.077   6.768
14630SOL    HW144140   8.304  14.096   6.677
14630SOL    HW244141   8.311  13.987   6.782
14631SOL     OW44142   6.909   6.740   4.451
14631SOL    HW144143   6.841   6.718   4.386
14631SOL    HW244144   6.868   6.807   4.506
14632SOL     OW44145   7.192   7.588   4.179
14632SOL    HW144146   7.099   7.606   4.191
14632SOL    HW244147   7.214   7.526   4.249
14633SOL     OW44148  10.626   7.142   1.007
14633SOL    HW144149  10.609   7.056   1.046
14633SOL    HW244150  10.601   7.131   0.915
14634SOL     OW44151   9.955  10.641   0.576
14634SOL    HW144152  10.025  10.658   0.514
14634SOL    HW244153   9.923  10.727   0.602
14635SOL     OW44154   5.172   9.897   3.535
14635SOL    HW144155   5.091   9.929   3.576
14635SOL    HW244156   5.241   9.930   3.592
14636SOL     OW44157   3.406   7.493   1.123
14636SOL    HW144158   3.396   7.425   1.189
14636SOL    HW244159   3.352   7.464   1.050
14637SOL     OW44160   5.807   9.169   4.495
14637SOL    HW144161   5.858   9.103   4.541
14637SOL    HW244162   5.764   9.219   4.565
14638SOL     OW44163   5.135   9.937   2.196
14638SOL    HW144164   5.047   9.975   2.203
14638SOL    HW244165   5.124   9.847   2.225
14639SOL     OW44166  12.488  11.077   4.388
14639SOL    HW144167  12.551  11.096   4.459
14639SOL    HW244168  12.443  11.160   4.374
14640SOL     OW44169   2.551   7.245   0.163
14640SOL    HW144170   2.456   7.243   0.172
14640SOL    HW244171   2.571   7.336   0.141
14641SOL     OW44172   8.168   4.430   5.273
14641SOL    HW144173   8.119   4.348   5.263
14641SOL    HW244174   8.157   4.453   5.365
14642SOL     OW44175   3.043   4.552   1.633
14642SOL    HW144176   3.058   4.632   1.583
14642SOL    HW244177   2.990   4.497   1.576
14643SOL     OW44178   8.662   8.191   3.799
14643SOL    HW144179   8.709   8.125   3.851
14643SOL    HW244180   8.665   8.270   3.852
14644SOL     OW44181  12.282   4.252   5.673
14644SOL    HW144182  12.253   4.335   5.635
14644SOL    HW244183  12.320   4.276   5.758
14645SOL     OW44184   7.159   7.251   5.484
14645SOL    HW144185   7.223   7.232   5.553
14645SOL    HW244186   7.107   7.171   5.478
14646SOL     OW44187  11.968   5.438   4.049
14646SOL    HW144188  11.946   5.442   3.956
14646SOL    HW244189  11.970   5.345   4.069
14647SOL     OW44190   7.576   7.602   2.863
14647SOL    HW144191   7.561   7.642   2.948
14647SOL    HW244192   7.671   7.608   2.851
14648SOL     OW44193   0.647  10.180   0.305
14648SOL    HW144194   0.627  10.093   0.340
14648SOL    HW244195   0.588  10.239   0.352
14649SOL     OW44196   0.545   6.404   0.579
14649SOL    HW144197   0.453   6.401   0.604
14649SOL    HW244198   0.559   6.493   0.548
14650SOL     OW44199   7.203   2.663   1.217
14650SOL    HW144200   7.291   2.666   1.253
14650SOL    HW244201   7.214   2.678   1.124
14651SOL     OW44202   3.878   0.525   0.246
14651SOL    HW144203   3.949   0.584   0.220
14651SOL    HW244204   3.869   0.539   0.340
14652SOL     OW44205   7.345  14.477   5.600
14652SOL    HW144206   7.271  14.417   5.603
14652SOL    HW244207   7.421  14.422   5.580
14653SOL     OW44208   5.729  11.667   1.463
14653SOL    HW144209   5.710  11.574   1.456
14653SOL    HW244210   5.687  11.706   1.386
14654SOL     OW44211   4.036   6.654   3.195
14654SOL    HW144212   4.110   6.644   3.255
14654SOL    HW244213   3.962   6.673   3.252
14655SOL     OW44214   8.200   7.828   6.903
14655SOL    HW144215   8.248   7.766   6.848
14655SOL    HW244216   8.132   7.775   6.944
14656SOL     OW44217   8.339  12.284   4.456
14656SOL    HW144218   8.344  12.335   4.375
14656SOL    HW244219   8.337  12.193   4.427
14657SOL     OW44220   5.521   7.852   1.556
14657SOL    HW144221   5.477   7.768   1.546
14657SOL    HW244222   5.588   7.837   1.622
14658SOL     OW44223   4.387   3.870   0.314
14658SOL    HW144224   4.403   3.833   0.227
14658SOL    HW244225   4.312   3.927   0.302
14659SOL     OW44226   5.098   7.087   3.822
14659SOL    HW144227   5.026   7.076   3.883
14659SOL    HW244228   5.090   7.012   3.762
14660SOL     OW44229   8.626   6.693   1.961
14660SOL    HW144230   8.621   6.670   1.868
14660SOL    HW244231   8.536   6.681   1.993
14661SOL     OW44232   3.881   4.790   5.084
14661SOL    HW144233   3.910   4.706   5.120
14661SOL    HW244234   3.942   4.807   5.012
14662SOL     OW44235  13.508   9.632   5.192
14662SOL    HW144236  13.468   9.647   5.106
14662SOL    HW244237  13.471   9.549   5.221
14663SOL     OW44238   4.196  10.800   2.611
14663SOL    HW144239   4.119  10.755   2.646
14663SOL    HW244240   4.162  10.854   2.540
14664SOL     OW44241   3.886  10.699   3.513
14664SOL    HW144242   3.799  10.716   3.477
14664SOL    HW244243   3.876  10.710   3.607
14665SOL     OW44244   8.554   6.990   1.634
14665SOL    HW144245   8.483   6.958   1.578
14665SOL    HW244246   8.601   6.912   1.662
14666SOL     OW44247   3.166   5.976   3.895
14666SOL    HW144248   3.226   6.051   3.906
14666SOL    HW244249   3.222   5.899   3.903
14667SOL     OW44250  11.526  10.737   5.556
14667SOL    HW144251  11.453  10.680   5.533
14667SOL    HW244252  11.595  10.676   5.583
14668SOL     OW44253  11.153   1.606   0.547
14668SOL    HW144254  11.108   1.689   0.564
14668SOL    HW244255   0.439   1.597   0.621
14669SOL     OW44256   0.303  10.193   0.271
14669SOL    HW144257   0.246  10.269   0.279
14669SOL    HW244258   0.370  10.220   0.209
14670SOL     OW44259  11.898   6.173   6.644
14670SOL    HW144260  11.917   6.089   6.601
14670SOL    HW244261  11.817   6.157   6.693
14671SOL     OW44262   4.626   2.132   2.774
14671SOL    HW144263   4.699   2.122   2.835
14671SOL    HW244264   4.584   2.046   2.771
14672SOL     OW44265  13.281  12.690   5.374
14672SOL    HW144266  13.281  12.711   5.467
14672SOL    HW244267  13.372  12.698   5.347
14673SOL     OW44268   9.808  10.808   1.788
14673SOL    HW144269   9.748  10.797   1.862
14673SOL    HW244270   9.771  10.881   1.738
14674SOL     OW44271   7.451   7.098   0.520
14674SOL    HW144272   7.532   7.130   0.482
14674SOL    HW244273   7.467   7.096   0.614
14675SOL     OW44274   0.673   2.225   0.197
14675SOL    HW144275   0.582   2.201   0.177
14675SOL    HW244276   0.666   2.311   0.238
14676SOL     OW44277   9.648  11.425   5.053
14676SOL    HW144278   9.652  11.445   5.147
14676SOL    HW244279   9.642  11.510   5.010
14677SOL     OW44280   2.321  11.500   1.210
14677SOL    HW144281   2.407  11.503   1.251
14677SOL    HW244282   2.259  11.518   1.281
14678SOL     OW44283   7.282   6.447   4.020
14678SOL    HW144284   7.361   6.433   4.072
14678SOL    HW244285   7.289   6.537   3.990
14679SOL     OW44286   8.006   6.366   0.642
14679SOL    HW144287   8.039   6.315   0.716
14679SOL    HW244288   7.962   6.302   0.586
14680SOL     OW44289  11.716   4.046   1.622
14680SOL    HW144290  11.685   3.969   1.668
14680SOL    HW244291  11.797   4.071   1.667
14681SOL     OW44292  12.969  15.124   6.283
14681SOL    HW144293  13.017  15.099   6.204
14681SOL    HW244294  12.958   4.445   6.275
14682SOL     OW44295  11.895   4.246   4.464
14682SOL    HW144296  11.885   4.340   4.450
14682SOL    HW244297  11.877   4.207   4.378
14683SOL     OW44298   6.378   6.842   1.033
14683SOL    HW144299   6.427   6.771   1.076
14683SOL    HW244300   6.378   6.818   0.940
14684SOL     OW44301   9.442   8.822   3.148
14684SOL    HW144302   9.532   8.788   3.140
14684SOL    HW244303   9.450   8.915   3.128
14685SOL     OW44304   9.524   9.902   0.079
14685SOL    HW144305   9.595   9.965   0.085
14685SOL    HW244306   9.471   9.918   0.157
14686SOL     OW44307  10.516   8.627   0.346
14686SOL    HW144308  10.476   8.555   0.297
14686SOL    HW244309  10.461   8.703   0.326
14687SOL     OW44310   5.402   5.161   6.788
14687SOL    HW144311   5.356   5.124   6.864
14687SOL    HW244312   5.431   5.084   6.738
14688SOL     OW44313  13.482  12.069   6.323
14688SOL    HW144314  13.563  12.087   6.369
14688SOL    HW244315  13.415  12.068   6.391
14689SOL     OW44316   5.657   9.642   7.205
14689SOL    HW144317   5.695   9.687   7.129
14689SOL    HW244318   5.582   9.594   7.169
14690SOL     OW44319  11.212   7.297   1.412
14690SOL    HW144320  11.213   7.208   1.447
14690SOL    HW244321  11.135   7.300   1.355
14691SOL     OW44322  13.503   6.628   4.016
14691SOL    HW144323  13.517   6.535   4.034
14691SOL    HW244324  13.479   6.631   3.924
14692SOL     OW44325   1.200   5.126   0.833
14692SOL    HW144326   1.188   5.032   0.822
14692SOL    HW244327   1.113   5.163   0.816
14693SOL     OW44328   8.417  12.381   5.474
14693SOL    HW144329   8.494  12.375   5.417
14693SOL    HW244330   8.432  12.314   5.541
14694SOL     OW44331   9.336   2.953   2.865
14694SOL    HW144332   9.406   2.900   2.903
14694SOL    HW244333   9.375   2.993   2.788
14695SOL     OW44334   3.264   6.376   3.318
14695SOL    HW144335   3.183   6.404   3.275
14695SOL    HW244336   3.331   6.434   3.282
14696SOL     OW44337   3.438   9.561   1.646
14696SOL    HW144338   3.388   9.630   1.691
14696SOL    HW244339   3.513   9.545   1.703
14697SOL     OW44340   5.565   2.922   1.589
14697SOL    HW144341   5.553   3.016   1.577
14697SOL    HW244342   5.513   2.901   1.667
14698SOL     OW44343   5.679   4.373   2.968
14698SOL    HW144344   5.683   4.452   2.915
14698SOL    HW244345   5.763   4.329   2.952
14699SOL     OW44346   1.610   9.111   2.272
14699SOL    HW144347   1.636   9.163   2.196
14699SOL    HW244348   1.595   9.023   2.237
14700SOL     OW44349   4.584   4.143   5.593
14700SOL    HW144350   4.593   4.076   5.661
14700SOL    HW244351   4.531   4.212   5.633
14701SOL     OW44352  13.073  11.330   4.038
14701SOL    HW144353  13.106  11.340   3.949
14701SOL    HW244354  13.141  11.367   4.094
14702SOL     OW44355   4.128  11.842   5.236
14702SOL    HW144356   4.102  11.764   5.286
14702SOL    HW244357   4.091  11.915   5.285
14703SOL     OW44358  11.253   3.805   4.070
14703SOL    HW144359  11.346   3.826   4.071
14703SOL    HW244360  11.221   3.836   4.155
14704SOL     OW44361  13.493   6.010   5.122
14704SOL    HW144362  13.448   5.990   5.204
14704SOL    HW244363  13.503   5.925   5.079
14705SOL     OW44364   6.920   8.822   5.727
14705SOL    HW144365   6.890   8.850   5.813
14705SOL    HW244366   6.857   8.861   5.666
14706SOL     OW44367  11.795   8.399   2.914
14706SOL    HW144368  11.885   8.429   2.904
14706SOL    HW244369  11.802   8.304   2.920
14707SOL     OW44370   6.279   7.494   7.193
14707SOL    HW144371   6.273   7.463   7.283
14707SOL    HW244372   6.267   7.589   7.199
14708SOL     OW44373   6.428  10.060   6.172
14708SOL    HW144374   6.368   9.985   6.177
14708SOL    HW244375   6.509  10.023   6.138
14709SOL     OW44376   6.331   8.008   3.478
14709SOL    HW144377   6.295   8.086   3.437
14709SOL    HW244378   6.387   8.041   3.548
14710SOL     OW44379   4.621  11.044   2.213
14710SOL    HW144380   4.575  11.020   2.132
14710SOL    HW244381   4.591  11.133   2.232
14711SOL     OW44382   4.438  10.591   5.401
14711SOL    HW144383   4.343  10.592   5.391
14711SOL    HW244384   4.469  10.664   5.347
14712SOL     OW44385   9.210   6.429   1.208
14712SOL    HW144386   9.202   6.452   1.301
14712SOL    HW244387   9.255   6.344   1.208
14713SOL     OW44388   5.910   4.604   0.481
14713SOL    HW144389   5.960   4.673   0.437
14713SOL    HW244390   5.976   4.542   0.511
14714SOL     OW44391   4.021   3.985   5.442
14714SOL    HW144392   4.041   4.059   5.500
14714SOL    HW244393   3.982   3.919   5.500
14715SOL     OW44394   4.537  10.459   5.121
14715SOL    HW144395   4.509  10.487   5.033
14715SOL    HW244396   4.458  10.422   5.160
14716SOL     OW44397   3.919   3.788   2.351
14716SOL    HW144398   3.961   3.857   2.300
14716SOL    HW244399   3.893   3.723   2.286
14717SOL     OW44400   2.772   5.653   1.427
14717SOL    HW144401   2.685   5.624   1.456
14717SOL    HW244402   2.833   5.595   1.472
14718SOL     OW44403   4.431   5.964   2.767
14718SOL    HW144404   4.391   5.926   2.845
14718SOL    HW244405   4.521   5.982   2.792
14719SOL     OW44406  14.525  14.848   6.269
14719SOL    HW144407  14.469  14.786   6.316
14719SOL    HW244408  14.614  14.823   6.293
14720SOL     OW44409  10.978   5.975   2.273
14720SOL    HW144410  10.894   5.949   2.237
14720SOL    HW244411  10.990   5.919   2.350
14721SOL     OW44412   3.108   2.679   0.329
14721SOL    HW144413   3.039   2.656   0.391
14721SOL    HW244414   3.089   2.628   0.251
14722SOL     OW44415  11.204   6.780   6.297
14722SOL    HW144416  11.270   6.771   6.229
14722SOL    HW244417  11.166   6.867   6.283
14723SOL     OW44418  14.264   7.501   7.210
14723SOL    HW144419  14.260   7.568   7.278
14723SOL    HW244420  14.234   7.421   7.253
14724SOL     OW44421   8.918   7.231   6.333
14724SOL    HW144422   8.920   7.233   6.237
14724SOL    HW244423   8.826   7.214   6.355
14725SOL     OW44424  10.230   3.958   5.380
14725SOL    HW144425  10.313   4.003   5.364
14725SOL    HW244426  10.229   3.943   5.475
14726SOL     OW44427   9.700   6.715   7.540
14726SOL    HW144428   9.665   6.676   7.460
14726SOL    HW244429   9.706   6.808   7.520
14727SOL     OW44430   5.843   2.812   1.034
14727SOL    HW144431   5.871   2.763   1.112
14727SOL    HW244432   5.838   2.903   1.064
14728SOL     OW44433  10.616   1.541   2.074
14728SOL    HW144434  10.644   1.587   2.153
14728SOL    HW244435  10.521   1.552   2.073
14729SOL     OW44436   5.323   3.557   2.142
14729SOL    HW144437   5.390   3.620   2.169
14729SOL    HW244438   5.356   3.473   2.174
14730SOL     OW44439   7.191   1.363   0.668
14730SOL    HW144440   7.239   1.426   0.721
14730SOL    HW244441   7.235   1.364   0.583
14731SOL     OW44442  10.259   3.748   4.566
14731SOL    HW144443  10.183   3.806   4.554
14731SOL    HW244444  10.333   3.799   4.533
14732SOL     OW44445   9.291   5.699   5.428
14732SOL    HW144446   9.266   5.778   5.382
14732SOL    HW244447   9.237   5.699   5.508
14733SOL     OW44448   3.508   7.156   1.387
14733SOL    HW144449   3.505   7.151   1.482
14733SOL    HW244450   3.522   7.249   1.368
14734SOL     OW44451  13.110   9.231   6.486
14734SOL    HW144452  13.175   9.199   6.548
14734SOL    HW244453  13.146   9.313   6.452
14735SOL     OW44454  12.568  11.271   3.414
14735SOL    HW144455  12.655  11.310   3.402
14735SOL    HW244456  12.548  11.231   3.330
14736SOL     OW44457   9.543  10.115   0.954
14736SOL    HW144458   9.577  10.186   1.010
14736SOL    HW244459   9.528  10.157   0.869
14737SOL     OW44460   3.727   6.270   0.313
14737SOL    HW144461   3.641   6.276   0.355
14737SOL    HW244462   3.762   6.359   0.318
14738SOL     OW44463   7.872   6.203   3.950
14738SOL    HW144464   7.907   6.284   3.987
14738SOL    HW244465   7.802   6.177   4.010
14739SOL     OW44466   4.190   4.017   0.068
14739SOL    HW144467   4.195   3.938   0.015
14739SOL    HW244468   4.097   4.039   0.070
14740SOL     OW44469   9.173  11.867   6.109
14740SOL    HW144470   9.106  11.840   6.046
14740SOL    HW244471   9.224  11.934   6.063
14741SOL     OW44472   3.049   6.202   0.354
14741SOL    HW144473   2.986   6.131   0.370
14741SOL    HW244474   3.061   6.244   0.439
14742SOL     OW44475   9.934  11.992   3.355
14742SOL    HW144476   9.941  12.086   3.342
14742SOL    HW244477   9.955  11.954   3.270
14743SOL     OW44478   5.446  11.031   5.212
14743SOL    HW144479   5.471  10.960   5.272
14743SOL    HW244480   5.372  10.995   5.163
14744SOL     OW44481  10.045   3.645   1.447
14744SOL    HW144482  10.082   3.622   1.532
14744SOL    HW244483  10.005   3.731   1.462
14745SOL     OW44484   5.923   4.628   1.179
14745SOL    HW144485   5.925   4.711   1.227
14745SOL    HW244486   5.834   4.621   1.146
14746SOL     OW44487  14.131   8.816   4.918
14746SOL    HW144488  14.135   8.906   4.951
14746SOL    HW244489  14.074   8.821   4.842
14747SOL     OW44490  13.195   6.891   6.751
14747SOL    HW144491  13.250   6.937   6.688
14747SOL    HW244492  13.257   6.854   6.814
14748SOL     OW44493  11.512   6.704   1.193
14748SOL    HW144494  11.500   6.615   1.227
14748SOL    HW244495  11.462   6.760   1.253
14749SOL     OW44496  10.684  10.829   7.497
14749SOL    HW144497  10.631  10.780   7.434
14749SOL    HW244498  10.626  10.845   7.571
14750SOL     OW44499  13.035  13.859   5.780
14750SOL    HW144500  12.950  13.826   5.811
14750SOL    HW244501  13.081  13.780   5.750
14751SOL     OW44502   7.274  10.269   5.587
14751SOL    HW144503   7.194  10.238   5.629
14751SOL    HW244504   7.243  10.317   5.510
14752SOL     OW44505   4.887   9.484   0.704
14752SOL    HW144506   4.851   9.434   0.777
14752SOL    HW244507   4.980   9.492   0.724
14753SOL     OW44508   6.200   6.622   6.021
14753SOL    HW144509   6.202   6.702   5.969
14753SOL    HW244510   6.144   6.644   6.096
14754SOL     OW44511  10.896   6.744   1.856
14754SOL    HW144512  10.868   6.700   1.936
14754SOL    HW244513  10.816   6.786   1.823
14755SOL     OW44514   7.387   3.954   1.030
14755SOL    HW144515   7.320   3.892   1.001
14755SOL    HW244516   7.457   3.899   1.065
14756SOL     OW44517   5.947   4.118   3.587
14756SOL    HW144518   5.900   4.126   3.669
14756SOL    HW244519   6.039   4.108   3.612
14757SOL     OW44520   2.219   3.582   1.111
14757SOL    HW144521   2.171   3.524   1.052
14757SOL    HW244522   2.309   3.553   1.105
14758SOL     OW44523   4.655   9.985   0.399
14758SOL    HW144524   4.576  10.012   0.445
14758SOL    HW244525   4.721  10.050   0.423
14759SOL     OW44526  10.906  11.814   5.732
14759SOL    HW144527  10.833  11.812   5.793
14759SOL    HW244528  10.983  11.823   5.786
14760SOL     OW44529   3.425   7.878   1.529
14760SOL    HW144530   3.442   7.968   1.556
14760SOL    HW244531   3.406   7.884   1.436
14761SOL     OW44532  12.319   8.246   6.152
14761SOL    HW144533  12.360   8.314   6.098
14761SOL    HW244534  12.226   8.266   6.149
14762SOL     OW44535  11.869   7.313   7.119
14762SOL    HW144536  11.868   7.292   7.213
14762SOL    HW244537  11.931   7.386   7.112
14763SOL     OW44538  12.316  13.651   6.326
14763SOL    HW144539  12.320  13.559   6.299
14763SOL    HW244540  12.379  13.657   6.398
14764SOL     OW44541   0.873   5.232   0.420
14764SOL    HW144542   0.783   5.244   0.391
14764SOL    HW244543   0.926   5.272   0.351
14765SOL     OW44544   8.517   5.445   6.080
14765SOL    HW144545   8.611   5.436   6.060
14765SOL    HW244546   8.512   5.519   6.141
14766SOL     OW44547   7.543   8.902   4.527
14766SOL    HW144548   7.621   8.854   4.501
14766SOL    HW244549   7.470   8.849   4.495
14767SOL     OW44550   4.857   4.967   1.740
14767SOL    HW144551   4.907   4.889   1.715
14767SOL    HW244552   4.918   5.017   1.795
14768SOL     OW44553   3.605  10.717   4.497
14768SOL    HW144554   3.527  10.769   4.477
14768SOL    HW244555   3.674  10.782   4.514
14769SOL     OW44556   4.419  11.910   5.790
14769SOL    HW144557   4.338  11.924   5.841
14769SOL    HW244558   4.445  11.998   5.763
14770SOL     OW44559  10.915  11.513   4.638
14770SOL    HW144560  10.908  11.597   4.684
14770SOL    HW244561  10.826  11.494   4.609
14771SOL     OW44562   4.698   4.621   3.819
14771SOL    HW144563   4.625   4.675   3.788
14771SOL    HW244564   4.771   4.681   3.829
14772SOL     OW44565   3.561   8.611   3.077
14772SOL    HW144566   3.529   8.690   3.120
14772SOL    HW244567   3.502   8.542   3.107
14773SOL     OW44568   5.530   8.033   5.894
14773SOL    HW144569   5.517   7.948   5.853
14773SOL    HW244570   5.618   8.029   5.931
14774SOL     OW44571   7.951   6.532   7.323
14774SOL    HW144572   7.945   6.597   7.253
14774SOL    HW244573   7.990   6.455   7.282
14775SOL     OW44574  13.570   6.259   5.134
14775SOL    HW144575  13.536   6.181   5.090
14775SOL    HW244576  13.586   6.321   5.063
14776SOL     OW44577  12.220   6.483   2.865
14776SOL    HW144578  12.299   6.495   2.918
14776SOL    HW244579  12.207   6.388   2.863
14777SOL     OW44580  11.583  12.516   7.038
14777SOL    HW144581  11.583  12.589   6.976
14777SOL    HW244582  11.505  12.531   7.092
14778SOL     OW44583  14.866  12.790   6.752
14778SOL    HW144584  14.881  12.761   6.842
14778SOL    HW244585  14.920  12.731   6.699
14779SOL     OW44586   7.494   7.831   2.406
14779SOL    HW144587   7.458   7.773   2.472
14779SOL    HW244588   7.538   7.773   2.344
14780SOL     OW44589   9.469   8.548   2.397
14780SOL    HW144590   9.466   8.568   2.303
14780SOL    HW244591   9.386   8.504   2.415
14781SOL     OW44592   9.660   9.557   5.373
14781SOL    HW144593   9.676   9.540   5.280
14781SOL    HW244594   9.579   9.608   5.374
14782SOL     OW44595   5.281   5.486   4.039
14782SOL    HW144596   5.345   5.428   3.997
14782SOL    HW244597   5.333   5.543   4.095
14783SOL     OW44598   8.332  14.603   6.221
14783SOL    HW144599   8.318  14.674   6.158
14783SOL    HW244600   8.253  14.550   6.214
14784SOL     OW44601  12.776  11.537   3.031
14784SOL    HW144602  12.724  11.566   3.106
14784SOL    HW244603  12.785  11.443   3.043
14785SOL     OW44604   8.185   3.949   2.280
14785SOL    HW144605   8.222   3.876   2.330
14785SOL    HW244606   8.092   3.930   2.274
14786SOL     OW44607  13.096  11.961   4.904
14786SOL    HW144608  13.120  12.053   4.912
14786SOL    HW244609  13.044  11.956   4.824
14787SOL     OW44610   7.189   6.971   6.907
14787SOL    HW144611   7.264   6.912   6.918
14787SOL    HW244612   7.202   7.038   6.974
14788SOL     OW44613   6.552   9.030   2.582
14788SOL    HW144614   6.480   9.021   2.645
14788SOL    HW244615   6.540   8.955   2.523
14789SOL     OW44616   7.171  12.153   2.858
14789SOL    HW144617   7.123  12.123   2.781
14789SOL    HW244618   7.106  12.199   2.911
14790SOL     OW44619   7.149   8.097   1.816
14790SOL    HW144620   7.120   8.049   1.894
14790SOL    HW244621   7.205   8.035   1.769
14791SOL     OW44622  14.698   7.949   6.166
14791SOL    HW144623  14.770   7.912   6.216
14791SOL    HW244624  14.696   8.041   6.189
14792SOL     OW44625  13.880   8.195   6.505
14792SOL    HW144626  13.824   8.159   6.437
14792SOL    HW244627  13.957   8.138   6.505
14793SOL     OW44628   7.264   5.402   6.829
14793SOL    HW144629   7.268   5.393   6.925
14793SOL    HW244630   7.244   5.314   6.797
14794SOL     OW44631  12.579   6.739   3.134
14794SOL    HW144632  12.576   6.669   3.199
14794SOL    HW244633  12.518   6.805   3.168
14795SOL     OW44634   3.271   4.914   3.489
14795SOL    HW144635   3.316   4.866   3.419
14795SOL    HW244636   3.203   4.964   3.444
14796SOL     OW44637   6.139  11.834   3.223
14796SOL    HW144638   6.050  11.835   3.187
14796SOL    HW244639   6.134  11.777   3.299
14797SOL     OW44640   4.468   9.480   0.456
14797SOL    HW144641   4.528   9.553   0.468
14797SOL    HW244642   4.471   9.462   0.362
14798SOL     OW44643   9.620   5.450   5.192
14798SOL    HW144644   9.709   5.446   5.158
14798SOL    HW244645   9.623   5.517   5.260
14799SOL     OW44646   7.459  10.613   1.851
14799SOL    HW144647   7.434  10.659   1.932
14799SOL    HW244648   7.389  10.549   1.837
14800SOL     OW44649   5.840  14.341   7.257
14800SOL    HW144650   5.855  14.306   7.345
14800SOL    HW244651   5.901  14.292   7.201
14801SOL     OW44652  12.596   9.568   5.880
14801SOL    HW144653  12.552   9.563   5.795
14801SOL    HW244654  12.579   9.483   5.920
14802SOL     OW44655  12.264   4.053   2.123
14802SOL    HW144656  12.188   4.020   2.171
14802SOL    HW244657   1.537   3.974   2.097
14803SOL     OW44658  10.360   5.526   3.174
14803SOL    HW144659  10.300   5.545   3.245
14803SOL    HW244660  10.363   5.430   3.171
14804SOL     OW44661   5.867  14.847   7.541
14804SOL    HW144662   5.806  14.893   7.483
14804SOL    HW244663   5.951  14.888   7.525
14805SOL     OW44664   3.777   8.152   4.238
14805SOL    HW144665   3.830   8.188   4.167
14805SOL    HW244666   3.749   8.066   4.206
14806SOL     OW44667   7.117   2.771   2.535
14806SOL    HW144668   7.108   2.863   2.509
14806SOL    HW244669   7.212   2.756   2.539
14807SOL     OW44670   9.765   8.498   3.034
14807SOL    HW144671   9.816   8.432   2.988
14807SOL    HW244672   9.784   8.484   3.127
14808SOL     OW44673  11.403   6.966   1.248
14808SOL    HW144674  11.354   7.000   1.323
14808SOL    HW244675  11.355   6.998   1.171
14809SOL     OW44676   2.203   6.981   0.584
14809SOL    HW144677   2.233   6.990   0.494
14809SOL    HW244678   2.279   7.003   0.637
14810SOL     OW44679   5.365  11.645   3.938
14810SOL    HW144680   5.421  11.569   3.955
14810SOL    HW244681   5.382  11.704   4.012
14811SOL     OW44682  11.276   7.525   5.621
14811SOL    HW144683  11.209   7.584   5.584
14811SOL    HW244684  11.270   7.539   5.715
14812SOL     OW44685   9.196   2.081   0.232
14812SOL    HW144686   9.224   1.997   0.198
14812SOL    HW244687   9.263   2.104   0.297
14813SOL     OW44688   7.778   9.467   1.840
14813SOL    HW144689   7.764   9.431   1.753
14813SOL    HW244690   7.783   9.391   1.897
14814SOL     OW44691  10.093  14.404   7.372
14814SOL    HW144692  10.063  14.484   7.416
14814SOL    HW244693  10.159  14.367   7.431
14815SOL     OW44694   6.055   3.442   4.556
14815SOL    HW144695   6.048   3.456   4.462
14815SOL    HW244696   5.998   3.367   4.573
14816SOL     OW44697  10.941   9.758   0.443
14816SOL    HW144698  10.895   9.682   0.479
14816SOL    HW244699  10.881   9.792   0.376
14817SOL     OW44700   4.674  12.801   3.964
14817SOL    HW144701   4.589  12.770   3.932
14817SOL    HW244702   4.657  12.827   4.055
14818SOL     OW44703   7.270   2.146   0.815
14818SOL    HW144704   7.311   2.092   0.883
14818SOL    HW244705   7.280   2.236   0.847
14819SOL     OW44706   8.161   9.845   1.727
14819SOL    HW144707   8.164   9.812   1.638
14819SOL    HW244708   8.241   9.898   1.735
14820SOL     OW44709  10.522   4.646   1.008
14820SOL    HW144710  10.617   4.642   1.014
14820SOL    HW244711  10.493   4.555   1.014
14821SOL     OW44712   9.496  10.533   0.005
14821SOL    HW144713   9.555  10.479   0.059
14821SOL    HW244714  14.929  15.930   7.540
14822SOL     OW44715  10.184  11.815   2.420
14822SOL    HW144716  10.245  11.742   2.405
14822SOL    HW244717  10.113  11.776   2.471
14823SOL     OW44718   9.369   4.054   0.326
14823SOL    HW144719   9.312   4.118   0.282
14823SOL    HW244720   9.454   4.097   0.333
14824SOL     OW44721  10.167   6.504   6.353
14824SOL    HW144722  10.171   6.562   6.429
14824SOL    HW244723  10.075   6.482   6.344
14825SOL     OW44724  11.982  10.596   5.414
14825SOL    HW144725  11.919  10.647   5.364
14825SOL    HW244726  12.021  10.659   5.475
14826SOL     OW44727   7.725   7.087   4.520
14826SOL    HW144728   7.663   7.106   4.449
14826SOL    HW244729   7.689   7.134   4.596
14827SOL     OW44730   3.116   9.040   1.939
14827SOL    HW144731   3.046   9.099   1.967
14827SOL    HW244732   3.194   9.073   1.984
14828SOL     OW44733   9.822   7.627   2.334
14828SOL    HW144734   9.752   7.576   2.293
14828SOL    HW244735   9.787   7.716   2.338
14829SOL     OW44736   8.118   5.562   0.464
14829SOL    HW144737   8.087   5.583   0.552
14829SOL    HW244738   8.137   5.648   0.425
14830SOL     OW44739   8.547   7.110   7.189
14830SOL    HW144740   8.534   7.128   7.096
14830SOL    HW244741   8.616   7.044   7.192
14831SOL     OW44742  11.120   7.266   7.283
14831SOL    HW144743  11.165   7.187   7.254
14831SOL    HW244744  11.056   7.236   7.347
14832SOL     OW44745   5.537   5.164   6.421
14832SOL    HW144746   5.463   5.107   6.404
14832SOL    HW244747   5.510   5.250   6.388
14833SOL     OW44748   4.813   7.911   4.591
14833SOL    HW144749   4.757   7.841   4.624
14833SOL    HW244750   4.838   7.883   4.503
14834SOL     OW44751   8.676   8.290   1.050
14834SOL    HW144752   8.765   8.271   1.078
14834SOL    HW244753   8.634   8.204   1.047
14835SOL     OW44754   5.161  12.067   2.433
14835SOL    HW144755   5.071  12.097   2.437
14835SOL    HW244756   5.193  12.076   2.523
14836SOL     OW44757  10.270  12.807   5.866
14836SOL    HW144758  10.340  12.871   5.877
14836SOL    HW244759  10.194  12.847   5.908
14837SOL     OW44760  10.345   7.431   1.216
14837SOL    HW144761  10.436   7.401   1.214
14837SOL    HW244762  10.294   7.350   1.214
14838SOL     OW44763  12.296   5.655   7.556
14838SOL    HW144764  12.341   5.575   7.530
14838SOL    HW244765  12.243   5.679   7.481
14839SOL     OW44766   9.015   8.274   0.893
14839SOL    HW144767   9.057   8.193   0.864
14839SOL    HW244768   8.970   8.307   0.815
14840SOL     OW44769  13.420   5.550   7.405
14840SOL    HW144770  13.450   5.506   7.484
14840SOL    HW244771  13.331   5.578   7.426
14841SOL     OW44772  12.898  12.796   6.059
14841SOL    HW144773  12.868  12.715   6.018
14841SOL    HW244774  12.968  12.769   6.118
14842SOL     OW44775   3.570  10.277   4.446
14842SOL    HW144776   3.644  10.270   4.385
14842SOL    HW244777   3.510  10.339   4.404
14843SOL     OW44778  13.852  15.851   7.601
14843SOL    HW144779  13.929  15.815   7.556
14843SOL    HW244780   8.461  10.415   0.065
14844SOL     OW44781   9.474   5.146   6.694
14844SOL    HW144782   9.531   5.075   6.667
14844SOL    HW244783   9.492   5.217   6.632
14845SOL     OW44784  15.902   7.212   7.611
14845SOL    HW144785  15.840   7.141   7.597
14845SOL    HW244786  15.987   7.175   7.588
14846SOL     OW44787  13.457   7.256   4.318
14846SOL    HW144788  13.513   7.195   4.270
14846SOL    HW244789  13.371   7.215   4.317
14847SOL     OW44790   2.922   4.698   1.383
14847SOL    HW144791   3.015   4.721   1.390
14847SOL    HW244792   2.920   4.626   1.319
14848SOL     OW44793   4.433  13.414   5.630
14848SOL    HW144794   4.343  13.383   5.633
14848SOL    HW244795   4.451  13.445   5.719
14849SOL     OW44796   8.764   3.064   1.399
14849SOL    HW144797   8.798   3.133   1.456
14849SOL    HW244798   8.691   3.026   1.448
14850SOL     OW44799   5.236  11.868   5.220
14850SOL    HW144800   5.264  11.959   5.212
14850SOL    HW244801   5.225  11.838   5.129
14851SOL     OW44802   4.473  11.697   4.885
14851SOL    HW144803   4.481  11.603   4.870
14851SOL    HW244804   4.421  11.729   4.811
14852SOL     OW44805  10.240  11.187   5.017
14852SOL    HW144806  10.175  11.249   5.049
14852SOL    HW244807  10.324  11.225   5.043
14853SOL     OW44808  11.017   5.796   2.496
14853SOL    HW144809  10.933   5.752   2.489
14853SOL    HW244810  11.056   5.761   2.576
14854SOL     OW44811  13.591  13.445   6.938
14854SOL    HW144812  13.678  13.450   6.897
14854SOL    HW244813  13.553  13.532   6.925
14855SOL     OW44814  13.873   7.583   5.842
14855SOL    HW144815  13.826   7.524   5.783
14855SOL    HW244816  13.811   7.652   5.862
14856SOL     OW44817   8.186   9.149   4.995
14856SOL    HW144818   8.162   9.215   5.060
14856SOL    HW244819   8.183   9.066   5.044
14857SOL     OW44820   5.613   6.276   6.490
14857SOL    HW144821   5.551   6.240   6.427
14857SOL    HW244822   5.564   6.284   6.571
14858SOL     OW44823   5.515   1.121   0.037
14858SOL    HW144824   5.482   1.204   0.071
14858SOL    HW244825  10.830   6.473   7.604
14859SOL     OW44826   5.397   7.391   4.209
14859SOL    HW144827   5.418   7.305   4.174
14859SOL    HW244828   5.340   7.373   4.284
14860SOL     OW44829   6.130  12.416   4.149
14860SOL    HW144830   6.136  12.460   4.064
14860SOL    HW244831   6.218  12.385   4.166
14861SOL     OW44832   4.154   8.887   2.425
14861SOL    HW144833   4.151   8.811   2.366
14861SOL    HW244834   4.078   8.939   2.401
14862SOL     OW44835   8.497   7.732   3.641
14862SOL    HW144836   8.503   7.686   3.558
14862SOL    HW244837   8.409   7.769   3.642
14863SOL     OW44838   9.556   3.147   1.827
14863SOL    HW144839   9.621   3.149   1.757
14863SOL    HW244840   9.548   3.238   1.856
14864SOL     OW44841  12.935  14.689   6.556
14864SOL    HW144842  12.951  14.674   6.649
14864SOL    HW244843  12.969  14.776   6.539
14865SOL     OW44844  14.729   8.974   5.598
14865SOL    HW144845   4.027   9.033   5.619
14865SOL    HW244846   3.989   8.917   5.530
14866SOL     OW44847   9.953  10.981   1.274
14866SOL    HW144848   9.895  10.951   1.344
14866SOL    HW244849   9.940  11.076   1.271
14867SOL     OW44850   8.740   3.123   3.088
14867SOL    HW144851   8.746   3.030   3.107
14867SOL    HW244852   8.831   3.151   3.075
14868SOL     OW44853   7.397  12.770   6.019
14868SOL    HW144854   7.367  12.859   6.002
14868SOL    HW244855   7.448  12.747   5.941
14869SOL     OW44856   4.469   6.861   4.441
14869SOL    HW144857   4.441   6.825   4.357
14869SOL    HW244858   4.496   6.785   4.492
14870SOL     OW44859   3.376  10.010   0.409
14870SOL    HW144860   3.384   9.951   0.484
14870SOL    HW244861   3.387   9.953   0.333
14871SOL     OW44862   9.603  11.254   3.676
14871SOL    HW144863   9.632  11.338   3.641
14871SOL    HW244864   9.683  11.202   3.683
14872SOL     OW44865  10.557  11.590   2.235
14872SOL    HW144866  10.479  11.577   2.289
14872SOL    HW244867  10.617  11.520   2.262
14873SOL     OW44868  13.500   7.662   4.478
14873SOL    HW144869  13.541   7.677   4.563
14873SOL    HW244870  13.449   7.741   4.462
14874SOL     OW44871  10.045  10.689   3.736
14874SOL    HW144872  10.062  10.606   3.692
14874SOL    HW244873  10.114  10.697   3.801
14875SOL     OW44874  14.330   6.462   5.979
14875SOL    HW144875  14.402   6.405   5.951
14875SOL    HW244876  14.326   6.529   5.911
14876SOL     OW44877  11.722  10.411   2.866
14876SOL    HW144878  11.784  10.339   2.855
14876SOL    HW244879  11.746  10.474   2.799
14877SOL     OW44880  12.601   5.644   3.237
14877SOL    HW144881  12.613   5.591   3.316
14877SOL    HW244882  12.538   5.711   3.263
14878SOL     OW44883   9.892   4.704   0.640
14878SOL    HW144884   9.855   4.765   0.577
14878SOL    HW244885   9.985   4.725   0.644
14879SOL     OW44886   5.566  11.043   5.881
14879SOL    HW144887   5.629  10.993   5.932
14879SOL    HW244888   5.480  11.011   5.909
14880SOL     OW44889   7.923  12.368   2.322
14880SOL    HW144890   7.865  12.306   2.365
14880SOL    HW244891   8.003  12.318   2.306
14881SOL     OW44892   4.248   5.325   3.372
14881SOL    HW144893   4.221   5.347   3.283
14881SOL    HW244894   4.235   5.406   3.422
14882SOL     OW44895  12.955   5.864   4.148
14882SOL    HW144896  13.013   5.858   4.072
14882SOL    HW244897  12.888   5.926   4.121
14883SOL     OW44898  12.106   9.065   2.810
14883SOL    HW144899  12.168   9.025   2.749
14883SOL    HW244900  12.065   8.990   2.854
14884SOL     OW44901   8.026  14.147   6.467
14884SOL    HW144902   8.065  14.060   6.476
14884SOL    HW244903   8.100  14.207   6.467
14885SOL     OW44904   4.611   5.956   3.543
14885SOL    HW144905   4.699   5.987   3.521
14885SOL    HW244906   4.593   5.888   3.477
14886SOL     OW44907   4.910  10.632   3.595
14886SOL    HW144908   4.825  10.649   3.636
14886SOL    HW244909   4.890  10.612   3.504
14887SOL     OW44910   2.924   5.945   2.538
14887SOL    HW144911   3.012   5.919   2.512
14887SOL    HW244912   2.939   6.015   2.603
14888SOL     OW44913  11.374   7.463   2.062
14888SOL    HW144914  11.443   7.480   1.998
14888SOL    HW244915  11.308   7.531   2.044
14889SOL     OW44916  15.644   6.936   6.937
14889SOL    HW144917  15.642   6.998   7.009
14889SOL    HW244918  15.564   6.885   6.947
14890SOL     OW44919   9.503   9.842   4.356
14890SOL    HW144920   9.579   9.859   4.411
14890SOL    HW244921   9.513   9.903   4.283
14891SOL     OW44922   1.104   7.479   0.062
14891SOL    HW144923   6.449  12.922   7.615
14891SOL    HW244924   1.036   7.416   0.087
14892SOL     OW44925  10.701   6.463   0.567
14892SOL    HW144926  10.761   6.461   0.642
14892SOL    HW244927  10.640   6.535   0.587
14893SOL     OW44928   3.909   4.133   1.803
14893SOL    HW144929   3.826   4.179   1.788
14893SOL    HW244930   3.910   4.064   1.738
14894SOL     OW44931   6.332   9.841   4.533
14894SOL    HW144932   6.401   9.778   4.514
14894SOL    HW244933   6.370   9.897   4.601
14895SOL     OW44934   4.390   8.350   1.001
14895SOL    HW144935   4.385   8.314   1.089
14895SOL    HW244936   4.306   8.328   0.961
14896SOL     OW44937  11.063  14.972   6.704
14896SOL    HW144938  11.115  15.014   6.772
14896SOL    HW244939  11.104  14.999   6.622
14897SOL     OW44940   2.668   3.639   1.593
14897SOL    HW144941   2.694   3.550   1.615
14897SOL    HW244942   2.667   3.685   1.678
14898SOL     OW44943   3.701   1.013   0.200
14898SOL    HW144944   3.768   1.081   0.199
14898SOL    HW244945   3.728   0.954   0.271
14899SOL     OW44946  10.744  10.012   3.076
14899SOL    HW144947  10.726   9.990   2.985
14899SOL    HW244948  10.773   9.930   3.116
14900SOL     OW44949   9.453  12.268   4.268
14900SOL    HW144950   9.531  12.322   4.255
14900SOL    HW244951   9.467  12.193   4.209
14901SOL     OW44952   1.386   9.880   1.539
14901SOL    HW144953   1.316   9.906   1.480
14901SOL    HW244954   1.343   9.866   1.624
14902SOL     OW44955   7.062   2.483   3.052
14902SOL    HW144956   6.999   2.544   3.014
14902SOL    HW244957   7.144   2.501   3.006
14903SOL     OW44958   6.971   2.275   2.426
14903SOL    HW144959   6.939   2.362   2.449
14903SOL    HW244960   7.020   2.247   2.504
14904SOL     OW44961  12.075  13.442   6.167
14904SOL    HW144962  12.091  13.374   6.101
14904SOL    HW244963  12.031  13.512   6.119
14905SOL     OW44964   3.799  10.238   1.700
14905SOL    HW144965   3.729  10.286   1.656
14905SOL    HW244966   3.875  10.247   1.643
14906SOL     OW44967   2.320   9.253   0.125
14906SOL    HW144968   2.347   9.199   0.050
14906SOL    HW244969   2.233   9.221   0.147
14907SOL     OW44970  12.464  12.343   3.279
14907SOL    HW144971  12.489  12.434   3.267
14907SOL    HW244972  12.547  12.296   3.290
14908SOL     OW44973   9.128   3.808   3.066
14908SOL    HW144974   9.072   3.734   3.089
14908SOL    HW244975   9.202   3.802   3.126
14909SOL     OW44976  10.455   5.602   1.492
14909SOL    HW144977  10.483   5.526   1.441
14909SOL    HW244978  10.377   5.572   1.539
14910SOL     OW44979   7.874   6.355   2.945
14910SOL    HW144980   7.890   6.292   2.875
14910SOL    HW244981   7.924   6.433   2.919
14911SOL     OW44982   7.651   3.188   3.077
14911SOL    HW144983   7.632   3.122   3.011
14911SOL    HW244984   7.643   3.271   3.032
14912SOL     OW44985   5.864  10.706   6.853
14912SOL    HW144986   5.888  10.644   6.784
14912SOL    HW244987   5.861  10.652   6.933
14913SOL     OW44988   3.772   5.455   2.306
14913SOL    HW144989   3.794   5.457   2.213
14913SOL    HW244990   3.853   5.476   2.352
14914SOL     OW44991  10.167   9.751   0.152
14914SOL    HW144992  10.151   9.728   0.061
14914SOL    HW244993  10.232   9.687   0.181
14915SOL     OW44994   5.671  11.789   2.781
14915SOL    HW144995   5.738  11.758   2.720
14915SOL    HW244996   5.692  11.746   2.864
14916SOL     OW44997   7.404  12.788   5.679
14916SOL    HW144998   7.330  12.848   5.690
14916SOL    HW244999   7.385  12.742   5.597
14917SOL     OW45000   4.678  10.205   4.320
14917SOL    HW145001   4.692  10.195   4.226
14917SOL    HW245002   4.628  10.286   4.328
14918SOL     OW45003   3.786   7.895   4.758
14918SOL    HW145004   3.836   7.844   4.694
14918SOL    HW245005   3.694   7.877   4.737
14919SOL     OW45006   5.455   3.186   0.574
14919SOL    HW145007   5.427   3.118   0.635
14919SOL    HW245008   5.438   3.268   0.620
14920SOL     OW45009   8.162   6.713   0.466
14920SOL    HW145010   8.133   6.644   0.406
14920SOL    HW245011   8.189   6.785   0.409
14921SOL     OW45012   2.128   8.983   0.218
14921SOL    HW145013   2.055   8.996   0.278
14921SOL    HW245014   2.205   9.017   0.265
14922SOL     OW45015   4.946  10.881   3.385
14922SOL    HW145016   4.895  10.820   3.438
14922SOL    HW245017   4.943  10.964   3.433
14923SOL     OW45018   5.797   0.481   0.339
14923SOL    HW145019   5.795   0.399   0.389
14923SOL    HW245020   5.743   0.541   0.390
14924SOL     OW45021   4.475   4.556   2.922
14924SOL    HW145022   4.556   4.560   2.871
14924SOL    HW245023   4.496   4.600   3.004
14925SOL     OW45024  12.625  13.534   7.512
14925SOL    HW145025  12.601  13.441   7.518
14925SOL    HW245026  12.686  13.548   7.585
14926SOL     OW45027  11.648  11.592   2.484
14926SOL    HW145028  11.728  11.540   2.483
14926SOL    HW245029  11.661  11.657   2.415
14927SOL     OW45030   6.676  10.532   6.126
14927SOL    HW145031   6.594  10.566   6.090
14927SOL    HW245032   6.659  10.438   6.139
14928SOL     OW45033   6.820   6.880   1.143
14928SOL    HW145034   6.754   6.944   1.114
14928SOL    HW245035   6.903   6.914   1.108
14929SOL     OW45036   6.534  10.733   3.379
14929SOL    HW145037   6.556  10.732   3.286
14929SOL    HW245038   6.608  10.777   3.421
14930SOL     OW45039   7.737   6.419   5.390
14930SOL    HW145040   7.831   6.413   5.408
14930SOL    HW245041   7.698   6.350   5.443
14931SOL     OW45042  10.384   7.497   4.637
14931SOL    HW145043  10.478   7.504   4.654
14931SOL    HW245044  10.377   7.483   4.543
14932SOL     OW45045   9.177   5.945   5.293
14932SOL    HW145046   9.214   6.032   5.283
14932SOL    HW245047   9.135   5.947   5.379
14933SOL     OW45048   6.528   4.185   4.826
14933SOL    HW145049   6.568   4.102   4.803
14933SOL    HW245050   6.566   4.208   4.911
14934SOL     OW45051  11.646  11.176   2.041
14934SOL    HW145052  11.719  11.117   2.022
14934SOL    HW245053  11.656  11.197   2.134
14935SOL     OW45054   1.960   8.823   0.023
14935SOL    HW145055   2.013   8.877   0.081
14935SOL    HW245056   1.875   8.816   0.067
14936SOL     OW45057   6.057  10.190   7.517
14936SOL    HW145058   6.121  10.125   7.487
14936SOL    HW245059   6.109  10.266   7.542
14937SOL     OW45060  13.136   9.866   4.916
14937SOL    HW145061  13.218   9.830   4.883
14937SOL    HW245062  13.133   9.956   4.883
14938SOL     OW45063   9.239   4.238   3.959
14938SOL    HW145064   9.166   4.219   3.900
14938SOL    HW245065   9.218   4.323   3.996
14939SOL     OW45066   4.749  11.928   5.211
14939SOL    HW145067   4.791  11.854   5.256
14939SOL    HW245068   4.790  11.929   5.124
14940SOL     OW45069  11.923   7.768   1.746
14940SOL    HW145070  11.884   7.853   1.767
14940SOL    HW245071  11.869   7.735   1.674
14941SOL     OW45072   8.061   4.850   6.087
14941SOL    HW145073   8.016   4.914   6.031
14941SOL    HW245074   8.151   4.882   6.091
14942SOL     OW45075   6.088   0.660   0.609
14942SOL    HW145076   6.088   0.566   0.590
14942SOL    HW245077   6.176   0.678   0.640
14943SOL     OW45078  14.561   5.016   6.278
14943SOL    HW145079  14.629   5.053   6.221
14943SOL    HW245080  14.607   4.995   6.359
14944SOL     OW45081   9.075   1.708   2.259
14944SOL    HW145082   9.105  12.403   2.303
14944SOL    HW245083   9.144   1.772   2.276
14945SOL     OW45084  10.202   7.026   6.649
14945SOL    HW145085  10.207   6.983   6.735
14945SOL    HW245086  10.147   6.968   6.596
14946SOL     OW45087   5.481  15.069   6.254
14946SOL    HW145088   5.471  15.018   6.174
14946SOL    HW245089   5.575  15.083   6.262
14947SOL     OW45090   8.748   3.568   3.469
14947SOL    HW145091   8.793   3.542   3.550
14947SOL    HW245092   8.811   3.625   3.425
14948SOL     OW45093   7.961  11.661   3.520
14948SOL    HW145094   8.012  11.587   3.488
14948SOL    HW245095   8.027  11.724   3.549
14949SOL     OW45096   9.200   6.462   3.642
14949SOL    HW145097   9.222   6.380   3.686
14949SOL    HW245098   9.120   6.443   3.594
14950SOL     OW45099  11.280   8.283   3.095
14950SOL    HW145100  11.207   8.221   3.097
14950SOL    HW245101  11.356   8.230   3.071
14951SOL     OW45102   5.659   6.463   4.571
14951SOL    HW145103   5.637   6.384   4.521
14951SOL    HW245104   5.680   6.430   4.658
14952SOL     OW45105  12.362   4.069   5.016
14952SOL    HW145106  12.454   4.048   4.999
14952SOL    HW245107  12.341   4.140   4.956
14953SOL     OW45108   7.376   6.644   2.102
14953SOL    HW145109   7.304   6.638   2.040
14953SOL    HW245110   7.333   6.650   2.188
14954SOL     OW45111   5.580   3.286   4.633
14954SOL    HW145112   5.632  14.036   4.710
14954SOL    HW245113   5.622   3.366   4.601
14955SOL     OW45114   3.066   9.190   2.189
14955SOL    HW145115   3.042   9.277   2.157
14955SOL    HW245116   3.033   9.187   2.279
14956SOL     OW45117  12.410  11.211   4.666
14956SOL    HW145118  12.395  11.132   4.718
14956SOL    HW245119  12.469  11.264   4.718
14957SOL     OW45120   4.689   1.345   1.811
14957SOL    HW145121   4.734   1.418   1.855
14957SOL    HW245122   4.623  12.090   1.873
14958SOL     OW45123   2.446   6.840   2.644
14958SOL    HW145124   2.444   6.832   2.548
14958SOL    HW245125   2.460   6.751   2.675
14959SOL     OW45126   3.588   9.760   2.886
14959SOL    HW145127   3.510   9.786   2.838
14959SOL    HW245128   3.655   9.749   2.818
14960SOL     OW45129   7.315  13.656   4.776
14960SOL    HW145130   7.232  13.609   4.785
14960SOL    HW245131   7.371  13.596   4.725
14961SOL     OW45132   9.633   9.135   5.008
14961SOL    HW145133   9.622   9.227   5.033
14961SOL    HW245134   9.546   9.097   5.015
14962SOL     OW45135  14.153  13.510   6.287
14962SOL    HW145136  14.105  13.488   6.367
14962SOL    HW245137  14.088  13.506   6.217
14963SOL     OW45138   7.866  11.869   3.254
14963SOL    HW145139   7.899  11.959   3.255
14963SOL    HW245140   7.893  11.833   3.338
14964SOL     OW45141   8.678  11.469   3.442
14964SOL    HW145142   8.664  11.558   3.410
14964SOL    HW245143   8.606  11.419   3.404
14965SOL     OW45144  14.038   8.273   6.088
14965SOL    HW145145  13.979   8.209   6.048
14965SOL    HW245146  14.074   8.322   6.014
14966SOL     OW45147   9.416   5.305   0.844
14966SOL    HW145148   9.423   5.340   0.933
14966SOL    HW245149   9.499   5.327   0.802
14967SOL     OW45150   9.332   6.669   5.286
14967SOL    HW145151   9.375   6.620   5.217
14967SOL    HW245152   9.249   6.623   5.300
14968SOL     OW45153  12.077   7.987   5.869
14968SOL    HW145154  12.112   8.052   5.808
14968SOL    HW245155  11.986   7.975   5.840
14969SOL     OW45156   9.210   9.225   5.571
14969SOL    HW145157   9.286   9.270   5.533
14969SOL    HW245158   9.242   9.193   5.656
14970SOL     OW45159   9.930   8.237   3.449
14970SOL    HW145160   9.873   8.242   3.526
14970SOL    HW245161  10.009   8.193   3.480
14971SOL     OW45162   6.839  12.246   4.763
14971SOL    HW145163   6.833  12.338   4.787
14971SOL    HW245164   6.927  12.219   4.789
14972SOL     OW45165  10.247   9.564   2.670
14972SOL    HW145166  10.152   9.579   2.675
14972SOL    HW245167  10.286   9.649   2.687
14973SOL     OW45168  15.125  11.918   7.320
14973SOL    HW145169  15.077  11.836   7.322
14973SOL    HW245170  15.115  11.950   7.230
14974SOL     OW45171   7.682   7.190   1.461
14974SOL    HW145172   7.641   7.106   1.441
14974SOL    HW245173   7.659   7.246   1.387
14975SOL     OW45174   8.604   6.308   7.255
14975SOL    HW145175   8.650   6.375   7.306
14975SOL    HW245176   8.633   6.225   7.293
14976SOL     OW45177   8.450   4.172   2.429
14976SOL    HW145178   8.394   4.193   2.504
14976SOL    HW245179   8.472   4.257   2.390
14977SOL     OW45180   5.871   1.431   1.462
14977SOL    HW145181   5.963   1.403   1.467
14977SOL    HW245182   5.848   1.452   1.552
14978SOL     OW45183   8.771   5.317   7.003
14978SOL    HW145184   8.716   5.385   6.965
14978SOL    HW245185   8.714   5.270   7.064
14979SOL     OW45186   4.291  10.634   1.287
14979SOL    HW145187   4.252  10.548   1.302
14979SOL    HW245188   4.372  10.633   1.338
14980SOL     OW45189  10.580   7.136   3.611
14980SOL    HW145190  10.544   7.115   3.697
14980SOL    HW245191  10.580   7.053   3.564
14981SOL     OW45192  10.342   2.793   3.450
14981SOL    HW145193  10.397   2.812   3.374
14981SOL    HW245194  10.381   2.844   3.522
14982SOL     OW45195   9.293   2.659   2.776
14982SOL    HW145196   9.314   2.752   2.780
14982SOL    HW245197   9.253   2.646   2.691
14983SOL     OW45198  13.720  13.782   5.760
14983SOL    HW145199  13.696  13.738   5.679
14983SOL    HW245200  13.637  13.813   5.796
14984SOL     OW45201  11.845   4.721   1.728
14984SOL    HW145202  11.936   4.750   1.720
14984SOL    HW245203  11.806   4.784   1.789
14985SOL     OW45204   4.577   8.866   0.436
14985SOL    HW145205   4.516   8.793   0.430
14985SOL    HW245206   4.541   8.932   0.375
14986SOL     OW45207   5.542   6.280   5.159
14986SOL    HW145208   5.629   6.296   5.194
14986SOL    HW245209   5.544   6.317   5.070
14987SOL     OW45210   4.555   8.014   4.691
14987SOL    HW145211   4.649   8.027   4.688
14987SOL    HW245212   4.534   8.007   4.784
14988SOL     OW45213  14.196   8.315   5.488
14988SOL    HW145214  14.273   8.372   5.494
14988SOL    HW245215  14.150   8.328   5.571
14989SOL     OW45216   6.152  11.859   2.063
14989SOL    HW145217   6.206  11.781   2.080
14989SOL    HW245218   6.073  11.846   2.115
14990SOL     OW45219   5.722   3.728   1.589
14990SOL    HW145220   5.787   3.672   1.547
14990SOL    HW245221   5.695   3.789   1.521
14991SOL     OW45222   3.618   2.951   3.570
14991SOL    HW145223   3.644   3.024   3.625
14991SOL    HW245224   3.542   2.913   3.615
14992SOL     OW45225  12.339  11.821   6.652
14992SOL    HW145226  12.323  11.853   6.563
14992SOL    HW245227  12.433  11.804   6.654
14993SOL     OW45228   6.098   2.061   2.726
14993SOL    HW145229   6.164   2.110   2.678
14993SOL    HW245230   6.132   1.971   2.730
14994SOL     OW45231   5.487   4.604   1.811
14994SOL    HW145232   5.564   4.579   1.760
14994SOL    HW245233   5.498   4.698   1.827
14995SOL     OW45234  11.198   2.572   3.162
14995SOL    HW145235  11.207   2.491   3.212
14995SOL    HW245236  11.156   2.544   3.080
14996SOL     OW45237  12.495   5.668   5.844
14996SOL    HW145238  12.457   5.609   5.778
14996SOL    HW245239  12.504   5.613   5.922
14997SOL     OW45240  13.537   3.522   4.965
14997SOL    HW145241  13.568  14.228   5.024
14997SOL    HW245242  13.501   3.474   4.890
14998SOL     OW45243   1.480   5.084   1.793
14998SOL    HW145244   1.545   5.133   1.844
14998SOL    HW245245   1.467   5.003   1.843
14999SOL     OW45246  10.925   8.649   1.433
14999SOL    HW145247  10.833   8.653   1.406
14999SOL    HW245248  10.930   8.704   1.511
15000SOL     OW45249   8.255   4.167   2.128
15000SOL    HW145250   8.229   4.110   2.055
15000SOL    HW245251   8.287   4.107   2.195
15001SOL     OW45252   9.544  12.755   5.211
15001SOL    HW145253   9.503  12.694   5.150
15001SOL    HW245254   9.520  12.842   5.177
15002SOL     OW45255   3.649   6.273   2.218
15002SOL    HW145256   3.612   6.308   2.300
15002SOL    HW245257   3.648   6.178   2.230
15003SOL     OW45258   7.521   5.423   7.520
15003SOL    HW145259   7.452   5.370   7.480
15003SOL    HW245260   7.494   5.513   7.503
15004SOL     OW45261   3.807   6.206   4.893
15004SOL    HW145262   3.857   6.287   4.885
15004SOL    HW245263   3.858   6.141   4.844
15005SOL     OW45264   9.064   7.199   7.391
15005SOL    HW145265   9.082   7.109   7.363
15005SOL    HW245266   8.972   7.212   7.368
15006SOL     OW45267   4.827   4.761   1.969
15006SOL    HW145268   4.799   4.741   2.058
15006SOL    HW245269   4.751   4.804   1.930
15007SOL     OW45270   7.623   4.887   0.730
15007SOL    HW145271   7.634   4.981   0.714
15007SOL    HW245272   7.701   4.862   0.778
15008SOL     OW45273   7.537   1.321   0.764
15008SOL    HW145274   7.600   1.387   0.792
15008SOL    HW245275   7.453   1.368   0.761
15009SOL     OW45276   6.478   1.987   2.646
15009SOL    HW145277   6.462   1.958   2.556
15009SOL    HW245278   6.534   1.919   2.683
15010SOL     OW45279   7.845   5.064   3.621
15010SOL    HW145280   7.906   5.077   3.694
15010SOL    HW245281   7.858   5.140   3.566
15011SOL     OW45282   6.989   7.157   3.193
15011SOL    HW145283   6.921   7.223   3.184
15011SOL    HW245284   6.963   7.087   3.132
15012SOL     OW45285  10.967   8.529   4.299
15012SOL    HW145286  11.055   8.515   4.265
15012SOL    HW245287  10.957   8.624   4.301
15013SOL     OW45288   2.216   9.873   0.121
15013SOL    HW145289   2.204   9.778   0.110
15013SOL    HW245290   2.140   9.900   0.173
15014SOL     OW45291   6.443  11.967   2.023
15014SOL    HW145292   6.371  11.960   2.086
15014SOL    HW245293   6.491  12.045   2.051
15015SOL     OW45294  13.534   6.394   6.864
15015SOL    HW145295  13.493   6.318   6.905
15015SOL    HW245296  13.627   6.370   6.857
15016SOL     OW45297   8.861  11.125   1.327
15016SOL    HW145298   8.883  11.201   1.273
15016SOL    HW245299   8.945  11.093   1.359
15017SOL     OW45300  11.952   4.905   4.598
15017SOL    HW145301  11.906   4.822   4.582
15017SOL    HW245302  12.022   4.906   4.532
15018SOL     OW45303   9.300   5.065   5.407
15018SOL    HW145304   9.308   5.018   5.490
15018SOL    HW245305   9.264   5.150   5.432
15019SOL     OW45306  10.913   7.792   1.332
15019SOL    HW145307  10.970   7.715   1.334
15019SOL    HW245308  10.853   7.780   1.406
15020SOL     OW45309  11.074   7.351   2.453
15020SOL    HW145310  11.065   7.352   2.549
15020SOL    HW245311  11.094   7.441   2.430
15021SOL     OW45312   9.555  13.219   3.923
15021SOL    HW145313   9.604  13.297   3.947
15021SOL    HW245314   9.574  13.156   3.992
15022SOL     OW45315   9.783   1.669   0.080
15022SOL    HW145316   9.709   1.730   0.082
15022SOL    HW245317   9.849   1.710   0.136
15023SOL     OW45318   9.574   6.824   4.946
15023SOL    HW145319   9.634   6.883   4.901
15023SOL    HW245320   9.511   6.798   4.878
15024SOL     OW45321   5.643   7.669   7.290
15024SOL    HW145322   5.658   7.591   7.344
15024SOL    HW245323   5.629   7.634   7.202
15025SOL     OW45324   5.024  11.398   1.480
15025SOL    HW145325   4.999  11.325   1.537
15025SOL    HW245326   5.092  11.444   1.529
15026SOL     OW45327   9.539  11.766   5.845
15026SOL    HW145328   9.548  11.671   5.834
15026SOL    HW245329   9.487  11.795   5.770
15027SOL     OW45330  14.094  13.635   6.579
15027SOL    HW145331  14.007  13.607   6.608
15027SOL    HW245332  14.077  13.700   6.511
15028SOL     OW45333   8.352   5.239   4.638
15028SOL    HW145334   8.261   5.248   4.610
15028SOL    HW245335   8.371   5.146   4.628
15029SOL     OW45336  12.408  12.300   2.432
15029SOL    HW145337  12.328  12.329   2.477
15029SOL    HW245338  12.461  12.262   2.502
15030SOL     OW45339   2.849   9.490   0.696
15030SOL    HW145340   2.850   9.542   0.615
15030SOL    HW245341   2.939   9.458   0.705
15031SOL     OW45342   3.404   3.366   0.680
15031SOL    HW145343   3.439   3.425   0.613
15031SOL    HW245344   3.353   3.423   0.738
15032SOL     OW45345   6.564  10.440   0.691
15032SOL    HW145346   6.494  10.504   0.680
15032SOL    HW245347   6.521  10.355   0.685
15033SOL     OW45348   4.869   5.010   2.696
15033SOL    HW145349   4.885   4.920   2.669
15033SOL    HW245350   4.956   5.052   2.694
15034SOL     OW45351   6.521   9.693   5.747
15034SOL    HW145352   6.479   9.668   5.665
15034SOL    HW245353   6.608   9.724   5.722
15035SOL     OW45354  11.699   8.292   3.461
15035SOL    HW145355  11.618   8.330   3.429
15035SOL    HW245356  11.768   8.352   3.431
15036SOL     OW45357   6.209   7.422   3.359
15036SOL    HW145358   6.163   7.500   3.326
15036SOL    HW245359   6.302   7.441   3.343
15037SOL     OW45360   7.154  10.531   4.819
15037SOL    HW145361   7.237  10.527   4.770
15037SOL    HW245362   7.180  10.517   4.910
15038SOL     OW45363  14.648   7.352   5.993
15038SOL    HW145364  14.616   7.441   6.009
15038SOL    HW245365  14.571   7.304   5.961
15039SOL     OW45366   6.932   7.631   2.971
15039SOL    HW145367   6.971   7.688   3.037
15039SOL    HW245368   6.990   7.641   2.895
15040SOL     OW45369   9.285   7.196   5.069
15040SOL    HW145370   9.283   7.133   5.141
15040SOL    HW245371   9.376   7.195   5.039
15041SOL     OW45372   5.164   8.419   1.561
15041SOL    HW145373   5.161   8.513   1.546
15041SOL    HW245374   5.078   8.387   1.534
15042SOL     OW45375  15.297  12.243   7.194
15042SOL    HW145376  15.258  12.303   7.129
15042SOL    HW245377  15.331  12.301   7.262
15043SOL     OW45378   3.773  12.865   4.769
15043SOL    HW145379   3.741  12.930   4.832
15043SOL    HW245380   3.773  12.912   4.685
15044SOL     OW45381   6.836   7.999   5.666
15044SOL    HW145382   6.809   7.934   5.602
15044SOL    HW245383   6.771   7.993   5.736
15045SOL     OW45384   7.871   7.229   2.052
15045SOL    HW145385   7.848   7.142   2.019
15045SOL    HW245386   7.789   7.262   2.091
15046SOL     OW45387  11.020   8.106   2.845
15046SOL    HW145388  10.944   8.074   2.893
15046SOL    HW245389  10.995   8.195   2.818
15047SOL     OW45390   7.155  14.734   5.771
15047SOL    HW145391   7.130  14.663   5.829
15047SOL    HW245392   7.245  14.756   5.797
15048SOL     OW45393   4.418  12.729   3.887
15048SOL    HW145394   4.354  12.784   3.843
15048SOL    HW245395   4.389  12.639   3.868
15049SOL     OW45396   4.232   9.933   3.991
15049SOL    HW145397   4.197   9.961   3.906
15049SOL    HW245398   4.206   9.841   3.998
15050SOL     OW45399  10.044  11.366   5.075
15050SOL    HW145400   9.963  11.317   5.057
15050SOL    HW245401  10.032  11.398   5.165
15051SOL     OW45402   9.102   4.007   1.610
15051SOL    HW145403   9.112   4.091   1.566
15051SOL    HW245404   9.190   3.970   1.613
15052SOL     OW45405  11.061  12.281   4.706
15052SOL    HW145406  11.140  12.302   4.656
15052SOL    HW245407  11.027  12.202   4.664
15053SOL     OW45408  10.189   7.557   3.193
15053SOL    HW145409  10.115   7.618   3.203
15053SOL    HW245410  10.238   7.592   3.119
15054SOL     OW45411   4.522   8.795   1.281
15054SOL    HW145412   4.603   8.792   1.230
15054SOL    HW245413   4.484   8.881   1.261
15055SOL     OW45414  11.844   9.990   1.748
15055SOL    HW145415  11.851   9.894   1.743
15055SOL    HW245416  11.823  10.018   1.659
15056SOL     OW45417   8.870   9.702   7.403
15056SOL    HW145418   8.929   9.686   7.476
15056SOL    HW245419   8.782   9.692   7.441
15057SOL     OW45420  12.534   8.286   3.450
15057SOL    HW145421  12.583   8.217   3.494
15057SOL    HW245422  12.585   8.305   3.371
15058SOL     OW45423   6.846   6.790   2.562
15058SOL    HW145424   6.779   6.858   2.554
15058SOL    HW245425   6.824   6.727   2.493
15059SOL     OW45426   2.652   1.963   1.038
15059SOL    HW145427   2.698   2.023   1.096
15059SOL    HW245428   2.607   1.902   1.097
15060SOL     OW45429   8.168   9.218   0.306
15060SOL    HW145430   8.232   9.279   0.269
15060SOL    HW245431   8.164   9.146   0.243
15061SOL     OW45432   5.649   4.121   2.599
15061SOL    HW145433   5.695   4.197   2.636
15061SOL    HW245434   5.561   4.155   2.579
15062SOL     OW45435   7.691  12.407   3.226
15062SOL    HW145436   7.650  12.366   3.150
15062SOL    HW245437   7.771  12.357   3.239
15063SOL     OW45438   5.884  11.859   6.217
15063SOL    HW145439   5.953  11.812   6.264
15063SOL    HW245440   5.920  11.874   6.129
15064SOL     OW45441   7.734  10.189   5.205
15064SOL    HW145442   7.763  10.125   5.270
15064SOL    HW245443   7.642  10.167   5.190
15065SOL     OW45444  11.535   8.234   1.319
15065SOL    HW145445  11.504   8.192   1.400
15065SOL    HW245446  11.495   8.320   1.320
15066SOL     OW45447  11.055  11.501   5.946
15066SOL    HW145448  11.035  11.542   6.029
15066SOL    HW245449  10.970  11.483   5.906
15067SOL     OW45450   5.005  14.460   6.461
15067SOL    HW145451   4.997  14.476   6.367
15067SOL    HW245452   4.916  14.439   6.490
15068SOL     OW45453  11.073   4.666   0.796
15068SOL    HW145454  11.126   4.638   0.870
15068SOL    HW245455  11.001   4.714   0.835
15069SOL     OW45456   6.973   2.691   3.379
15069SOL    HW145457   7.006   2.608   3.344
15069SOL    HW245458   6.897   2.711   3.325
15070SOL     OW45459   9.208   6.310   4.094
15070SOL    HW145460   9.228   6.220   4.068
15070SOL    HW245461   9.115   6.320   4.075
15071SOL     OW45462   1.943   3.812   0.596
15071SOL    HW145463   2.035   3.841   0.596
15071SOL    HW245464   1.923   3.800   0.689
15072SOL     OW45465  14.215   9.425   6.567
15072SOL    HW145466  14.176   9.402   6.483
15072SOL    HW245467  14.248   9.343   6.602
15073SOL     OW45468   2.965   7.836   0.564
15073SOL    HW145469   3.023   7.826   0.489
15073SOL    HW245470   2.880   7.803   0.534
15074SOL     OW45471  10.635   9.157   1.412
15074SOL    HW145472  10.651   9.246   1.443
15074SOL    HW245473  10.706   9.141   1.350
15075SOL     OW45474  13.031  14.962   7.575
15075SOL    HW145475  13.118  14.936   7.543
15075SOL    HW245476  13.003  15.030   7.514
15076SOL     OW45477   1.608   8.835   1.693
15076SOL    HW145478   1.601   8.931   1.693
15076SOL    HW245479   1.623   8.813   1.785
15077SOL     OW45480   4.185   7.152   3.097
15077SOL    HW145481   4.197   7.232   3.148
15077SOL    HW245482   4.240   7.163   3.020
15078SOL     OW45483   4.739  13.758   4.660
15078SOL    HW145484   4.744  13.835   4.716
15078SOL    HW245485   4.831  13.738   4.638
15079SOL     OW45486   7.656  12.055   2.691
15079SOL    HW145487   7.566  12.089   2.695
15079SOL    HW245488   7.706  12.113   2.749
15080SOL     OW45489   2.443   1.481   1.012
15080SOL    HW145490   2.537   1.481   1.032
15080SOL    HW245491   2.414   1.392   1.034
15081SOL     OW45492   8.864  11.018   0.883
15081SOL    HW145493   8.909  10.941   0.917
15081SOL    HW245494   8.805  11.045   0.954
15082SOL     OW45495   6.524  12.634   3.772
15082SOL    HW145496   6.467  12.574   3.724
15082SOL    HW245497   6.612  12.614   3.740
15083SOL     OW45498   1.222   8.639   1.347
15083SOL    HW145499   1.290   8.698   1.312
15083SOL    HW245500   1.165   8.623   1.272
15084SOL     OW45501   5.901  10.489   4.995
15084SOL    HW145502   5.988  10.479   5.034
15084SOL    HW245503   5.883  10.583   4.999
15085SOL     OW45504   2.486   7.455   1.301
15085SOL    HW145505   2.487   7.432   1.394
15085SOL    HW245506   2.401   7.498   1.289
15086SOL     OW45507   7.838   2.919   1.148
15086SOL    HW145508   7.766   2.945   1.091
15086SOL    HW245509   7.917   2.946   1.101
15087SOL     OW45510   4.344   2.484   2.236
15087SOL    HW145511   4.316   2.572   2.210
15087SOL    HW245512   4.273   2.427   2.206
15088SOL     OW45513  13.314  13.156   6.418
15088SOL    HW145514  13.250  13.181   6.352
15088SOL    HW245515  13.338  13.066   6.396
15089SOL     OW45516   3.307   7.106   0.889
15089SOL    HW145517   3.314   7.014   0.862
15089SOL    HW245518   3.254   7.103   0.969
15090SOL     OW45519   8.453  10.113   4.494
15090SOL    HW145520   8.398  10.191   4.490
15090SOL    HW245521   8.512  10.121   4.419
15091SOL     OW45522   5.248  12.504   5.158
15091SOL    HW145523   5.171  12.558   5.175
15091SOL    HW245524   5.289  12.494   5.244
15092SOL     OW45525   8.813   5.568   3.271
15092SOL    HW145526   8.853   5.496   3.223
15092SOL    HW245527   8.884   5.600   3.328
15093SOL     OW45528   4.901   4.413   3.793
15093SOL    HW145529   4.940   4.488   3.838
15093SOL    HW245530   4.827   4.450   3.746
15094SOL     OW45531   6.171  11.010   3.488
15094SOL    HW145532   6.244  11.067   3.464
15094SOL    HW245533   6.184  10.931   3.436
15095SOL     OW45534  11.548  10.656   3.019
15095SOL    HW145535  11.567  10.563   3.009
15095SOL    HW245536  11.631  10.695   3.046
15096SOL     OW45537   4.933   5.878   1.832
15096SOL    HW145538   4.855   5.875   1.887
15096SOL    HW245539   4.900   5.878   1.742
15097SOL     OW45540   5.676   7.134   1.695
15097SOL    HW145541   5.602   7.074   1.683
15097SOL    HW245542   5.686   7.177   1.611
15098SOL     OW45543   7.464   6.486   0.489
15098SOL    HW145544   7.472   6.497   0.584
15098SOL    HW245545   7.371   6.471   0.474
15099SOL     OW45546  11.206  13.897   6.933
15099SOL    HW145547  11.253  13.885   6.851
15099SOL    HW245548  11.117  13.919   6.906
15100SOL     OW45549   9.769   4.399   2.528
15100SOL    HW145550   9.706   4.468   2.548
15100SOL    HW245551   9.751   4.376   2.437
15101SOL     OW45552   2.540   7.814   2.783
15101SOL    HW145553   2.593   7.891   2.763
15101SOL    HW245554   2.589   7.767   2.850
15102SOL     OW45555  14.597  13.896   5.442
15102SOL    HW145556   3.840  13.919   5.351
15102SOL    HW245557  14.584  13.980   5.487
15103SOL     OW45558  10.428   6.807   1.990
15103SOL    HW145559  10.355   6.747   1.984
15103SOL    HW245560  10.389   6.894   1.989
15104SOL     OW45561   9.250   5.018   6.615
15104SOL    HW145562   9.279   4.933   6.650
15104SOL    HW245563   9.327   5.074   6.622
15105SOL     OW45564  13.126  11.369   3.707
15105SOL    HW145565  13.180  11.444   3.679
15105SOL    HW245566  13.061  11.359   3.637
15106SOL     OW45567   8.250   2.884   0.128
15106SOL    HW145568   8.264   2.789   0.124
15106SOL    HW245569   8.161   2.896   0.095
15107SOL     OW45570   6.964   2.952   3.070
15107SOL    HW145571   6.884   2.993   3.104
15107SOL    HW245572   6.934   2.873   3.026
15108SOL     OW45573   9.192   6.769   4.457
15108SOL    HW145574   9.168   6.699   4.518
15108SOL    HW245575   9.220   6.841   4.514
15109SOL     OW45576  13.294   7.395   5.533
15109SOL    HW145577  13.389   7.408   5.525
15109SOL    HW245578  13.267   7.362   5.447
15110SOL     OW45579  10.852   8.288   3.110
15110SOL    HW145580  10.820   8.344   3.182
15110SOL    HW245581  10.903   8.347   3.055
15111SOL     OW45582   2.388   0.932   0.732
15111SOL    HW145583   2.415   0.846   0.765
15111SOL    HW245584   2.293   0.930   0.736
15112SOL     OW45585   8.404   5.848   4.688
15112SOL    HW145586   8.437   5.922   4.636
15112SOL    HW245587   8.329   5.883   4.735
15113SOL     OW45588   8.571   5.436   1.011
15113SOL    HW145589   8.568   5.345   1.042
15113SOL    HW245590   8.611   5.431   0.924
15114SOL     OW45591   8.390   8.741   0.866
15114SOL    HW145592   8.397   8.659   0.817
15114SOL    HW245593   8.414   8.808   0.802
15115SOL     OW45594   8.097   2.427   2.942
15115SOL    HW145595   8.012   2.391   2.914
15115SOL    HW245596   8.147   2.350   2.971
15116SOL     OW45597  12.126   8.503   7.204
15116SOL    HW145598  12.054   8.547   7.249
15116SOL    HW245599  12.204   8.527   7.255
15117SOL     OW45600   6.308   5.525   1.720
15117SOL    HW145601   6.225   5.503   1.677
15117SOL    HW245602   6.288   5.523   1.814
15118SOL     OW45603   2.919   8.545   1.128
15118SOL    HW145604   2.929   8.474   1.065
15118SOL    HW245605   3.009   8.564   1.156
15119SOL     OW45606   8.110   5.125   1.816
15119SOL    HW145607   8.205   5.126   1.810
15119SOL    HW245608   8.092   5.107   1.909
15120SOL     OW45609   3.000   7.445   0.104
15120SOL    HW145610   2.974   7.359   0.071
15120SOL    HW245611   3.080   7.466   0.056
15121SOL     OW45612   1.370   3.197   0.279
15121SOL    HW145613   1.282   3.172   0.250
15121SOL    HW245614   1.374   3.292   0.263
15122SOL     OW45615   2.575   4.863   1.028
15122SOL    HW145616   2.523   4.943   1.035
15122SOL    HW245617   2.662   4.887   1.058
15123SOL     OW45618   3.214   5.588   2.565
15123SOL    HW145619   3.120   5.596   2.549
15123SOL    HW245620   3.238   5.669   2.610
15124SOL     OW45621   6.374   8.514   0.793
15124SOL    HW145622   6.324   8.553   0.721
15124SOL    HW245623   6.332   8.430   0.809
15125SOL     OW45624   2.121   2.765   1.487
15125SOL    HW145625   2.113   2.671   1.475
15125SOL    HW245626   2.158   2.796   1.404
15126SOL     OW45627  10.425  13.183   7.189
15126SOL    HW145628  10.423  13.279   7.187
15126SOL    HW245629  10.338  13.157   7.161
15127SOL     OW45630   3.059   5.270   2.565
15127SOL    HW145631   3.107   5.338   2.613
15127SOL    HW245632   3.081   5.287   2.473
15128SOL     OW45633   6.595   6.263   6.083
15128SOL    HW145634   6.620   6.282   6.173
15128SOL    HW245635   6.605   6.347   6.037
15129SOL     OW45636  13.975  13.663   5.607
15129SOL    HW145637  13.921  13.588   5.583
15129SOL    HW245638  13.946  13.733   5.548
15130SOL     OW45639   8.948   1.756   1.000
15130SOL    HW145640   9.000   1.834   0.984
15130SOL    HW245641   9.002   1.702   1.059
15131SOL     OW45642   9.617  10.907   4.646
15131SOL    HW145643   9.538  10.942   4.605
15131SOL    HW245644   9.688  10.957   4.607
15132SOL     OW45645  10.655  12.502   4.301
15132SOL    HW145646  10.658  12.504   4.205
15132SOL    HW245647  10.664  12.410   4.323
15133SOL     OW45648   8.618  13.098   3.538
15133SOL    HW145649   8.627  13.136   3.451
15133SOL    HW245650   8.568  13.163   3.588
15134SOL     OW45651   9.752   5.541   3.719
15134SOL    HW145652   9.773   5.540   3.626
15134SOL    HW245653   9.796   5.619   3.752
15135SOL     OW45654   8.013   7.195   0.644
15135SOL    HW145655   8.077   7.266   0.650
15135SOL    HW245656   8.006   7.178   0.550
15136SOL     OW45657   4.725   4.416   5.518
15136SOL    HW145658   4.682   4.360   5.453
15136SOL    HW245659   4.661   4.423   5.589
15137SOL     OW45660  10.746   7.078   2.962
15137SOL    HW145661  10.730   7.172   2.978
15137SOL    HW245662  10.715   7.064   2.873
15138SOL     OW45663  14.572  10.267   5.684
15138SOL    HW145664  14.563  10.205   5.756
15138SOL    HW245665  14.500  10.248   5.625
15139SOL     OW45666  12.414  14.479   6.304
15139SOL    HW145667  12.398  14.385   6.316
15139SOL    HW245668  12.462  14.484   6.222
15140SOL     OW45669  14.180  14.113   5.526
15140SOL    HW145670  14.088  14.134   5.513
15140SOL    HW245671  14.196  14.130   5.618
15141SOL     OW45672   5.726   3.960   5.367
15141SOL    HW145673   5.679   3.990   5.289
15141SOL    HW245674   5.677   3.885   5.398
15142SOL     OW45675   9.853   7.958   3.591
15142SOL    HW145676   9.822   8.036   3.546
15142SOL    HW245677   9.862   7.892   3.521
15143SOL     OW45678   1.687   1.785   1.133
15143SOL    HW145679   1.754   1.774   1.066
15143SOL    HW245680   1.725   1.745   1.211
15144SOL     OW45681   5.163  13.103   6.484
15144SOL    HW145682   5.067  13.106   6.478
15144SOL    HW245683   5.186  13.015   6.453
15145SOL     OW45684   7.158   4.410   0.433
15145SOL    HW145685   7.148   4.504   0.425
15145SOL    HW245686   7.070   4.375   0.418
15146SOL     OW45687  13.899   9.395   4.802
15146SOL    HW145688  13.952   9.391   4.881
15146SOL    HW245689  13.861   9.483   4.801
15147SOL     OW45690  12.855  12.564   5.568
15147SOL    HW145691  12.809  12.595   5.647
15147SOL    HW245692  12.796  12.586   5.496
15148SOL     OW45693   6.728   9.819   5.358
15148SOL    HW145694   6.758   9.772   5.436
15148SOL    HW245695   6.784   9.787   5.287
15149SOL     OW45696  13.020  11.644   5.615
15149SOL    HW145697  13.073  11.610   5.688
15149SOL    HW245698  12.929  11.631   5.643
15150SOL     OW45699   3.464   1.445   0.221
15150SOL    HW145700   3.421   1.526   0.247
15150SOL    HW245701   3.501   1.463   0.134
15151SOL     OW45702  10.967  11.375   5.241
15151SOL    HW145703  10.982  11.403   5.332
15151SOL    HW245704  11.052  11.342   5.213
15152SOL     OW45705   5.123  10.204   0.444
15152SOL    HW145706   5.040  10.248   0.460
15152SOL    HW245707   5.187  10.275   0.442
15153SOL     OW45708  11.676   2.402   2.693
15153SOL    HW145709  11.587   2.392   2.726
15153SOL    HW245710  11.690   2.324   2.638
15154SOL     OW45711   4.242   8.275   4.107
15154SOL    HW145712   4.313   8.211   4.110
15154SOL    HW245713   4.286   8.358   4.087
15155SOL     OW45714   5.275  10.436   6.429
15155SOL    HW145715   5.213  10.375   6.468
15155SOL    HW245716   5.289  10.502   6.496
15156SOL     OW45717   8.371   5.106   3.373
15156SOL    HW145718   8.456   5.102   3.329
15156SOL    HW245719   8.332   5.020   3.356
15157SOL     OW45720   0.963   7.324   1.023
15157SOL    HW145721   0.993   7.400   1.073
15157SOL    HW245722   0.873   7.345   0.999
15158SOL     OW45723   6.979   6.702   3.136
15158SOL    HW145724   6.895   6.667   3.166
15158SOL    HW245725   6.958   6.786   3.096
15159SOL     OW45726   6.898   6.962   2.271
15159SOL    HW145727   6.817   7.010   2.251
15159SOL    HW245728   6.919   6.987   2.361
15160SOL     OW45729   3.338   6.708   1.889
15160SOL    HW145730   3.328   6.775   1.822
15160SOL    HW245731   3.432   6.690   1.890
15161SOL     OW45732   5.092   7.401   6.069
15161SOL    HW145733   5.006   7.383   6.107
15161SOL    HW245734   5.121   7.480   6.115
15162SOL     OW45735  11.055   4.866   6.291
15162SOL    HW145736  10.962   4.876   6.310
15162SOL    HW245737  11.074   4.936   6.229
15163SOL     OW45738   8.031   9.058   6.014
15163SOL    HW145739   8.060   8.993   6.078
15163SOL    HW245740   8.037   9.142   6.061
15164SOL     OW45741   4.668   8.191   2.167
15164SOL    HW145742   4.748   8.151   2.133
15164SOL    HW245743   4.637   8.247   2.095
15165SOL     OW45744   7.507  12.689   6.580
15165SOL    HW145745   7.581  12.711   6.523
15165SOL    HW245746   7.436  12.669   6.520
15166SOL     OW45747   7.065  15.308   6.644
15166SOL    HW145748   7.056  15.213   6.654
15166SOL    HW245749   7.005  15.344   6.710
15167SOL     OW45750   8.577   7.949   0.180
15167SOL    HW145751   8.630   7.905   0.247
15167SOL    HW245752   8.635   8.016   0.144
15168SOL     OW45753  10.888   9.686   6.563
15168SOL    HW145754  10.960   9.646   6.515
15168SOL    HW245755  10.836   9.731   6.496
15169SOL     OW45756   3.836   9.826   3.951
15169SOL    HW145757   3.787   9.809   4.032
15169SOL    HW245758   3.824   9.919   3.934
15170SOL     OW45759   5.004  10.629   4.049
15170SOL    HW145760   5.092  10.616   4.015
15170SOL    HW245761   5.016  10.649   4.142
15171SOL     OW45762   2.348   9.333   2.612
15171SOL    HW145763   2.435   9.368   2.631
15171SOL    HW245764   2.364   9.251   2.566
15172SOL     OW45765   6.204   7.762   7.201
15172SOL    HW145766   6.133   7.791   7.259
15172SOL    HW245767   6.204   7.826   7.130
15173SOL     OW45768   1.834   9.673   2.185
15173SOL    HW145769   1.776   9.693   2.259
15173SOL    HW245770   1.868   9.758   2.157
15174SOL     OW45771   7.962   1.097   1.533
15174SOL    HW145772   7.990   1.151   1.607
15174SOL    HW245773   7.963   1.155   1.458
15175SOL     OW45774   8.538  10.518   5.348
15175SOL    HW145775   8.511  10.432   5.316
15175SOL    HW245776   8.568  10.501   5.438
15176SOL     OW45777   9.042   9.655   5.252
15176SOL    HW145778   9.069   9.689   5.166
15176SOL    HW245779   9.073   9.721   5.314
15177SOL     OW45780  15.172  13.210   7.345
15177SOL    HW145781  15.233  13.152   7.298
15177SOL    HW245782  15.112  13.150   7.389
15178SOL     OW45783  10.330  10.250   6.863
15178SOL    HW145784  10.375  10.211   6.789
15178SOL    HW245785  10.302  10.337   6.832
15179SOL     OW45786   8.859  12.645   4.403
15179SOL    HW145787   8.803  12.711   4.443
15179SOL    HW245788   8.892  12.594   4.477
15180SOL     OW45789  12.077  11.292   4.906
15180SOL    HW145790  12.083  11.196   4.905
15180SOL    HW245791  12.053  11.314   4.996
15181SOL     OW45792   2.427   2.467   2.291
15181SOL    HW145793   2.377   2.444   2.213
15181SOL    HW245794   2.481   2.389   2.308
15182SOL     OW45795   7.976   7.035   4.450
15182SOL    HW145796   7.884   7.062   4.456
15182SOL    HW245797   7.973   6.940   4.439
15183SOL     OW45798   9.730   6.669   4.534
15183SOL    HW145799   9.813   6.623   4.548
15183SOL    HW245800   9.702   6.693   4.622
15184SOL     OW45801  13.656  11.284   6.984
15184SOL    HW145802  13.677  11.215   7.047
15184SOL    HW245803  13.578  11.252   6.938
15185SOL     OW45804   7.894   6.596   4.613
15185SOL    HW145805   7.862   6.578   4.701
15185SOL    HW245806   7.987   6.572   4.616
15186SOL     OW45807  14.746   7.736   5.741
15186SOL    HW145808  14.717   7.751   5.651
15186SOL    HW245809  14.667   7.746   5.794
15187SOL     OW45810   7.387  14.552   7.187
15187SOL    HW145811   7.470  14.506   7.199
15187SOL    HW245812   7.321  14.483   7.185
15188SOL     OW45813   3.947   6.081   0.417
15188SOL    HW145814   3.900   6.109   0.339
15188SOL    HW245815   4.037   6.110   0.403
15189SOL     OW45816   2.693   2.281   0.054
15189SOL    HW145817   2.599   2.263   0.057
15189SOL    HW245818   2.716   2.304   0.144
15190SOL     OW45819   8.127   6.163   1.844
15190SOL    HW145820   8.188   6.182   1.916
15190SOL    HW245821   8.167   6.204   1.767
15191SOL     OW45822  13.720  14.496   5.408
15191SOL    HW145823  13.815  14.497   5.400
15191SOL    HW245824  13.704  14.499   5.503
15192SOL     OW45825  13.355  11.930   6.079
15192SOL    HW145826  13.404  11.849   6.094
15192SOL    HW245827  13.400  11.996   6.132
15193SOL     OW45828  13.852  15.106   6.360
15193SOL    HW145829  13.877  15.023   6.400
15193SOL    HW245830  13.934  15.156   6.354
15194SOL     OW45831  12.097  13.340   4.595
15194SOL    HW145832  12.170  13.379   4.644
15194SOL    HW245833  12.117  13.360   4.503
15195SOL     OW45834   7.006  11.142   1.921
15195SOL    HW145835   7.100  11.151   1.934
15195SOL    HW245836   6.975  11.100   2.002
15196SOL     OW45837   7.567   6.749   4.579
15196SOL    HW145838   7.652   6.784   4.605
15196SOL    HW245839   7.567   6.751   4.484
15197SOL     OW45840   9.502  13.528   4.761
15197SOL    HW145841   9.419  13.575   4.765
15197SOL    HW245842   9.499  13.467   4.835
15198SOL     OW45843   3.731  10.671   1.350
15198SOL    HW145844   3.737  10.612   1.275
15198SOL    HW245845   3.807  10.729   1.341
15199SOL     OW45846   8.992   6.700   6.241
15199SOL    HW145847   9.001   6.788   6.277
15199SOL    HW245848   8.909   6.668   6.276
15200SOL     OW45849  10.694   5.009   2.887
15200SOL    HW145850  10.772   5.065   2.889
15200SOL    HW245851  10.623   5.067   2.913
15201SOL     OW45852   6.300   5.598   1.366
15201SOL    HW145853   6.383   5.572   1.326
15201SOL    HW245854   6.261   5.515   1.396
15202SOL     OW45855   6.032   4.422   2.511
15202SOL    HW145856   6.071   4.340   2.481
15202SOL    HW245857   6.086   4.490   2.471
15203SOL     OW45858   8.586   5.171   4.386
15203SOL    HW145859   8.601   5.081   4.415
15203SOL    HW245860   8.537   5.212   4.458
15204SOL     OW45861   8.784   6.193   3.523
15204SOL    HW145862   8.731   6.138   3.583
15204SOL    HW245863   8.719   6.239   3.470
15205SOL     OW45864   1.827   8.455   1.885
15205SOL    HW145865   1.759   8.417   1.830
15205SOL    HW245866   1.784   8.471   1.969
15206SOL     OW45867   7.228   2.903   1.491
15206SOL    HW145868   7.141   2.864   1.489
15206SOL    HW245869   7.251   2.917   1.399
15207SOL     OW45870   8.277   4.426   2.179
15207SOL    HW145871   8.250   4.354   2.123
15207SOL    HW245872   8.289   4.386   2.265
15208SOL     OW45873  12.726   6.286   4.197
15208SOL    HW145874  12.761   6.219   4.140
15208SOL    HW245875  12.769   6.271   4.281
15209SOL     OW45876  12.880  13.282   7.371
15209SOL    HW145877  12.865  13.191   7.346
15209SOL    HW245878  12.969  13.282   7.407
15210SOL     OW45879   9.578  15.473   7.477
15210SOL    HW145880   9.507  15.446   7.535
15210SOL    HW245881   9.637  15.525   7.532
15211SOL     OW45882   6.014   9.013   4.642
15211SOL    HW145883   6.053   9.078   4.701
15211SOL    HW245884   5.962   8.957   4.699
15212SOL     OW45885   5.695   1.368   0.750
15212SOL    HW145886   5.774   1.342   0.704
15212SOL    HW245887   5.685   1.461   0.731
15213SOL     OW45888   9.486   8.617   3.332
15213SOL    HW145889   9.510   8.529   3.303
15213SOL    HW245890   9.438   8.655   3.258
15214SOL     OW45891   5.190   4.682   1.475
15214SOL    HW145892   5.282   4.691   1.451
15214SOL    HW245893   5.184   4.594   1.512
15215SOL     OW45894   8.762   3.156   0.602
15215SOL    HW145895   8.782   3.233   0.548
15215SOL    HW245896   8.713   3.192   0.676
15216SOL     OW45897   8.349  14.703   7.192
15216SOL    HW145898   8.276  14.642   7.207
15216SOL    HW245899   8.414  14.652   7.144
15217SOL     OW45900  13.049  15.124   6.727
15217SOL    HW145901  12.993  15.171   6.665
15217SOL    HW245902  13.062  15.038   6.686
15218SOL     OW45903   8.584   5.015   4.136
15218SOL    HW145904   8.531   5.080   4.090
15218SOL    HW245905   8.520   4.957   4.178
15219SOL     OW45906   4.840  12.044   6.777
15219SOL    HW145907   4.836  11.971   6.715
15219SOL    HW245908   4.915  12.096   6.748
15220SOL     OW45909  10.902  10.737   0.362
15220SOL    HW145910  10.989  10.771   0.384
15220SOL    HW245911  10.878  10.684   0.438
15221SOL     OW45912   5.392  10.830   5.590
15221SOL    HW145913   5.467  10.888   5.600
15221SOL    HW245914   5.414  10.774   5.515
15222SOL     OW45915  11.225   7.849   2.813
15222SOL    HW145916  11.161   7.920   2.821
15222SOL    HW245917  11.264   7.862   2.727
15223SOL     OW45918   9.931   7.938   1.187
15223SOL    HW145919   9.867   7.924   1.256
15223SOL    HW245920   9.989   7.861   1.191
15224SOL     OW45921   1.996   1.196   1.217
15224SOL    HW145922   1.982   1.115   1.266
15224SOL    HW245923   1.908   1.219   1.185
15225SOL     OW45924  11.649   5.815   5.547
15225SOL    HW145925  11.659   5.880   5.477
15225SOL    HW245926  11.574   5.845   5.597
15226SOL     OW45927   4.922   9.551   5.172
15226SOL    HW145928   4.996   9.507   5.130
15226SOL    HW245929   4.911   9.632   5.122
15227SOL     OW45930  11.259   9.813   0.821
15227SOL    HW145931  11.321   9.782   0.887
15227SOL    HW245932  11.277   9.760   0.744
15228SOL     OW45933   9.374   8.735   4.309
15228SOL    HW145934   9.430   8.658   4.297
15228SOL    HW245935   9.328   8.719   4.391
15229SOL     OW45936  11.812   8.244   2.253
15229SOL    HW145937  11.763   8.191   2.190
15229SOL    HW245938  11.770   8.330   2.250
15230SOL     OW45939   5.373  10.629   4.393
15230SOL    HW145940   5.324  10.610   4.313
15230SOL    HW245941   5.428  10.704   4.371
15231SOL     OW45942   1.108   4.143   1.114
15231SOL    HW145943   1.184   4.087   1.125
15231SOL    HW245944   1.085   4.170   1.203
15232SOL     OW45945   9.199  12.311   6.162
15232SOL    HW145946   9.209  12.358   6.079
15232SOL    HW245947   9.247  12.229   6.149
15233SOL     OW45948  11.673   5.071   3.463
15233SOL    HW145949  11.698   5.026   3.382
15233SOL    HW245950  11.753   5.116   3.491
15234SOL     OW45951   6.752   0.748   0.517
15234SOL    HW145952   6.806   0.756   0.596
15234SOL    HW245953   6.815   0.743   0.445
15235SOL     OW45954   6.306  10.864   3.312
15235SOL    HW145955   6.262  10.790   3.270
15235SOL    HW245956   6.391  10.830   3.339
15236SOL     OW45957  10.937   5.662   7.600
15236SOL    HW145958  10.958   5.691   7.511
15236SOL    HW245959   5.573   0.350   0.036
15237SOL     OW45960   9.686  11.769   5.044
15237SOL    HW145961   9.738  11.699   5.085
15237SOL    HW245962   9.743  11.806   4.977
15238SOL     OW45963   6.275   3.488   0.576
15238SOL    HW145964   6.277   3.518   0.485
15238SOL    HW245965   6.183   3.463   0.591
15239SOL     OW45966  10.565   4.610   2.477
15239SOL    HW145967  10.559   4.706   2.477
15239SOL    HW245968  10.578   4.586   2.568
15240SOL     OW45969   8.898  11.891   7.478
15240SOL    HW145970   8.899  11.837   7.400
15240SOL    HW245971   8.945  11.839   7.544
15241SOL     OW45972  10.902   8.988   4.193
15241SOL    HW145973  10.974   9.020   4.248
15241SOL    HW245974  10.933   8.905   4.158
15242SOL     OW45975   6.391   3.978   4.486
15242SOL    HW145976   6.412   3.919   4.413
15242SOL    HW245977   6.471   3.980   4.538
15243SOL     OW45978  12.732   4.935   3.769
15243SOL    HW145979  12.736   4.955   3.863
15243SOL    HW245980  12.670   4.999   3.734
15244SOL     OW45981  13.030  14.469   6.040
15244SOL    HW145982  12.983  14.540   5.995
15244SOL    HW245983  13.087  14.514   6.102
15245SOL     OW45984   4.523   3.369   2.090
15245SOL    HW145985   4.509   3.277   2.112
15245SOL    HW245986   4.545   3.411   2.173
15246SOL     OW45987   6.460   4.579   0.435
15246SOL    HW145988   6.499   4.658   0.398
15246SOL    HW245989   6.517   4.508   0.404
15247SOL     OW45990   2.578   6.872   0.529
15247SOL    HW145991   2.562   6.782   0.558
15247SOL    HW245992   2.653   6.865   0.470
15248SOL     OW45993  13.968   4.260   5.345
15248SOL    HW145994  13.889   4.281   5.295
15248SOL    HW245995  14.023   4.338   5.336
15249SOL     OW45996   7.110   1.901   0.955
15249SOL    HW145997   7.045   1.961   0.920
15249SOL    HW245998   7.166   1.955   1.011
15250SOL     OW45999   6.729   9.962   6.248
15250SOL    HW146000   6.815   9.930   6.273
15250SOL    HW246001   6.705  10.025   6.316
15251SOL     OW46002   9.695   5.746   0.094
15251SOL    HW146003   9.762   5.752   0.027
15251SOL    HW246004   9.660   5.658   0.086
15252SOL     OW46005   8.082   7.900   1.984
15252SOL    HW146006   8.031   7.939   2.055
15252SOL    HW246007   8.126   7.825   2.025
15253SOL     OW46008  13.763   9.337   5.409
15253SOL    HW146009  13.763   9.338   5.313
15253SOL    HW246010  13.761   9.430   5.434
15254SOL     OW46011  10.286   4.439   3.784
15254SOL    HW146012  10.363   4.384   3.765
15254SOL    HW246013  10.318   4.502   3.848
15255SOL     OW46014  10.855  11.142   1.357
15255SOL    HW146015  10.857  11.228   1.315
15255SOL    HW246016  10.782  11.146   1.419
15256SOL     OW46017   5.972  12.183   6.056
15256SOL    HW146018   5.939  12.252   6.114
15256SOL    HW246019   5.982  12.107   6.113
15257SOL     OW46020  13.432   7.513   5.074
15257SOL    HW146021  13.422   7.456   4.998
15257SOL    HW246022  13.349   7.559   5.081
15258SOL     OW46023   8.024   7.084   5.533
15258SOL    HW146024   8.055   7.118   5.617
15258SOL    HW246025   8.081   7.126   5.469
15259SOL     OW46026   7.914   7.297   1.597
15259SOL    HW146027   7.847   7.264   1.537
15259SOL    HW246028   7.934   7.385   1.565
15260SOL     OW46029   8.344   9.794   7.298
15260SOL    HW146030   8.409   9.810   7.229
15260SOL    HW246031   8.269   9.847   7.272
15261SOL     OW46032   6.925   2.071   1.538
15261SOL    HW146033   6.913   2.151   1.486
15261SOL    HW246034   6.850   2.016   1.516
15262SOL     OW46035   4.159   8.504   1.025
15262SOL    HW146036   4.078   8.455   1.031
15262SOL    HW246037   4.194   8.506   1.114
15263SOL     OW46038   5.542   2.939   2.194
15263SOL    HW146039   5.590   2.913   2.273
15263SOL    HW246040   5.561   3.033   2.184
15264SOL     OW46041  14.544  11.056   6.584
15264SOL    HW146042  14.612  10.995   6.555
15264SOL    HW246043  14.471  10.999   6.610
15265SOL     OW46044   6.095   1.965   1.711
15265SOL    HW146045   6.052   2.050   1.723
15265SOL    HW246046   6.172   1.968   1.767
15266SOL     OW46047   9.546   6.628   3.787
15266SOL    HW146048   9.524   6.720   3.803
15266SOL    HW246049   9.533   6.585   3.872
15267SOL     OW46050   7.114   5.250   3.001
15267SOL    HW146051   7.116   5.344   3.018
15267SOL    HW246052   7.179   5.236   2.932
15268SOL     OW46053  12.252   9.396   2.273
15268SOL    HW146054  12.207   9.414   2.356
15268SOL    HW246055  12.258   9.301   2.269
15269SOL     OW46056   7.648   7.100   6.750
15269SOL    HW146057   7.714   7.117   6.683
15269SOL    HW246058   7.638   7.184   6.796
15270SOL     OW46059   5.749  13.292   6.614
15270SOL    HW146060   5.711  13.312   6.701
15270SOL    HW246061   5.843  13.292   6.629
15271SOL     OW46062  11.942  15.016   6.582
15271SOL    HW146063  11.890  15.042   6.505
15271SOL    HW246064  11.929  14.922   6.590
15272SOL     OW46065   9.147   5.664   4.750
15272SOL    HW146066   9.233   5.624   4.741
15272SOL    HW246067   9.086   5.591   4.744
15273SOL     OW46068   6.566   4.527   4.895
15273SOL    HW146069   6.646   4.563   4.856
15273SOL    HW246070   6.579   4.533   4.989
15274SOL     OW46071   6.066  12.924   4.967
15274SOL    HW146072   6.054  12.992   5.034
15274SOL    HW246073   5.996  12.940   4.904
15275SOL     OW46074   7.663  12.425   4.567
15275SOL    HW146075   7.722  12.353   4.546
15275SOL    HW246076   7.714  12.504   4.549
15276SOL     OW46077   8.378  11.352   5.386
15276SOL    HW146078   8.342  11.265   5.397
15276SOL    HW246079   8.381  11.365   5.291
15277SOL     OW46080   8.976   5.949   4.244
15277SOL    HW146081   8.958   5.908   4.329
15277SOL    HW246082   8.934   5.891   4.180
15278SOL     OW46083   6.845   9.937   1.424
15278SOL    HW146084   6.843  10.029   1.397
15278SOL    HW246085   6.936   9.910   1.410
15279SOL     OW46086  10.908   7.597   5.317
15279SOL    HW146087  10.817   7.567   5.325
15279SOL    HW246088  10.902   7.678   5.267
15280SOL     OW46089   5.655   8.317   4.630
15280SOL    HW146090   5.575   8.333   4.680
15280SOL    HW246091   5.674   8.224   4.643
15281SOL     OW46092   4.424   5.950   5.838
15281SOL    HW146093   4.488   5.897   5.789
15281SOL    HW246094   4.455   5.946   5.928
15282SOL     OW46095   4.885  14.462   6.177
15282SOL    HW146096   4.800  14.421   6.162
15282SOL    HW246097   4.908  14.501   6.092
15283SOL     OW46098  11.364  15.381   7.446
15283SOL    HW146099  11.414  15.333   7.379
15283SOL    HW246100  11.312  15.444   7.397
15284SOL     OW46101   5.766   8.490   6.755
15284SOL    HW146102   5.723   8.437   6.822
15284SOL    HW246103   5.719   8.470   6.674
15285SOL     OW46104  13.978  10.692   7.055
15285SOL    HW146105  13.937  10.750   6.991
15285SOL    HW246106  13.980  10.606   7.012
15286SOL     OW46107  12.655   9.965   7.037
15286SOL    HW146108  12.697   9.882   7.056
15286SOL    HW246109  12.723  10.017   6.993
15287SOL     OW46110   2.691   8.183   1.879
15287SOL    HW146111   2.711   8.233   1.800
15287SOL    HW246112   2.596   8.169   1.876
15288SOL     OW46113   7.585   6.041   6.762
15288SOL    HW146114   7.593   5.987   6.683
15288SOL    HW246115   7.675   6.047   6.796
15289SOL     OW46116  11.654  13.997   5.334
15289SOL    HW146117  11.662  13.942   5.412
15289SOL    HW246118  11.673  14.086   5.365
15290SOL     OW46119   3.694   8.230   3.180
15290SOL    HW146120   3.751   8.307   3.184
15290SOL    HW246121   3.706   8.195   3.091
15291SOL     OW46122   2.558  11.779   3.573
15291SOL    HW146123   2.591  11.868   3.563
15291SOL    HW246124   2.609  11.728   3.510
15292SOL     OW46125   8.129   3.428   1.436
15292SOL    HW146126   8.054   3.419   1.377
15292SOL    HW246127   8.205   3.413   1.380
15293SOL     OW46128  11.939   5.028   5.666
15293SOL    HW146129  11.992   5.105   5.645
15293SOL    HW246130  11.868   5.030   5.601
15294SOL     OW46131   8.409   3.085   1.618
15294SOL    HW146132   8.435   3.016   1.556
15294SOL    HW246133   8.314   3.084   1.617
15295SOL     OW46134   8.959   5.989   3.888
15295SOL    HW146135   8.926   5.910   3.846
15295SOL    HW246136   8.891   6.013   3.951
15296SOL     OW46137   4.999   7.977   2.306
15296SOL    HW146138   4.968   7.891   2.278
15296SOL    HW246139   5.077   7.959   2.358
15297SOL     OW46140   7.103   9.187   6.967
15297SOL    HW146141   7.048   9.188   7.046
15297SOL    HW246142   7.190   9.163   6.999
15298SOL     OW46143   2.831   5.105   0.604
15298SOL    HW146144   2.746   5.101   0.560
15298SOL    HW246145   2.811   5.111   0.697
15299SOL     OW46146   4.643   5.256   5.535
15299SOL    HW146147   4.590   5.253   5.455
15299SOL    HW246148   4.705   5.184   5.525
15300SOL     OW46149  10.586   5.848   3.687
15300SOL    HW146150  10.548   5.819   3.605
15300SOL    HW246151  10.514   5.846   3.750
15301SOL     OW46152   6.537  12.495   4.190
15301SOL    HW146153   6.492  12.464   4.112
15301SOL    HW246154   6.561  12.415   4.237
15302SOL     OW46155  13.112  10.475   6.533
15302SOL    HW146156  13.048  10.488   6.464
15302SOL    HW246157  13.113  10.380   6.549
15303SOL     OW46158  10.111   9.283   1.231
15303SOL    HW146159  10.034   9.293   1.287
15303SOL    HW246160  10.185   9.277   1.292
15304SOL     OW46161   7.115   7.433   5.235
15304SOL    HW146162   7.163   7.378   5.298
15304SOL    HW246163   7.167   7.513   5.229
15305SOL     OW46164   9.802   8.802   2.617
15305SOL    HW146165   9.844   8.752   2.687
15305SOL    HW246166   9.851   8.884   2.614
15306SOL     OW46167   5.759   4.834   3.841
15306SOL    HW146168   5.749   4.929   3.848
15306SOL    HW246169   5.679   4.798   3.880
15307SOL     OW46170   5.745   6.369   0.359
15307SOL    HW146171   5.735   6.355   0.453
15307SOL    HW246172   5.795   6.294   0.329
15308SOL     OW46173  10.627  13.138   4.057
15308SOL    HW146174  10.616  13.097   4.143
15308SOL    HW246175  10.582  13.080   3.997
15309SOL     OW46176   3.381   2.095   1.501
15309SOL    HW146177   3.320   2.121   1.570
15309SOL    HW246178   3.375   1.999   1.498
15310SOL     OW46179   4.676   4.776   4.206
15310SOL    HW146180   4.620   4.824   4.266
15310SOL    HW246181   4.748   4.836   4.186
15311SOL     OW46182   7.956  12.045   4.046
15311SOL    HW146183   7.878  12.101   4.043
15311SOL    HW246184   8.012  12.087   4.112
15312SOL     OW46185  11.670   4.732   2.768
15312SOL    HW146186  11.673   4.744   2.673
15312SOL    HW246187  11.608   4.661   2.781
15313SOL     OW46188   6.220   3.251   4.399
15313SOL    HW146189   6.300   3.252   4.346
15313SOL    HW246190   6.245   3.294   4.481
15314SOL     OW46191   5.793  13.412   5.597
15314SOL    HW146192   5.885  13.389   5.597
15314SOL    HW246193   5.752  13.349   5.656
15315SOL     OW46194   4.585   8.404   1.993
15315SOL    HW146195   4.513   8.456   2.030
15315SOL    HW246196   4.648   8.469   1.962
15316SOL     OW46197   2.582   8.611   1.415
15316SOL    HW146198   2.533   8.653   1.485
15316SOL    HW246199   2.647   8.677   1.388
15317SOL     OW46200  12.293   9.751   5.565
15317SOL    HW146201  12.286   9.656   5.568
15317SOL    HW246202  12.376   9.771   5.609
15318SOL     OW46203  11.951  14.046   6.241
15318SOL    HW146204  12.007  13.969   6.251
15318SOL    HW246205  11.957  14.092   6.324
15319SOL     OW46206   4.090   6.023   5.219
15319SOL    HW146207   4.115   6.098   5.166
15319SOL    HW246208   4.000   6.003   5.191
15320SOL     OW46209   4.703   7.115   0.292
15320SOL    HW146210   4.768   7.183   0.278
15320SOL    HW246211   4.741   7.037   0.254
15321SOL     OW46212  14.292   4.927   6.185
15321SOL    HW146213  14.242   5.009   6.188
15321SOL    HW246214  14.363   4.941   6.248
15322SOL     OW46215   7.408   6.061   6.048
15322SOL    HW146216   7.407   6.053   6.143
15322SOL    HW246217   7.389   5.973   6.016
15323SOL     OW46218   8.638   9.882   0.562
15323SOL    HW146219   8.722   9.873   0.606
15323SOL    HW246220   8.640   9.970   0.524
15324SOL     OW46221   4.564   8.175   1.814
15324SOL    HW146222   4.516   8.108   1.863
15324SOL    HW246223   4.570   8.249   1.874
15325SOL     OW46224   9.037   9.444   5.547
15325SOL    HW146225   9.028   9.349   5.553
15325SOL    HW246226   8.977   9.470   5.478
15326SOL     OW46227   7.629   8.960   7.195
15326SOL    HW146228   7.590   8.875   7.173
15326SOL    HW246229   7.710   8.963   7.143
15327SOL     OW46230  10.757  11.817   6.687
15327SOL    HW146231  10.693  11.790   6.621
15327SOL    HW246232  10.704  11.844   6.762
15328SOL     OW46233   9.779   3.226   2.822
15328SOL    HW146234   9.828   3.158   2.869
15328SOL    HW246235   9.784   3.200   2.730
15329SOL     OW46236   5.489   8.047   1.065
15329SOL    HW146237   5.462   8.001   1.144
15329SOL    HW246238   5.444   8.002   0.994
15330SOL     OW46239  10.712  13.130   4.876
15330SOL    HW146240  10.675  13.186   4.807
15330SOL    HW246241  10.698  13.179   4.957
15331SOL     OW46242   4.348  11.681   5.169
15331SOL    HW146243   4.287  11.733   5.221
15331SOL    HW246244   4.326  11.701   5.078
15332SOL     OW46245   4.996  10.434   1.931
15332SOL    HW146246   5.030  10.381   2.004
15332SOL    HW246247   4.953  10.371   1.874
15333SOL     OW46248   5.636   5.399   0.388
15333SOL    HW146249   5.632   5.444   0.304
15333SOL    HW246250   5.714   5.434   0.431
15334SOL     OW46251  11.026   7.597   3.710
15334SOL    HW146252  10.990   7.511   3.731
15334SOL    HW246253  11.034   7.597   3.615
15335SOL     OW46254   6.601   8.504   0.022
15335SOL    HW146255   6.532   8.569   0.034
15335SOL    HW246256  11.958  13.840   7.565
15336SOL     OW46257  12.064  10.244   6.200
15336SOL    HW146258  11.994  10.256   6.264
15336SOL    HW246259  12.083  10.332   6.167
15337SOL     OW46260   5.975  10.751   1.319
15337SOL    HW146261   5.972  10.764   1.224
15337SOL    HW246262   5.884  10.761   1.348
15338SOL     OW46263   4.163   6.155   4.368
15338SOL    HW146264   4.085   6.108   4.396
15338SOL    HW246265   4.148   6.173   4.275
15339SOL     OW46266   2.122   8.194   1.436
15339SOL    HW146267   2.146   8.102   1.444
15339SOL    HW246268   2.028   8.196   1.457
15340SOL     OW46269   5.100  11.179   6.790
15340SOL    HW146270   5.089  11.275   6.793
15340SOL    HW246271   5.135  11.162   6.703
15341SOL     OW46272   5.280  10.537   1.676
15341SOL    HW146273   5.257  10.549   1.768
15341SOL    HW246274   5.297  10.444   1.667
15342SOL     OW46275   3.196  10.845   2.155
15342SOL    HW146276   3.229  10.897   2.082
15342SOL    HW246277   3.272  10.795   2.187
15343SOL     OW46278   3.917   6.184   3.472
15343SOL    HW146279   3.947   6.255   3.529
15343SOL    HW246280   3.862   6.129   3.528
15344SOL     OW46281   7.616   9.023   0.629
15344SOL    HW146282   7.639   9.114   0.649
15344SOL    HW246283   7.693   8.973   0.654
15345SOL     OW46284   6.478   3.024   1.141
15345SOL    HW146285   6.431   3.085   1.085
15345SOL    HW246286   6.539   3.078   1.191
15346SOL     OW46287  14.589  11.690   7.205
15346SOL    HW146288  14.628  11.771   7.174
15346SOL    HW246289  14.496  11.710   7.216
15347SOL     OW46290  10.152  12.211   3.376
15347SOL    HW146291  10.146  12.132   3.430
15347SOL    HW246292  10.071  12.258   3.392
15348SOL     OW46293   9.124  12.737   6.845
15348SOL    HW146294   9.170  12.816   6.869
15348SOL    HW246295   9.137  12.677   6.918
15349SOL     OW46296   9.496  10.928   1.172
15349SOL    HW146297   9.568  10.895   1.226
15349SOL    HW246298   9.523  11.016   1.147
15350SOL     OW46299   8.806   5.144   4.035
15350SOL    HW146300   8.763   5.117   4.117
15350SOL    HW246301   8.843   5.063   4.000
15351SOL     OW46302   7.034  12.476   5.375
15351SOL    HW146303   6.973  12.406   5.355
15351SOL    HW246304   7.092  12.440   5.442
15352SOL     OW46305   7.422   8.588   3.432
15352SOL    HW146306   7.388   8.501   3.410
15352SOL    HW246307   7.471   8.615   3.355
15353SOL     OW46308   6.713   1.646   0.140
15353SOL    HW146309   6.804   1.625   0.120
15353SOL    HW246310   6.689   1.585   0.210
15354SOL     OW46311   9.472   2.356   3.055
15354SOL    HW146312   9.521   2.434   3.028
15354SOL    HW246313   9.469   2.362   3.151
15355SOL     OW46314  12.910  15.262   6.556
15355SOL    HW146315  12.930  15.341   6.506
15355SOL    HW246316  12.836  15.223   6.509
15356SOL     OW46317   1.369   5.405   0.673
15356SOL    HW146318   1.398   5.314   0.660
15356SOL    HW246319   1.436   5.443   0.729
15357SOL     OW46320  14.023  12.984   6.708
15357SOL    HW146321  13.962  12.990   6.782
15357SOL    HW246322  14.058  13.072   6.698
15358SOL     OW46323  11.951  10.942   2.519
15358SOL    HW146324  11.995  11.019   2.555
15358SOL    HW246325  11.898  10.976   2.447
15359SOL     OW46326   9.845   6.054   6.362
15359SOL    HW146327   9.773   5.993   6.343
15359SOL    HW246328   9.808   6.141   6.345
15360SOL     OW46329  12.901   7.739   5.935
15360SOL    HW146330  12.810   7.714   5.953
15360SOL    HW246331  12.945   7.728   6.019
15361SOL     OW46332  12.423   9.188   3.454
15361SOL    HW146333  12.402   9.095   3.445
15361SOL    HW246334  12.369   9.218   3.527
15362SOL     OW46335   8.008   3.424   4.594
15362SOL    HW146336   8.030   3.442   4.685
15362SOL    HW246337   7.915   3.447   4.586
15363SOL     OW46338  13.590   5.164   5.173
15363SOL    HW146339  13.665   5.197   5.123
15363SOL    HW246340  13.515   5.212   5.138
15364SOL     OW46341   9.619   6.152   1.757
15364SOL    HW146342   9.676   6.106   1.819
15364SOL    HW246343   9.532   6.116   1.774
15365SOL     OW46344   6.739   1.561   0.447
15365SOL    HW146345   6.772   1.528   0.531
15365SOL    HW246346   6.817   1.596   0.404
15366SOL     OW46347   3.064   6.062   3.418
15366SOL    HW146348   3.070   5.966   3.419
15366SOL    HW246349   3.124   6.089   3.348
15367SOL     OW46350   4.065   7.786   2.094
15367SOL    HW146351   4.081   7.844   2.020
15367SOL    HW246352   4.045   7.845   2.167
15368SOL     OW46353   3.897   9.152   1.766
15368SOL    HW146354   3.856   9.239   1.768
15368SOL    HW246355   3.853   9.107   1.695
15369SOL     OW46356   7.735   9.227   1.992
15369SOL    HW146357   7.679   9.155   1.963
15369SOL    HW246358   7.823   9.189   1.996
15370SOL     OW46359  10.706   3.978   2.699
15370SOL    HW146360  10.622   4.017   2.720
15370SOL    HW246361  10.732   3.932   2.779
15371SOL     OW46362   5.416   5.740   3.957
15371SOL    HW146363   5.451   5.825   3.984
15371SOL    HW246364   5.446   5.730   3.866
15372SOL     OW46365   7.286   6.183   4.104
15372SOL    HW146366   7.233   6.243   4.052
15372SOL    HW246367   7.365   6.234   4.126
15373SOL     OW46368   9.695  10.937   0.310
15373SOL    HW146369   9.652  10.885   0.378
15373SOL    HW246370   9.647   0.246   0.311
15374SOL     OW46371   3.533   5.346   0.246
15374SOL    HW146372   3.615   5.304   0.222
15374SOL    HW246373   3.478   5.339   0.168
15375SOL     OW46374  13.937  10.829   4.578
15375SOL    HW146375  13.952  10.877   4.659
15375SOL    HW246376  13.916  10.740   4.606
15376SOL     OW46377   4.223   5.278   5.967
15376SOL    HW146378  14.907   5.297   5.992
15376SOL    HW246379   4.231   5.314   5.879
15377SOL     OW46380   6.801  11.674   5.905
15377SOL    HW146381   6.883  11.629   5.923
15377SOL    HW246382   6.798  11.745   5.968
15378SOL     OW46383  12.392  12.211   5.393
15378SOL    HW146384  12.427  12.298   5.377
15378SOL    HW246385  12.300  12.227   5.417
15379SOL     OW46386  14.373  14.643   6.414
15379SOL    HW146387  14.280  14.636   6.390
15379SOL    HW246388  14.404  14.553   6.418
15380SOL     OW46389   7.383  15.225   7.063
15380SOL    HW146390   7.466  15.256   7.101
15380SOL    HW246391   7.358  15.294   7.001
15381SOL     OW46392   4.746  11.662   6.190
15381SOL    HW146393   4.750  11.616   6.106
15381SOL    HW246394   4.832  11.647   6.230
15382SOL     OW46395   5.869   8.163   3.678
15382SOL    HW146396   5.938   8.137   3.739
15382SOL    HW246397   5.854   8.086   3.623
15383SOL     OW46398   3.280   3.247   4.331
15383SOL    HW146399   3.217   3.183   4.363
15383SOL    HW246400   3.270   3.322   4.388
15384SOL     OW46401   7.757   9.599   6.405
15384SOL    HW146402   7.731   9.591   6.313
15384SOL    HW246403   7.852   9.608   6.402
15385SOL     OW46404   3.400   9.458   3.707
15385SOL    HW146405   3.431   9.527   3.649
15385SOL    HW246406   3.393   9.499   3.793
15386SOL     OW46407  15.416  11.196   6.798
15386SOL    HW146408  15.392  11.177   6.707
15386SOL    HW246409  15.498  11.149   6.812
15387SOL     OW46410   5.720   3.264   0.852
15387SOL    HW146411   5.666   3.341   0.835
15387SOL    HW246412   5.688   3.229   0.935
15388SOL     OW46413   3.030   2.887   2.925
15388SOL    HW146414   2.976   2.885   2.846
15388SOL    HW246415   2.967   2.901   2.996
15389SOL     OW46416  13.855   5.030   6.618
15389SOL    HW146417  13.852   5.125   6.609
15389SOL    HW246418  13.913   5.015   6.692
15390SOL     OW46419  14.499   9.894   7.341
15390SOL    HW146420  14.460   9.948   7.271
15390SOL    HW246421  14.444   9.911   7.418
15391SOL     OW46422   6.431   7.743   4.056
15391SOL    HW146423   6.372   7.674   4.027
15391SOL    HW246424   6.387   7.824   4.031
15392SOL     OW46425  10.949   4.489   5.425
15392SOL    HW146426  11.022   4.466   5.482
15392SOL    HW246427  10.981   4.564   5.374
15393SOL     OW46428  12.060   6.451   1.841
15393SOL    HW146429   1.303   6.413   1.755
15393SOL    HW246430   1.315   6.542   1.834
15394SOL     OW46431   2.921   4.064   2.829
15394SOL    HW146432   2.861   4.016   2.772
15394SOL    HW246433   3.005   4.019   2.818
15395SOL     OW46434   8.530   2.865   0.308
15395SOL    HW146435   8.545   2.851   0.402
15395SOL    HW246436   8.605   2.825   0.265
15396SOL     OW46437   3.814   1.225   0.924
15396SOL    HW146438   3.778   1.137   0.931
15396SOL    HW246439   3.877   1.219   0.852
15397SOL     OW46440   7.675  12.666   7.111
15397SOL    HW146441   7.769  12.667   7.128
15397SOL    HW246442   7.666  12.701   7.022
15398SOL     OW46443   5.344  12.190   6.231
15398SOL    HW146444   5.298  12.272   6.213
15398SOL    HW246445   5.311  12.129   6.166
15399SOL     OW46446  11.565  11.567   1.518
15399SOL    HW146447  11.551  11.661   1.534
15399SOL    HW246448  11.482  11.538   1.479
15400SOL     OW46449   6.295  10.865   0.527
15400SOL    HW146450   6.384  10.889   0.552
15400SOL    HW246451   6.284  10.775   0.558
15401SOL     OW46452   9.442   5.981   4.562
15401SOL    HW146453   9.491   5.960   4.483
15401SOL    HW246454   9.350   5.966   4.537
15402SOL     OW46455  10.113  10.744   5.155
15402SOL    HW146456  10.026  10.746   5.196
15402SOL    HW246457  10.147  10.657   5.176
15403SOL     OW46458  13.058  13.316   5.026
15403SOL    HW146459  13.112  13.238   5.013
15403SOL    HW246460  13.101  13.364   5.097
15404SOL     OW46461   0.394   0.813   0.003
15404SOL    HW146462   0.366   0.903   0.018
15404SOL    HW246463   0.471   0.802   0.059
15405SOL     OW46464  12.956  10.950   4.504
15405SOL    HW146465  12.996  11.026   4.546
15405SOL    HW246466  13.029  10.890   4.489
15406SOL     OW46467   5.207   9.314   6.382
15406SOL    HW146468   5.290   9.286   6.343
15406SOL    HW246469   5.232   9.361   6.461
15407SOL     OW46470   5.680   9.488   1.713
15407SOL    HW146471   5.698   9.448   1.798
15407SOL    HW246472   5.765   9.485   1.667
15408SOL     OW46473   5.434   5.384   5.416
15408SOL    HW146474   5.498   5.444   5.378
15408SOL    HW246475   5.435   5.308   5.357
15409SOL     OW46476  10.586   8.687   2.214
15409SOL    HW146477  10.527   8.638   2.271
15409SOL    HW246478  10.665   8.700   2.266
15410SOL     OW46479   2.615  10.103   1.871
15410SOL    HW146480   2.697  10.120   1.918
15410SOL    HW246481   2.637  10.036   1.807
15411SOL     OW46482  11.357   8.860   3.123
15411SOL    HW146483  11.301   8.828   3.193
15411SOL    HW246484  11.388   8.945   3.154
15412SOL     OW46485  10.195   5.621   0.215
15412SOL    HW146486  10.267   5.679   0.191
15412SOL    HW246487  10.232   5.533   0.211
15413SOL     OW46488   8.187   9.507   2.423
15413SOL    HW146489   8.154   9.581   2.372
15413SOL    HW246490   8.267   9.540   2.464
15414SOL     OW46491   2.630   3.268   3.082
15414SOL    HW146492   2.541   3.295   3.104
15414SOL    HW246493   2.639   3.180   3.117
15415SOL     OW46494  11.492   9.338   1.804
15415SOL    HW146495  11.588   9.343   1.796
15415SOL    HW246496  11.470   9.252   1.767
15416SOL     OW46497  10.294   5.073   5.194
15416SOL    HW146498  10.230   5.144   5.180
15416SOL    HW246499  10.253   4.996   5.154
15417SOL     OW46500  10.900  10.586   4.390
15417SOL    HW146501  10.893  10.628   4.476
15417SOL    HW246502  10.859  10.648   4.330
15418SOL     OW46503  12.552   6.853   7.237
15418SOL    HW146504  12.553   6.859   7.141
15418SOL    HW246505  12.523   6.763   7.255
15419SOL     OW46506   9.622   6.580   1.123
15419SOL    HW146507   9.618   6.650   1.058
15419SOL    HW246508   9.557   6.516   1.093
15420SOL     OW46509   9.806   9.473   0.358
15420SOL    HW146510   9.888   9.435   0.328
15420SOL    HW246511   9.792   9.547   0.299
15421SOL     OW46512   9.540   4.568   2.560
15421SOL    HW146513   9.444   4.569   2.565
15421SOL    HW246514   9.563   4.656   2.529
15422SOL     OW46515   9.817   6.651   3.693
15422SOL    HW146516   9.825   6.575   3.636
15422SOL    HW246517   9.729   6.643   3.731
15423SOL     OW46518   7.957  12.088   4.425
15423SOL    HW146519   7.987  11.997   4.420
15423SOL    HW246520   7.945  12.103   4.519
15424SOL     OW46521   2.699   2.003   2.480
15424SOL    HW146522   2.703   2.098   2.486
15424SOL    HW246523   2.765   1.973   2.543
15425SOL     OW46524  13.118  12.171   4.016
15425SOL    HW146525  13.038  12.119   4.032
15425SOL    HW246526  13.187  12.105   4.005
15426SOL     OW46527   4.554   0.762   0.453
15426SOL    HW146528   4.618   0.832   0.469
15426SOL    HW246529   4.539   0.723   0.539
15427SOL     OW46530   1.490   5.804   1.234
15427SOL    HW146531   1.528   5.737   1.178
15427SOL    HW246532   1.428   5.757   1.289
15428SOL     OW46533  11.519  14.846   6.279
15428SOL    HW146534  11.607  14.822   6.310
15428SOL    HW246535  11.521  14.942   6.274
15429SOL     OW46536   4.123   5.833   5.591
15429SOL    HW146537   4.106   5.853   5.682
15429SOL    HW246538   4.188   5.763   5.594
15430SOL     OW46539   5.923  10.433   1.508
15430SOL    HW146540   5.893  10.524   1.497
15430SOL    HW246541   5.847  10.387   1.543
15431SOL     OW46542  11.061   5.728   1.761
15431SOL    HW146543  11.011   5.678   1.696
15431SOL    HW246544  11.060   5.674   1.840
15432SOL     OW46545   8.430  10.198   5.415
15432SOL    HW146546   8.357  10.185   5.354
15432SOL    HW246547   8.485  10.120   5.402
15433SOL     OW46548   5.197  10.922   4.514
15433SOL    HW146549   5.250  10.868   4.573
15433SOL    HW246550   5.152  10.984   4.571
15434SOL     OW46551  10.718  11.378   3.339
15434SOL    HW146552  10.703  11.356   3.247
15434SOL    HW246553  10.787  11.318   3.367
15435SOL     OW46554   5.876  10.023   3.756
15435SOL    HW146555   5.782  10.032   3.770
15435SOL    HW246556   5.884   9.963   3.682
15436SOL     OW46557   6.227   9.979   3.306
15436SOL    HW146558   6.255  10.061   3.266
15436SOL    HW246559   6.142   9.999   3.345
15437SOL     OW46560   7.880   2.265   2.846
15437SOL    HW146561   7.788   2.285   2.829
15437SOL    HW246562   7.916   2.243   2.761
15438SOL     OW46563   5.038   6.327   1.075
15438SOL    HW146564   4.975   6.387   1.035
15438SOL    HW246565   5.053   6.363   1.162
15439SOL     OW46566  12.672   7.199   4.211
15439SOL    HW146567  12.668   7.244   4.127
15439SOL    HW246568  12.623   7.255   4.271
15440SOL     OW46569   6.721   8.006   3.915
15440SOL    HW146570   6.712   8.052   3.998
15440SOL    HW246571   6.730   7.914   3.940
15441SOL     OW46572   7.915   4.947   3.132
15441SOL    HW146573   7.939   5.012   3.198
15441SOL    HW246574   7.825   4.923   3.153
15442SOL     OW46575   4.969   7.291   3.637
15442SOL    HW146576   5.022   7.219   3.671
15442SOL    HW246577   4.928   7.330   3.715
15443SOL     OW46578  12.994   4.481   5.165
15443SOL    HW146579  13.027   4.395   5.190
15443SOL    HW246580  12.967   4.521   5.247
15444SOL     OW46581   9.815   2.362   0.397
15444SOL    HW146582   9.764   2.355   0.317
15444SOL    HW246583   9.772   2.430   0.448
15445SOL     OW46584  10.411   6.151   3.886
15445SOL    HW146585  10.384   6.127   3.798
15445SOL    HW246586  10.399   6.245   3.891
15446SOL     OW46587   4.857   6.248   4.052
15446SOL    HW146588   4.775   6.219   4.012
15446SOL    HW246589   4.867   6.339   4.022
15447SOL     OW46590   1.917   9.349   1.313
15447SOL    HW146591   1.851   9.369   1.379
15447SOL    HW246592   1.926   9.430   1.263
15448SOL     OW46593  13.188   6.972   3.527
15448SOL    HW146594  13.132   6.979   3.604
15448SOL    HW246595  13.268   7.019   3.551
15449SOL     OW46596  10.993   5.590   6.830
15449SOL    HW146597  10.944   5.671   6.841
15449SOL    HW246598  10.933   5.521   6.859
15450SOL     OW46599  14.093   9.662   5.319
15450SOL    HW146600  14.140   9.740   5.289
15450SOL    HW246601  14.001   9.681   5.299
15451SOL     OW46602  10.747   7.780   5.786
15451SOL    HW146603  10.727   7.753   5.875
15451SOL    HW246604  10.836   7.816   5.791
15452SOL     OW46605   8.493   7.274   1.389
15452SOL    HW146606   8.547   7.348   1.416
15452SOL    HW246607   8.403   7.307   1.397
15453SOL     OW46608  11.087   7.896   2.035
15453SOL    HW146609  11.084   7.981   1.990
15453SOL    HW246610  11.003   7.890   2.079
15454SOL     OW46611   9.862   6.022   0.928
15454SOL    HW146612   9.892   6.035   0.838
15454SOL    HW246613   9.875   5.928   0.944
15455SOL     OW46614   4.161  10.840   1.051
15455SOL    HW146615   4.192  10.813   0.965
15455SOL    HW246616   4.194  10.929   1.062
15456SOL     OW46617   3.178   3.820   4.239
15456SOL    HW146618   3.260   3.797   4.195
15456SOL    HW246619   3.180   3.770   4.320
15457SOL     OW46620  12.021  11.867   7.183
15457SOL    HW146621  11.965  11.942   7.199
15457SOL    HW246622  11.962  11.792   7.186
15458SOL     OW46623  13.128   6.438   5.963
15458SOL    HW146624  13.071   6.385   5.907
15458SOL    HW246625  13.153   6.512   5.907
15459SOL     OW46626   6.727   5.885   2.062
15459SOL    HW146627   6.661   5.952   2.047
15459SOL    HW246628   6.744   5.848   1.975
15460SOL     OW46629   6.280  12.165   2.218
15460SOL    HW146630   6.198  12.168   2.169
15460SOL    HW246631   6.252  12.149   2.309
15461SOL     OW46632   6.547   7.607   3.640
15461SOL    HW146633   6.451   7.609   3.638
15461SOL    HW246634   6.573   7.699   3.634
15462SOL     OW46635  13.774   8.142   4.573
15462SOL    HW146636  13.711   8.166   4.641
15462SOL    HW246637  13.790   8.048   4.587
15463SOL     OW46638  10.140   8.810   0.253
15463SOL    HW146639  10.153   8.723   0.292
15463SOL    HW246640  10.065   8.846   0.300
15464SOL     OW46641  11.777  12.493   7.304
15464SOL    HW146642  11.833  12.484   7.227
15464SOL    HW246643  11.721  12.415   7.303
15465SOL     OW46644   9.323  10.518   6.879
15465SOL    HW146645   9.357  10.469   6.805
15465SOL    HW246646   9.318  10.455   6.950
15466SOL     OW46647   1.911   8.727   1.590
15466SOL    HW146648   1.844   8.684   1.537
15466SOL    HW246649   1.969   8.768   1.526
15467SOL     OW46650  11.619   5.926   4.527
15467SOL    HW146651  11.585   5.889   4.608
15467SOL    HW246652  11.621   5.852   4.466
15468SOL     OW46653  12.970  12.777   3.914
15468SOL    HW146654  12.972  12.867   3.946
15468SOL    HW246655  12.929  12.784   3.827
15469SOL     OW46656   2.525   9.713   0.487
15469SOL    HW146657   2.465   9.658   0.538
15469SOL    HW246658   2.495   9.703   0.397
15470SOL     OW46659   8.074   6.023   0.578
15470SOL    HW146660   8.003   6.033   0.642
15470SOL    HW246661   8.058   5.938   0.538
15471SOL     OW46662   9.799   5.643   3.274
15471SOL    HW146663   9.715   5.655   3.318
15471SOL    HW246664   9.806   5.548   3.262
15472SOL     OW46665  12.444   9.046   6.023
15472SOL    HW146666  12.385   8.986   5.977
15472SOL    HW246667  12.522   9.051   5.968
15473SOL     OW46668   7.086   4.527   4.923
15473SOL    HW146669   7.086   4.531   5.018
15473SOL    HW246670   7.158   4.584   4.896
15474SOL     OW46671   3.798   0.086   0.106
15474SOL    HW146672   3.824   0.148   0.173
15474SOL    HW246673   3.705   0.105   0.091
15475SOL     OW46674   1.278   4.517   0.071
15475SOL    HW146675   1.331   4.468   0.008
15475SOL    HW246676   1.189   4.480   0.062
15476SOL     OW46677  10.353  10.801   1.186
15476SOL    HW146678  10.337  10.709   1.164
15476SOL    HW246679  10.269  10.844   1.172
15477SOL     OW46680  12.219   9.829   6.611
15477SOL    HW146681  12.284   9.837   6.541
15477SOL    HW246682  12.194   9.920   6.630
15478SOL     OW46683   5.972  13.732   6.240
15478SOL    HW146684   5.912  13.799   6.274
15478SOL    HW246685   5.995  13.763   6.152
15479SOL     OW46686   6.510   5.368   6.935
15479SOL    HW146687   6.509   5.313   7.013
15479SOL    HW246688   6.421   5.401   6.927
15480SOL     OW46689   6.898   4.912   1.985
15480SOL    HW146690   6.907   5.005   2.005
15480SOL    HW246691   6.898   4.870   2.071
15481SOL     OW46692   9.031   7.158   5.543
15481SOL    HW146693   9.045   7.080   5.490
15481SOL    HW246694   9.065   7.230   5.490
15482SOL     OW46695  12.456  10.195   3.465
15482SOL    HW146696  12.385  10.258   3.454
15482SOL    HW246697  12.511  10.233   3.534
15483SOL     OW46698   5.250   6.303   4.035
15483SOL    HW146699   5.272   6.389   4.071
15483SOL    HW246700   5.327   6.279   3.982
15484SOL     OW46701  11.646   5.802   2.858
15484SOL    HW146702  11.689   5.832   2.778
15484SOL    HW246703  11.574   5.746   2.827
15485SOL     OW46704   3.886   9.858   0.344
15485SOL    HW146705   3.806   9.876   0.393
15485SOL    HW246706   3.874   9.769   0.311
15486SOL     OW46707   7.201   9.744   6.940
15486SOL    HW146708   7.129   9.694   6.902
15486SOL    HW246709   7.267   9.678   6.963
15487SOL     OW46710   4.594   9.595   5.032
15487SOL    HW146711   4.601   9.579   4.938
15487SOL    HW246712   4.521   9.541   5.060
15488SOL     OW46713  14.184   7.481   5.982
15488SOL    HW146714  14.194   7.462   5.889
15488SOL    HW246715  14.131   7.408   6.016
15489SOL     OW46716   6.358   4.594   2.920
15489SOL    HW146717   6.268   4.585   2.889
15489SOL    HW246718   6.407   4.623   2.844
15490SOL     OW46719  11.282  11.321   1.541
15490SOL    HW146720  11.293  11.349   1.450
15490SOL    HW246721  11.187  11.320   1.554
15491SOL     OW46722   8.615   5.415   0.294
15491SOL    HW146723   8.708   5.393   0.305
15491SOL    HW246724   8.601   5.489   0.353
15492SOL     OW46725   9.260   9.343   3.880
15492SOL    HW146726   9.288   9.252   3.883
15492SOL    HW246727   9.255   9.370   3.972
15493SOL     OW46728  10.758   6.251   4.608
15493SOL    HW146729  10.703   6.326   4.631
15493SOL    HW246730  10.699   6.190   4.564
15494SOL     OW46731  11.701  11.394   2.913
15494SOL    HW146732  11.682  11.347   2.832
15494SOL    HW246733  11.671  11.335   2.983
15495SOL     OW46734   7.142  10.081   2.632
15495SOL    HW146735   7.109  10.087   2.722
15495SOL    HW246736   7.210  10.014   2.636
15496SOL     OW46737   5.729   8.312   4.939
15496SOL    HW146738   5.639   8.318   4.907
15496SOL    HW246739   5.749   8.400   4.970
15497SOL     OW46740   3.250   4.479   0.307
15497SOL    HW146741   3.160   4.497   0.333
15497SOL    HW246742   3.303   4.520   0.375
15498SOL     OW46743   4.423   8.253   5.684
15498SOL    HW146744   4.464   8.201   5.615
15498SOL    HW246745   4.453   8.342   5.667
15499SOL     OW46746   7.346  12.276   3.947
15499SOL    HW146747   7.334  12.319   3.863
15499SOL    HW246748   7.335  12.183   3.929
15500SOL     OW46749   9.689   7.754   7.286
15500SOL    HW146750   9.771   7.776   7.331
15500SOL    HW246751   9.629   7.729   7.356
15501SOL     OW46752  13.737   6.983   7.565
15501SOL    HW146753  13.709   7.073   7.548
15501SOL    HW246754   8.290   1.564   0.014
15502SOL     OW46755  10.321   2.243   2.101
15502SOL    HW146756  10.350   2.249   2.192
15502SOL    HW246757  10.236   2.201   2.105
15503SOL     OW46758  10.904   9.691   3.471
15503SOL    HW146759  10.978   9.706   3.412
15503SOL    HW246760  10.852   9.771   3.465
15504SOL     OW46761   6.278  10.966   3.756
15504SOL    HW146762   6.254  10.985   3.665
15504SOL    HW246763   6.328  10.885   3.751
15505SOL     OW46764   8.490  11.109   7.007
15505SOL    HW146765   8.559  11.151   7.058
15505SOL    HW246766   8.421  11.175   7.003
15506SOL     OW46767   7.779   8.096   0.286
15506SOL    HW146768   7.744   8.139   0.207
15506SOL    HW246769   7.856   8.049   0.255
15507SOL     OW46770   2.727  10.179   3.739
15507SOL    HW146771   2.671  10.121   3.687
15507SOL    HW246772   2.731  10.138   3.825
15508SOL     OW46773   9.327   4.946   4.617
15508SOL    HW146774   9.341   4.887   4.691
15508SOL    HW246775   9.233   4.966   4.620
15509SOL     OW46776   7.449   6.868   3.219
15509SOL    HW146777   7.449   6.780   3.258
15509SOL    HW246778   7.356   6.893   3.215
15510SOL     OW46779   6.294   5.074   0.975
15510SOL    HW146780   6.372   5.046   1.024
15510SOL    HW246781   6.225   5.081   1.041
15511SOL     OW46782   4.905   8.040   1.039
15511SOL    HW146783   4.937   8.051   1.129
15511SOL    HW246784   4.813   8.067   1.043
15512SOL     OW46785   6.336   8.294   5.888
15512SOL    HW146786   6.414   8.244   5.866
15512SOL    HW246787   6.352   8.325   5.977
15513SOL     OW46788   4.545   9.849   3.692
15513SOL    HW146789   4.499   9.766   3.704
15513SOL    HW246790   4.548   9.888   3.779
15514SOL     OW46791   8.332   8.901   2.147
15514SOL    HW146792   8.319   8.816   2.189
15514SOL    HW246793   8.268   8.902   2.076
15515SOL     OW46794   6.137  10.082   1.529
15515SOL    HW146795   6.217  10.031   1.535
15515SOL    HW246796   6.167  10.172   1.515
15516SOL     OW46797   7.690   9.475   2.876
15516SOL    HW146798   7.764   9.535   2.885
15516SOL    HW246799   7.695   9.418   2.953
15517SOL     OW46800   7.460   4.018   3.938
15517SOL    HW146801   7.414   4.075   3.999
15517SOL    HW246802   7.399   3.945   3.923
15518SOL     OW46803   5.498  10.501   3.381
15518SOL    HW146804   5.433  10.523   3.447
15518SOL    HW246805   5.551  10.580   3.372
15519SOL     OW46806  13.165  11.303   6.930
15519SOL    HW146807  13.244  11.337   6.890
15519SOL    HW246808  13.196  11.248   7.002
15520SOL     OW46809   8.103   7.087   2.145
15520SOL    HW146810   8.085   7.150   2.076
15520SOL    HW246811   8.131   7.140   2.219
15521SOL     OW46812   8.978  11.319   7.385
15521SOL    HW146813   8.981  11.246   7.447
15521SOL    HW246814   9.003  11.395   7.437
15522SOL     OW46815   8.129   5.815   2.803
15522SOL    HW146816   8.143   5.831   2.896
15522SOL    HW246817   8.039   5.784   2.796
15523SOL     OW46818  10.906  10.785   2.825
15523SOL    HW146819  10.984  10.729   2.823
15523SOL    HW246820  10.903  10.824   2.738
15524SOL     OW46821   4.427   7.158   3.793
15524SOL    HW146822   4.375   7.173   3.714
15524SOL    HW246823   4.483   7.235   3.801
15525SOL     OW46824   9.872   8.947   7.335
15525SOL    HW146825   9.953   8.993   7.356
15525SOL    HW246826   9.899   8.856   7.322
15526SOL     OW46827   7.401   2.201   1.485
15526SOL    HW146828   7.336   2.215   1.415
15526SOL    HW246829   7.405   2.284   1.531
15527SOL     OW46830  13.661   6.679   6.978
15527SOL    HW146831  13.748   6.665   6.939
15527SOL    HW246832  13.671   6.649   7.069
15528SOL     OW46833   7.822   3.316   1.461
15528SOL    HW146834   7.763   3.251   1.422
15528SOL    HW246835   7.785   3.332   1.548
15529SOL     OW46836   8.692  12.008   1.856
15529SOL    HW146837   8.715  12.051   1.938
15529SOL    HW246838   8.672  11.918   1.880
15530SOL     OW46839  11.540  12.207   2.248
15530SOL    HW146840  11.463  12.255   2.218
15530SOL    HW246841  11.614  12.262   2.223
15531SOL     OW46842  12.720   6.237   5.286
15531SOL    HW146843  12.680   6.319   5.317
15531SOL    HW246844  12.655   6.170   5.307
15532SOL     OW46845   9.302   7.675   7.246
15532SOL    HW146846   9.268   7.598   7.291
15532SOL    HW246847   9.373   7.642   7.191
15533SOL     OW46848  11.945   5.042   2.322
15533SOL    HW146849  12.022   5.030   2.378
15533SOL    HW246850  11.941   4.962   2.270
15534SOL     OW46851  10.353   9.245   5.678
15534SOL    HW146852  10.341   9.331   5.638
15534SOL    HW246853  10.417   9.201   5.622
15535SOL     OW46854   8.804   8.859   3.181
15535SOL    HW146855   8.872   8.797   3.208
15535SOL    HW246856   8.796   8.920   3.254
15536SOL     OW46857  14.149  13.775   6.964
15536SOL    HW146858  14.226  13.819   6.928
15536SOL    HW246859  14.166  13.772   7.059
15537SOL     OW46860   3.850  10.707   5.101
15537SOL    HW146861   3.823  10.629   5.052
15537SOL    HW246862   3.927  10.680   5.150
15538SOL     OW46863  14.695  12.216   5.829
15538SOL    HW146864  14.752  12.165   5.771
15538SOL    HW246865  14.735  12.303   5.831
15539SOL     OW46866   8.932  10.591   6.699
15539SOL    HW146867   8.923  10.683   6.674
15539SOL    HW246868   8.922  10.591   6.794
15540SOL     OW46869   4.790   4.641   2.216
15540SOL    HW146870   4.818   4.715   2.270
15540SOL    HW246871   4.859   4.576   2.225
15541SOL     OW46872   2.147  11.501   2.092
15541SOL    HW146873   2.230  11.463   2.120
15541SOL    HW246874   2.106  11.433   2.038
15542SOL     OW46875  10.710   2.858   3.857
15542SOL    HW146876  10.616   2.864   3.873
15542SOL    HW246877  10.741   2.948   3.861
15543SOL     OW46878   6.738  10.629   4.786
15543SOL    HW146879   6.675  10.698   4.766
15543SOL    HW246880   6.769  10.598   4.701
15544SOL     OW46881  10.940  11.402   1.954
15544SOL    HW146882  10.858  11.414   2.002
15544SOL    HW246883  11.005  11.384   2.022
15545SOL     OW46884   5.022  12.390   7.010
15545SOL    HW146885   4.955  12.324   6.990
15545SOL    HW246886   5.098  12.339   7.037
15546SOL     OW46887   9.546   1.230   0.357
15546SOL    HW146888   9.567   1.322   0.376
15546SOL    HW246889   9.615   1.203   0.296
15547SOL     OW46890   7.532  10.014   3.148
15547SOL    HW146891   7.575  10.058   3.075
15547SOL    HW246892   7.515  10.084   3.211
15548SOL     OW46893  10.367  14.056   7.086
15548SOL    HW146894  10.340  14.142   7.056
15548SOL    HW246895  10.322  14.044   7.170
15549SOL     OW46896   4.794  11.375   4.178
15549SOL    HW146897   4.805  11.462   4.140
15549SOL    HW246898   4.805  11.315   4.104
15550SOL     OW46899   3.946   6.693   4.915
15550SOL    HW146900   3.931   6.746   4.837
15550SOL    HW246901   3.895   6.736   4.983
15551SOL     OW46902  12.159   3.851   4.948
15551SOL    HW146903  12.077   3.899   4.958
15551SOL    HW246904  12.225   3.919   4.935
15552SOL     OW46905  10.637   5.827   6.568
15552SOL    HW146906  10.702   5.887   6.606
15552SOL    HW246907  10.582   5.883   6.514
15553SOL     OW46908   4.666   2.062   0.251
15553SOL    HW146909   4.659   2.031   0.342
15553SOL    HW246910   4.754   2.099   0.246
15554SOL     OW46911  11.350  11.048   1.446
15554SOL    HW146912  11.311  11.071   1.361
15554SOL    HW246913  11.345  10.953   1.450
15555SOL     OW46914   6.987  12.408   6.160
15555SOL    HW146915   7.074  12.391   6.123
15555SOL    HW246916   6.969  12.499   6.138
15556SOL     OW46917   6.775   7.712   4.711
15556SOL    HW146918   6.710   7.680   4.774
15556SOL    HW246919   6.859   7.683   4.746
15557SOL     OW46920  12.573   9.608   5.011
15557SOL    HW146921  12.637   9.671   5.044
15557SOL    HW246922  12.546   9.644   4.926
15558SOL     OW46923   2.932   1.009   0.697
15558SOL    HW146924   2.872   0.935   0.685
15558SOL    HW246925   3.019   0.971   0.690
15559SOL     OW46926   0.951   2.110   0.943
15559SOL    HW146927   1.035   2.092   0.984
15559SOL    HW246928   0.964   2.090   0.850
15560SOL     OW46929  12.103   7.436   5.428
15560SOL    HW146930  12.180   7.488   5.408
15560SOL    HW246931  12.131   7.345   5.416
15561SOL     OW46932   9.069  10.346   3.148
15561SOL    HW146933   9.151  10.296   3.145
15561SOL    HW246934   9.049  10.352   3.242
15562SOL     OW46935  14.634  12.016   5.471
15562SOL    HW146936  14.625  11.922   5.456
15562SOL    HW246937   3.947  12.026   5.509
15563SOL     OW46938   9.605  11.298   6.015
15563SOL    HW146939   9.636  11.225   5.961
15563SOL    HW246940   9.668  11.303   6.086
15564SOL     OW46941   1.711   9.166   1.069
15564SOL    HW146942   1.724   9.081   1.027
15564SOL    HW246943   1.743   9.155   1.158
15565SOL     OW46944  10.848  13.358   7.470
15565SOL    HW146945  10.790  13.433   7.455
15565SOL    HW246946  10.899  13.382   7.547
15566SOL     OW46947  10.729   3.286   2.855
15566SOL    HW146948  10.719   3.382   2.859
15566SOL    HW246949  10.642   3.255   2.831
15567SOL     OW46950   6.439   2.389   1.914
15567SOL    HW146951   6.354   2.403   1.955
15567SOL    HW246952   6.445   2.294   1.902
15568SOL     OW46953   3.113   2.081   2.832
15568SOL    HW146954   3.163   2.020   2.778
15568SOL    HW246955   3.045  12.802   2.872
15569SOL     OW46956  12.174   3.421   3.144
15569SOL    HW146957  12.232   3.451   3.214
15569SOL    HW246958  12.190   3.482   3.072
15570SOL     OW46959   2.554   3.002   0.282
15570SOL    HW146960   2.511   2.980   0.365
15570SOL    HW246961   2.646   3.012   0.305
15571SOL     OW46962  13.262   7.564   4.717
15571SOL    HW146963  13.172   7.538   4.698
15571SOL    HW246964  13.314   7.488   4.689
15572SOL     OW46965   9.443   5.476   1.095
15572SOL    HW146966   9.462   5.523   1.176
15572SOL    HW246967   9.415   5.389   1.124
15573SOL     OW46968   6.313  13.023   7.049
15573SOL    HW146969   6.332  13.031   7.142
15573SOL    HW246970   6.341  13.107   7.012
15574SOL     OW46971   4.667  12.523   5.027
15574SOL    HW146972   4.734  12.519   5.095
15574SOL    HW246973   4.709  12.486   4.949
15575SOL     OW46974   5.349   4.087   3.723
15575SOL    HW146975   5.441   4.081   3.697
15575SOL    HW246976   5.314   4.159   3.672
15576SOL     OW46977  14.117  15.240   6.328
15576SOL    HW146978  14.209  15.215   6.317
15576SOL    HW246979  14.113   4.556   6.297
15577SOL     OW46980  11.757   9.948   5.307
15577SOL    HW146981  11.668   9.913   5.312
15577SOL    HW246982  11.775   9.956   5.214
15578SOL     OW46983  12.116   2.807   2.747
15578SOL    HW146984  12.124   2.862   2.826
15578SOL    HW246985  12.206   2.796   2.716
15579SOL     OW46986   4.715  13.865   5.998
15579SOL    HW146987   4.667  13.934   5.952
15579SOL    HW246988   4.673  13.860   6.084
15580SOL     OW46989  11.239   8.418   3.513
15580SOL    HW146990  11.182   8.367   3.571
15580SOL    HW246991  11.323   8.373   3.516
15581SOL     OW46992   9.118   6.478   5.959
15581SOL    HW146993   9.092   6.471   6.051
15581SOL    HW246994   9.053   6.426   5.911
15582SOL     OW46995  13.176   7.379   5.185
15582SOL    HW146996  13.257   7.337   5.158
15582SOL    HW246997  13.118   7.370   5.109
15583SOL     OW46998   7.428   9.325   5.199
15583SOL    HW146999   7.497   9.275   5.155
15583SOL    HW247000   7.347   9.297   5.156
15584SOL     OW47001  13.682   4.753   5.309
15584SOL    HW147002  13.633   4.671   5.310
15584SOL    HW247003  13.769   4.729   5.339
15585SOL     OW47004   8.638   7.538   6.799
15585SOL    HW147005   8.559   7.501   6.838
15585SOL    HW247006   8.708   7.512   6.858
15586SOL     OW47007   7.431   7.717   4.198
15586SOL    HW147008   7.405   7.800   4.237
15586SOL    HW247009   7.348   7.669   4.186
15587SOL     OW47010   8.885   9.164   5.579
15587SOL    HW147011   8.883   9.081   5.626
15587SOL    HW247012   8.842   9.226   5.637
15588SOL     OW47013   3.268   2.654   0.867
15588SOL    HW147014   3.248   2.610   0.950
15588SOL    HW247015   3.183   2.681   0.833
15589SOL     OW47016  11.877  11.603   7.199
15589SOL    HW147017  11.883  11.539   7.127
15589SOL    HW247018  11.787  11.636   7.194
15590SOL     OW47019  11.520   5.355   6.520
15590SOL    HW147020  11.572   5.355   6.439
15590SOL    HW247021  11.449   5.294   6.503
15591SOL     OW47022   2.752   1.950   0.523
15591SOL    HW147023   2.763   1.873   0.579
15591SOL    HW247024   2.692   2.006   0.572
15592SOL     OW47025  11.677   6.941   7.219
15592SOL    HW147026  11.745   7.005   7.236
15592SOL    HW247027  11.661   6.947   7.124
15593SOL     OW47028   8.270   9.328   1.685
15593SOL    HW147029   8.269   9.350   1.592
15593SOL    HW247030   8.313   9.402   1.727
15594SOL     OW47031   8.475   9.916   3.361
15594SOL    HW147032   8.567   9.892   3.374
15594SOL    HW247033   8.476   9.974   3.285
15595SOL     OW47034   6.947   4.421   0.169
15595SOL    HW147035   6.905   4.455   0.090
15595SOL    HW247036   6.884   4.359   0.205
15596SOL     OW47037  11.635  13.700   5.700
15596SOL    HW147038  11.543  13.715   5.723
15596SOL    HW247039  11.684  13.725   5.779
15597SOL     OW47040  11.902   5.579   2.248
15597SOL    HW147041  11.946   5.510   2.297
15597SOL    HW247042  11.895   5.545   2.159
15598SOL     OW47043   6.595  10.471   3.474
15598SOL    HW147044   6.687  10.467   3.448
15598SOL    HW247045   6.569  10.562   3.459
15599SOL     OW47046   8.941   4.467   4.089
15599SOL    HW147047   9.031   4.478   4.118
15599SOL    HW247048   8.931   4.528   4.017
15600SOL     OW47049  15.372   7.991   7.166
15600SOL    HW147050  15.284   8.028   7.175
15600SOL    HW247051  15.369   7.911   7.219
15601SOL     OW47052   6.669   6.601   1.036
15601SOL    HW147053   6.591   6.546   1.031
15601SOL    HW247054   6.650   6.664   1.106
15602SOL     OW47055   9.694  11.544   3.625
15602SOL    HW147056   9.626  11.538   3.692
15602SOL    HW247057   9.729  11.633   3.635
15603SOL     OW47058   8.774  12.124   2.889
15603SOL    HW147059   8.713  12.070   2.839
15603SOL    HW247060   8.731  12.210   2.894
15604SOL     OW47061  13.057   7.500   3.297
15604SOL    HW147062  13.078   7.414   3.261
15604SOL    HW247063  13.000   7.540   3.231
15605SOL     OW47064   1.771   7.886   1.914
15605SOL    HW147065   1.713   7.896   1.989
15605SOL    HW247066   1.847   7.839   1.948
15606SOL     OW47067  11.883   7.140   3.694
15606SOL    HW147068  11.951   7.081   3.725
15606SOL    HW247069  11.913   7.227   3.721
15607SOL     OW47070   0.700   0.865   0.078
15607SOL    HW147071   0.669   0.956   0.076
15607SOL    HW247072   0.659   0.827   0.155
15608SOL     OW47073   2.326   3.416   2.502
15608SOL    HW147074   2.309   3.466   2.422
15608SOL    HW247075   2.415   3.441   2.527
15609SOL     OW47076  15.274  13.219   6.416
15609SOL    HW147077   4.528  13.308   6.395
15609SOL    HW247078  15.294  13.208   6.508
15610SOL     OW47079   6.039   7.885   1.189
15610SOL    HW147080   6.126   7.878   1.150
15610SOL    HW247081   6.023   7.979   1.195
15611SOL     OW47082  14.788  12.984   5.815
15611SOL    HW147083  14.698  13.016   5.813
15611SOL    HW247084  14.788  12.917   5.883
15612SOL     OW47085   5.131   5.627   4.887
15612SOL    HW147086   5.167   5.679   4.958
15612SOL    HW247087   5.040   5.656   4.880
15613SOL     OW47088   9.468   5.465   3.191
15613SOL    HW147089   9.509   5.450   3.276
15613SOL    HW247090   9.381   5.497   3.211
15614SOL     OW47091   6.332  13.660   6.287
15614SOL    HW147092   6.293  13.595   6.345
15614SOL    HW247093   6.425  13.662   6.311
15615SOL     OW47094  10.833   5.831   5.737
15615SOL    HW147095  10.761   5.891   5.718
15615SOL    HW247096  10.863   5.856   5.824
15616SOL     OW47097   9.063   5.437   1.714
15616SOL    HW147098   9.116   5.369   1.756
15616SOL    HW247099   9.125   5.484   1.658
15617SOL     OW47100   0.519   3.218   0.065
15617SOL    HW147101   0.526   3.249   0.156
15617SOL    HW247102   0.609   3.217   0.033
15618SOL     OW47103   7.977   4.457   3.126
15618SOL    HW147104   8.050   4.519   3.120
15618SOL    HW247105   7.937   4.476   3.211
15619SOL     OW47106   1.142   6.011   0.219
15619SOL    HW147107   1.073   6.068   0.252
15619SOL    HW247108   1.220   6.038   0.266
15620SOL     OW47109  11.431   9.120   4.415
15620SOL    HW147110  11.485   9.091   4.489
15620SOL    HW247111  11.489   9.176   4.364
15621SOL     OW47112  11.523   2.386   1.157
15621SOL    HW147113   0.843   2.399   1.148
15621SOL    HW247114  11.502   2.417   1.245
15622SOL     OW47115   4.086  11.531   5.672
15622SOL    HW147116   4.180  11.525   5.657
15622SOL    HW247117  14.850  11.513   5.766
15623SOL     OW47118  14.083   4.757   6.247
15623SOL    HW147119  14.038   4.782   6.328
15623SOL    HW247120  14.151   4.824   6.236
15624SOL     OW47121  10.889   7.646   7.426
15624SOL    HW147122  10.826   7.716   7.441
15624SOL    HW247123  10.953   7.683   7.365
15625SOL     OW47124   2.145   6.646   0.153
15625SOL    HW147125   2.132   6.659   0.059
15625SOL    HW247126   2.071   6.592   0.180
15626SOL     OW47127  13.279  13.536   4.131
15626SOL    HW147128  13.350  13.496   4.181
15626SOL    HW247129  13.289  13.630   4.145
15627SOL     OW47130  11.452  10.339   1.445
15627SOL    HW147131  11.511  10.373   1.512
15627SOL    HW247132  11.427  10.416   1.393
15628SOL     OW47133  12.772  12.157   7.106
15628SOL    HW147134  12.680  12.169   7.083
15628SOL    HW247135  12.770  12.096   7.180
15629SOL     OW47136   6.513   8.723   3.559
15629SOL    HW147137   6.534   8.794   3.620
15629SOL    HW247138   6.596   8.704   3.515
15630SOL     OW47139  14.806   4.978   5.892
15630SOL    HW147140  14.825   5.057   5.842
15630SOL    HW247141  14.874   4.916   5.865
15631SOL     OW47142   4.681   4.603   2.491
15631SOL    HW147143   4.711   4.576   2.404
15631SOL    HW247144   4.616   4.672   2.474
15632SOL     OW47145  10.474   8.114   1.131
15632SOL    HW147146  10.548   8.132   1.188
15632SOL    HW247147  10.447   8.199   1.098
15633SOL     OW47148   7.325   7.248   2.770
15633SOL    HW147149   7.231   7.264   2.758
15633SOL    HW247150   7.354   7.320   2.826
15634SOL     OW47151   4.732  12.390   6.130
15634SOL    HW147152   4.788  12.465   6.108
15634SOL    HW247153   4.690  12.414   6.212
15635SOL     OW47154   1.470   2.943   0.654
15635SOL    HW147155   1.463   2.925   0.747
15635SOL    HW247156   1.429   3.029   0.643
15636SOL     OW47157  10.981  10.932   3.159
15636SOL    HW147158  10.957  10.882   3.237
15636SOL    HW247159  11.050  10.991   3.188
15637SOL     OW47160   1.456   2.872   0.388
15637SOL    HW147161   1.463   2.873   0.483
15637SOL    HW247162   1.368   2.906   0.370
15638SOL     OW47163   6.113   9.098   1.417
15638SOL    HW147164   6.177   9.079   1.349
15638SOL    HW247165   6.145   9.177   1.460
15639SOL     OW47166   6.430  10.168   3.487
15639SOL    HW147167   6.436  10.249   3.537
15639SOL    HW247168   6.388  10.106   3.546
15640SOL     OW47169   4.984  13.624   4.223
15640SOL    HW147170   4.942  13.632   4.137
15640SOL    HW247171   5.002  13.530   4.232
15641SOL     OW47172   7.302   4.622   5.425
15641SOL    HW147173   7.358   4.562   5.375
15641SOL    HW247174   7.236   4.651   5.362
15642SOL     OW47175   9.614   8.052   3.391
15642SOL    HW147176   9.635   7.987   3.458
15642SOL    HW247177   9.573   8.002   3.321
15643SOL     OW47178   7.544   7.435   0.299
15643SOL    HW147179   7.506   7.522   0.291
15643SOL    HW247180   7.608   7.430   0.227
15644SOL     OW47181   5.090   1.107   0.096
15644SOL    HW147182   5.040   1.187   0.110
15644SOL    HW247183   5.108   1.105   0.002
15645SOL     OW47184   8.498   8.231   0.108
15645SOL    HW147185   8.424   8.286   0.135
15645SOL    HW247186   8.552   8.289   0.053
15646SOL     OW47187   9.460   7.689   3.333
15646SOL    HW147188   9.535   7.631   3.343
15646SOL    HW247189   9.464   7.719   3.242
15647SOL     OW47190  12.241   9.409   6.014
15647SOL    HW147191  12.214   9.477   6.075
15647SOL    HW247192  12.322   9.374   6.051
15648SOL     OW47193   9.587   7.900   7.000
15648SOL    HW147194   9.556   7.810   7.003
15648SOL    HW247195   9.595   7.925   7.092
15649SOL     OW47196   6.136   5.722   3.457
15649SOL    HW147197   6.125   5.777   3.379
15649SOL    HW247198   6.222   5.748   3.492
15650SOL     OW47199  11.897  13.594   7.420
15650SOL    HW147200  11.809  13.562   7.437
15650SOL    HW247201  11.885  13.682   7.384
15651SOL     OW47202   9.234   3.810   2.768
15651SOL    HW147203   9.197   3.809   2.856
15651SOL    HW247204   9.253   3.902   2.751
15652SOL     OW47205   6.733   2.466   0.297
15652SOL    HW147206   6.747   2.498   0.386
15652SOL    HW247207   6.713   2.544   0.246
15653SOL     OW47208  10.285   2.063   1.346
15653SOL    HW147209  10.294   2.126   1.418
15653SOL    HW247210  10.334   2.102   1.274
15654SOL     OW47211   7.204   6.042   6.357
15654SOL    HW147212   7.216   5.977   6.427
15654SOL    HW247213   7.139   6.103   6.392
15655SOL     OW47214   3.108  10.414   4.107
15655SOL    HW147215   3.174  10.347   4.125
15655SOL    HW247216   3.135  10.489   4.159
15656SOL     OW47217   5.756   3.844   2.558
15656SOL    HW147218   5.683   3.797   2.516
15656SOL    HW247219   5.717   3.926   2.587
15657SOL     OW47220  11.888  10.294   6.592
15657SOL    HW147221  11.799  10.327   6.580
15657SOL    HW247222  11.920  10.339   6.669
15658SOL     OW47223   3.673  11.973   5.184
15658SOL    HW147224   3.659  12.034   5.112
15658SOL    HW247225   3.750  12.007   5.230
15659SOL     OW47226   5.383   0.529   0.440
15659SOL    HW147227   5.442   0.559   0.509
15659SOL    HW247228   5.314   0.594   0.437
15660SOL     OW47229   7.486   6.943   4.342
15660SOL    HW147230   7.474   7.004   4.414
15660SOL    HW247231   7.557   6.980   4.290
15661SOL     OW47232   6.170   9.037   6.367
15661SOL    HW147233   6.166   9.131   6.348
15661SOL    HW247234   6.245   9.028   6.426
15662SOL     OW47235   8.471   6.522   4.274
15662SOL    HW147236   8.482   6.486   4.186
15662SOL    HW247237   8.519   6.605   4.272
15663SOL     OW47238   1.737   6.592   2.222
15663SOL    HW147239   1.714   6.642   2.301
15663SOL    HW247240   1.707   6.647   2.150
15664SOL     OW47241   7.007   8.387   3.233
15664SOL    HW147242   7.005   8.427   3.320
15664SOL    HW247243   7.030   8.458   3.174
15665SOL     OW47244   8.941  10.607   3.045
15665SOL    HW147245   8.954  10.682   3.103
15665SOL    HW247246   9.027  10.591   3.006
15666SOL     OW47247   7.038   9.070   6.091
15666SOL    HW147248   6.970   9.003   6.101
15666SOL    HW247249   6.992   9.153   6.105
15667SOL     OW47250   2.288   2.414   0.296
15667SOL    HW147251   2.321   2.419   0.207
15667SOL    HW247252   2.198   2.447   0.291
15668SOL     OW47253   0.890   9.126   0.648
15668SOL    HW147254   0.936   9.180   0.583
15668SOL    HW247255   0.915   9.164   0.732
15669SOL     OW47256  10.145  12.723   7.296
15669SOL    HW147257  10.137  12.778   7.374
15669SOL    HW247258  10.111  12.776   7.225
15670SOL     OW47259   5.741  10.871   5.238
15670SOL    HW147260   5.755  10.965   5.226
15670SOL    HW247261   5.681  10.866   5.313
15671SOL     OW47262  10.389  10.094   6.638
15671SOL    HW147263  10.441  10.017   6.615
15671SOL    HW247264  10.299  10.062   6.641
15672SOL     OW47265   5.246   7.600   3.297
15672SOL    HW147266   5.325   7.597   3.350
15672SOL    HW247267   5.185   7.539   3.338
15673SOL     OW47268   3.166   6.747   2.920
15673SOL    HW147269   3.245   6.769   2.969
15673SOL    HW247270   3.098   6.739   2.987
15674SOL     OW47271   6.809  14.097   5.485
15674SOL    HW147272   6.754  14.064   5.413
15674SOL    HW247273   6.897  14.064   5.465
15675SOL     OW47274   6.915  10.893   2.734
15675SOL    HW147275   7.008  10.894   2.756
15675SOL    HW247276   6.877  10.829   2.794
15676SOL     OW47277  13.521  11.838   3.917
15676SOL    HW147278  13.547  11.864   4.006
15676SOL    HW247279  13.520  11.742   3.919
15677SOL     OW47280   9.998   6.525   0.494
15677SOL    HW147281  10.006   6.620   0.488
15677SOL    HW247282   9.907   6.510   0.520
15678SOL     OW47283  11.520   6.626   3.964
15678SOL    HW147284  11.488   6.573   4.037
15678SOL    HW247285  11.496   6.578   3.886
15679SOL     OW47286  15.230   6.350   7.131
15679SOL    HW147287  15.214   6.357   7.225
15679SOL    HW247288  15.317   6.312   7.123
15680SOL     OW47289   8.987  10.268   6.868
15680SOL    HW147290   8.998  10.334   6.800
15680SOL    HW247291   8.895  10.243   6.863
15681SOL     OW47292  10.240   7.314   2.358
15681SOL    HW147293  10.301   7.363   2.305
15681SOL    HW247294  10.153   7.339   2.325
15682SOL     OW47295  13.269   8.027   7.450
15682SOL    HW147296  13.252   8.117   7.479
15682SOL    HW247297  13.356   8.006   7.485
15683SOL     OW47298   6.000  12.221   2.895
15683SOL    HW147299   5.957  12.306   2.899
15683SOL    HW247300   5.928  12.158   2.893
15684SOL     OW47301   6.673   7.128   0.719
15684SOL    HW147302   6.614   7.185   0.768
15684SOL    HW247303   6.614   7.068   0.672
15685SOL     OW47304   7.392   9.976   4.850
15685SOL    HW147305   7.467   9.990   4.792
15685SOL    HW247306   7.368  10.064   4.880
15686SOL     OW47307   9.144  11.456   6.611
15686SOL    HW147308   9.160  11.436   6.704
15686SOL    HW247309   9.205  11.401   6.563
15687SOL     OW47310   6.909   4.322   4.041
15687SOL    HW147311   6.990   4.353   4.001
15687SOL    HW247312   6.898   4.375   4.119
15688SOL     OW47313   2.989   6.258   0.943
15688SOL    HW147314   2.918   6.214   0.896
15688SOL    HW247315   3.065   6.200   0.929
15689SOL     OW47316   9.666   8.776   6.976
15689SOL    HW147317   9.758   8.753   6.987
15689SOL    HW247318   9.637   8.722   6.903
15690SOL     OW47319  13.948   3.646   4.496
15690SOL    HW147320  13.863   3.688   4.506
15690SOL    HW247321   3.235   3.708   4.535
15691SOL     OW47322  11.763   7.755   5.827
15691SOL    HW147323  11.772   7.814   5.902
15691SOL    HW247324  11.803   7.803   5.754
15692SOL     OW47325  13.247   5.623   6.314
15692SOL    HW147326  13.252   5.565   6.238
15692SOL    HW247327  13.163   5.667   6.306
15693SOL     OW47328  14.731   9.426   7.277
15693SOL    HW147329  14.811   9.444   7.325
15693SOL    HW247330  14.710   9.509   7.233
15694SOL     OW47331   9.651   9.707   5.859
15694SOL    HW147332   9.612   9.787   5.893
15694SOL    HW247333   9.661   9.723   5.765
15695SOL     OW47334   5.726   6.832   3.680
15695SOL    HW147335   5.697   6.769   3.614
15695SOL    HW247336   5.815   6.804   3.702
15696SOL     OW47337  12.441  13.194   4.287
15696SOL    HW147338  12.516  13.162   4.336
15696SOL    HW247339  12.392  13.116   4.263
15697SOL     OW47340  10.514   8.006   0.455
15697SOL    HW147341  10.514   8.102   0.459
15697SOL    HW247342  10.456   7.985   0.381
15698SOL     OW47343  10.819   5.203   0.146
15698SOL    HW147344  10.819   5.112   0.117
15698SOL    HW247345  10.739   5.212   0.198
15699SOL     OW47346   5.736  12.834   5.625
15699SOL    HW147347   5.675  12.774   5.669
15699SOL    HW247348   5.745  12.798   5.537
15700SOL     OW47349  12.568   9.363   7.208
15700SOL    HW147350  12.633   9.370   7.278
15700SOL    HW247351  12.609   9.407   7.133
15701SOL     OW47352   3.837  10.282   0.353
15701SOL    HW147353   3.920  10.326   0.374
15701SOL    HW247354   3.780  10.351   0.320
15702SOL     OW47355   5.581   4.611   1.159
15702SOL    HW147356   5.608   4.522   1.184
15702SOL    HW247357   5.499   4.599   1.111
15703SOL     OW47358   7.549   8.972   0.987
15703SOL    HW147359   7.497   9.010   1.058
15703SOL    HW247360   7.640   8.992   1.009
15704SOL     OW47361   6.569   8.955   0.167
15704SOL    HW147362   6.590   9.047   0.180
15704SOL    HW247363   6.476   8.948   0.186
15705SOL     OW47364   7.882   3.441   2.333
15705SOL    HW147365   7.967   3.468   2.299
15705SOL    HW247366   7.899   3.356   2.375
15706SOL     OW47367   5.599   1.858   2.147
15706SOL    HW147368   5.545   1.900   2.081
15706SOL    HW247369   5.658   1.928   2.178
15707SOL     OW47370   4.544  10.653   3.939
15707SOL    HW147371   4.577  10.698   3.862
15707SOL    HW247372   4.458  10.693   3.955
15708SOL     OW47373   5.051   4.817   1.044
15708SOL    HW147374   5.037   4.784   0.956
15708SOL    HW247375   5.141   4.847   1.045
15709SOL     OW47376  13.452   8.687   6.935
15709SOL    HW147377  13.464   8.762   6.878
15709SOL    HW247378  13.536   8.641   6.933
15710SOL     OW47379   4.561   9.115   2.594
15710SOL    HW147380   4.472   9.116   2.559
15710SOL    HW247381   4.601   9.038   2.554
15711SOL     OW47382   6.958  10.539   6.794
15711SOL    HW147383   6.908  10.539   6.876
15711SOL    HW247384   6.972  10.446   6.775
15712SOL     OW47385   8.764   4.065   0.849
15712SOL    HW147386   8.809   3.994   0.894
15712SOL    HW247387   8.834   4.121   0.817
15713SOL     OW47388   4.678   6.594   2.781
15713SOL    HW147389   4.610   6.657   2.808
15713SOL    HW247390   4.679   6.600   2.686
15714SOL     OW47391   8.318   2.030   1.488
15714SOL    HW147392   8.357   2.042   1.575
15714SOL    HW247393   8.263   1.952   1.498
15715SOL     OW47394   2.302   8.922   3.177
15715SOL    HW147395   2.286   9.012   3.207
15715SOL    HW247396   2.317   8.931   3.083
15716SOL     OW47397  11.954  10.521   4.586
15716SOL    HW147398  12.044  10.504   4.559
15716SOL    HW247399  11.933  10.450   4.646
15717SOL     OW47400  13.527   6.002   7.203
15717SOL    HW147401  13.457   5.937   7.194
15717SOL    HW247402  13.584   5.987   7.127
15718SOL     OW47403  10.942   3.143   2.025
15718SOL    HW147404  10.859   3.158   1.981
15718SOL    HW247405  11.001   3.210   1.988
15719SOL     OW47406   6.456  10.126   2.112
15719SOL    HW147407   6.428  10.126   2.021
15719SOL    HW247408   6.379  10.099   2.162
15720SOL     OW47409   7.986  10.566   0.875
15720SOL    HW147410   7.902  10.610   0.861
15720SOL    HW247411   7.992  10.503   0.803
15721SOL     OW47412   0.896   8.412   0.056
15721SOL    HW147413   0.816   8.413   0.004
15721SOL    HW247414   0.874   8.359   0.133
15722SOL     OW47415   5.272   8.098   4.109
15722SOL    HW147416   5.264   8.182   4.065
15722SOL    HW247417   5.344   8.054   4.065
15723SOL     OW47418   9.753   3.969   1.674
15723SOL    HW147419   9.815   3.948   1.744
15723SOL    HW247420   9.783   3.917   1.599
15724SOL     OW47421  10.027   6.979   3.803
15724SOL    HW147422  10.069   6.976   3.718
15724SOL    HW247423  10.089   7.027   3.859
15725SOL     OW47424  11.388   5.872   3.422
15725SOL    HW147425  11.447   5.849   3.494
15725SOL    HW247426  11.312   5.911   3.465
15726SOL     OW47427  14.769  15.520   6.714
15726SOL    HW147428  14.859  15.488   6.711
15726SOL    HW247429  14.721  15.450   6.759
15727SOL     OW47430   4.611   5.561   2.469
15727SOL    HW147431   4.583   5.651   2.483
15727SOL    HW247432   4.640   5.530   2.555
15728SOL     OW47433   1.141   6.958   0.199
15728SOL    HW147434   1.046   6.955   0.207
15728SOL    HW247435   1.160   6.906   0.120
15729SOL     OW47436   4.172   3.273   1.101
15729SOL    HW147437   4.132   3.197   1.059
15729SOL    HW247438   4.188   3.245   1.192
15730SOL     OW47439   5.711   8.139   2.941
15730SOL    HW147440   5.634   8.194   2.955
15730SOL    HW247441   5.781   8.184   2.988
15731SOL     OW47442   9.787   3.423   0.166
15731SOL    HW147443   9.725   3.437   0.238
15731SOL    HW247444   9.761   3.487   0.100
15732SOL     OW47445  15.143  10.780   7.378
15732SOL    HW147446  15.081  10.825   7.436
15732SOL    HW247447  15.224  10.776   7.429
15733SOL     OW47448   7.452   6.714   2.605
15733SOL    HW147449   7.362   6.744   2.617
15733SOL    HW247450   7.470   6.729   2.513
15734SOL     OW47451  10.085   5.495   2.215
15734SOL    HW147452  10.119   5.440   2.286
15734SOL    HW247453  10.112   5.451   2.135
15735SOL     OW47454  13.092   5.825   6.995
15735SOL    HW147455  13.016   5.856   6.946
15735SOL    HW247456  13.164   5.828   6.932
15736SOL     OW47457   4.819   6.821   3.356
15736SOL    HW147458   4.875   6.843   3.282
15736SOL    HW247459   4.747   6.771   3.318
15737SOL     OW47460   7.319  12.664   5.412
15737SOL    HW147461   7.410  12.634   5.415
15737SOL    HW247462   7.269  12.591   5.447
15738SOL     OW47463  10.599   3.760   5.148
15738SOL    HW147464  10.637   3.804   5.224
15738SOL    HW247465  10.608   3.823   5.076
15739SOL     OW47466  13.768   7.803   4.319
15739SOL    HW147467  13.743   7.717   4.352
15739SOL    HW247468  13.685   7.847   4.300
15740SOL     OW47469   7.876   5.397   4.257
15740SOL    HW147470   7.804   5.446   4.217
15740SOL    HW247471   7.955   5.446   4.234
15741SOL     OW47472   5.445  11.278   6.824
15741SOL    HW147473   5.441  11.362   6.778
15741SOL    HW247474   5.467  11.215   6.756
15742SOL     OW47475   9.936   6.171   1.459
15742SOL    HW147476  10.015   6.198   1.412
15742SOL    HW247477   9.941   6.215   1.544
15743SOL     OW47478   4.264   6.277   1.110
15743SOL    HW147479   4.243   6.211   1.176
15743SOL    HW247480   4.184   6.329   1.101
15744SOL     OW47481  11.872  12.368   4.567
15744SOL    HW147482  11.866  12.443   4.509
15744SOL    HW247483  11.926  12.305   4.519
15745SOL     OW47484   2.530   2.932   0.552
15745SOL    HW147485   2.547   2.852   0.601
15745SOL    HW247486   2.592   2.996   0.588
15746SOL     OW47487   9.342   6.753   2.927
15746SOL    HW147488   9.302   6.805   2.857
15746SOL    HW247489   9.416   6.709   2.885
15747SOL     OW47490  14.173   9.493   7.156
15747SOL    HW147491  14.230   9.500   7.079
15747SOL    HW247492  14.102   9.436   7.128
15748SOL     OW47493   8.828  12.408   3.419
15748SOL    HW147494   8.813  12.490   3.372
15748SOL    HW247495   8.815  12.340   3.353
15749SOL     OW47496  12.223   8.143   5.673
15749SOL    HW147497  12.175   8.209   5.624
15749SOL    HW247498  12.314   8.155   5.647
15750SOL     OW47499  12.126  10.001   3.402
15750SOL    HW147500  12.194   9.999   3.470
15750SOL    HW247501  12.174   9.990   3.320
15751SOL     OW47502  14.086   9.413   5.758
15751SOL    HW147503  14.141   9.437   5.833
15751SOL    HW247504  14.148   9.403   5.685
15752SOL     OW47505  10.974   3.471   1.015
15752SOL    HW147506  10.983   3.449   1.107
15752SOL    HW247507  11.043   3.536   0.999
15753SOL     OW47508  12.196   7.111   5.820
15753SOL    HW147509  12.173   7.203   5.817
15753SOL    HW247510  12.212   7.094   5.913
15754SOL     OW47511  11.114   5.209   1.550
15754SOL    HW147512  11.066   5.146   1.495
15754SOL    HW247513  11.131   5.162   1.632
15755SOL     OW47514  10.800   8.271   2.357
15755SOL    HW147515  10.706   8.278   2.337
15755SOL    HW247516  10.803   8.248   2.450
15756SOL     OW47517   2.646  11.104   2.661
15756SOL    HW147518   2.727  11.072   2.701
15756SOL    HW247519   2.622  11.035   2.598
15757SOL     OW47520   7.098   4.235   1.493
15757SOL    HW147521   7.068   4.315   1.535
15757SOL    HW247522   7.192   4.232   1.511
15758SOL     OW47523  13.560  12.626   5.328
15758SOL    HW147524  13.641  12.590   5.364
15758SOL    HW247525  13.589  12.685   5.258
15759SOL     OW47526   5.224   5.138   2.604
15759SOL    HW147527   5.209   5.202   2.534
15759SOL    HW247528   5.268   5.189   2.673
15760SOL     OW47529  14.941   9.998   6.224
15760SOL    HW147530  14.997  10.040   6.159
15760SOL    HW247531  14.889  10.069   6.261
15761SOL     OW47532  11.775   7.377   3.927
15761SOL    HW147533  11.734   7.292   3.911
15761SOL    HW247534  11.805   7.372   4.018
15762SOL     OW47535  12.303  11.439   2.495
15762SOL    HW147536  12.376  11.460   2.553
15762SOL    HW247537  12.291  11.518   2.442
15763SOL     OW47538   3.600   2.933   2.172
15763SOL    HW147539   3.542   2.899   2.240
15763SOL    HW247540   3.555   3.011   2.139
15764SOL     OW47541   6.932   5.838   3.179
15764SOL    HW147542   7.015   5.795   3.161
15764SOL    HW247543   6.906   5.805   3.265
15765SOL     OW47544   9.720   8.941   2.909
15765SOL    HW147545   9.752   8.869   2.964
15765SOL    HW247546   9.765   8.929   2.825
15766SOL     OW47547   8.423   6.940   1.326
15766SOL    HW147548   8.471   6.865   1.290
15766SOL    HW247549   8.341   6.902   1.358
15767SOL     OW47550   5.801   7.914   5.946
15767SOL    HW147551   5.882   7.945   5.985
15767SOL    HW247552   5.825   7.892   5.856
15768SOL     OW47553   8.476   7.727   3.068
15768SOL    HW147554   8.468   7.662   2.998
15768SOL    HW247555   8.495   7.675   3.146
15769SOL     OW47556   7.306   3.741   3.663
15769SOL    HW147557   7.265   3.684   3.598
15769SOL    HW247558   7.234   3.766   3.721
15770SOL     OW47559   5.068   8.144   4.552
15770SOL    HW147560   5.020   8.195   4.617
15770SOL    HW247561   5.034   8.173   4.468
15771SOL     OW47562  12.937   6.656   6.079
15771SOL    HW147563  13.005   6.714   6.112
15771SOL    HW247564  12.954   6.572   6.122
15772SOL     OW47565  10.777  10.856   2.239
15772SOL    HW147566  10.685  10.851   2.265
15772SOL    HW247567  10.811  10.768   2.256
15773SOL     OW47568   4.256   8.217   3.540
15773SOL    HW147569   4.268   8.137   3.591
15773SOL    HW247570   4.162   8.234   3.542
15774SOL     OW47571   6.224   7.127   6.471
15774SOL    HW147572   6.155   7.094   6.413
15774SOL    HW247573   6.253   7.208   6.430
15775SOL     OW47574  11.977   8.553   5.289
15775SOL    HW147575  11.954   8.646   5.295
15775SOL    HW247576  11.896   8.511   5.258
15776SOL     OW47577  12.025   5.708   3.076
15776SOL    HW147578  11.959   5.683   3.010
15776SOL    HW247579  11.986   5.783   3.120
15777SOL     OW47580  10.880  11.464   1.385
15777SOL    HW147581  10.950  11.514   1.426
15777SOL    HW247582  10.811  11.460   1.451
15778SOL     OW47583   9.861  10.430   0.250
15778SOL    HW147584   9.888  10.338   0.250
15778SOL    HW247585   9.942  10.479   0.235
15779SOL     OW47586  10.717   6.848   6.410
15779SOL    HW147587  10.626   6.829   6.433
15779SOL    HW247588  10.762   6.857   6.495
15780SOL     OW47589   3.159   7.166   2.113
15780SOL    HW147590   3.113   7.203   2.188
15780SOL    HW247591   3.117   7.205   2.037
15781SOL     OW47592  10.716   6.197   3.984
15781SOL    HW147593  10.637   6.217   3.934
15781SOL    HW247594  10.766   6.139   3.927
15782SOL     OW47595   3.996  10.482   0.478
15782SOL    HW147596   3.902  10.467   0.467
15782SOL    HW247597   4.003  10.531   0.560
15783SOL     OW47598   6.108   7.505   6.261
15783SOL    HW147599   6.153   7.480   6.342
15783SOL    HW247600   6.140   7.594   6.243
15784SOL     OW47601  10.191  11.439   4.861
15784SOL    HW147602  10.284  11.417   4.870
15784SOL    HW247603  10.148  11.393   4.934
15785SOL     OW47604  11.766  10.163   5.840
15785SOL    HW147605  11.738  10.074   5.861
15785SOL    HW247606  11.734  10.178   5.751
15786SOL     OW47607   7.100   5.528   7.489
15786SOL    HW147608   7.006   5.537   7.502
15786SOL    HW247609   7.140   5.574   7.563
15787SOL     OW47610   4.808   5.938   6.052
15787SOL    HW147611   4.744   6.003   6.025
15787SOL    HW247612   4.890   5.964   6.009
15788SOL     OW47613   9.047   3.942   4.103
15788SOL    HW147614   9.006   4.028   4.090
15788SOL    HW247615   9.110   3.935   4.031
15789SOL     OW47616  15.595  14.822   7.455
15789SOL    HW147617  15.621  14.752   7.515
15789SOL    HW247618  15.504  14.801   7.433
15790SOL     OW47619   9.994   8.179   2.260
15790SOL    HW147620  10.026   8.254   2.210
15790SOL    HW247621   9.941   8.218   2.330
15791SOL     OW47622   6.136   4.563   1.772
15791SOL    HW147623   6.232   4.562   1.781
15791SOL    HW247624   6.121   4.568   1.678
15792SOL     OW47625   5.107  15.043   6.066
15792SOL    HW147626   5.183   4.294   6.013
15792SOL    HW247627   5.080  14.959   6.029
15793SOL     OW47628   3.737   5.120   4.054
15793SOL    HW147629   3.796   5.176   4.105
15793SOL    HW247630   3.708   5.053   4.116
15794SOL     OW47631   4.283   1.357   1.398
15794SOL    HW147632   4.192   1.349   1.427
15794SOL    HW247633   4.332   1.376   1.478
15795SOL     OW47634   2.835   7.387   3.643
15795SOL    HW147635   2.928   7.409   3.653
15795SOL    HW247636   2.820   7.387   3.549
15796SOL     OW47637   2.270   9.426   3.073
15796SOL    HW147638   2.260   9.486   2.999
15796SOL    HW247639   2.232   9.473   3.147
15797SOL     OW47640   5.349  10.656   0.306
15797SOL    HW147641   5.427  10.648   0.251
15797SOL    HW247642   5.321  10.747   0.295
15798SOL     OW47643   8.415  10.225   4.024
15798SOL    HW147644   8.326  10.226   3.989
15798SOL    HW247645   8.433  10.132   4.040
15799SOL     OW47646   5.650   9.263   0.732
15799SOL    HW147647   5.558   9.262   0.705
15799SOL    HW247648   5.647   9.279   0.827
15800SOL     OW47649  10.190   1.840   0.155
15800SOL    HW147650  10.234   1.757   0.141
15800SOL    HW247651  10.170   1.873   0.068
15801SOL     OW47652   3.485   4.527   2.092
15801SOL    HW147653   3.499   4.435   2.111
15801SOL    HW247654   3.461   4.566   2.176
15802SOL     OW47655   2.393  11.167   2.873
15802SOL    HW147656   2.484  11.197   2.877
15802SOL    HW247657   2.381  11.137   2.783
15803SOL     OW47658   6.802   9.630   5.007
15803SOL    HW147659   6.775   9.719   5.029
15803SOL    HW247660   6.852   9.600   5.082
15804SOL     OW47661   7.669  10.990   2.456
15804SOL    HW147662   7.688  11.083   2.468
15804SOL    HW247663   7.640  10.982   2.366
15805SOL     OW47664   9.051   1.476   0.052
15805SOL    HW147665  14.392   6.811   7.606
15805SOL    HW247666   9.009   1.562   0.048
15806SOL     OW47667   7.826  10.034   6.840
15806SOL    HW147668   7.909  10.064   6.878
15806SOL    HW247669   7.790  10.111   6.797
15807SOL     OW47670   1.958   7.296   0.289
15807SOL    HW147671   1.968   7.233   0.359
15807SOL    HW247672   1.984   7.249   0.210
15808SOL     OW47673   6.363   9.075   2.281
15808SOL    HW147674   6.358   9.166   2.308
15808SOL    HW247675   6.305   9.028   2.341
15809SOL     OW47676   6.187   6.280   0.538
15809SOL    HW147677   6.110   6.223   0.529
15809SOL    HW247678   6.152   6.369   0.532
15810SOL     OW47679  12.188   5.404   5.125
15810SOL    HW147680  12.123   5.409   5.195
15810SOL    HW247681  12.267   5.369   5.167
15811SOL     OW47682  11.614   8.226   4.582
15811SOL    HW147683  11.561   8.300   4.608
15811SOL    HW247684  11.586   8.155   4.639
15812SOL     OW47685   4.982  10.114   4.011
15812SOL    HW147686   4.917  10.144   4.075
15812SOL    HW247687   5.064  10.112   4.060
15813SOL     OW47688   4.725   4.172   1.224
15813SOL    HW147689   4.739   4.216   1.141
15813SOL    HW247690   4.696   4.241   1.284
15814SOL     OW47691   5.381   6.204   2.334
15814SOL    HW147692   5.342   6.125   2.372
15814SOL    HW247693   5.385   6.185   2.240
15815SOL     OW47694   6.029   4.217   0.687
15815SOL    HW147695   6.038   4.312   0.689
15815SOL    HW247696   6.004   4.193   0.777
15816SOL     OW47697   2.961   8.335   3.931
15816SOL    HW147698   2.962   8.257   3.987
15816SOL    HW247699   2.875   8.334   3.890
15817SOL     OW47700   4.014   6.397   1.080
15817SOL    HW147701   3.974   6.402   1.167
15817SOL    HW247702   4.003   6.485   1.044
15818SOL     OW47703   4.165  10.346   5.877
15818SOL    HW147704  14.863  10.402   5.863
15818SOL    HW247705   4.214  10.352   5.795
15819SOL     OW47706   6.752   5.780   3.536
15819SOL    HW147707   6.721   5.694   3.506
15819SOL    HW247708   6.841   5.786   3.503
15820SOL     OW47709   7.300   2.550   2.967
15820SOL    HW147710   7.275   2.563   2.875
15820SOL    HW247711   7.311   2.639   3.001
15821SOL     OW47712   2.548   1.714   0.427
15821SOL    HW147713   2.606   1.693   0.354
15821SOL    HW247714   2.591   1.678   0.504
15822SOL     OW47715   9.734  11.896   3.624
15822SOL    HW147716   9.727  11.975   3.571
15822SOL    HW247717   9.827  11.875   3.625
15823SOL     OW47718   3.622   2.688   3.483
15823SOL    HW147719   3.637   2.764   3.539
15823SOL    HW247720   3.588   2.725   3.401
15824SOL     OW47721   4.512   3.042   3.814
15824SOL    HW147722   4.529   3.132   3.783
15824SOL    HW247723   4.575   2.988   3.766
15825SOL     OW47724   9.511   9.146   4.220
15825SOL    HW147725   9.595   9.121   4.259
15825SOL    HW247726   9.535   9.194   4.140
15826SOL     OW47727  10.599  13.454   5.313
15826SOL    HW147728  10.608  13.525   5.249
15826SOL    HW247729  10.505  13.441   5.321
15827SOL     OW47730   4.234  10.912   5.074
15827SOL    HW147731   4.303  10.936   5.012
15827SOL    HW247732   4.210  10.994   5.116
15828SOL     OW47733   8.037  12.991   5.001
15828SOL    HW147734   8.132  12.991   5.009
15828SOL    HW247735   8.009  12.913   5.049
15829SOL     OW47736   8.169  14.384   6.552
15829SOL    HW147737   8.212  14.468   6.536
15829SOL    HW247738   8.174  14.372   6.647
15830SOL     OW47739   7.269   1.954   1.562
15830SOL    HW147740   7.187   1.961   1.513
15830SOL    HW247741   7.312   2.039   1.549
15831SOL     OW47742   6.664   7.030   3.407
15831SOL    HW147743   6.586   7.018   3.462
15831SOL    HW247744   6.641   6.990   3.323
15832SOL     OW47745   9.660   6.780   4.203
15832SOL    HW147746   9.714   6.808   4.276
15832SOL    HW247747   9.711   6.803   4.125
15833SOL     OW47748  10.626   4.527   4.819
15833SOL    HW147749  10.543   4.520   4.866
15833SOL    HW247750  10.692   4.497   4.881
15834SOL     OW47751   4.286   4.517   0.441
15834SOL    HW147752   4.370   4.508   0.485
15834SOL    HW247753   4.221   4.502   0.510
15835SOL     OW47754  12.421   6.766   4.483
15835SOL    HW147755  12.484   6.820   4.531
15835SOL    HW247756  12.454   6.677   4.491
15836SOL     OW47757  10.120   4.767   2.926
15836SOL    HW147758  10.119   4.853   2.883
15836SOL    HW247759  10.213   4.749   2.940
15837SOL     OW47760   6.795   8.548   5.209
15837SOL    HW147761   6.716   8.600   5.200
15837SOL    HW247762   6.805   8.535   5.303
15838SOL     OW47763  10.046   2.188   0.342
15838SOL    HW147764   9.972   2.246   0.352
15838SOL    HW247765  10.059   2.149   0.429
15839SOL     OW47766   5.162  11.632   4.814
15839SOL    HW147767   5.137  11.724   4.803
15839SOL    HW247768   5.146  11.593   4.728
15840SOL     OW47769  10.615   3.913   0.616
15840SOL    HW147770  10.613   3.853   0.691
15840SOL    HW247771  10.659   3.864   0.547
15841SOL     OW47772   8.413  10.215   2.625
15841SOL    HW147773   8.377  10.274   2.691
15841SOL    HW247774   8.400  10.127   2.662
15842SOL     OW47775  10.664   7.936   1.771
15842SOL    HW147776  10.714   7.992   1.712
15842SOL    HW247777  10.683   7.847   1.742
15843SOL     OW47778  14.031   4.105   4.639
15843SOL    HW147779  13.974   4.045   4.591
15843SOL    HW247780  13.975   4.142   4.707
15844SOL     OW47781   9.208   3.652   2.516
15844SOL    HW147782   9.203   3.558   2.533
15844SOL    HW247783   9.196   3.693   2.602
15845SOL     OW47784   8.513   3.726   3.409
15845SOL    HW147785   8.566   3.790   3.457
15845SOL    HW247786   8.530   3.643   3.453
15846SOL     OW47787  12.895  13.201   4.182
15846SOL    HW147788  12.846  13.245   4.251
15846SOL    HW247789  12.961  13.264   4.154
15847SOL     OW47790  10.197  13.788   4.829
15847SOL    HW147791  10.201  13.795   4.925
15847SOL    HW247792  10.238  13.704   4.810
15848SOL     OW47793   6.431   7.679   6.018
15848SOL    HW147794   6.467   7.600   6.057
15848SOL    HW247795   6.485   7.694   5.940
15849SOL     OW47796   8.563  14.708   6.787
15849SOL    HW147797   8.481  14.743   6.753
15849SOL    HW247798   8.615  14.785   6.808
15850SOL     OW47799   3.174   8.492   3.847
15850SOL    HW147800   3.105   8.470   3.909
15850SOL    HW247801   3.143   8.456   3.763
15851SOL     OW47802  10.598  11.649   4.099
15851SOL    HW147803  10.693  11.661   4.103
15851SOL    HW247804  10.568  11.720   4.043
15852SOL     OW47805   6.651   5.315   5.379
15852SOL    HW147806   6.631   5.394   5.430
15852SOL    HW247807   6.747   5.310   5.381
15853SOL     OW47808  10.072  12.755   4.164
15853SOL    HW147809  10.124  12.757   4.084
15853SOL    HW247810  10.046  12.663   4.173
15854SOL     OW47811  11.911   7.028   1.697
15854SOL    HW147812   1.201   7.097   1.679
15854SOL    HW247813  11.856   7.065   1.766
15855SOL     OW47814   2.027   2.909   0.695
15855SOL    HW147815   2.106   2.912   0.642
15855SOL    HW247816   2.034   2.986   0.752
15856SOL     OW47817   5.739   6.700   5.986
15856SOL    HW147818   5.777   6.620   6.022
15856SOL    HW247819   5.745   6.689   5.891
15857SOL     OW47820   9.416   5.694   1.971
15857SOL    HW147821   9.329   5.720   1.940
15857SOL    HW247822   9.403   5.676   2.064
15858SOL     OW47823   6.264  10.413   3.959
15858SOL    HW147824   6.263  10.318   3.970
15858SOL    HW247825   6.296  10.447   4.042
15859SOL     OW47826   4.241  12.092   3.392
15859SOL    HW147827   4.201  12.170   3.355
15859SOL    HW247828   4.283  12.049   3.318
15860SOL     OW47829  10.791   7.333   2.661
15860SOL    HW147830  10.790   7.326   2.756
15860SOL    HW247831  10.875   7.294   2.635
15861SOL     OW47832   2.426   9.843   3.218
15861SOL    HW147833   2.513   9.848   3.178
15861SOL    HW247834   2.369   9.889   3.156
15862SOL     OW47835  12.569  13.650   5.318
15862SOL    HW147836  12.565  13.701   5.238
15862SOL    HW247837  12.662  13.630   5.329
15863SOL     OW47838  10.371   7.794   7.556
15863SOL    HW147839   5.023   2.429   0.022
15863SOL    HW247840  10.296   7.739   7.578
15864SOL     OW47841   2.400  10.300   1.257
15864SOL    HW147842   2.320  10.348   1.278
15864SOL    HW247843   2.382  10.258   1.173
15865SOL     OW47844  13.310   8.739   4.068
15865SOL    HW147845  13.347   8.658   4.101
15865SOL    HW247846  13.359   8.756   3.987
15866SOL     OW47847  10.140   6.110   6.054
15866SOL    HW147848  10.148   6.132   5.961
15866SOL    HW247849  10.058   6.151   6.082
15867SOL     OW47850   4.923   3.285   3.143
15867SOL    HW147851   4.969   3.240   3.072
15867SOL    HW247852   4.833   3.253   3.138
15868SOL     OW47853   3.861   4.194   3.812
15868SOL    HW147854   3.932   4.165   3.869
15868SOL    HW247855   3.877   4.287   3.797
15869SOL     OW47856   8.962   3.476   0.596
15869SOL    HW147857   8.965   3.422   0.675
15869SOL    HW247858   8.881   3.450   0.551
15870SOL     OW47859   9.605   5.275   1.924
15870SOL    HW147860   9.650   5.359   1.932
15870SOL    HW247861   9.636   5.225   2.000
15871SOL     OW47862   5.083  10.726   2.983
15871SOL    HW147863   5.112  10.655   2.925
15871SOL    HW247864   5.123  10.805   2.947
15872SOL     OW47865  10.219   9.384   1.954
15872SOL    HW147866  10.223   9.289   1.968
15872SOL    HW247867  10.295   9.403   1.899
15873SOL     OW47868   5.260  12.113   4.246
15873SOL    HW147869   5.250  12.075   4.334
15873SOL    HW247870   5.227  12.202   4.254
15874SOL     OW47871   7.551  10.995   1.867
15874SOL    HW147872   7.512  11.082   1.880
15874SOL    HW247873   7.512  10.941   1.936
15875SOL     OW47874  11.990  12.743   5.966
15875SOL    HW147875  12.045  12.687   6.021
15875SOL    HW247876  11.965  12.686   5.893
15876SOL     OW47877   9.207   9.693   3.511
15876SOL    HW147878   9.183   9.757   3.579
15876SOL    HW247879   9.163   9.612   3.538
15877SOL     OW47880  11.566   3.212   4.143
15877SOL    HW147881  11.649   3.197   4.189
15877SOL    HW247882  11.500   3.175   4.201
15878SOL     OW47883  11.468  13.630   6.709
15878SOL    HW147884  11.502  13.716   6.682
15878SOL    HW247885  11.503  13.617   6.797
15879SOL     OW47886   5.339   6.114   5.993
15879SOL    HW147887   5.428   6.120   5.958
15879SOL    HW247888   5.346   6.145   6.083
15880SOL     OW47889   5.239   1.453   1.792
15880SOL    HW147890   5.250   1.457   1.697
15880SOL    HW247891   5.327   1.440   1.826
15881SOL     OW47892  10.202  14.532   6.548
15881SOL    HW147893  10.205  14.560   6.457
15881SOL    HW247894  10.217  14.611   6.599
15882SOL     OW47895   9.919   1.813   0.274
15882SOL    HW147896  10.015   1.808   0.269
15882SOL    HW247897   9.895   1.879   0.209
15883SOL     OW47898   4.928  12.646   5.598
15883SOL    HW147899   4.994  12.706   5.565
15883SOL    HW247900   4.892  12.603   5.520
15884SOL     OW47901   1.819   2.695   1.914
15884SOL    HW147902   1.879   2.647   1.972
15884SOL    HW247903   1.805   2.636   1.840
15885SOL     OW47904   7.207   1.665   0.555
15885SOL    HW147905   7.166   1.700   0.634
15885SOL    HW247906   7.283   1.615   0.588
15886SOL     OW47907   8.821   9.906   3.708
15886SOL    HW147908   8.813   9.961   3.630
15886SOL    HW247909   8.754   9.940   3.768
15887SOL     OW47910  14.668   9.919   6.421
15887SOL    HW147911  14.623   9.882   6.346
15887SOL    HW247912  14.746   9.864   6.433
15888SOL     OW47913  11.953  14.072   5.773
15888SOL    HW147914  11.919  14.012   5.840
15888SOL    HW247915  11.960  14.017   5.694
15889SOL     OW47916   1.500   1.778   0.842
15889SOL    HW147917   1.435   1.726   0.797
15889SOL    HW247918   1.479   1.770   0.934
15890SOL     OW47919   6.642   5.012   6.531
15890SOL    HW147920   6.722   5.039   6.576
15890SOL    HW247921   6.662   4.926   6.495
15891SOL     OW47922   9.155   6.125   2.211
15891SOL    HW147923   9.233   6.171   2.179
15891SOL    HW247924   9.082   6.168   2.167
15892SOL     OW47925   3.873  11.588   2.680
15892SOL    HW147926   3.853  11.669   2.727
15892SOL    HW247927   3.811  11.524   2.714
15893SOL     OW47928  10.417  11.539   6.840
15893SOL    HW147929  10.344  11.489   6.802
15893SOL    HW247930  10.473  11.473   6.880
15894SOL     OW47931  11.401  13.049   5.420
15894SOL    HW147932  11.395  13.139   5.389
15894SOL    HW247933  11.479  13.047   5.475
15895SOL     OW47934   8.557   7.359   6.425
15895SOL    HW147935   8.650   7.367   6.444
15895SOL    HW247936   8.551   7.369   6.330
15896SOL     OW47937   8.648   9.630   7.533
15896SOL    HW147938   8.596   9.710   7.543
15896SOL    HW247939   8.702   9.626   7.612
15897SOL     OW47940   7.453   1.737   2.113
15897SOL    HW147941   7.435   1.825   2.079
15897SOL    HW247942   7.519   1.752   2.182
15898SOL     OW47943   3.781   5.692   2.008
15898SOL    HW147944   3.828   5.671   1.927
15898SOL    HW247945   3.715   5.756   1.981
15899SOL     OW47946  14.440  12.274   5.742
15899SOL    HW147947  14.438  12.315   5.656
15899SOL    HW247948  14.533  12.274   5.767
15900SOL     OW47949   8.926   0.656   0.296
15900SOL    HW147950   8.929   0.664   0.200
15900SOL    HW247951   8.846   0.606   0.313
15901SOL     OW47952   8.383   7.908   6.266
15901SOL    HW147953   8.478   7.899   6.260
15901SOL    HW247954   8.350   7.874   6.182
15902SOL     OW47955  12.701   2.570   3.159
15902SOL    HW147956  12.745   2.633   3.102
15902SOL    HW247957  12.712   2.486   3.116
15903SOL     OW47958   2.207   9.241   2.030
15903SOL    HW147959   2.171   9.307   1.971
15903SOL    HW247960   2.133   9.214   2.085
15904SOL     OW47961   5.229   6.940   4.207
15904SOL    HW147962   5.214   6.923   4.300
15904SOL    HW247963   5.186   7.024   4.191
15905SOL     OW47964   9.463   0.516   0.090
15905SOL    HW147965   9.496   0.581   0.028
15905SOL    HW247966   9.520   0.441   0.080
15906SOL     OW47967  10.259   7.501   0.023
15906SOL    HW147968  10.305   7.584   0.032
15906SOL    HW247969  10.178   7.514   0.073
15907SOL     OW47970   5.138   4.567   3.660
15907SOL    HW147971   5.116   4.626   3.587
15907SOL    HW247972   5.203   4.615   3.710
15908SOL     OW47973   8.660   7.888   7.423
15908SOL    HW147974   8.627   7.974   7.398
15908SOL    HW247975   8.592   7.827   7.396
15909SOL     OW47976   5.919   9.828   6.426
15909SOL    HW147977   5.931   9.832   6.521
15909SOL    HW247978   5.825   9.835   6.412
15910SOL     OW47979   8.808   4.682   4.380
15910SOL    HW147980   8.817   4.728   4.464
15910SOL    HW247981   8.722   4.640   4.384
15911SOL     OW47982  12.468  13.097   5.404
15911SOL    HW147983  12.447  13.111   5.312
15911SOL    HW247984  12.547  13.042   5.402
15912SOL     OW47985  11.388   6.438   6.074
15912SOL    HW147986  11.421   6.378   6.142
15912SOL    HW247987  11.304   6.468   6.108
15913SOL     OW47988   5.314   8.383   1.210
15913SOL    HW147989   5.369   8.444   1.258
15913SOL    HW247990   5.248   8.355   1.273
15914SOL     OW47991   3.695   9.991   4.501
15914SOL    HW147992   3.780  10.006   4.459
15914SOL    HW247993   3.716   9.979   4.593
15915SOL     OW47994   7.206   9.325   0.909
15915SOL    HW147995   7.116   9.311   0.881
15915SOL    HW247996   7.234   9.240   0.945
15916SOL     OW47997  12.016   9.075   4.642
15916SOL    HW147998  12.108   9.053   4.655
15916SOL    HW247999  12.016   9.131   4.564
15917SOL     OW48000  11.508   2.022   1.840
15917SOL    HW148001  11.427   2.008   1.791
15917SOL    HW248002  11.558   1.942   1.827
15918SOL     OW48003  13.728   4.800   4.476
15918SOL    HW148004  13.748   4.797   4.383
15918SOL    HW248005  13.808   4.772   4.519
15919SOL     OW48006   6.297   7.820   1.862
15919SOL    HW148007   6.254   7.735   1.873
15919SOL    HW248008   6.385   7.808   1.898
15920SOL     OW48009   2.013   2.330   0.544
15920SOL    HW148010   1.973   2.411   0.512
15920SOL    HW248011   2.056   2.293   0.467
15921SOL     OW48012  15.086   8.982   7.516
15921SOL    HW148013  15.171   9.011   7.484
15921SOL    HW248014  15.025   9.050   7.487
15922SOL     OW48015  10.201  14.166   6.646
15922SOL    HW148016  10.268  14.102   6.623
15922SOL    HW248017  10.249  14.248   6.657
15923SOL     OW48018  10.526   2.306   1.896
15923SOL    HW148019  10.566   2.239   1.842
15923SOL    HW248020  10.489   2.258   1.971
15924SOL     OW48021  13.548   8.203   7.344
15924SOL    HW148022  13.530   8.125   7.397
15924SOL    HW248023  13.475   8.261   7.363
15925SOL     OW48024  10.249   6.777   7.530
15925SOL    HW148025  10.311   6.733   7.587
15925SOL    HW248026  10.229   6.712   7.462
15926SOL     OW48027   8.109  11.277   4.777
15926SOL    HW148028   8.139  11.211   4.839
15926SOL    HW248029   8.054  11.336   4.828
15927SOL     OW48030   3.488   8.277   2.720
15927SOL    HW148031   3.480   8.188   2.754
15927SOL    HW248032   3.456   8.333   2.791
15928SOL     OW48033   4.246  10.841   5.562
15928SOL    HW148034   4.186  10.803   5.625
15928SOL    HW248035   4.320  10.872   5.615
15929SOL     OW48036   8.671   4.907   5.680
15929SOL    HW148037   8.703   4.890   5.769
15929SOL    HW248038   8.750   4.908   5.626
15930SOL     OW48039   9.810   9.793   7.290
15930SOL    HW148040   9.787   9.744   7.369
15930SOL    HW248041   9.878   9.739   7.248
15931SOL     OW48042   4.627  10.724   3.063
15931SOL    HW148043   4.571  10.788   3.019
15931SOL    HW248044   4.672  10.774   3.131
15932SOL     OW48045   6.638   6.392   5.832
15932SOL    HW148046   6.692   6.445   5.891
15932SOL    HW248047   6.553   6.435   5.832
15933SOL     OW48048   7.589   2.820   1.871
15933SOL    HW148049   7.520   2.812   1.937
15933SOL    HW248050   7.599   2.731   1.837
15934SOL     OW48051  11.119   3.534   4.977
15934SOL    HW148052  11.134   3.595   5.049
15934SOL    HW248053  11.206  14.276   4.954
15935SOL     OW48054  11.662   8.022   6.931
15935SOL    HW148055  11.658   7.929   6.954
15935SOL    HW248056  11.657   8.067   7.016
15936SOL     OW48057   4.098  10.873   0.426
15936SOL    HW148058   4.140  10.958   0.440
15936SOL    HW248059   4.117  10.851   0.335
15937SOL     OW48060  12.131   5.995   2.009
15937SOL    HW148061  12.186   5.963   2.081
15937SOL    HW248062  12.085   5.917   1.978
15938SOL     OW48063   7.856   5.341   1.952
15938SOL    HW148064   7.836   5.433   1.936
15938SOL    HW248065   7.784   5.310   2.006
15939SOL     OW48066   7.307   3.736   2.844
15939SOL    HW148067   7.298   3.765   2.754
15939SOL    HW248068   7.315   3.641   2.838
15940SOL     OW48069   2.926   9.231   0.729
15940SOL    HW148070   2.926   9.257   0.637
15940SOL    HW248071   2.838   9.250   0.760
15941SOL     OW48072   9.060   3.470   1.070
15941SOL    HW148073   9.147   3.432   1.057
15941SOL    HW248074   9.054   3.482   1.165
15942SOL     OW48075  11.162   8.995   1.360
15942SOL    HW148076  11.158   9.051   1.283
15942SOL    HW248077  11.070   8.982   1.384
15943SOL     OW48078  11.256  13.284   6.715
15943SOL    HW148079  11.181  13.234   6.682
15943SOL    HW248080  11.246  13.281   6.810
15944SOL     OW48081   9.862   5.612   2.130
15944SOL    HW148082   9.933   5.552   2.154
15944SOL    HW248083   9.782   5.567   2.157
15945SOL     OW48084   9.152   6.483   7.535
15945SOL    HW148085   9.088   6.503   7.604
15945SOL    HW248086   9.225   6.543   7.552
15946SOL     OW48087   6.227  10.301   0.778
15946SOL    HW148088   6.236  10.396   0.768
15946SOL    HW248089   6.139  10.283   0.747
15947SOL     OW48090  13.194  10.394   5.078
15947SOL    HW148091  13.246  10.433   5.148
15947SOL    HW248092  13.252  10.395   5.002
15948SOL     OW48093  11.660  11.355   1.652
15948SOL    HW148094  11.636  11.432   1.600
15948SOL    HW248095  11.721  11.388   1.717
15949SOL     OW48096   1.363   3.920   0.069
15949SOL    HW148097   1.375   3.953   0.158
15949SOL    HW248098   1.419   3.977   0.016
15950SOL     OW48099   9.194   7.437   3.468
15950SOL    HW148100   9.202   7.440   3.373
15950SOL    HW248101   9.284   7.421   3.499
15951SOL     OW48102  13.099  10.204   6.529
15951SOL    HW148103  13.182  10.159   6.513
15951SOL    HW248104  13.034  10.152   6.483
15952SOL     OW48105   7.335   6.096   5.105
15952SOL    HW148106   7.427   6.122   5.099
15952SOL    HW248107   7.337   6.002   5.123
15953SOL     OW48108   8.928   7.130   2.770
15953SOL    HW148109   8.909   7.081   2.690
15953SOL    HW248110   8.850   7.118   2.825
15954SOL     OW48111   3.531   5.084   2.560
15954SOL    HW148112   3.497   5.156   2.507
15954SOL    HW248113   3.485   5.007   2.527
15955SOL     OW48114   4.223   6.939   4.556
15955SOL    HW148115   4.170   6.885   4.496
15955SOL    HW248116   4.314   6.917   4.533
15956SOL     OW48117   8.020   8.857   0.180
15956SOL    HW148118   8.012   8.949   0.156
15956SOL    HW248119   7.985   8.810   0.104
15957SOL     OW48120  13.801   5.995   5.158
15957SOL    HW148121  13.726   6.032   5.204
15957SOL    HW248122  13.814   6.051   5.082
15958SOL     OW48123   4.293   5.516   4.350
15958SOL    HW148124   4.370   5.539   4.403
15958SOL    HW248125   4.318   5.434   4.307
15959SOL     OW48126  12.609  11.801   6.618
15959SOL    HW148127  12.636  11.784   6.708
15959SOL    HW248128  12.677  11.860   6.584
15960SOL     OW48129  10.324  13.075   4.806
15960SOL    HW148130  10.337  13.072   4.901
15960SOL    HW248131  10.235  13.042   4.794
15961SOL     OW48132  11.013  15.295   6.455
15961SOL    HW148133  10.989   4.569   6.377
15961SOL    HW248134  11.109  15.303   6.460
15962SOL     OW48135   6.416   6.566   5.819
15962SOL    HW148136   6.341   6.525   5.863
15962SOL    HW248137   6.397   6.555   5.726
15963SOL     OW48138  10.555   3.222   2.413
15963SOL    HW148139  10.484   3.194   2.355
15963SOL    HW248140  10.546   3.317   2.418
15964SOL     OW48141   4.764   3.253   2.010
15964SOL    HW148142   4.722   3.331   2.046
15964SOL    HW248143   4.858   3.272   2.012
15965SOL     OW48144   7.111   9.721   5.733
15965SOL    HW148145   7.151   9.638   5.762
15965SOL    HW248146   7.161   9.788   5.780
15966SOL     OW48147   5.049   5.947   5.952
15966SOL    HW148148   5.099   5.944   6.033
15966SOL    HW248149   5.084   6.023   5.905
15967SOL     OW48150  11.971  10.759   5.656
15967SOL    HW148151  11.964  10.847   5.693
15967SOL    HW248152  11.965  10.700   5.731
15968SOL     OW48153   6.008  13.532   6.816
15968SOL    HW148154   5.938  13.505   6.875
15968SOL    HW248155   6.028  13.454   6.765
15969SOL     OW48156  11.175   7.366   5.258
15969SOL    HW148157  11.150   7.344   5.168
15969SOL    HW248158  11.129   7.448   5.275
15970SOL     OW48159   5.220   2.360   0.218
15970SOL    HW148160   5.305   2.380   0.256
15970SOL    HW248161   5.176   2.445   0.210
15971SOL     OW48162   9.827   5.407   0.561
15971SOL    HW148163   9.920   5.421   0.577
15971SOL    HW248164   9.809   5.455   0.479
15972SOL     OW48165  12.210   9.978   4.185
15972SOL    HW148166  12.264   9.937   4.253
15972SOL    HW248167  12.153  10.038   4.234
15973SOL     OW48168  10.608   9.653   2.623
15973SOL    HW148169  10.556   9.729   2.599
15973SOL    HW248170  10.586   9.638   2.716
15974SOL     OW48171   8.586   5.899   0.490
15974SOL    HW148172   8.625   5.898   0.578
15974SOL    HW248173   8.502   5.853   0.501
15975SOL     OW48174   1.172   3.434   1.392
15975SOL    HW148175   1.100   3.469   1.445
15975SOL    HW248176   1.223   3.511   1.367
15976SOL     OW48177   4.309   6.273   5.269
15976SOL    HW148178   4.343   6.187   5.294
15976SOL    HW248179   4.218   6.271   5.298
15977SOL     OW48180  12.030   7.183   3.443
15977SOL    HW148181  12.093   7.254   3.428
15977SOL    HW248182  11.949   7.228   3.466
15978SOL     OW48183  10.476  11.447   4.841
15978SOL    HW148184  10.499  11.384   4.773
15978SOL    HW248185  10.555  11.499   4.853
15979SOL     OW48186  12.156  12.413   3.245
15979SOL    HW148187  12.248  12.385   3.253
15979SOL    HW248188  12.147  12.483   3.310
15980SOL     OW48189  12.048  10.986   7.577
15980SOL    HW148190  11.972  11.001   7.521
15980SOL    HW248191  12.037  10.897   7.610
15981SOL     OW48192   9.454  11.412   2.843
15981SOL    HW148193   9.397  11.484   2.815
15981SOL    HW248194   9.526  11.454   2.889
15982SOL     OW48195   5.513  13.878   7.088
15982SOL    HW148196   5.574  13.928   7.143
15982SOL    HW248197   5.533  13.786   7.108
15983SOL     OW48198   7.196   3.713   0.800
15983SOL    HW148199   7.101   3.703   0.789
15983SOL    HW248200   7.233   3.650   0.738
15984SOL     OW48201   5.707   4.074   4.552
15984SOL    HW148202   5.762   4.101   4.479
15984SOL    HW248203   5.685   3.983   4.533
15985SOL     OW48204   4.993  13.776   4.467
15985SOL    HW148205   4.987  13.773   4.372
15985SOL    HW248206   4.997  13.685   4.495
15986SOL     OW48207   9.496   9.929   5.954
15986SOL    HW148208   9.493   9.947   6.047
15986SOL    HW248209   9.423   9.977   5.917
15987SOL     OW48210   6.565  12.349   5.290
15987SOL    HW148211   6.475  12.372   5.268
15987SOL    HW248212   6.616  12.372   5.212
15988SOL     OW48213   8.889   2.523   3.505
15988SOL    HW148214   8.903   2.563   3.591
15988SOL    HW248215   8.971   2.479   3.485
15989SOL     OW48216  12.584  13.282   4.633
15989SOL    HW148217  12.546  13.219   4.694
15989SOL    HW248218  12.623  13.349   4.689
15990SOL     OW48219  12.239  13.950   7.409
15990SOL    HW148220  12.210  13.886   7.475
15990SOL    HW248221  12.323  13.917   7.378
15991SOL     OW48222   5.398  15.221   7.420
15991SOL    HW148223   5.319  15.272   7.401
15991SOL    HW248224   5.376  15.173   7.500
15992SOL     OW48225   6.305   7.236   4.906
15992SOL    HW148226   6.309   7.170   4.974
15992SOL    HW248227   6.240   7.299   4.937
15993SOL     OW48228   6.544   7.106   3.900
15993SOL    HW148229   6.498   7.024   3.915
15993SOL    HW248230   6.634   7.088   3.924
15994SOL     OW48231   6.640  12.255   4.292
15994SOL    HW148232   6.609  12.274   4.381
15994SOL    HW248233   6.730  12.225   4.304
15995SOL     OW48234   6.016   7.951   7.338
15995SOL    HW148235   5.922   7.936   7.336
15995SOL    HW248236   6.026   8.046   7.330
15996SOL     OW48237   5.145   3.882   2.037
15996SOL    HW148238   5.081   3.914   1.974
15996SOL    HW248239   5.153   3.789   2.018
15997SOL     OW48240  10.126   7.522   4.079
15997SOL    HW148241  10.194   7.508   4.013
15997SOL    HW248242  10.172   7.512   4.163
15998SOL     OW48243   7.847   8.941   1.059
15998SOL    HW148244   7.920   8.884   1.086
15998SOL    HW248245   7.885   8.997   0.992
15999SOL     OW48246   8.766   5.763   2.817
15999SOL    HW148247   8.818   5.842   2.831
15999SOL    HW248248   8.726   5.745   2.902
16000SOL     OW48249   8.883   9.331   6.704
16000SOL    HW148250   8.886   9.393   6.631
16000SOL    HW248251   8.880   9.386   6.782
16001SOL     OW48252   2.167   1.776   1.897
16001SOL    HW148253   2.108   1.770   1.973
16001SOL    HW248254   2.245   1.821   1.931
16002SOL     OW48255   9.033  11.667   1.636
16002SOL    HW148256   9.085  11.735   1.680
16002SOL    HW248257   9.094  11.626   1.575
16003SOL     OW48258   9.558   3.420   1.398
16003SOL    HW148259   9.607   3.482   1.453
16003SOL    HW248260   9.470   3.418   1.436
16004SOL     OW48261   2.332   2.146   1.646
16004SOL    HW148262   2.383   2.066   1.658
16004SOL    HW248263   2.334   2.160   1.551
16005SOL     OW48264  10.864  15.807   7.578
16005SOL    HW148265   5.491  10.416   0.054
16005SOL    HW248266  10.856  15.900   7.558
16006SOL     OW48267   2.442   8.612   3.366
16006SOL    HW148268   2.429   8.706   3.380
16006SOL    HW248269   2.463   8.604   3.273
16007SOL     OW48270  12.344  11.851   4.612
16007SOL    HW148271  12.277  11.816   4.554
16007SOL    HW248272  12.427  11.825   4.573
16008SOL     OW48273   4.420   9.915   0.162
16008SOL    HW148274   4.339   9.890   0.206
16008SOL    HW248275   4.430  10.009   0.181
16009SOL     OW48276   5.753   3.330   1.131
16009SOL    HW148277   5.674   3.347   1.183
16009SOL    HW248278   5.822   3.377   1.178
16010SOL     OW48279  12.626   3.819   5.378
16010SOL    HW148280  12.557   3.780   5.325
16010SOL    HW248281  12.686  14.522   5.397
16011SOL     OW48282  10.134  13.485   6.303
16011SOL    HW148283  10.038  13.487   6.310
16011SOL    HW248284  10.151  13.450   6.216
16012SOL     OW48285  12.671  12.766   4.621
16012SOL    HW148286  12.689  12.677   4.592
16012SOL    HW248287  12.684  12.820   4.542
16013SOL     OW48288   6.503  11.491   4.353
16013SOL    HW148289   6.441  11.431   4.312
16013SOL    HW248290   6.564  11.435   4.400
16014SOL     OW48291   4.515   7.377   5.986
16014SOL    HW148292   4.590   7.365   5.927
16014SOL    HW248293   4.456   7.435   5.939
16015SOL     OW48294   7.598  10.450   6.697
16015SOL    HW148295   7.528  10.395   6.732
16015SOL    HW248296   7.604  10.524   6.758
16016SOL     OW48297  12.133   6.864   6.383
16016SOL    HW148298  12.219   6.905   6.367
16016SOL    HW248299  12.109   6.891   6.471
16017SOL     OW48300   9.814   4.612   2.891
16017SOL    HW148301   9.872   4.625   2.967
16017SOL    HW248302   9.788   4.520   2.897
16018SOL     OW48303   3.965   6.344   3.771
16018SOL    HW148304   3.979   6.432   3.806
16018SOL    HW248305   4.047   6.298   3.791
16019SOL     OW48306   5.334   7.563   2.989
16019SOL    HW148307   5.272   7.597   2.925
16019SOL    HW248308   5.280   7.532   3.061
16020SOL     OW48309  12.367   9.017   3.952
16020SOL    HW148310  12.355   9.082   4.022
16020SOL    HW248311  12.305   8.948   3.974
16021SOL     OW48312   7.016   1.807   2.377
16021SOL    HW148313   7.098   1.785   2.333
16021SOL    HW248314   7.017   1.755   2.458
16022SOL     OW48315   8.024   9.452   3.768
16022SOL    HW148316   7.948   9.452   3.710
16022SOL    HW248317   8.086   9.511   3.725
16023SOL     OW48318  13.228  12.259   7.516
16023SOL    HW148319  13.177  12.301   7.446
16023SOL    HW248320  13.163  12.226   7.577
16024SOL     OW48321   8.763  14.312   5.613
16024SOL    HW148322   8.694  14.252   5.585
16024SOL    HW248323   8.843  14.260   5.608
16025SOL     OW48324   7.426   8.395   0.936
16025SOL    HW148325   7.472   8.453   0.876
16025SOL    HW248326   7.495   8.339   0.974
16026SOL     OW48327   6.990   3.659   1.027
16026SOL    HW148328   6.959   3.659   0.936
16026SOL    HW248329   6.937   3.727   1.070
16027SOL     OW48330  11.016  10.488   5.306
16027SOL    HW148331  11.074  10.531   5.243
16027SOL    HW248332  11.018  10.545   5.383
16028SOL     OW48333   5.153  10.488   5.171
16028SOL    HW148334   5.196  10.448   5.246
16028SOL    HW248335   5.163  10.583   5.184
16029SOL     OW48336   4.418  11.479   3.404
16029SOL    HW148337   4.481  11.515   3.341
16029SOL    HW248338   4.336  11.526   3.386
16030SOL     OW48339  10.068   5.945   1.690
16030SOL    HW148340  10.010   5.937   1.615
16030SOL    HW248341  10.068   5.859   1.730
16031SOL     OW48342  12.914   7.892   4.792
16031SOL    HW148343  12.997   7.864   4.830
16031SOL    HW248344  12.876   7.811   4.756
16032SOL     OW48345   7.716  11.870   4.468
16032SOL    HW148346   7.742  11.872   4.375
16032SOL    HW248347   7.757  11.791   4.502
16033SOL     OW48348   7.087   5.313   6.144
16033SOL    HW148349   7.141   5.287   6.069
16033SOL    HW248350   7.114   5.254   6.214
16034SOL     OW48351  12.820   8.912   4.923
16034SOL    HW148352  12.908   8.950   4.925
16034SOL    HW248353  12.782   8.943   4.841
16035SOL     OW48354  14.751   6.882   6.420
16035SOL    HW148355  14.679   6.906   6.479
16035SOL    HW248356  14.708   6.866   6.336
16036SOL     OW48357  10.920   3.047   0.520
16036SOL    HW148358  10.992   3.073   0.462
16036SOL    HW248359  10.959   2.983   0.579
16037SOL     OW48360   7.567   2.449   0.817
16037SOL    HW148361   7.656   2.426   0.843
16037SOL    HW248362   7.514   2.431   0.894
16038SOL     OW48363  11.029   9.460   3.223
16038SOL    HW148364  11.081   9.468   3.143
16038SOL    HW248365  10.939   9.453   3.192
16039SOL     OW48366   3.532   2.663   1.455
16039SOL    HW148367   3.505   2.661   1.547
16039SOL    HW248368   3.623   2.633   1.457
16040SOL     OW48369   3.232   8.572   0.966
16040SOL    HW148370   3.297   8.576   0.896
16040SOL    HW248371   3.157   8.620   0.931
16041SOL     OW48372   9.189   6.623   2.445
16041SOL    HW148373   9.133   6.548   2.463
16041SOL    HW248374   9.153   6.694   2.497
16042SOL     OW48375  11.948  10.569   3.001
16042SOL    HW148376  11.930  10.560   2.907
16042SOL    HW248377  11.980  10.482   3.027
16043SOL     OW48378   5.893   5.442   4.080
16043SOL    HW148379   5.805   5.429   4.046
16043SOL    HW248380   5.903   5.376   4.148
16044SOL     OW48381   6.742   2.552   2.309
16044SOL    HW148382   6.697   2.500   2.376
16044SOL    HW248383   6.701   2.524   2.227
16045SOL     OW48384   8.659  10.690   2.069
16045SOL    HW148385   8.669  10.600   2.098
16045SOL    HW248386   8.644  10.740   2.149
16046SOL     OW48387   5.032   2.894   0.919
16046SOL    HW148388   5.082   2.843   0.856
16046SOL    HW248389   4.945   2.902   0.881
16047SOL     OW48390  14.210  11.332   6.123
16047SOL    HW148391  14.197  11.253   6.070
16047SOL    HW248392  14.186  11.404   6.065
16048SOL     OW48393   6.354  11.208   1.236
16048SOL    HW148394   6.337  11.164   1.154
16048SOL    HW248395   6.364  11.300   1.212
16049SOL     OW48396   4.759   8.261   5.040
16049SOL    HW148397   4.728   8.306   5.119
16049SOL    HW248398   4.740   8.168   5.056
16050SOL     OW48399   5.667   4.869   1.850
16050SOL    HW148400   5.686   4.796   1.909
16050SOL    HW248401   5.673   4.831   1.762
16051SOL     OW48402   8.226   7.361   5.683
16051SOL    HW148403   8.202   7.446   5.721
16051SOL    HW248404   8.166   7.299   5.724
16052SOL     OW48405  10.943   7.326   5.480
16052SOL    HW148406  10.904   7.413   5.478
16052SOL    HW248407  11.004   7.329   5.554
16053SOL     OW48408  13.163   5.139   5.922
16053SOL    HW148409  13.081   5.089   5.918
16053SOL    HW248410  13.173   5.161   6.014
16054SOL     OW48411   8.176   1.602   0.970
16054SOL    HW148412   8.132   1.556   0.898
16054SOL    HW248413   8.242   1.656   0.926
16055SOL     OW48414   7.569  11.680   3.193
16055SOL    HW148415   7.633  11.749   3.208
16055SOL    HW248416   7.578  11.622   3.269
16056SOL     OW48417  10.342   6.177   4.256
16056SOL    HW148418  10.418   6.123   4.234
16056SOL    HW248419  10.365   6.265   4.228
16057SOL     OW48420   7.659   6.281   0.029
16057SOL    HW148421  13.088  11.722   7.581
16057SOL    HW248422   7.710   6.298   0.108
16058SOL     OW48423   5.037  11.215   6.379
16058SOL    HW148424   4.974  11.214   6.451
16058SOL    HW248425   4.983  11.208   6.300
16059SOL     OW48426   5.462   8.773   2.825
16059SOL    HW148427   5.437   8.730   2.744
16059SOL    HW248428   5.483   8.701   2.885
16060SOL     OW48429   4.200  12.851   4.499
16060SOL    HW148430   4.168  12.939   4.517
16060SOL    HW248431   4.123  12.795   4.506
16061SOL     OW48432   7.467  11.143   3.360
16061SOL    HW148433   7.513  11.103   3.286
16061SOL    HW248434   7.378  11.108   3.354
16062SOL     OW48435   2.409   6.145   1.162
16062SOL    HW148436   2.484   6.199   1.138
16062SOL    HW248437   2.430   6.112   1.249
16063SOL     OW48438   9.838  12.126   4.188
16063SOL    HW148439   9.924  12.091   4.212
16063SOL    HW248440   9.803  12.161   4.270
16064SOL     OW48441  10.586  12.619   7.419
16064SOL    HW148442  10.658  12.573   7.376
16064SOL    HW248443  10.586  12.706   7.380
16065SOL     OW48444  10.462   4.795   5.048
16065SOL    HW148445  10.541   4.743   5.037
16065SOL    HW248446  10.419   4.756   5.125
16066SOL     OW48447  10.084   6.272   4.417
16066SOL    HW148448  10.092   6.363   4.389
16066SOL    HW248449  10.152   6.225   4.369
16067SOL     OW48450   9.583  11.772   6.657
16067SOL    HW148451   9.527  11.701   6.688
16067SOL    HW248452   9.596  11.827   6.734
16068SOL     OW48453   7.062   8.575   2.130
16068SOL    HW148454   7.067   8.668   2.106
16068SOL    HW248455   7.130   8.564   2.196
16069SOL     OW48456   3.704   2.842   2.526
16069SOL    HW148457   3.618   2.820   2.492
16069SOL    HW248458   3.720   2.778   2.596
16070SOL     OW48459   9.590   2.500   2.042
16070SOL    HW148460   9.674   2.458   2.023
16070SOL    HW248461   9.584   2.572   1.980
16071SOL     OW48462  12.415  13.899   5.747
16071SOL    HW148463  12.357  13.975   5.740
16071SOL    HW248464  12.476  13.909   5.674
16072SOL     OW48465  11.709   6.154   5.590
16072SOL    HW148466  11.684   6.230   5.643
16072SOL    HW248467  11.776   6.110   5.642
16073SOL     OW48468  10.792  13.418   5.738
16073SOL    HW148469  10.859  13.407   5.671
16073SOL    HW248470  10.739  13.493   5.707
16074SOL     OW48471   6.937   5.107   5.001
16074SOL    HW148472   6.951   5.136   4.911
16074SOL    HW248473   6.897   5.182   5.044
16075SOL     OW48474  12.830   4.557   3.237
16075SOL    HW148475  12.762   4.489   3.239
16075SOL    HW248476  12.799   4.624   3.297
16076SOL     OW48477   5.369  12.866   7.083
16076SOL    HW148478   5.376  12.806   7.009
16076SOL    HW248479   5.458  12.899   7.095
16077SOL     OW48480   3.697   1.507   1.654
16077SOL    HW148481   3.784   1.515   1.694
16077SOL    HW248482   3.716   1.481   1.563
16078SOL     OW48483   8.054   6.316   6.130
16078SOL    HW148484   8.084   6.403   6.156
16078SOL    HW248485   8.052   6.319   6.034
16079SOL     OW48486   8.086  11.016   0.510
16079SOL    HW148487   8.039  10.977   0.584
16079SOL    HW248488   8.089  11.110   0.531
16080SOL     OW48489  11.984   9.544   4.549
16080SOL    HW148490  11.917   9.494   4.596
16080SOL    HW248491  12.050   9.563   4.616
16081SOL     OW48492  14.579   9.335   6.584
16081SOL    HW148493  14.518   9.388   6.533
16081SOL    HW248494  14.566   9.246   6.553
16082SOL     OW48495   2.689   0.877   0.732
16082SOL    HW148496   2.632   0.867   0.655
16082SOL    HW248497   2.667   0.963   0.767
16083SOL     OW48498   9.267   7.055   4.307
16083SOL    HW148499   9.306   7.016   4.385
16083SOL    HW248500   9.244   6.980   4.253
16084SOL     OW48501   6.601   9.106   4.178
16084SOL    HW148502   6.649   9.031   4.213
16084SOL    HW248503   6.645   9.182   4.214
16085SOL     OW48504  11.626   3.346   4.485
16085SOL    HW148505  11.534   3.343   4.461
16085SOL    HW248506  11.628   3.398   4.565
16086SOL     OW48507   4.776   8.963   5.363
16086SOL    HW148508   4.745   9.012   5.439
16086SOL    HW248509   4.871   8.973   5.365
16087SOL     OW48510   6.964   6.999   3.398
16087SOL    HW148511   6.914   7.074   3.431
16087SOL    HW248512   7.010   7.033   3.321
16088SOL     OW48513   4.775  10.552   4.538
16088SOL    HW148514   4.814  10.543   4.451
16088SOL    HW248515   4.760  10.646   4.547
16089SOL     OW48516   6.082   5.249   1.693
16089SOL    HW148517   6.089   5.277   1.784
16089SOL    HW248518   5.988   5.243   1.677
16090SOL     OW48519  12.628   4.403   2.923
16090SOL    HW148520  12.581   4.442   2.849
16090SOL    HW248521  12.711   4.450   2.926
16091SOL     OW48522  12.687   4.980   6.254
16091SOL    HW148523  12.706   4.972   6.347
16091SOL    HW248524  12.591   4.976   6.249
16092SOL     OW48525   6.419  11.733   4.470
16092SOL    HW148526   6.437  11.640   4.454
16092SOL    HW248527   6.393  11.737   4.562
16093SOL     OW48528  10.633   9.215   2.581
16093SOL    HW148529  10.543   9.219   2.612
16093SOL    HW248530  10.677   9.154   2.641
16094SOL     OW48531   6.612   7.348   7.137
16094SOL    HW148532   6.532   7.388   7.103
16094SOL    HW248533   6.620   7.382   7.226
16095SOL     OW48534  10.681  10.403   7.183
16095SOL    HW148535  10.640  10.481   7.218
16095SOL    HW248536  10.654  10.332   7.242
16096SOL     OW48537   8.575  12.815   5.802
16096SOL    HW148538   8.670  12.803   5.805
16096SOL    HW248539   8.546  12.753   5.735
16097SOL     OW48540  13.072  10.026   3.432
16097SOL    HW148541  13.164  10.047   3.447
16097SOL    HW248542  13.072   9.931   3.415
16098SOL     OW48543   7.992   1.455   1.157
16098SOL    HW148544   7.971   1.459   1.250
16098SOL    HW248545   8.061   1.521   1.145
16099SOL     OW48546  11.558   9.317   6.879
16099SOL    HW148547  11.479   9.371   6.879
16099SOL    HW248548  11.616   9.359   6.943
16100SOL     OW48549   9.189   5.005   1.013
16100SOL    HW148550   9.144   4.942   1.070
16100SOL    HW248551   9.266   5.031   1.064
16101SOL     OW48552   8.734   9.335   1.348
16101SOL    HW148553   8.671   9.315   1.279
16101SOL    HW248554   8.795   9.397   1.308
16102SOL     OW48555  12.297   5.894   4.923
16102SOL    HW148556  12.297   5.975   4.871
16102SOL    HW248557  12.383   5.892   4.964
16103SOL     OW48558   8.905  12.500   3.659
16103SOL    HW148559   8.930  12.420   3.706
16103SOL    HW248560   8.871  12.468   3.575
16104SOL     OW48561   6.328   8.922   0.414
16104SOL    HW148562   6.256   8.875   0.372
16104SOL    HW248563   6.300   8.934   0.505
16105SOL     OW48564   3.868   3.073   3.828
16105SOL    HW148565   3.918   3.151   3.804
16105SOL    HW248566   3.781   3.089   3.792
16106SOL     OW48567   3.084   4.237   0.838
16106SOL    HW148568   3.133   4.247   0.920
16106SOL    HW248569   3.069   4.143   0.831
16107SOL     OW48570  13.240  12.426   3.656
16107SOL    HW148571  13.183  12.471   3.593
16107SOL    HW248572  13.199  12.444   3.741
16108SOL     OW48573  10.391  11.449   2.018
16108SOL    HW148574  10.395  11.516   1.951
16108SOL    HW248575  10.301  11.452   2.050
16109SOL     OW48576   4.328   7.197   5.724
16109SOL    HW148577   4.255   7.239   5.770
16109SOL    HW248578   4.395   7.266   5.719
16110SOL     OW48579  11.628   4.361   3.893
16110SOL    HW148580  11.539   4.380   3.923
16110SOL    HW248581  11.667   4.310   3.964
16111SOL     OW48582  14.083  13.318   6.018
16111SOL    HW148583  14.012  13.258   5.995
16111SOL    HW248584  14.103  13.365   5.937
16112SOL     OW48585  12.666  13.249   6.340
16112SOL    HW148586  12.631  13.167   6.305
16112SOL    HW248587  12.664  13.237   6.435
16113SOL     OW48588   3.990  11.544   1.421
16113SOL    HW148589   3.998  11.639   1.421
16113SOL    HW248590   3.978  11.521   1.513
16114SOL     OW48591   4.671   3.156   3.042
16114SOL    HW148592   4.687   3.179   2.951
16114SOL    HW248593   4.583   3.119   3.042
16115SOL     OW48594  12.015   3.249   4.338
16115SOL    HW148595  11.936   3.298   4.314
16115SOL    HW248596  12.018   3.254   4.433
16116SOL     OW48597   9.948   3.280   0.582
16116SOL    HW148598   9.902   3.197   0.565
16116SOL    HW248599  10.035   3.254   0.610
16117SOL     OW48600  12.985  11.849   5.193
16117SOL    HW148601  12.921  11.779   5.208
16117SOL    HW248602  12.987  11.860   5.098
16118SOL     OW48603   6.594  11.978   6.504
16118SOL    HW148604   6.535  11.903   6.511
16118SOL    HW248605   6.621  11.979   6.412
16119SOL     OW48606   2.432   2.250   0.778
16119SOL    HW148607   2.416   2.336   0.739
16119SOL    HW248608   2.411   2.261   0.871
16120SOL     OW48609   2.577  11.639   1.789
16120SOL    HW148610   2.488  11.607   1.805
16120SOL    HW248611   2.602  11.683   1.870
16121SOL     OW48612   5.610   3.798   3.084
16121SOL    HW148613   5.517   3.794   3.106
16121SOL    HW248614   5.649   3.726   3.134
16122SOL     OW48615   3.798  10.824   4.248
16122SOL    HW148616   3.735  10.896   4.256
16122SOL    HW248617   3.879  10.867   4.221
16123SOL     OW48618   6.124  10.343   7.247
16123SOL    HW148619   6.101  10.398   7.322
16123SOL    HW248620   6.137  10.404   7.175
16124SOL     OW48621   9.725   7.248   3.799
16124SOL    HW148622   9.817   7.224   3.811
16124SOL    HW248623   9.676   7.173   3.830
16125SOL     OW48624   4.741  10.661   1.611
16125SOL    HW148625   4.818  10.619   1.648
16125SOL    HW248626   4.771  10.749   1.588
16126SOL     OW48627   5.711   5.662   4.141
16126SOL    HW148628   5.657   5.613   4.079
16126SOL    HW248629   5.790   5.609   4.151
16127SOL     OW48630   9.489  13.779   4.478
16127SOL    HW148631   9.432  13.856   4.474
16127SOL    HW248632   9.519  13.776   4.569
16128SOL     OW48633   9.628   6.837   3.094
16128SOL    HW148634   9.556   6.823   3.155
16128SOL    HW248635   9.625   6.931   3.075
16129SOL     OW48636   8.812   4.777   3.257
16129SOL    HW148637   8.891   4.810   3.212
16129SOL    HW248638   8.811   4.825   3.340
16130SOL     OW48639   6.083  13.646   7.052
16130SOL    HW148640   6.094  13.603   7.136
16130SOL    HW248641   6.097  13.576   6.987
16131SOL     OW48642   9.614   4.603   6.132
16131SOL    HW148643   9.609   4.603   6.036
16131SOL    HW248644   9.567   4.523   6.158
16132SOL     OW48645   7.777   9.507   4.704
16132SOL    HW148646   7.785   9.533   4.796
16132SOL    HW248647   7.691   9.466   4.698
16133SOL     OW48648   4.648  10.115   0.889
16133SOL    HW148649   4.708  10.145   0.821
16133SOL    HW248650   4.617  10.195   0.931
16134SOL     OW48651   8.506  12.368   5.779
16134SOL    HW148652   8.471  12.437   5.723
16134SOL    HW248653   8.511  12.407   5.866
16135SOL     OW48654   2.247   7.620   0.674
16135SOL    HW148655   2.201   7.563   0.736
16135SOL    HW248656   2.221   7.588   0.588
16136SOL     OW48657   5.072   5.902   3.551
16136SOL    HW148658   5.097   5.812   3.530
16136SOL    HW248659   5.128   5.925   3.625
16137SOL     OW48660   8.105   6.832   4.606
16137SOL    HW148661   8.144   6.749   4.577
16137SOL    HW248662   8.179   6.887   4.631
16138SOL     OW48663  10.858   5.382   3.904
16138SOL    HW148664  10.852   5.290   3.929
16138SOL    HW248665  10.948   5.392   3.873
16139SOL     OW48666   5.754  10.938   2.917
16139SOL    HW148667   5.705  10.941   2.835
16139SOL    HW248668   5.754  10.845   2.941
16140SOL     OW48669  12.420  10.955   5.552
16140SOL    HW148670  12.349  10.910   5.597
16140SOL    HW248671  12.376  11.014   5.491
16141SOL     OW48672   6.520  11.429   7.161
16141SOL    HW148673   6.428  11.401   7.158
16141SOL    HW248674   6.570  11.348   7.154
16142SOL     OW48675   6.546  13.853   7.601
16142SOL    HW148676   1.081   8.420   0.014
16142SOL    HW248677   6.539  13.850   7.506
16143SOL     OW48678   4.042   7.408   0.734
16143SOL    HW148679   3.999   7.493   0.739
16143SOL    HW248680   4.117   7.422   0.677
16144SOL     OW48681   8.953  13.568   4.469
16144SOL    HW148682   8.870  13.592   4.427
16144SOL    HW248683   9.020  13.613   4.418
16145SOL     OW48684  11.644   8.807   2.988
16145SOL    HW148685  11.690   8.816   3.071
16145SOL    HW248686  11.551   8.811   3.012
16146SOL     OW48687   4.374   4.723   1.649
16146SOL    HW148688   4.340   4.812   1.636
16146SOL    HW248689   4.412   4.725   1.737
16147SOL     OW48690   9.929  11.296   3.455
16147SOL    HW148691   9.975  11.378   3.473
16147SOL    HW248692   9.912  11.297   3.361
16148SOL     OW48693   1.832   6.022   2.417
16148SOL    HW148694   1.804   5.945   2.369
16148SOL    HW248695   1.849   5.990   2.506
16149SOL     OW48696   5.739   4.853   1.308
16149SOL    HW148697   5.697   4.932   1.275
16149SOL    HW248698   5.667   4.792   1.323
16150SOL     OW48699   3.690  11.680   4.731
16150SOL    HW148700   3.599  11.672   4.702
16150SOL    HW248701   3.685  11.726   4.815
16151SOL     OW48702   6.035  10.857   4.386
16151SOL    HW148703   6.075  10.811   4.460
16151SOL    HW248704   6.107  10.870   4.324
16152SOL     OW48705  12.415  11.282   5.953
16152SOL    HW148706  12.359  11.306   5.878
16152SOL    HW248707  12.500  11.265   5.914
16153SOL     OW48708   6.662   5.931   3.074
16153SOL    HW148709   6.625   5.845   3.058
16153SOL    HW248710   6.752   5.914   3.103
16154SOL     OW48711  11.860   5.627   2.873
16154SOL    HW148712  11.849   5.579   2.791
16154SOL    HW248713  11.780   5.679   2.881
16155SOL     OW48714   6.454   6.908   6.029
16155SOL    HW148715   6.367   6.887   5.995
16155SOL    HW248716   6.514   6.891   5.956
16156SOL     OW48717   1.947   6.470   0.066
16156SOL    HW148718   7.266  11.858   7.618
16156SOL    HW248719   2.026   6.442   0.020
16157SOL     OW48720   8.171   4.742   4.064
16157SOL    HW148721   8.182   4.713   3.974
16157SOL    HW248722   8.120   4.672   4.106
16158SOL     OW48723  10.030   4.435   0.763
16158SOL    HW148724  10.113   4.478   0.785
16158SOL    HW248725  10.016   4.456   0.671
16159SOL     OW48726   5.995   6.061   2.137
16159SOL    HW148727   5.910   6.086   2.101
16159SOL    HW248728   6.053   6.133   2.114
16160SOL     OW48729  11.190   7.032   5.399
16160SOL    HW148730  11.232   7.114   5.427
16160SOL    HW248731  11.155   6.995   5.480
16161SOL     OW48732   7.621   5.495   1.895
16161SOL    HW148733   7.533   5.462   1.875
16161SOL    HW248734   7.620   5.510   1.989
16162SOL     OW48735   9.484   9.754   6.601
16162SOL    HW148736   9.491   9.814   6.675
16162SOL    HW248737   9.439   9.677   6.636
16163SOL     OW48738  10.759   4.238   1.985
16163SOL    HW148739  10.712   4.266   2.063
16163SOL    HW248740  10.849   4.225   2.013
16164SOL     OW48741   5.857   8.216   6.407
16164SOL    HW148742   5.798   8.292   6.406
16164SOL    HW248743   5.803   8.145   6.444
16165SOL     OW48744   3.236   9.780   3.536
16165SOL    HW148745   3.237   9.766   3.442
16165SOL    HW248746   3.146   9.760   3.562
16166SOL     OW48747   7.608   8.926   5.584
16166SOL    HW148748   7.640   8.841   5.612
16166SOL    HW248749   7.516   8.910   5.560
16167SOL     OW48750  11.385  13.781   6.118
16167SOL    HW148751  11.451  13.730   6.165
16167SOL    HW248752  11.434  13.851   6.076
16168SOL     OW48753   6.241   9.773   4.173
16168SOL    HW148754   6.203   9.769   4.261
16168SOL    HW248755   6.168   9.802   4.118
16169SOL     OW48756   7.681   0.861   0.536
16169SOL    HW148757   7.738   0.875   0.612
16169SOL    HW248758   7.742   0.845   0.464
16170SOL     OW48759   7.442   9.150   1.548
16170SOL    HW148760   7.392   9.166   1.628
16170SOL    HW248761   7.517   9.097   1.577
16171SOL     OW48762  11.183   5.618   5.051
16171SOL    HW148763  11.181   5.686   4.984
16171SOL    HW248764  11.102   5.629   5.100
16172SOL     OW48765   8.227  13.436   5.458
16172SOL    HW148766   8.185  13.360   5.499
16172SOL    HW248767   8.287  13.398   5.394
16173SOL     OW48768  11.321   1.311   0.895
16173SOL    HW148769   0.623   1.289   0.842
16173SOL    HW248770  11.348   1.388   0.946
16174SOL     OW48771  13.099   4.285   5.914
16174SOL    HW148772  13.035   4.316   5.851
16174SOL    HW248773  13.182   4.322   5.885
16175SOL     OW48774   1.210   5.766   0.858
16175SOL    HW148775   1.290   5.783   0.908
16175SOL    HW248776   1.163   5.700   0.909
16176SOL     OW48777   3.328   9.555   1.241
16176SOL    HW148778   3.294   9.520   1.323
16176SOL    HW248779   3.253   9.555   1.181
16177SOL     OW48780   5.853   5.843   4.483
16177SOL    HW148781   5.918   5.786   4.443
16177SOL    HW248782   5.809   5.788   4.548
16178SOL     OW48783   5.154   5.009   4.067
16178SOL    HW148784   5.188   5.019   3.978
16178SOL    HW248785   5.067   5.047   4.064
16179SOL     OW48786   5.826   9.448   1.280
16179SOL    HW148787   5.847   9.467   1.189
16179SOL    HW248788   5.752   9.387   1.275
16180SOL     OW48789  15.483  15.111   7.116
16180SOL    HW148790  15.436  15.194   7.123
16180SOL    HW248791  15.573  15.135   7.096
16181SOL     OW48792   4.453   3.436   1.812
16181SOL    HW148793   4.487   3.444   1.901
16181SOL    HW248794   4.492   3.509   1.765
16182SOL     OW48795   6.042  14.172   6.383
16182SOL    HW148796   6.131  14.182   6.349
16182SOL    HW248797   5.985  14.189   6.308
16183SOL     OW48798   8.103   3.522   0.990
16183SOL    HW148799   8.042   3.514   1.063
16183SOL    HW248800   8.186   3.547   1.032
16184SOL     OW48801   8.101   9.810   6.404
16184SOL    HW148802   8.090   9.715   6.403
16184SOL    HW248803   8.188   9.824   6.365
16185SOL     OW48804   3.836  12.486   3.849
16185SOL    HW148805   3.912  12.511   3.902
16185SOL    HW248806   3.782  12.432   3.908
16186SOL     OW48807   9.660  10.052   1.379
16186SOL    HW148808   9.641  10.011   1.464
16186SOL    HW248809   9.707   9.985   1.330
16187SOL     OW48810  10.817   7.191   1.666
16187SOL    HW148811  10.738   7.216   1.715
16187SOL    HW248812  10.825   7.097   1.681
16188SOL     OW48813   8.958   6.790   5.683
16188SOL    HW148814   9.047   6.823   5.676
16188SOL    HW248815   8.909   6.838   5.616
16189SOL     OW48816   6.699   7.503   1.789
16189SOL    HW148817   6.783   7.470   1.757
16189SOL    HW248818   6.722   7.578   1.844
16190SOL     OW48819   7.063  13.996   5.463
16190SOL    HW148820   7.135  13.982   5.402
16190SOL    HW248821   7.105  14.009   5.548
16191SOL     OW48822   5.563   3.632   2.479
16191SOL    HW148823   5.470   3.629   2.456
16191SOL    HW248824   5.582   3.544   2.511
16192SOL     OW48825   6.693   9.691   3.929
16192SOL    HW148826   6.649   9.646   3.857
16192SOL    HW248827   6.622   9.723   3.984
16193SOL     OW48828   8.355  13.137   6.773
16193SOL    HW148829   8.409  13.135   6.852
16193SOL    HW248830   8.388  13.212   6.724
16194SOL     OW48831   5.282   7.516   3.606
16194SOL    HW148832   5.270   7.552   3.694
16194SOL    HW248833   5.194   7.488   3.580
16195SOL     OW48834   6.139   4.220   5.061
16195SOL    HW148835   6.141   4.278   5.137
16195SOL    HW248836   6.146   4.279   4.986
16196SOL     OW48837   9.241  11.301   1.124
16196SOL    HW148838   9.281  11.256   1.198
16196SOL    HW248839   9.309  11.303   1.057
16197SOL     OW48840  15.528  14.745   6.871
16197SOL    HW148841  15.608  14.795   6.884
16197SOL    HW248842  15.530  14.719   6.779
16198SOL     OW48843   8.992  14.920   6.980
16198SOL    HW148844   9.053  14.994   6.979
16198SOL    HW248845   8.996  14.885   6.891
16199SOL     OW48846   6.234  10.765   2.676
16199SOL    HW148847   6.195  10.684   2.642
16199SOL    HW248848   6.314  10.776   2.624
16200SOL     OW48849   9.333  14.043   6.958
16200SOL    HW148850   9.265  14.071   6.896
16200SOL    HW248851   9.391  13.987   6.906
16201SOL     OW48852   0.928   1.709   0.333
16201SOL    HW148853   0.855   1.771   0.325
16201SOL    HW248854   0.935   1.671   0.245
16202SOL     OW48855   9.656   4.990   5.859
16202SOL    HW148856   9.692   4.987   5.770
16202SOL    HW248857   9.622   4.902   5.873
16203SOL     OW48858  12.666   7.840   6.144
16203SOL    HW148859  12.740   7.794   6.182
16203SOL    HW248860  12.590   7.787   6.167
16204SOL     OW48861  10.735   6.311   5.575
16204SOL    HW148862  10.829   6.329   5.565
16204SOL    HW248863  10.731   6.225   5.617
16205SOL     OW48864   6.578  11.309   5.585
16205SOL    HW148865   6.574  11.383   5.646
16205SOL    HW248866   6.494  11.310   5.541
16206SOL     OW48867   4.871  11.013   2.264
16206SOL    HW148868   4.869  10.956   2.341
16206SOL    HW248869   4.780  11.024   2.240
16207SOL     OW48870  10.318  11.501   2.335
16207SOL    HW148871  10.276  11.423   2.372
16207SOL    HW248872  10.245  11.557   2.309
16208SOL     OW48873   3.306   7.777   4.565
16208SOL    HW148874   3.315   7.770   4.470
16208SOL    HW248875   3.277   7.689   4.592
16209SOL     OW48876  14.727   9.687   7.567
16209SOL    HW148877  14.686   9.768   7.537
16209SOL    HW248878  14.684   9.618   7.515
16210SOL     OW48879   6.872  12.810   5.776
16210SOL    HW148880   6.850  12.903   5.771
16210SOL    HW248881   6.871  12.780   5.686
16211SOL     OW48882   9.570   8.927   4.830
16211SOL    HW148883   9.485   8.968   4.815
16211SOL    HW248884   9.633   8.999   4.828
16212SOL     OW48885   8.499   8.916   5.941
16212SOL    HW148886   8.547   8.985   5.895
16212SOL    HW248887   8.526   8.835   5.898
16213SOL     OW48888   8.278   8.750   0.559
16213SOL    HW148889   8.227   8.742   0.478
16213SOL    HW248890   8.279   8.662   0.596
16214SOL     OW48891   6.991   4.437   5.198
16214SOL    HW148892   6.918   4.375   5.196
16214SOL    HW248893   6.999   4.463   5.290
16215SOL     OW48894   6.156   1.084   0.744
16215SOL    HW148895   6.191   1.126   0.822
16215SOL    HW248896   6.221   1.018   0.720
16216SOL     OW48897  12.202   8.943   4.268
16216SOL    HW148898  12.296   8.934   4.277
16216SOL    HW248899  12.189   8.978   4.180
16217SOL     OW48900   9.472   5.661   4.606
16217SOL    HW148901   9.518   5.655   4.522
16217SOL    HW248902   9.456   5.755   4.617
16218SOL     OW48903   8.324  10.544   6.686
16218SOL    HW148904   8.344  10.624   6.638
16218SOL    HW248905   8.408  10.513   6.718
16219SOL     OW48906   5.323   4.835   4.697
16219SOL    HW148907   5.301   4.753   4.742
16219SOL    HW248908   5.401   4.814   4.646
16220SOL     OW48909   6.032  10.762   0.785
16220SOL    HW148910   6.066  10.849   0.808
16220SOL    HW248911   6.108  10.715   0.752
16221SOL     OW48912   5.889   8.145   6.139
16221SOL    HW148913   5.968   8.187   6.105
16221SOL    HW248914   5.875   8.185   6.225
16222SOL     OW48915  13.309   8.338   7.416
16222SOL    HW148916  13.320   8.295   7.502
16222SOL    HW248917  13.220   8.316   7.390
16223SOL     OW48918  12.107   5.937   3.344
16223SOL    HW148919  12.158   6.015   3.368
16223SOL    HW248920  12.016   5.965   3.349
16224SOL     OW48921   7.255   4.225   2.572
16224SOL    HW148922   7.323   4.197   2.511
16224SOL    HW248923   7.173   4.206   2.526
16225SOL     OW48924   6.360   0.577   0.349
16225SOL    HW148925   6.278   0.591   0.302
16225SOL    HW248926   6.421   0.542   0.283
16226SOL     OW48927   6.601  13.893   5.461
16226SOL    HW148928   6.664  13.822   5.471
16226SOL    HW248929   6.515  13.852   5.474
16227SOL     OW48930   8.325  11.735   6.981
16227SOL    HW148931   8.317  11.755   7.075
16227SOL    HW248932   8.386  11.662   6.978
16228SOL     OW48933   5.499   4.222   3.096
16228SOL    HW148934   5.560   4.260   3.033
16228SOL    HW248935   5.451   4.156   3.047
16229SOL     OW48936   7.537   8.495   3.769
16229SOL    HW148937   7.594   8.434   3.817
16229SOL    HW248938   7.533   8.573   3.826
16230SOL     OW48939  10.498   8.954   2.159
16230SOL    HW148940  10.561   8.895   2.199
16230SOL    HW248941  10.435   8.974   2.229
16231SOL     OW48942   8.298  14.361   7.381
16231SOL    HW148943   8.297  14.352   7.477
16231SOL    HW248944   8.383  14.324   7.355
16232SOL     OW48945   9.435   7.694   2.918
16232SOL    HW148946   9.400   7.774   2.958
16232SOL    HW248947   9.503   7.725   2.859
16233SOL     OW48948   5.489   3.733   2.229
16233SOL    HW148949   5.412   3.788   2.240
16233SOL    HW248950   5.561   3.794   2.216
16234SOL     OW48951  11.084   2.045   1.056
16234SOL    HW148952  11.018   1.977   1.048
16234SOL    HW248953  11.042   2.124   1.021
16235SOL     OW48954   5.281  12.420   3.122
16235SOL    HW148955   5.301  12.489   3.058
16235SOL    HW248956   5.220  12.362   3.076
16236SOL     OW48957   6.794   4.627   2.696
16236SOL    HW148958   6.758   4.698   2.644
16236SOL    HW248959   6.787   4.550   2.640
16237SOL     OW48960   9.060   6.560   5.280
16237SOL    HW148961   8.994   6.629   5.285
16237SOL    HW248962   9.010   6.478   5.287
16238SOL     OW48963   9.463   3.672   5.117
16238SOL    HW148964   9.481   3.759   5.082
16238SOL    HW248965   9.549   3.633   5.131
16239SOL     OW48966   6.256   4.261   2.086
16239SOL    HW148967   6.287   4.264   1.995
16239SOL    HW248968   6.335   4.253   2.139
16240SOL     OW48969   6.543   9.337   4.425
16240SOL    HW148970   6.615   9.369   4.372
16240SOL    HW248971   6.465   9.353   4.372
16241SOL     OW48972   9.073   6.661   2.814
16241SOL    HW148973   9.120   6.665   2.898
16241SOL    HW248974   8.994   6.713   2.829
16242SOL     OW48975   6.227   4.130   3.655
16242SOL    HW148976   6.249   4.045   3.616
16242SOL    HW248977   6.296   4.189   3.624
16243SOL     OW48978   5.674  14.546   5.606
16243SOL    HW148979   5.757  14.566   5.649
16243SOL    HW248980   5.639  14.470   5.653
16244SOL     OW48981   6.587  11.469   3.517
16244SOL    HW148982   6.640  11.444   3.593
16244SOL    HW248983   6.621  11.416   3.445
16245SOL     OW48984   6.814   7.093   4.559
16245SOL    HW148985   6.775   7.165   4.609
16245SOL    HW248986   6.908   7.103   4.572
16246SOL     OW48987   8.400   6.224   3.682
16246SOL    HW148988   8.406   6.192   3.772
16246SOL    HW248989   8.472   6.180   3.637
16247SOL     OW48990   9.888  10.920   5.620
16247SOL    HW148991   9.980  10.907   5.644
16247SOL    HW248992   9.887  10.918   5.525
16248SOL     OW48993  11.208   4.524   3.097
16248SOL    HW148994  11.183   4.459   3.032
16248SOL    HW248995  11.136   4.587   3.096
16249SOL     OW48996   6.159  11.457   3.908
16249SOL    HW148997   6.197  11.387   3.854
16249SOL    HW248998   6.204  11.451   3.991
16250SOL     OW48999   3.391   7.104   1.622
16250SOL    HW149000   3.349   7.072   1.702
16250SOL    HW249001   3.327   7.088   1.553
16251SOL     OW49002   7.191  11.738   4.228
16251SOL    HW149003   7.210  11.789   4.307
16251SOL    HW249004   7.275  11.700   4.203
16252SOL     OW49005   7.204  11.369   5.582
16252SOL    HW149006   7.160  11.312   5.644
16252SOL    HW249007   7.138  11.389   5.516
16253SOL     OW49008  11.805  12.689   4.401
16253SOL    HW149009  11.826  12.781   4.414
16253SOL    HW249010  11.763  12.685   4.315
16254SOL     OW49011  13.941  10.565   5.631
16254SOL    HW149012  13.863  10.535   5.676
16254SOL    HW249013  13.987  10.484   5.607
16255SOL     OW49014   7.833   7.436   4.614
16255SOL    HW149015   7.860   7.513   4.563
16255SOL    HW249016   7.904   7.373   4.603
16256SOL     OW49017   9.513   7.472   0.388
16256SOL    HW149018   9.541   7.457   0.478
16256SOL    HW249019   9.433   7.420   0.380
16257SOL     OW49020   2.623   4.726   2.959
16257SOL    HW149021   2.648   4.800   3.015
16257SOL    HW249022   2.625   4.651   3.018
16258SOL     OW49023  11.716   4.321   5.887
16258SOL    HW149024  11.677   4.268   5.817
16258SOL    HW249025  11.661   4.399   5.891
16259SOL     OW49026   4.430   3.592   3.303
16259SOL    HW149027   4.492   3.580   3.375
16259SOL    HW249028   4.429   3.686   3.288
16260SOL     OW49029   5.288  12.070   5.015
16260SOL    HW149030   5.337  12.003   4.967
16260SOL    HW249031   5.257  12.131   4.947
16261SOL     OW49032  10.663  11.922   5.902
16261SOL    HW149033  10.581  11.908   5.948
16261SOL    HW249034  10.638  11.957   5.817
16262SOL     OW49035   4.036   1.143   0.745
16262SOL    HW149036   4.113   1.132   0.801
16262SOL    HW249037   4.063   1.109   0.660
16263SOL     OW49038  11.098   8.032   2.598
16263SOL    HW149039  11.065   8.081   2.674
16263SOL    HW249040  11.052   7.948   2.601
16264SOL     OW49041   8.216   6.228   1.370
16264SOL    HW149042   8.129   6.198   1.395
16264SOL    HW249043   8.205   6.321   1.353
16265SOL     OW49044   5.420   3.940   3.398
16265SOL    HW149045   5.445   4.024   3.436
16265SOL    HW249046   5.381   3.962   3.313
16266SOL     OW49047   9.712  11.233   3.334
16266SOL    HW149048   9.741  11.274   3.415
16266SOL    HW249049   9.641  11.174   3.361
16267SOL     OW49050   5.812   6.104   4.611
16267SOL    HW149051   5.837   6.049   4.537
16267SOL    HW249052   5.756   6.048   4.665
16268SOL     OW49053   5.134  10.405   4.235
16268SOL    HW149054   5.092  10.450   4.160
16268SOL    HW249055   5.222  10.384   4.204
16269SOL     OW49056   5.697   1.472   1.259
16269SOL    HW149057   5.740   1.473   1.344
16269SOL    HW249058   5.738   1.399   1.212
16270SOL     OW49059   7.423   4.882   1.506
16270SOL    HW149060   7.358   4.937   1.463
16270SOL    HW249061   7.504   4.899   1.458
16271SOL     OW49062   9.040   5.629   3.391
16271SOL    HW149063   9.085   5.576   3.457
16271SOL    HW249064   9.107   5.650   3.327
16272SOL     OW49065   4.559   5.256   0.558
16272SOL    HW149066   4.486   5.279   0.615
16272SOL    HW249067   4.637   5.276   0.610
16273SOL     OW49068   8.847   2.463   2.299
16273SOL    HW149069   8.798   2.529   2.251
16273SOL    HW249070   8.784   2.392   2.312
16274SOL     OW49071  11.020  11.230   4.252
16274SOL    HW149072  11.033  11.282   4.173
16274SOL    HW249073  11.029  11.139   4.223
16275SOL     OW49074   7.593   1.854   0.647
16275SOL    HW149075   7.581   1.940   0.688
16275SOL    HW249076   7.513   1.806   0.668
16276SOL     OW49077  12.800  10.503   4.702
16276SOL    HW149078  12.778  10.474   4.790
16276SOL    HW249079  12.895  10.493   4.696
16277SOL     OW49080   6.126  11.281   2.122
16277SOL    HW149081   6.216  11.274   2.090
16277SOL    HW249082   6.087  11.351   2.070
16278SOL     OW49083  10.340  12.901   7.543
16278SOL    HW149084  10.406  12.842   7.579
16278SOL    HW249085  10.387  12.953   7.478
16279SOL     OW49086  12.096  11.921   5.400
16279SOL    HW149087  12.060  11.877   5.323
16279SOL    HW249088  12.071  11.865   5.474
16280SOL     OW49089   5.597   5.414   5.166
16280SOL    HW149090   5.523   5.394   5.109
16280SOL    HW249091   5.578   5.502   5.199
16281SOL     OW49092   7.459   4.169   2.742
16281SOL    HW149093   7.448   4.197   2.833
16281SOL    HW249094   7.385   4.208   2.696
16282SOL     OW49095   3.979   8.218   3.763
16282SOL    HW149096   3.957   8.127   3.782
16282SOL    HW249097   4.041   8.243   3.831
16283SOL     OW49098  10.348   9.548   3.180
16283SOL    HW149099  10.442   9.554   3.166
16283SOL    HW249100  10.338   9.517   3.270
16284SOL     OW49101   8.317  11.943   5.414
16284SOL    HW149102   8.374  11.928   5.339
16284SOL    HW249103   8.242  11.990   5.378
16285SOL     OW49104   9.197  13.115   7.401
16285SOL    HW149105   9.235  13.102   7.314
16285SOL    HW249106   9.170  13.028   7.428
16286SOL     OW49107   2.854   5.436   0.788
16286SOL    HW149108   2.924   5.457   0.726
16286SOL    HW249109   2.774   5.449   0.739
16287SOL     OW49110  10.544  13.255   5.044
16287SOL    HW149111  10.489  13.319   4.998
16287SOL    HW249112  10.495  13.173   5.037
16288SOL     OW49113   6.747  13.650   7.617
16288SOL    HW149114   1.316   8.347   0.007
16288SOL    HW249115   1.414   8.256   0.077
16289SOL     OW49116   7.821   6.385   6.627
16289SOL    HW149117   7.737   6.406   6.586
16289SOL    HW249118   7.810   6.410   6.718
16290SOL     OW49119  11.113   8.472   4.027
16290SOL    HW149120  11.206   8.486   4.010
16290SOL    HW249121  11.099   8.379   4.010
16291SOL     OW49122   5.283   5.711   6.147
16291SOL    HW149123   5.364   5.725   6.195
16291SOL    HW249124   5.233   5.792   6.162
16292SOL     OW49125   8.283  11.265   0.838
16292SOL    HW149126   8.333  11.331   0.791
16292SOL    HW249127   8.220  11.314   0.889
16293SOL     OW49128   4.786   3.890   2.934
16293SOL    HW149129   4.701   3.934   2.924
16293SOL    HW249130   4.807   3.860   2.845
16294SOL     OW49131   9.423   4.565   0.153
16294SOL    HW149132   9.378   4.498   0.205
16294SOL    HW249133   9.426   4.641   0.210
16295SOL     OW49134   8.561   8.665   5.883
16295SOL    HW149135   8.546   8.630   5.795
16295SOL    HW249136   8.503   8.614   5.940
16296SOL     OW49137   9.586  10.529   6.564
16296SOL    HW149138   9.647  10.598   6.535
16296SOL    HW249139   9.600  10.523   6.658
16297SOL     OW49140   9.379   9.940   1.309
16297SOL    HW149141   9.439   9.903   1.374
16297SOL    HW249142   9.402  10.033   1.304
16298SOL     OW49143  10.247   6.823   1.005
16298SOL    HW149144  10.270   6.853   0.917
16298SOL    HW249145  10.308   6.868   1.063
16299SOL     OW49146   5.510   8.017   3.535
16299SOL    HW149147   5.503   7.999   3.628
16299SOL    HW249148   5.497   7.932   3.492
16300SOL     OW49149   7.606  10.814   4.669
16300SOL    HW149150   7.524  10.829   4.622
16300SOL    HW249151   7.587  10.838   4.759
16301SOL     OW49152   9.506  14.569   7.195
16301SOL    HW149153   9.577  14.544   7.255
16301SOL    HW249154   9.477  14.654   7.227
16302SOL     OW49155   3.033  11.547   2.238
16302SOL    HW149156   2.996  11.491   2.306
16302SOL    HW249157   3.082  11.614   2.286
16303SOL     OW49158  11.077   8.646   3.472
16303SOL    HW149159  11.122   8.563   3.486
16303SOL    HW249160  11.107   8.702   3.544
16304SOL     OW49161  10.475  10.543   3.013
16304SOL    HW149162  10.472  10.447   3.012
16304SOL    HW249163  10.531  10.564   3.088
16305SOL     OW49164   5.808  13.924   4.844
16305SOL    HW149165   5.901  13.916   4.866
16305SOL    HW249166   5.763  13.923   4.928
16306SOL     OW49167   3.766   6.676   0.162
16306SOL    HW149168   3.740   6.598   0.115
16306SOL    HW249169   3.774   6.648   0.253
16307SOL     OW49170   8.517  10.766   6.210
16307SOL    HW149171   8.456  10.742   6.140
16307SOL    HW249172   8.483  10.720   6.287
16308SOL     OW49173  12.301   7.730   4.011
16308SOL    HW149174  12.326   7.697   4.098
16308SOL    HW249175  12.214   7.694   3.995
16309SOL     OW49176   6.424   6.586   6.151
16309SOL    HW149177   6.453   6.495   6.144
16309SOL    HW249178   6.355   6.594   6.085
16310SOL     OW49179   6.442   6.970   3.172
16310SOL    HW149180   6.390   6.952   3.250
16310SOL    HW249181   6.430   7.063   3.156
16311SOL     OW49182   6.206  12.358   6.783
16311SOL    HW149183   6.126  12.328   6.828
16311SOL    HW249184   6.218  12.448   6.814
16312SOL     OW49185   8.538  12.289   2.670
16312SOL    HW149186   8.597  12.213   2.663
16312SOL    HW249187   8.585  12.360   2.626
16313SOL     OW49188   5.731  12.266   2.174
16313SOL    HW149189   5.771  12.289   2.257
16313SOL    HW249190   5.772   1.551   2.110
16314SOL     OW49191   8.173  11.956   3.919
16314SOL    HW149192   8.178  12.035   3.865
16314SOL    HW249193   8.097  11.970   3.974
16315SOL     OW49194   8.860   6.726   3.895
16315SOL    HW149195   8.938   6.671   3.892
16315SOL    HW249196   8.854   6.755   3.986
16316SOL     OW49197   2.013   2.502   1.979
16316SOL    HW149198   1.933   2.450   1.986
16316SOL    HW249199   2.034   2.503   1.886
16317SOL     OW49200  10.130  11.764   6.875
16317SOL    HW149201  10.210  11.780   6.824
16317SOL    HW249202  10.069  11.725   6.813
16318SOL     OW49203   6.675   8.832   4.383
16318SOL    HW149204   6.598   8.886   4.401
16318SOL    HW249205   6.644   8.742   4.392
16319SOL     OW49206   8.864   8.932   7.106
16319SOL    HW149207   8.874   8.978   7.189
16319SOL    HW249208   8.909   8.988   7.043
16320SOL     OW49209  11.821  15.996   7.439
16320SOL    HW149210  11.799  15.904   7.457
16320SOL    HW249211  11.806   5.231   7.345
16321SOL     OW49212   9.797   6.359   2.703
16321SOL    HW149213   9.809   6.420   2.776
16321SOL    HW249214   9.862   6.291   2.718
16322SOL     OW49215  10.992   8.415   5.398
16322SOL    HW149216  10.918   8.384   5.346
16322SOL    HW249217  10.979   8.510   5.404
16323SOL     OW49218  15.425  15.856   7.582
16323SOL    HW149219  15.468  15.771   7.593
16323SOL    HW249220  15.496  15.916   7.558
16324SOL     OW49221   5.632  12.541   3.110
16324SOL    HW149222   5.608  12.449   3.104
16324SOL    HW249223   5.695  12.545   3.182
16325SOL     OW49224  13.579  13.367   4.111
16325SOL    HW149225  13.488  13.387   4.133
16325SOL    HW249226  13.605  13.300   4.174
16326SOL     OW49227   9.411  11.280   2.069
16326SOL    HW149228   9.461  11.361   2.054
16326SOL    HW249229   9.389  11.283   2.162
16327SOL     OW49230   3.305   8.930   4.071
16327SOL    HW149231   3.335   8.844   4.044
16327SOL    HW249232   3.221   8.942   4.027
16328SOL     OW49233   5.274   7.984   5.326
16328SOL    HW149234   5.280   7.915   5.260
16328SOL    HW249235   5.222   7.946   5.396
16329SOL     OW49236   6.173   2.274   1.979
16329SOL    HW149237   6.117   2.308   1.910
16329SOL    HW249238   6.114   2.225   2.036
16330SOL     OW49239   5.177   7.931   2.531
16330SOL    HW149240   5.231   8.009   2.545
16330SOL    HW249241   5.241   7.861   2.515
16331SOL     OW49242   4.570   4.538   4.153
16331SOL    HW149243   4.620   4.619   4.158
16331SOL    HW249244   4.480   4.563   4.169
16332SOL     OW49245   6.162   5.921   3.031
16332SOL    HW149246   6.143   5.923   3.125
16332SOL    HW249247   6.088   5.965   2.990
16333SOL     OW49248   3.638   9.532   2.188
16333SOL    HW149249   3.651   9.479   2.110
16333SOL    HW249250   3.718   9.585   2.194
16334SOL     OW49251   4.363   6.368   2.724
16334SOL    HW149252   4.370   6.383   2.629
16334SOL    HW249253   4.330   6.451   2.758
16335SOL     OW49254  14.213  14.393   7.495
16335SOL    HW149255  14.198  14.416   7.403
16335SOL    HW249256  14.214  14.477   7.541
16336SOL     OW49257  11.614   9.917   3.700
16336SOL    HW149258  11.628   9.882   3.789
16336SOL    HW249259  11.617  10.012   3.711
16337SOL     OW49260   5.379   7.280   6.830
16337SOL    HW149261   5.401   7.371   6.808
16337SOL    HW249262   5.428   7.228   6.766
16338SOL     OW49263   6.838  10.053   6.636
16338SOL    HW149264   6.818  10.144   6.613
16338SOL    HW249265   6.934  10.050   6.640
16339SOL     OW49266   7.674  13.742   5.596
16339SOL    HW149267   7.647  13.787   5.516
16339SOL    HW249268   7.665  13.649   5.576
16340SOL     OW49269  11.131   9.361   2.451
16340SOL    HW149270  11.174   9.337   2.533
16340SOL    HW249271  11.202   9.396   2.396
16341SOL     OW49272   9.226  14.645   5.546
16341SOL    HW149273   9.244   3.934   5.477
16341SOL    HW249274   9.142  14.607   5.523
16342SOL     OW49275   8.781   3.764   1.022
16342SOL    HW149276   8.818   3.702   1.085
16342SOL    HW249277   8.735   3.828   1.076
16343SOL     OW49278   6.804   8.675   0.817
16343SOL    HW149279   6.897   8.682   0.795
16343SOL    HW249280   6.783   8.758   0.861
16344SOL     OW49281  11.099   9.162   1.130
16344SOL    HW149282  11.133   9.127   1.048
16344SOL    HW249283  11.111   9.257   1.123
16345SOL     OW49284  11.548   7.248   6.639
16345SOL    HW149285  11.603   7.174   6.663
16345SOL    HW249286  11.552   7.252   6.543
16346SOL     OW49287   4.145   9.647   5.772
16346SOL    HW149288   4.233   9.680   5.793
16346SOL    HW249289   4.145   9.639   5.677
16347SOL     OW49290   5.723   6.422   4.865
16347SOL    HW149291   5.708   6.516   4.857
16347SOL    HW249292   5.779   6.414   4.942
16348SOL     OW49293   8.269  12.828   5.267
16348SOL    HW149294   8.312  12.852   5.185
16348SOL    HW249295   8.254  12.733   5.260
16349SOL     OW49296  13.934   6.566   5.346
16349SOL    HW149297  13.904   6.476   5.360
16349SOL    HW249298  14.030   6.560   5.351
16350SOL     OW49299   5.132  12.750   6.203
16350SOL    HW149300   5.174  12.700   6.273
16350SOL    HW249301   5.095  12.826   6.247
16351SOL     OW49302   7.274  11.177   1.850
16351SOL    HW149303   7.329  11.247   1.886
16351SOL    HW249304   7.318  11.151   1.769
16352SOL     OW49305  11.413  10.400   6.431
16352SOL    HW149306  11.362  10.470   6.389
16352SOL    HW249307  11.418  10.331   6.364
16353SOL     OW49308  10.473   9.442   6.182
16353SOL    HW149309  10.526   9.376   6.137
16353SOL    HW249310  10.424   9.486   6.111
16354SOL     OW49311   6.253  12.707   4.245
16354SOL    HW149312   6.250  12.629   4.300
16354SOL    HW249313   6.210  12.680   4.163
16355SOL     OW49314   6.176   4.440   5.274
16355SOL    HW149315   6.197   4.532   5.293
16355SOL    HW249316   6.181   4.397   5.359
16356SOL     OW49317   9.322  11.946   5.350
16356SOL    HW149318   9.253  11.986   5.298
16356SOL    HW249319   9.344  11.865   5.305
16357SOL     OW49320  10.185  11.928   4.044
16357SOL    HW149321  10.116  11.969   3.992
16357SOL    HW249322  10.266  11.950   3.998
16358SOL     OW49323   9.569  11.718   1.670
16358SOL    HW149324   9.607  11.751   1.751
16358SOL    HW249325   9.480  11.754   1.669
16359SOL     OW49326  11.225   9.423   1.149
16359SOL    HW149327  11.233   9.425   1.054
16359SOL    HW249328  11.209   9.514   1.174
16360SOL     OW49329   7.071  12.792   4.798
16360SOL    HW149330   7.076  12.884   4.824
16360SOL    HW249331   7.084  12.743   4.879
16361SOL     OW49332   8.987   7.427   6.685
16361SOL    HW149333   9.003   7.346   6.735
16361SOL    HW249334   9.015   7.497   6.744
16362SOL     OW49335   9.860   5.095   3.316
16362SOL    HW149336   9.816   5.083   3.232
16362SOL    HW249337   9.953   5.082   3.296
16363SOL     OW49338  10.465   3.391   3.677
16363SOL    HW149339  10.514   3.310   3.684
16363SOL    HW249340  10.386   3.368   3.629
16364SOL     OW49341  11.542  11.964   2.058
16364SOL    HW149342  11.601  11.903   2.102
16364SOL    HW249343  11.547  12.043   2.111
16365SOL     OW49344   2.644   7.553   2.479
16365SOL    HW149345   2.597   7.491   2.422
16365SOL    HW249346   2.594   7.554   2.560
16366SOL     OW49347   9.955  12.014   2.105
16366SOL    HW149348   9.916  12.026   2.018
16366SOL    HW249349   9.891  11.961   2.152
16367SOL     OW49350  10.971   8.063   4.874
16367SOL    HW149351  10.969   8.053   4.969
16367SOL    HW249352  10.884   8.096   4.852
16368SOL     OW49353   8.877   4.993   4.984
16368SOL    HW149354   8.956   4.962   4.941
16368SOL    HW249355   8.907   5.059   5.046
16369SOL     OW49356  15.036   5.149   6.897
16369SOL    HW149357  15.084   5.086   6.951
16369SOL    HW249358  15.097   5.222   6.887
16370SOL     OW49359   9.048   5.711   2.507
16370SOL    HW149360   9.043   5.693   2.601
16370SOL    HW249361   9.138   5.739   2.493
16371SOL     OW49362   9.648   2.527   0.486
16371SOL    HW149363   9.612   2.503   0.401
16371SOL    HW249364   9.576   2.572   0.530
16372SOL     OW49365   3.937  12.379   4.106
16372SOL    HW149366   4.003  12.310   4.098
16372SOL    HW249367   3.918  12.382   4.200
16373SOL     OW49368   9.241   6.865   0.306
16373SOL    HW149369   9.249   6.914   0.224
16373SOL    HW249370   9.256   6.930   0.375
16374SOL     OW49371  11.615   2.738   2.541
16374SOL    HW149372  11.668   2.780   2.609
16374SOL    HW249373  11.532   2.786   2.543
16375SOL     OW49374   7.937   5.425   5.648
16375SOL    HW149375   7.968   5.390   5.564
16375SOL    HW249376   8.017   5.447   5.696
16376SOL     OW49377  10.237  10.477   5.556
16376SOL    HW149378  10.152  10.496   5.595
16376SOL    HW249379  10.300  10.512   5.619
16377SOL     OW49380  12.141  15.549   7.368
16377SOL    HW149381  12.051  15.562   7.398
16377SOL    HW249382  12.144  15.591   7.282
16378SOL     OW49383   9.633   3.568   2.434
16378SOL    HW149384   9.693   3.572   2.360
16378SOL    HW249385   9.563   3.510   2.405
16379SOL     OW49386   3.844  10.791   3.786
16379SOL    HW149387   3.884  10.719   3.836
16379SOL    HW249388   3.772  10.821   3.841
16380SOL     OW49389   3.179   6.074   0.865
16380SOL    HW149390   3.261   6.058   0.911
16380SOL    HW249391   3.153   5.988   0.832
16381SOL     OW49392   7.578   7.971   3.235
16381SOL    HW149393   7.568   8.035   3.164
16381SOL    HW249394   7.584   8.025   3.314
16382SOL     OW49395   4.436   6.636   5.846
16382SOL    HW149396   4.408   6.728   5.848
16382SOL    HW249397   4.472   6.620   5.934
16383SOL     OW49398  11.181   9.769   3.180
16383SOL    HW149399  11.208   9.690   3.133
16383SOL    HW249400  11.156   9.830   3.110
16384SOL     OW49401   8.611  13.327   3.642
16384SOL    HW149402   8.640   2.640   3.667
16384SOL    HW249403   8.688  13.288   3.599
16385SOL     OW49404   7.724   1.800   2.146
16385SOL    HW149405   7.809   1.768   2.177
16385SOL    HW249406   7.744   1.847   2.065
16386SOL     OW49407   8.024   2.761   2.780
16386SOL    HW149408   7.932   2.773   2.758
16386SOL    HW249409   8.043   2.669   2.757
16387SOL     OW49410   9.844  12.540   5.319
16387SOL    HW149411   9.757  12.535   5.359
16387SOL    HW249412   9.899  12.484   5.374
16388SOL     OW49413  13.502  12.400   7.214
16388SOL    HW149414  13.491  12.439   7.301
16388SOL    HW249415  13.551  12.466   7.164
16389SOL     OW49416  11.083   7.263   1.138
16389SOL    HW149417  11.088   7.358   1.128
16389SOL    HW249418  11.006   7.249   1.193
16390SOL     OW49419   3.796   3.716   5.000
16390SOL    HW149420   3.748   3.659   5.060
16390SOL    HW249421   3.884   3.721   5.037
16391SOL     OW49422   3.772   4.678   0.052
16391SOL    HW149423   3.739   4.768   0.046
16391SOL    HW249424   3.694   4.624   0.063
16392SOL     OW49425  11.946   5.677   3.663
16392SOL    HW149426  11.972   5.675   3.571
16392SOL    HW249427  12.029   5.680   3.711
16393SOL     OW49428   7.913   4.367   4.917
16393SOL    HW149429   7.989   4.403   4.963
16393SOL    HW249430   7.925   4.392   4.826
16394SOL     OW49431  13.298  11.875   5.493
16394SOL    HW149432  13.273  11.806   5.432
16394SOL    HW249433  13.351  11.830   5.559
16395SOL     OW49434   7.587   6.482   4.544
16395SOL    HW149435   7.573   6.577   4.549
16395SOL    HW249436   7.512   6.444   4.590
16396SOL     OW49437   8.442   8.009   5.980
16396SOL    HW149438   8.526   8.054   5.989
16396SOL    HW249439   8.385   8.051   6.044
16397SOL     OW49440   6.815   7.497   2.401
16397SOL    HW149441   6.882   7.472   2.465
16397SOL    HW249442   6.856   7.566   2.350
16398SOL     OW49443  11.687   8.737   2.230
16398SOL    HW149444  11.729   8.680   2.166
16398SOL    HW249445  11.710   8.825   2.203
16399SOL     OW49446  11.829   5.086   4.846
16399SOL    HW149447  11.830   5.163   4.789
16399SOL    HW249448  11.914   5.044   4.830
16400SOL     OW49449   7.606  14.864   7.257
16400SOL    HW149450   7.686  14.837   7.302
16400SOL    HW249451   7.536  14.838   7.316
16401SOL     OW49452   5.088   5.322   2.837
16401SOL    HW149453   5.132   5.240   2.861
16401SOL    HW249454   5.029   5.339   2.910
16402SOL     OW49455   9.180  12.542   5.975
16402SOL    HW149456   9.148  12.628   5.946
16402SOL    HW249457   9.106  12.503   6.022
16403SOL     OW49458   8.591  14.625   6.399
16403SOL    HW149459   8.527  14.650   6.333
16403SOL    HW249460   8.661  14.690   6.393
16404SOL     OW49461   7.560   6.956   6.538
16404SOL    HW149462   7.588   7.009   6.464
16404SOL    HW249463   7.541   7.019   6.607
16405SOL     OW49464   5.583  10.414   2.718
16405SOL    HW149465   5.557  10.380   2.804
16405SOL    HW249466   5.522  10.372   2.657
16406SOL     OW49467  14.405  12.387   6.241
16406SOL    HW149468  14.326  12.369   6.191
16406SOL    HW249469  14.373  12.420   6.325
16407SOL     OW49470   6.318   7.204   4.023
16407SOL    HW149471   6.266   7.125   4.008
16407SOL    HW249472   6.409   7.175   4.015
16408SOL     OW49473  12.071  12.638   6.947
16408SOL    HW149474  12.014  12.671   6.877
16408SOL    HW249475  12.011  12.591   7.005
16409SOL     OW49476   4.492   3.655   4.456
16409SOL    HW149477   4.578   3.647   4.415
16409SOL    HW249478   4.498   3.601   4.535
16410SOL     OW49479  10.569   2.237   0.426
16410SOL    HW149480  10.524   2.267   0.505
16410SOL    HW249481  10.644   2.295   0.418
16411SOL     OW49482   3.839   5.418   2.043
16411SOL    HW149483   3.858   5.370   1.963
16411SOL    HW249484   3.791   5.496   2.013
16412SOL     OW49485   6.976   5.497   1.202
16412SOL    HW149486   6.950   5.405   1.211
16412SOL    HW249487   6.897   5.546   1.227
16413SOL     OW49488   8.456  11.959   4.622
16413SOL    HW149489   8.519  12.016   4.665
16413SOL    HW249490   8.452  11.991   4.532
16414SOL     OW49491  11.102   8.931   5.822
16414SOL    HW149492  11.010   8.960   5.819
16414SOL    HW249493  11.100   8.855   5.880
16415SOL     OW49494  15.705  15.308   7.120
16415SOL    HW149495  15.703  15.395   7.160
16415SOL    HW249496   4.981  15.320   7.040
16416SOL     OW49497   7.951   5.141   6.277
16416SOL    HW149498   8.013   5.188   6.332
16416SOL    HW249499   8.006   5.099   6.210
16417SOL     OW49500  11.223   8.265   6.233
16417SOL    HW149501  11.206   8.212   6.154
16417SOL    HW249502  11.138   8.270   6.277
16418SOL     OW49503   2.522  10.886   2.466
16418SOL    HW149504   2.593  10.874   2.403
16418SOL    HW249505   2.513  10.800   2.508
16419SOL     OW49506   8.477   6.604   2.787
16419SOL    HW149507   8.482   6.509   2.771
16419SOL    HW249508   8.477   6.612   2.882
16420SOL     OW49509   7.509  14.702   6.241
16420SOL    HW149510   7.479  14.773   6.297
16420SOL    HW249511   7.594  14.731   6.208
16421SOL     OW49512   7.207   8.316   2.614
16421SOL    HW149513   7.297   8.348   2.613
16421SOL    HW249514   7.201   8.259   2.537
16422SOL     OW49515   9.064   7.039   7.143
16422SOL    HW149516   9.072   6.955   7.098
16422SOL    HW249517   9.084   7.104   7.076
16423SOL     OW49518  11.722   7.806   1.493
16423SOL    HW149519  11.693   7.860   1.420
16423SOL    HW249520  11.679   7.722   1.480
16424SOL     OW49521   9.360   6.889   1.573
16424SOL    HW149522   9.416   6.933   1.509
16424SOL    HW249523   9.421   6.848   1.634
16425SOL     OW49524   9.434   4.963   3.958
16425SOL    HW149525   9.378   5.002   3.891
16425SOL    HW249526   9.392   4.984   4.041
16426SOL     OW49527  10.697  15.513   7.268
16426SOL    HW149528  10.695  15.478   7.357
16426SOL    HW249529  10.608  15.501   7.236
16427SOL     OW49530   9.466  11.900   4.892
16427SOL    HW149531   9.500  11.907   4.803
16427SOL    HW249532   9.543  11.908   4.948
16428SOL     OW49533   9.303  10.037   7.088
16428SOL    HW149534   9.287  10.038   6.993
16428SOL    HW249535   9.323   9.945   7.107
16429SOL     OW49536   6.333   3.811   0.128
16429SOL    HW149537   6.270   3.874   0.094
16429SOL    HW249538   6.407   3.864   0.157
16430SOL     OW49539   9.246   5.362   6.755
16430SOL    HW149540   9.339   5.367   6.730
16430SOL    HW249541   9.216   5.453   6.754
16431SOL     OW49542   8.640  10.223   1.199
16431SOL    HW149543   8.641  10.267   1.114
16431SOL    HW249544   8.577  10.153   1.189
16432SOL     OW49545   9.718   9.728   4.125
16432SOL    HW149546   9.674   9.686   4.199
16432SOL    HW249547   9.647   9.749   4.064
16433SOL     OW49548   0.497   1.364   0.540
16433SOL    HW149549   0.456   1.434   0.590
16433SOL    HW249550   0.451   1.363   0.457
16434SOL     OW49551  14.947   9.531   7.446
16434SOL    HW149552  14.979   9.591   7.379
16434SOL    HW249553  14.883   9.581   7.496
16435SOL     OW49554   8.486   2.155   1.926
16435SOL    HW149555   8.438   2.235   1.946
16435SOL    HW249556   8.486   2.105   2.008
16436SOL     OW49557  12.554   5.641   2.627
16436SOL    HW149558  12.556   5.734   2.606
16436SOL    HW249559  12.505   5.635   2.709
16437SOL     OW49560   4.897   7.148   0.870
16437SOL    HW149561   4.824   7.096   0.838
16437SOL    HW249562   4.866   7.238   0.866
16438SOL     OW49563   9.925  10.709   0.307
16438SOL    HW149564   9.862  10.777   0.333
16438SOL    HW249565   9.897  10.683   0.219
16439SOL     OW49566   8.948   5.807   6.746
16439SOL    HW149567   8.871   5.802   6.690
16439SOL    HW249568   9.015   5.849   6.692
16440SOL     OW49569  11.225   7.213   2.204
16440SOL    HW149570  11.136   7.212   2.239
16440SOL    HW249571  11.240   7.303   2.177
16441SOL     OW49572   9.013  11.733   2.822
16441SOL    HW149573   8.989  11.752   2.731
16441SOL    HW249574   9.010  11.818   2.866
16442SOL     OW49575   3.851   6.195   0.980
16442SOL    HW149576   3.920   6.258   0.999
16442SOL    HW249577   3.770   6.247   0.978
16443SOL     OW49578   6.270  13.553   5.010
16443SOL    HW149579   6.194  13.541   4.953
16443SOL    HW249580   6.241  13.520   5.095
16444SOL     OW49581   7.470  13.642   4.323
16444SOL    HW149582   7.421  13.594   4.390
16444SOL    HW249583   7.542  13.684   4.370
16445SOL     OW49584   6.309  13.029   4.214
16445SOL    HW149585   6.374  12.992   4.274
16445SOL    HW249586   6.362  13.062   4.141
16446SOL     OW49587   9.571  10.200   2.296
16446SOL    HW149588   9.646  10.251   2.325
16446SOL    HW249589   9.578  10.200   2.200
16447SOL     OW49590   2.555  12.953   3.383
16447SOL    HW149591   2.486  12.921   3.441
16447SOL    HW249592   2.507  12.988   3.307
16448SOL     OW49593   3.153  10.739   0.369
16448SOL    HW149594   3.138  10.811   0.430
16448SOL    HW249595   3.233  10.697   0.401
16449SOL     OW49596   6.327   9.818   1.786
16449SOL    HW149597   6.394   9.879   1.818
16449SOL    HW249598   6.343   9.811   1.692
16450SOL     OW49599   9.205  13.867   4.517
16450SOL    HW149600   9.120  13.909   4.504
16450SOL    HW249601   9.218  13.867   4.612
16451SOL     OW49602  10.664   6.500   4.756
16451SOL    HW149603  10.682   6.592   4.775
16451SOL    HW249604  10.575   6.500   4.721
16452SOL     OW49605  12.115   4.292   2.737
16452SOL    HW149606  12.051   4.222   2.722
16452SOL    HW249607  12.172   4.288   2.660
16453SOL     OW49608   6.955   6.343   7.159
16453SOL    HW149609   6.906   6.347   7.241
16453SOL    HW249610   6.904   6.284   7.103
16454SOL     OW49611   5.988   5.829   2.553
16454SOL    HW149612   5.967   5.922   2.566
16454SOL    HW249613   6.043   5.827   2.475
16455SOL     OW49614   6.417   7.710   1.603
16455SOL    HW149615   6.330   7.747   1.623
16455SOL    HW249616   6.433   7.735   1.512
16456SOL     OW49617   6.805  11.058   6.567
16456SOL    HW149618   6.749  10.982   6.584
16456SOL    HW249619   6.892  11.020   6.553
16457SOL     OW49620   4.958   9.903   5.533
16457SOL    HW149621   5.048   9.881   5.511
16457SOL    HW249622   4.912   9.903   5.449
16458SOL     OW49623  10.044   3.109   1.599
16458SOL    HW149624  10.078   3.112   1.688
16458SOL    HW249625  10.069   3.023   1.566
16459SOL     OW49626   6.393   8.871   4.781
16459SOL    HW149627   6.325   8.902   4.721
16459SOL    HW249628   6.468   8.928   4.764
16460SOL     OW49629   3.637   2.367   1.283
16460SOL    HW149630   3.578   2.415   1.225
16460SOL    HW249631   3.584   2.351   1.362
16461SOL     OW49632  10.371   7.859   3.240
16461SOL    HW149633  10.322   7.820   3.168
16461SOL    HW249634  10.315   7.846   3.317
16462SOL     OW49635   9.365   3.438   1.750
16462SOL    HW149636   9.417   3.518   1.758
16462SOL    HW249637   9.302   3.443   1.822
16463SOL     OW49638   2.881  12.724   2.926
16463SOL    HW149639   2.807  12.728   2.865
16463SOL    HW249640   2.848  12.764   3.006
16464SOL     OW49641   5.966   7.642   4.310
16464SOL    HW149642   6.007   7.710   4.362
16464SOL    HW249643   6.036   7.579   4.294
16465SOL     OW49644   4.015   9.000   5.078
16465SOL    HW149645   3.991   8.919   5.033
16465SOL    HW249646   4.014   9.066   5.009
16466SOL     OW49647   7.654   6.011   2.829
16466SOL    HW149648   7.627   6.007   2.737
16466SOL    HW249649   7.731   5.954   2.834
16467SOL     OW49650  11.994   8.283   3.774
16467SOL    HW149651  11.936   8.226   3.823
16467SOL    HW249652  12.001   8.242   3.687
16468SOL     OW49653   4.489  11.221   6.212
16468SOL    HW149654   4.419  11.171   6.170
16468SOL    HW249655   4.566  11.206   6.157
16469SOL     OW49656   8.772   7.323   2.118
16469SOL    HW149657   8.737   7.412   2.109
16469SOL    HW249658   8.806   7.303   2.031
16470SOL     OW49659   4.097   1.761   1.375
16470SOL    HW149660   4.033   1.803   1.433
16470SOL    HW249661   4.058   1.676   1.355
16471SOL     OW49662  12.940  12.363   6.000
16471SOL    HW149663  12.963  12.453   5.976
16471SOL    HW249664  12.849  12.353   5.972
16472SOL     OW49665   5.291  10.923   3.889
16472SOL    HW149666   5.249  10.929   3.975
16472SOL    HW249667   5.237  10.861   3.841
16473SOL     OW49668   9.976  14.094   5.300
16473SOL    HW149669   9.912  14.143   5.352
16473SOL    HW249670  10.058  14.102   5.348
16474SOL     OW49671  10.003   5.561   0.364
16474SOL    HW149672  10.068   5.572   0.295
16474SOL    HW249673   9.995   5.466   0.374
16475SOL     OW49674  12.511   8.042   7.567
16475SOL    HW149675  12.576   8.010   7.503
16475SOL    HW249676  12.460   8.107   7.519
16476SOL     OW49677   9.473  11.848   3.543
16476SOL    HW149678   9.479  11.850   3.638
16476SOL    HW249679   9.562  11.865   3.513
16477SOL     OW49680   8.976   1.824   1.813
16477SOL    HW149681   9.023   1.898   1.774
16477SOL    HW249682   8.893   1.820   1.765
16478SOL     OW49683   1.474   4.729   0.018
16478SOL    HW149684   1.422   4.661   0.060
16478SOL    HW249685   6.908  10.071   7.566
16479SOL     OW49686   1.811   9.921   2.314
16479SOL    HW149687   1.850   9.973   2.385
16479SOL    HW249688   1.835   9.968   2.234
16480SOL     OW49689  14.726  14.363   7.429
16480SOL    HW149690  14.650  14.412   7.398
16480SOL    HW249691  14.792  14.429   7.448
16481SOL     OW49692  10.731  13.127   6.912
16481SOL    HW149693  10.776  13.055   6.866
16481SOL    HW249694  10.641  13.122   6.882
16482SOL     OW49695   6.164   8.896   5.311
16482SOL    HW149696   6.204   8.809   5.312
16482SOL    HW249697   6.136   8.908   5.220
16483SOL     OW49698  10.508   4.283   4.599
16483SOL    HW149699  10.509   4.216   4.668
16483SOL    HW249700  10.443   4.252   4.536
16484SOL     OW49701   5.219   5.273   2.245
16484SOL    HW149702   5.173   5.318   2.315
16484SOL    HW249703   5.184   5.312   2.165
16485SOL     OW49704  10.420   3.953   5.588
16485SOL    HW149705  10.403  14.637   5.615
16485SOL    HW249706  10.385   4.006   5.659
16486SOL     OW49707  13.410  13.145   5.399
16486SOL    HW149708  13.452  13.178   5.478
16486SOL    HW249709  13.318  13.171   5.408
16487SOL     OW49710   5.146   9.452   6.123
16487SOL    HW149711   5.092   9.520   6.085
16487SOL    HW249712   5.125   9.453   6.217
16488SOL     OW49713  13.699   9.797   6.945
16488SOL    HW149714  13.670   9.812   7.035
16488SOL    HW249715  13.694   9.702   6.933
16489SOL     OW49716   9.146  11.001   7.188
16489SOL    HW149717   9.186  11.023   7.272
16489SOL    HW249718   9.145  10.906   7.187
16490SOL     OW49719   5.675  12.203   7.085
16490SOL    HW149720   5.752  12.163   7.125
16490SOL    HW249721   5.601  12.154   7.123
16491SOL     OW49722   8.419  11.347   5.098
16491SOL    HW149723   8.436  11.352   5.004
16491SOL    HW249724   8.506  11.348   5.138
16492SOL     OW49725  15.151  11.228   6.672
16492SOL    HW149726  15.083  11.278   6.628
16492SOL    HW249727  15.215  11.208   6.603
16493SOL     OW49728  10.467   5.804   0.774
16493SOL    HW149729  10.412   5.832   0.847
16493SOL    HW249730  10.449   5.868   0.705
16494SOL     OW49731   6.426   9.375   5.125
16494SOL    HW149732   6.504   9.364   5.069
16494SOL    HW249733   6.404   9.287   5.153
16495SOL     OW49734  13.057  11.523   5.956
16495SOL    HW149735  13.086  11.614   5.966
16495SOL    HW249736  13.138  11.473   5.943
16496SOL     OW49737  10.145   7.680   7.601
16496SOL    HW149738  10.091   7.747   7.560
16496SOL    HW249739  10.098   7.598   7.587
16497SOL     OW49740  10.296   5.070   4.435
16497SOL    HW149741  10.340   5.154   4.425
16497SOL    HW249742  10.361   5.013   4.476
16498SOL     OW49743  13.496  14.420   6.391
16498SOL    HW149744  13.486  14.480   6.317
16498SOL    HW249745  13.421  14.440   6.448
16499SOL     OW49746   1.462   5.182   0.910
16499SOL    HW149747   1.368   5.166   0.916
16499SOL    HW249748   1.502   5.102   0.942
16500SOL     OW49749  12.158  10.844   5.461
16500SOL    HW149750  12.068  10.868   5.485
16500SOL    HW249751  12.207  10.926   5.471
16501SOL     OW49752  10.135   8.837   2.299
16501SOL    HW149753  10.068   8.897   2.331
16501SOL    HW249754  10.213   8.857   2.351
16502SOL     OW49755  13.297   4.063   4.199
16502SOL    HW149756  13.311   4.081   4.292
16502SOL    HW249757  13.260   3.975   4.197
16503SOL     OW49758  11.230   6.583   3.088
16503SOL    HW149759  11.263   6.573   2.999
16503SOL    HW249760  11.248   6.675   3.110
16504SOL     OW49761   9.414   4.679   3.829
16504SOL    HW149762   9.504   4.654   3.853
16504SOL    HW249763   9.387   4.740   3.897
16505SOL     OW49764  13.888  13.127   6.019
16505SOL    HW149765  13.866  13.145   5.928
16505SOL    HW249766  13.818  13.170   6.069
16506SOL     OW49767   9.569   9.687   4.897
16506SOL    HW149768   9.488   9.643   4.871
16506SOL    HW249769   9.617   9.699   4.815
16507SOL     OW49770   7.981  11.166   3.248
16507SOL    HW149771   7.972  11.120   3.331
16507SOL    HW249772   8.061  11.217   3.257
16508SOL     OW49773  12.494   3.366   2.622
16508SOL    HW149774  12.411   3.322   2.640
16508SOL    HW249775  12.498   3.370   2.526
16509SOL     OW49776   9.629   9.448   3.336
16509SOL    HW149777   9.565   9.518   3.335
16509SOL    HW249778   9.578   9.367   3.343
16510SOL     OW49779   5.519   9.074   5.867
16510SOL    HW149780   5.608   9.085   5.834
16510SOL    HW249781   5.528   9.021   5.946
16511SOL     OW49782  13.467   6.351   5.928
16511SOL    HW149783  13.377   6.362   5.960
16511SOL    HW249784  13.521   6.376   6.003
16512SOL     OW49785   1.885   6.784   2.516
16512SOL    HW149786   1.968   6.813   2.479
16512SOL    HW249787   1.905   6.702   2.562
16513SOL     OW49788   8.621   4.246   1.706
16513SOL    HW149789   8.646   4.300   1.631
16513SOL    HW249790   8.695   4.186   1.718
16514SOL     OW49791  13.173  10.141   5.834
16514SOL    HW149792  13.243  10.113   5.893
16514SOL    HW249793  13.210  10.216   5.786
16515SOL     OW49794   5.878   8.362   5.876
16515SOL    HW149795   5.823   8.433   5.909
16515SOL    HW249796   5.921   8.327   5.953
16516SOL     OW49797  13.968  10.970   5.888
16516SOL    HW149798  13.948  10.909   5.959
16516SOL    HW249799  13.896  10.958   5.825
16517SOL     OW49800  12.925  12.967   4.960
16517SOL    HW149801  12.997  12.932   5.013
16517SOL    HW249802  12.882  13.030   5.017
16518SOL     OW49803   3.594  10.068   3.709
16518SOL    HW149804   3.516  10.014   3.710
16518SOL    HW249805   3.653  10.028   3.773
16519SOL     OW49806   4.626   4.731   5.354
16519SOL    HW149807   4.668   4.795   5.412
16519SOL    HW249808   4.695   4.704   5.294
16520SOL     OW49809   9.090   7.815   1.394
16520SOL    HW149810   9.114   7.769   1.474
16520SOL    HW249811   9.023   7.878   1.422
16521SOL     OW49812  11.599   7.403   5.536
16521SOL    HW149813  11.592   7.498   5.541
16521SOL    HW249814  11.691   7.384   5.556
16522SOL     OW49815  10.897  12.005   6.041
16522SOL    HW149816  10.851  12.037   6.118
16522SOL    HW249817  10.838  12.023   5.968
16523SOL     OW49818  11.263   8.794   0.839
16523SOL    HW149819  11.192   8.734   0.860
16523SOL    HW249820  11.343   8.741   0.848
16524SOL     OW49821   4.371   8.565   1.260
16524SOL    HW149822   4.423   8.592   1.184
16524SOL    HW249823   4.368   8.642   1.317
16525SOL     OW49824  11.255   8.544   4.585
16525SOL    HW149825  11.313   8.472   4.561
16525SOL    HW249826  11.208   8.513   4.663
16526SOL     OW49827  11.540   8.468   4.320
16526SOL    HW149828  11.501   8.554   4.336
16526SOL    HW249829  11.583   8.478   4.235
16527SOL     OW49830   2.458   1.916   1.655
16527SOL    HW149831   2.540   1.877   1.684
16527SOL    HW249832   2.408   1.844   1.617
16528SOL     OW49833  10.067   6.399   7.559
16528SOL    HW149834   4.704   1.031   0.030
16528SOL    HW249835   9.999   6.462   7.537
16529SOL     OW49836   6.218   3.252   2.888
16529SOL    HW149837   6.176   3.179   2.934
16529SOL    HW249838   6.250   3.214   2.806
16530SOL     OW49839  13.994   8.858   6.041
16530SOL    HW149840  14.033   8.933   6.087
16530SOL    HW249841  14.069   8.815   6.000
16531SOL     OW49842   3.955   1.998   0.719
16531SOL    HW149843   3.942   1.907   0.695
16531SOL    HW249844   3.909   2.008   0.802
16532SOL     OW49845  13.049  11.897   4.649
16532SOL    HW149846  13.070  11.820   4.597
16532SOL    HW249847  13.071  11.971   4.593
16533SOL     OW49848   4.079   9.580   1.845
16533SOL    HW149849   4.106   9.619   1.928
16533SOL    HW249850   4.109   9.490   1.850
16534SOL     OW49851  12.027  11.272   4.623
16534SOL    HW149852  12.096  11.300   4.682
16534SOL    HW249853  11.972  11.214   4.676
16535SOL     OW49854   5.918  15.326   7.272
16535SOL    HW149855   5.884  15.356   7.357
16535SOL    HW249856   5.839  15.302   7.223
16536SOL     OW49857   7.391   4.560   1.001
16536SOL    HW149858   7.303   4.596   1.011
16536SOL    HW249859   7.377   4.473   0.964
16537SOL     OW49860   5.632  10.332   5.994
16537SOL    HW149861   5.557  10.377   6.032
16537SOL    HW249862   5.708  10.370   6.039
16538SOL     OW49863   7.957   5.769   5.448
16538SOL    HW149864   7.956   5.696   5.386
16538SOL    HW249865   8.024   5.829   5.414
16539SOL     OW49866   7.328   4.677   0.323
16539SOL    HW149867   7.260   4.726   0.276
16539SOL    HW249868   7.331   4.592   0.279
16540SOL     OW49869   1.926   8.328   0.935
16540SOL    HW149870   1.913   8.234   0.921
16540SOL    HW249871   1.925   8.366   0.847
16541SOL     OW49872   8.181   6.323   6.555
16541SOL    HW149873   8.136   6.401   6.523
16541SOL    HW249874   8.229   6.290   6.479
16542SOL     OW49875   6.932  11.720   5.114
16542SOL    HW149876   7.012  11.748   5.068
16542SOL    HW249877   6.898  11.648   5.062
16543SOL     OW49878   4.075  12.042   5.664
16543SOL    HW149879   4.138  12.105   5.628
16543SOL    HW249880   4.108  12.021   5.751
16544SOL     OW49881   1.494  10.123   1.405
16544SOL    HW149882   1.579  10.151   1.440
16544SOL    HW249883   1.484  10.033   1.434
16545SOL     OW49884   2.932   4.527   3.379
16545SOL    HW149885   2.877   4.589   3.428
16545SOL    HW249886   2.897   4.441   3.401
16546SOL     OW49887   2.529   9.086   1.007
16546SOL    HW149888   2.445   9.055   1.040
16546SOL    HW249889   2.561   9.145   1.076
16547SOL     OW49890   8.486   5.219   6.861
16547SOL    HW149891   8.528   5.138   6.891
16547SOL    HW249892   8.526   5.288   6.914
16548SOL     OW49893   9.865   4.058   0.354
16548SOL    HW149894   9.960   4.073   0.352
16548SOL    HW249895   9.856   3.963   0.367
16549SOL     OW49896  11.932  11.120   7.016
16549SOL    HW149897  11.840  11.115   6.991
16549SOL    HW249898  11.931  11.164   7.101
16550SOL     OW49899  13.199  11.688   7.289
16550SOL    HW149900  13.260  11.679   7.215
16550SOL    HW249901  13.133  11.750   7.258
16551SOL     OW49902   6.319   8.105   5.014
16551SOL    HW149903   6.237   8.130   5.057
16551SOL    HW249904   6.305   8.128   4.922
16552SOL     OW49905   5.714  11.363   2.334
16552SOL    HW149906   5.772  11.401   2.399
16552SOL    HW249907   5.772  11.312   2.277
16553SOL     OW49908   3.982   7.298   0.985
16553SOL    HW149909   4.047   7.355   1.026
16553SOL    HW249910   3.979   7.327   0.894
16554SOL     OW49911  10.053   2.693   2.744
16554SOL    HW149912  10.038   2.686   2.838
16554SOL    HW249913  10.075   2.604   2.717
16555SOL     OW49914  12.822  12.626   2.900
16555SOL    HW149915   2.116  12.646   2.963
16555SOL    HW249916  12.794  12.537   2.921
16556SOL     OW49917  13.335  10.990   6.663
16556SOL    HW149918  13.291  10.907   6.679
16556SOL    HW249919  13.387  11.005   6.742
16557SOL     OW49920   9.510   5.853   2.849
16557SOL    HW149921   9.530   5.795   2.922
16557SOL    HW249922   9.535   5.940   2.881
16558SOL     OW49923   6.781  10.731   3.555
16558SOL    HW149924   6.841  10.805   3.554
16558SOL    HW249925   6.834  10.656   3.530
16559SOL     OW49926   3.514   6.753   4.252
16559SOL    HW149927   3.594   6.806   4.257
16559SOL    HW249928   3.444   6.817   4.240
16560SOL     OW49929   4.071   7.152   2.149
16560SOL    HW149930   4.046   7.245   2.151
16560SOL    HW249931   4.033   7.118   2.068
16561SOL     OW49932   8.950   3.076   4.254
16561SOL    HW149933   8.993   3.142   4.309
16561SOL    HW249934   8.983   3.094   4.166
16562SOL     OW49935  11.434   9.637   4.285
16562SOL    HW149936  11.368   9.674   4.226
16562SOL    HW249937  11.471   9.563   4.236
16563SOL     OW49938   8.295   8.539   1.345
16563SOL    HW149939   8.318   8.471   1.408
16563SOL    HW249940   8.377   8.559   1.300
16564SOL     OW49941   7.881   9.819   2.823
16564SOL    HW149942   7.876   9.726   2.843
16564SOL    HW249943   7.874   9.824   2.728
16565SOL     OW49944   5.261   8.984   6.748
16565SOL    HW149945   5.204   9.036   6.692
16565SOL    HW249946   5.209   8.966   6.826
16566SOL     OW49947   8.828   3.913   1.531
16566SOL    HW149948   8.912   3.959   1.528
16566SOL    HW249949   8.768   3.968   1.482
16567SOL     OW49950   4.303   4.533   3.602
16567SOL    HW149951   4.249   4.598   3.558
16567SOL    HW249952   4.393   4.558   3.579
16568SOL     OW49953  13.607  10.623   5.234
16568SOL    HW149954  13.531  10.681   5.237
16568SOL    HW249955  13.672  10.665   5.290
16569SOL     OW49956   6.891   8.229   4.300
16569SOL    HW149957   6.859   8.307   4.255
16569SOL    HW249958   6.814   8.173   4.309
16570SOL     OW49959   5.492   6.548   3.121
16570SOL    HW149960   5.448   6.487   3.180
16570SOL    HW249961   5.426   6.570   3.056
16571SOL     OW49962   8.058  13.655   5.511
16571SOL    HW149963   8.098  13.732   5.471
16571SOL    HW249964   8.121  13.584   5.495
16572SOL     OW49965   5.115  10.469   6.227
16572SOL    HW149966   5.061  10.544   6.253
16572SOL    HW249967   5.158  10.441   6.307
16573SOL     OW49968  11.462  10.649   6.104
16573SOL    HW149969  11.500  10.697   6.177
16573SOL    HW249970  11.523  10.578   6.087
16574SOL     OW49971   2.236   1.356   0.745
16574SOL    HW149972   2.254   1.296   0.817
16574SOL    HW249973   2.298   1.331   0.676
16575SOL     OW49974   7.657   6.800   6.782
16575SOL    HW149975   7.663   6.843   6.697
16575SOL    HW249976   7.747   6.796   6.814
16576SOL     OW49977   7.827   6.517   6.048
16576SOL    HW149978   7.818   6.609   6.021
16576SOL    HW249979   7.834   6.521   6.144
16577SOL     OW49980  14.396  10.784   5.516
16577SOL    HW149981  14.362  10.778   5.606
16577SOL    HW249982  14.491  10.785   5.526
16578SOL     OW49983  10.032   7.127   5.324
16578SOL    HW149984  10.067   7.208   5.288
16578SOL    HW249985  10.078   7.115   5.407
16579SOL     OW49986  13.918   9.941   5.756
16579SOL    HW149987  13.936   9.854   5.793
16579SOL    HW249988  14.005   9.975   5.735
16580SOL     OW49989   3.127   2.746   2.301
16580SOL    HW149990   3.104   2.671   2.356
16580SOL    HW249991   3.219   2.733   2.281
16581SOL     OW49992  10.939  11.276   2.780
16581SOL    HW149993  10.972  11.289   2.869
16581SOL    HW249994  10.958  11.358   2.735
16582SOL     OW49995   5.571  13.091   6.019
16582SOL    HW149996   5.477  13.105   6.006
16582SOL    HW249997   5.589  13.130   6.104
16583SOL     OW49998   1.490   8.117   1.104
16583SOL    HW149999   1.462   8.107   1.195
16583SOL    HW250000   1.507   8.210   1.094
16584SOL     OW50001   1.883   9.568   1.080
16584SOL    HW150002   1.827   9.506   1.034
16584SOL    HW250003   1.934   9.610   1.011
16585SOL     OW50004  15.707  14.211   7.519
16585SOL    HW150005  15.750  14.190   7.436
16585SOL    HW250006  15.769  14.269   7.564
16586SOL     OW50007   8.813   8.008   3.633
16586SOL    HW150008   8.767   8.089   3.655
16586SOL    HW250009   8.769   7.976   3.554
16587SOL     OW50010   3.417  10.472   1.944
16587SOL    HW150011   3.331  10.445   1.911
16587SOL    HW250012   3.471  10.393   1.936
16588SOL     OW50013  10.454   1.742   1.939
16588SOL    HW150014  10.404   1.724   2.018
16588SOL    HW250015  10.398   1.709   1.868
16589SOL     OW50016  11.514  10.985   6.707
16589SOL    HW150017  11.420  10.998   6.714
16589SOL    HW250018  11.550  11.024   6.787
16590SOL     OW50019  11.369   2.585   2.737
16590SOL    HW150020  11.436   2.593   2.669
16590SOL    HW250021  11.402   2.638   2.810
16591SOL     OW50022  14.649   8.609   5.858
16591SOL    HW150023  14.702   8.564   5.923
16591SOL    HW250024  14.700   8.603   5.777
16592SOL     OW50025  10.198   3.010   0.112
16592SOL    HW150026  10.240   2.969   0.036
16592SOL    HW250027  10.225   3.102   0.107
16593SOL     OW50028   5.846   6.398   2.912
16593SOL    HW150029   5.811   6.487   2.904
16593SOL    HW250030   5.900   6.387   2.834
16594SOL     OW50031   2.978  11.404   3.973
16594SOL    HW150032   3.062  11.377   4.011
16594SOL    HW250033   3.001  11.475   3.913
16595SOL     OW50034  11.778   3.750   4.137
16595SOL    HW150035  11.773   3.819   4.071
16595SOL    HW250036  11.696   3.702   4.128
16596SOL     OW50037   9.457  10.328   0.275
16596SOL    HW150038   9.481  10.365   0.360
16596SOL    HW250039   9.377  10.278   0.292
16597SOL     OW50040   9.519  10.896   4.164
16597SOL    HW150041   9.426  10.892   4.143
16597SOL    HW250042   9.563  10.897   4.079
16598SOL     OW50043   9.065   9.120   5.238
16598SOL    HW150044   8.999   9.178   5.276
16598SOL    HW250045   9.120   9.177   5.185
16599SOL     OW50046   4.226   4.966   1.575
16599SOL    HW150047   4.284   5.034   1.610
16599SOL    HW250048   4.193   5.004   1.493
16600SOL     OW50049   4.738   8.798   3.829
16600SOL    HW150050   4.730   8.762   3.740
16600SOL    HW250051   4.706   8.728   3.886
16601SOL     OW50052   5.240   4.442   0.066
16601SOL    HW150053  10.661   9.822   7.596
16601SOL    HW250054   5.287   4.373   0.114
16602SOL     OW50055   7.959   4.189   2.228
16602SOL    HW150056   8.045   4.171   2.189
16602SOL    HW250057   7.978   4.198   2.321
16603SOL     OW50058  10.670  14.890   6.385
16603SOL    HW150059  10.653  14.954   6.316
16603SOL    HW250060  10.595  14.831   6.381
16604SOL     OW50061   7.205   5.319   0.872
16604SOL    HW150062   7.258   5.239   0.869
16604SOL    HW250063   7.239   5.368   0.947
16605SOL     OW50064   7.297   1.440   1.699
16605SOL    HW150065   7.333   1.506   1.640
16605SOL    HW250066   7.203   1.444   1.685
16606SOL     OW50067  12.471   5.618   7.342
16606SOL    HW150068  12.511   5.660   7.418
16606SOL    HW250069  12.388   5.664   7.329
16607SOL     OW50070  13.280  12.779   5.020
16607SOL    HW150071  13.314  12.799   5.108
16607SOL    HW250072  13.239  12.861   4.992
16608SOL     OW50073   9.638   7.637   2.041
16608SOL    HW150074   9.558   7.594   2.072
16608SOL    HW250075   9.661   7.591   1.960
16609SOL     OW50076   6.173   9.045   6.873
16609SOL    HW150077   6.169   9.045   6.968
16609SOL    HW250078   6.260   9.009   6.853
16610SOL     OW50079  13.094  13.033   4.760
16610SOL    HW150080  13.180  13.058   4.794
16610SOL    HW250081  13.047  13.003   4.838
16611SOL     OW50082   6.351  11.372   1.585
16611SOL    HW150083   6.334  11.467   1.586
16611SOL    HW250084   6.281  11.335   1.637
16612SOL     OW50085  12.144  10.047   2.222
16612SOL    HW150086  12.186   9.985   2.162
16612SOL    HW250087  12.159  10.132   2.181
16613SOL     OW50088   8.429  12.000   2.013
16613SOL    HW150089   8.423  12.014   1.919
16613SOL    HW250090   8.463  12.082   2.048
16614SOL     OW50091   5.996   8.530   3.836
16614SOL    HW150092   5.901   8.519   3.825
16614SOL    HW250093   6.012   8.509   3.928
16615SOL     OW50094   3.513   2.431   3.338
16615SOL    HW150095   3.578   2.502   3.339
16615SOL    HW250096   3.478   2.431   3.249
16616SOL     OW50097  10.478   9.722   5.161
16616SOL    HW150098  10.414   9.670   5.209
16616SOL    HW250099  10.547   9.742   5.224
16617SOL     OW50100   3.006   6.501   0.595
16617SOL    HW150101   3.059   6.422   0.604
16617SOL    HW250102   3.016   6.548   0.678
16618SOL     OW50103   6.555  13.682   5.687
16618SOL    HW150104   6.524  13.606   5.735
16618SOL    HW250105   6.614  13.646   5.621
16619SOL     OW50106   9.366   7.089   3.686
16619SOL    HW150107   9.334   7.001   3.667
16619SOL    HW250108   9.419   7.080   3.765
16620SOL     OW50109   4.063   9.106   2.054
16620SOL    HW150110   3.972   9.136   2.056
16620SOL    HW250111   4.089   9.099   2.146
16621SOL     OW50112   3.239   7.067   4.474
16621SOL    HW150113   3.169   7.132   4.467
16621SOL    HW250114   3.298   7.103   4.540
16622SOL     OW50115   7.542   5.369   6.311
16622SOL    HW150116   7.601   5.327   6.248
16622SOL    HW250117   7.598   5.391   6.386
16623SOL     OW50118   7.175   9.283   6.367
16623SOL    HW150119   7.172   9.239   6.283
16623SOL    HW250120   7.181   9.212   6.431
16624SOL     OW50121  14.047  10.412   5.211
16624SOL    HW150122  13.955  10.403   5.237
16624SOL    HW250123  14.088  10.457   5.285
16625SOL     OW50124   3.483  11.290   3.330
16625SOL    HW150125   3.446  11.379   3.334
16625SOL    HW250126   3.477  11.258   3.421
16626SOL     OW50127  10.971   6.461   4.035
16626SOL    HW150128  10.972   6.542   3.983
16626SOL    HW250129  10.964   6.491   4.126
16627SOL     OW50130   8.065  11.122   2.044
16627SOL    HW150131   8.101  11.203   2.008
16627SOL    HW250132   7.986  11.106   1.992
16628SOL     OW50133  13.701   8.930   4.213
16628SOL    HW150134  13.753   8.880   4.276
16628SOL    HW250135  13.620   8.950   4.260
16629SOL     OW50136   8.479   7.182   2.293
16629SOL    HW150137   8.457   7.180   2.200
16629SOL    HW250138   8.558   7.129   2.299
16630SOL     OW50139  11.107   6.595   3.405
16630SOL    HW150140  11.129   6.679   3.363
16630SOL    HW250141  11.011   6.594   3.406
16631SOL     OW50142   6.261   8.498   6.549
16631SOL    HW150143   6.203   8.495   6.625
16631SOL    HW250144   6.208   8.539   6.480
16632SOL     OW50145  10.027   8.776   1.517
16632SOL    HW150146   9.962   8.844   1.499
16632SOL    HW250147   9.984   8.695   1.492
16633SOL     OW50148   2.585  11.109   2.145
16633SOL    HW150149   2.637  11.030   2.160
16633SOL    HW250150   2.606  11.166   2.219
16634SOL     OW50151   8.632  10.248   4.319
16634SOL    HW150152   8.681  10.304   4.378
16634SOL    HW250153   8.562  10.303   4.284
16635SOL     OW50154  11.008   1.989   2.542
16635SOL    HW150155  11.102   1.998   2.558
16635SOL    HW250156  10.978   1.928   2.609
16636SOL     OW50157  11.984  14.627   7.172
16636SOL    HW150158  11.900  14.598   7.136
16636SOL    HW250159  11.994  14.578   7.253
16637SOL     OW50160  13.194  12.831   5.896
16637SOL    HW150161  13.132  12.896   5.865
16637SOL    HW250162  13.274  12.848   5.847
16638SOL     OW50163   6.057   2.781   1.649
16638SOL    HW150164   6.082   2.850   1.588
16638SOL    HW250165   5.978   2.814   1.692
16639SOL     OW50166  13.706  11.324   4.263
16639SOL    HW150167  13.662  11.274   4.195
16639SOL    HW250168  13.678  11.415   4.248
16640SOL     OW50169   1.828  10.295   1.324
16640SOL    HW150170   1.798  10.204   1.330
16640SOL    HW250171   1.803  10.334   1.407
16641SOL     OW50172   9.000   1.211   1.682
16641SOL    HW150173   8.995   1.306   1.673
16641SOL    HW250174   9.013  11.972   1.776
16642SOL     OW50175   5.468   9.564   2.828
16642SOL    HW150176   5.484   9.478   2.867
16642SOL    HW250177   5.438   9.544   2.739
16643SOL     OW50178  14.218  14.397   6.021
16643SOL    HW150179  14.163  14.470   5.995
16643SOL    HW250180  14.293  14.438   6.064
16644SOL     OW50181   8.760   9.030   5.368
16644SOL    HW150182   8.667   9.012   5.363
16644SOL    HW250183   8.766   9.123   5.390
16645SOL     OW50184   6.186   6.712   3.002
16645SOL    HW150185   6.160   6.785   2.946
16645SOL    HW250186   6.269   6.740   3.040
16646SOL     OW50187   8.409  12.048   6.792
16646SOL    HW150188   8.486  12.027   6.843
16646SOL    HW250189   8.363  12.115   6.842
16647SOL     OW50190   4.392   9.358   0.222
16647SOL    HW150191   4.328   9.296   0.257
16647SOL    HW250192   4.350   9.396   0.145
16648SOL     OW50193  10.430  14.526   5.864
16648SOL    HW150194  10.365  14.581   5.907
16648SOL    HW250195  10.379  14.461   5.816
16649SOL     OW50196  13.126   4.295   3.981
16649SOL    HW150197  13.200   4.235   3.982
16649SOL    HW250198  13.058   4.250   4.032
16650SOL     OW50199  11.914   8.338   5.647
16650SOL    HW150200  11.886   8.282   5.574
16650SOL    HW250201  11.984   8.392   5.610
16651SOL     OW50202   9.739  14.613   6.994
16651SOL    HW150203   9.648  14.620   7.023
16651SOL    HW250204   9.752  14.520   6.979
16652SOL     OW50205   8.845  11.378   5.615
16652SOL    HW150206   8.786  11.435   5.663
16652SOL    HW250207   8.819  11.386   5.524
16653SOL     OW50208   6.708  13.322   4.495
16653SOL    HW150209   6.693  13.231   4.517
16653SOL    HW250210   6.702  13.369   4.578
16654SOL     OW50211   9.618   2.978   3.937
16654SOL    HW150212   9.583   3.065   3.919
16654SOL    HW250213   9.669   2.956   3.859
16655SOL     OW50214  13.941   9.060   6.470
16655SOL    HW150215  13.882   9.013   6.412
16655SOL    HW250216  13.989   9.120   6.412
16656SOL     OW50217  13.784  13.445   5.535
16656SOL    HW150218  13.753  13.365   5.578
16656SOL    HW250219  13.709  13.504   5.537
16657SOL     OW50220   8.796   9.144   6.300
16657SOL    HW150221   8.714   9.171   6.342
16657SOL    HW250222   8.863   9.198   6.342
16658SOL     OW50223  12.661   9.425   6.647
16658SOL    HW150224  12.601   9.499   6.652
16658SOL    HW250225  12.615   9.354   6.690
16659SOL     OW50226  11.736   7.755   2.985
16659SOL    HW150227  11.791   7.728   2.911
16659SOL    HW250228  11.658   7.792   2.944
16660SOL     OW50229  11.389  13.720   5.830
16660SOL    HW150230  11.403  13.808   5.864
16660SOL    HW250231  11.373  13.666   5.908
16661SOL     OW50232   5.386  12.812   6.657
16661SOL    HW150233   5.476  12.827   6.688
16661SOL    HW250234   5.388  12.840   6.565
16662SOL     OW50235   6.952  11.510   6.078
16662SOL    HW150236   7.002  11.457   6.016
16662SOL    HW250237   6.872  11.459   6.093
16663SOL     OW50238   7.375  10.221   4.412
16663SOL    HW150239   7.416  10.143   4.450
16663SOL    HW250240   7.399  10.217   4.319
16664SOL     OW50241   5.392  11.554   5.979
16664SOL    HW150242   5.418  11.607   6.054
16664SOL    HW250243   5.472  11.546   5.927
16665SOL     OW50244  11.659  14.032   6.131
16665SOL    HW150245  11.567  14.058   6.126
16665SOL    HW250246  11.708  14.107   6.097
16666SOL     OW50247   9.014   5.682   7.371
16666SOL    HW150248   9.063   5.718   7.446
16666SOL    HW250249   9.043   5.734   7.296
16667SOL     OW50250   4.780   1.965   0.478
16667SOL    HW150251   4.779   1.875   0.513
16667SOL    HW250252   4.844   2.011   0.532
16668SOL     OW50253  11.608   6.795   4.469
16668SOL    HW150254  11.580   6.770   4.381
16668SOL    HW250255  11.549   6.749   4.527
16669SOL     OW50256  11.371   5.665   6.543
16669SOL    HW150257  11.412   5.748   6.519
16669SOL    HW250258  11.291   5.690   6.590
16670SOL     OW50259  13.740   6.205   4.706
16670SOL    HW150260  13.649   6.181   4.687
16670SOL    HW250261  13.748   6.296   4.676
16671SOL     OW50262  12.916   3.269   3.253
16671SOL    HW150263  12.911   3.303   3.163
16671SOL    HW250264  13.008   3.248   3.265
16672SOL     OW50265   9.881   8.163   1.794
16672SOL    HW150266   9.798   8.150   1.750
16672SOL    HW250267   9.932   8.219   1.735
16673SOL     OW50268  12.010   6.238   2.629
16673SOL    HW150269  12.032   6.247   2.536
16673SOL    HW250270  11.986   6.326   2.656
16674SOL     OW50271  12.096   8.773   3.175
16674SOL    HW150272  12.169   8.713   3.162
16674SOL    HW250273  12.136   8.853   3.208
16675SOL     OW50274  13.680   3.969   5.293
16675SOL    HW150275  13.691   4.013   5.377
16675SOL    HW250276  13.682   3.876   5.315
16676SOL     OW50277  10.709   7.864   7.402
16676SOL    HW150278  10.626   7.884   7.445
16676SOL    HW250279  10.692   7.874   7.309
16677SOL     OW50280   9.246  11.904   3.362
16677SOL    HW150281   9.329  11.909   3.410
16677SOL    HW250282   9.197  11.835   3.407
16678SOL     OW50283   5.965   4.509   5.891
16678SOL    HW150284   6.010   4.576   5.943
16678SOL    HW250285   5.988   4.530   5.801
16679SOL     OW50286   9.718  15.110   6.749
16679SOL    HW150287   9.805  15.135   6.781
16679SOL    HW250288   9.730  15.100   6.655
16680SOL     OW50289   5.457  10.714   6.137
16680SOL    HW150290   5.445  10.623   6.165
16680SOL    HW250291   5.381  10.733   6.082
16681SOL     OW50292   3.920  11.768   5.066
16681SOL    HW150293   3.941  11.676   5.081
16681SOL    HW250294   3.964  11.815   5.136
16682SOL     OW50295   5.633   1.382   0.316
16682SOL    HW150296   5.667   1.459   0.360
16682SOL    HW250297   5.670   1.387   0.227
16683SOL     OW50298  12.652   4.246   5.915
16683SOL    HW150299  12.630  14.927   5.906
16683SOL    HW250300  12.708   4.264   5.839
16684SOL     OW50301   8.912  12.991   5.553
16684SOL    HW150302   8.948  13.075   5.583
16684SOL    HW250303   8.980  12.927   5.574
16685SOL     OW50304   1.890   5.121   1.184
16685SOL    HW150305   1.881   5.135   1.090
16685SOL    HW250306   1.802   5.102   1.214
16686SOL     OW50307  14.220  11.998   5.757
16686SOL    HW150308  14.249  12.027   5.844
16686SOL    HW250309  14.246  12.069   5.698
16687SOL     OW50310   9.253   8.641   1.291
16687SOL    HW150311   9.263   8.563   1.237
16687SOL    HW250312   9.264   8.609   1.381
16688SOL     OW50313   5.914   9.662   2.628
16688SOL    HW150314   5.836   9.675   2.575
16688SOL    HW250315   5.901   9.718   2.705
16689SOL     OW50316   8.852   6.752   4.183
16689SOL    HW150317   8.866   6.752   4.278
16689SOL    HW250318   8.793   6.678   4.167
16690SOL     OW50319   6.215   6.425   0.068
16690SOL    HW150320   6.192   6.512   0.035
16690SOL    HW250321   6.285   6.394   0.010
16691SOL     OW50322  12.690   6.209   7.026
16691SOL    HW150323  12.621   6.207   6.960
16691SOL    HW250324  12.646   6.235   7.107
16692SOL     OW50325  13.453  14.230   6.875
16692SOL    HW150326  13.536  14.221   6.922
16692SOL    HW250327  13.386  14.208   6.940
16693SOL     OW50328   7.161   7.146   4.239
16693SOL    HW150329   7.210   7.222   4.271
16693SOL    HW250330   7.154   7.159   4.144
16694SOL     OW50331   7.369  14.474   6.133
16694SOL    HW150332   7.402  14.525   6.207
16694SOL    HW250333   7.435  14.485   6.064
16695SOL     OW50334  13.244   7.228   3.830
16695SOL    HW150335  13.154   7.252   3.853
16695SOL    HW250336  13.242   7.219   3.735
16696SOL     OW50337   8.653   9.565   3.345
16696SOL    HW150338   8.596   9.591   3.418
16696SOL    HW250339   8.697   9.486   3.376
16697SOL     OW50340   4.539   7.620   4.482
16697SOL    HW150341   4.506   7.705   4.453
16697SOL    HW250342   4.596   7.590   4.411
16698SOL     OW50343   6.909   8.160   5.322
16698SOL    HW150344   6.869   8.240   5.355
16698SOL    HW250345   6.837   8.112   5.281
16699SOL     OW50346   8.237   3.044   2.506
16699SOL    HW150347   8.253   3.132   2.541
16699SOL    HW250348   8.168   3.057   2.440
16700SOL     OW50349   6.020   9.373   3.082
16700SOL    HW150350   6.039   9.391   3.174
16700SOL    HW250351   6.091   9.316   3.054
16701SOL     OW50352   8.315   7.557   7.600
16701SOL    HW150353   2.906   2.083   0.017
16701SOL    HW250354   2.860   2.228   0.016
16702SOL     OW50355  10.005   8.743   4.279
16702SOL    HW150356   9.929   8.788   4.316
16702SOL    HW250357  10.013   8.778   4.190
16703SOL     OW50358   6.905   6.641   3.878
16703SOL    HW150359   6.820   6.662   3.916
16703SOL    HW250360   6.951   6.725   3.871
16704SOL     OW50361  15.263  10.485   7.406
16704SOL    HW150362  15.196  10.447   7.463
16704SOL    HW250363  15.288  10.567   7.450
16705SOL     OW50364   4.808   2.413   1.687
16705SOL    HW150365   4.713   2.418   1.698
16705SOL    HW250366   4.823   2.434   1.595
16706SOL     OW50367  12.294   8.068   3.284
16706SOL    HW150368  12.368   8.102   3.234
16706SOL    HW250369  12.332   8.002   3.343
16707SOL     OW50370   0.962   2.051   0.477
16707SOL    HW150371   0.869   2.070   0.464
16707SOL    HW250372   0.989   2.109   0.549
16708SOL     OW50373   7.324   9.466   6.559
16708SOL    HW150374   7.243   9.490   6.604
16708SOL    HW250375   7.295   9.412   6.486
16709SOL     OW50376  10.707  10.743   3.900
16709SOL    HW150377  10.775  10.811   3.902
16709SOL    HW250378  10.753  10.662   3.922
16710SOL     OW50379  11.817   3.232   1.929
16710SOL    HW150380  11.877   3.276   1.989
16710SOL    HW250381  11.736   3.284   1.933
16711SOL     OW50382   6.557   6.896   6.269
16711SOL    HW150383   6.492   6.897   6.339
16711SOL    HW250384   6.509   6.865   6.192
16712SOL     OW50385   6.988   8.749   1.706
16712SOL    HW150386   6.908   8.723   1.752
16712SOL    HW250387   6.959   8.774   1.619
16713SOL     OW50388   8.901  13.808   5.560
16713SOL    HW150389   8.917  13.740   5.495
16713SOL    HW250390   8.975  13.801   5.620
16714SOL     OW50391   2.641   3.144   1.868
16714SOL    HW150392   2.548   3.144   1.892
16714SOL    HW250393   2.672   3.230   1.897
16715SOL     OW50394  12.793   4.425   3.775
16715SOL    HW150395  12.749   4.506   3.750
16715SOL    HW250396  12.772   4.413   3.868
16716SOL     OW50397   8.082   3.248   1.684
16716SOL    HW150398   8.158   3.307   1.687
16716SOL    HW250399   8.069   3.230   1.591
16717SOL     OW50400   8.426   9.040   1.376
16717SOL    HW150401   8.338   9.031   1.411
16717SOL    HW250402   8.473   8.964   1.409
16718SOL     OW50403   3.518   8.224   2.434
16718SOL    HW150404   3.513   8.290   2.503
16718SOL    HW250405   3.429   8.191   2.426
16719SOL     OW50406  12.078  12.133   4.575
16719SOL    HW150407  12.095  12.176   4.658
16719SOL    HW250408  12.063  12.041   4.598
16720SOL     OW50409  10.180   4.882   6.130
16720SOL    HW150410  10.143   4.968   6.149
16720SOL    HW250411  10.104   4.827   6.109
16721SOL     OW50412   8.796   4.401   5.316
16721SOL    HW150413   8.766   4.484   5.353
16721SOL    HW250414   8.725   4.374   5.257
16722SOL     OW50415   2.260   8.732   2.058
16722SOL    HW150416   2.239   8.799   2.123
16722SOL    HW250417   2.231   8.650   2.098
16723SOL     OW50418   3.333   9.950   4.699
16723SOL    HW150419  14.083   9.966   4.790
16723SOL    HW250420   3.410  10.005   4.685
16724SOL     OW50421  12.111   3.550   3.433
16724SOL    HW150422  12.030   3.525   3.388
16724SOL    HW250423  12.149   3.468   3.462
16725SOL     OW50424  10.267   3.342   0.367
16725SOL    HW150425  10.198   3.338   0.301
16725SOL    HW250426  10.309   3.427   0.353
16726SOL     OW50427   6.820   3.417   3.624
16726SOL    HW150428   6.902   3.371   3.608
16726SOL    HW250429   6.811   3.478   3.551
16727SOL     OW50430   9.107   3.437   2.953
16727SOL    HW150431   9.190   3.424   2.908
16727SOL    HW250432   9.042   3.442   2.883
16728SOL     OW50433   8.764  10.258   4.008
16728SOL    HW150434   8.820  10.316   3.956
16728SOL    HW250435   8.731  10.314   4.079
16729SOL     OW50436   7.786   4.124   2.519
16729SOL    HW150437   7.795   4.167   2.434
16729SOL    HW250438   7.788   4.031   2.499
16730SOL     OW50439   7.358  10.219   2.830
16730SOL    HW150440   7.425  10.260   2.885
16730SOL    HW250441   7.290  10.192   2.891
16731SOL     OW50442   6.824   1.213   1.602
16731SOL    HW150443   6.784   1.195   1.517
16731SOL    HW250444   6.825  11.903   1.646
16732SOL     OW50445   9.962   6.714   5.917
16732SOL    HW150446   9.955   6.702   5.822
16732SOL    HW250447  10.056   6.721   5.933
16733SOL     OW50448   1.734   6.891   1.908
16733SOL    HW150449   1.794   6.877   1.835
16733SOL    HW250450   1.731   6.986   1.918
16734SOL     OW50451   7.935   3.839   3.956
16734SOL    HW150452   7.841   3.860   3.955
16734SOL    HW250453   7.944   3.765   3.895
16735SOL     OW50454   7.050   9.949   6.820
16735SOL    HW150455   7.028   9.866   6.778
16735SOL    HW250456   7.114   9.926   6.887
16736SOL     OW50457   6.089   3.615   0.022
16736SOL    HW150458  11.512   8.939   7.579
16736SOL    HW250459  11.473   9.084   7.592
16737SOL     OW50460  10.851  12.054   5.207
16737SOL    HW150461  10.762  12.048   5.174
16737SOL    HW250462  10.871  12.147   5.209
16738SOL     OW50463   8.068   5.201   4.096
16738SOL    HW150464   8.069   5.296   4.101
16738SOL    HW250465   8.151   5.178   4.055
16739SOL     OW50466   2.387   5.093   2.768
16739SOL    HW150467   2.293   5.105   2.781
16739SOL    HW250468   2.427   5.147   2.836
16740SOL     OW50469   8.746   4.846   0.453
16740SOL    HW150470   8.676   4.900   0.490
16740SOL    HW250471   8.796   4.815   0.528
16741SOL     OW50472  11.311   7.347   4.659
16741SOL    HW150473  11.395   7.302   4.651
16741SOL    HW250474  11.333   7.440   4.650
16742SOL     OW50475  10.660  11.975   7.151
16742SOL    HW150476  10.695  12.048   7.201
16742SOL    HW250477  10.573  12.005   7.123
16743SOL     OW50478  11.195   9.620   2.130
16743SOL    HW150479  11.164   9.702   2.091
16743SOL    HW250480  11.178   9.554   2.062
16744SOL     OW50481   6.282   4.579   0.799
16744SOL    HW150482   6.307   4.509   0.860
16744SOL    HW250483   6.354   4.584   0.737
16745SOL     OW50484  12.766   9.246   4.579
16745SOL    HW150485  12.736   9.180   4.516
16745SOL    HW250486  12.744   9.208   4.664
16746SOL     OW50487  10.432   5.693   5.066
16746SOL    HW150488  10.373   5.704   4.992
16746SOL    HW250489  10.465   5.781   5.085
16747SOL     OW50490   7.531   7.261   5.275
16747SOL    HW150491   7.448   7.226   5.308
16747SOL    HW250492   7.512   7.285   5.184
16748SOL     OW50493  10.494   6.206   4.918
16748SOL    HW150494  10.576   6.213   4.869
16748SOL    HW250495  10.441   6.144   4.868
16749SOL     OW50496  13.734  10.454   6.282
16749SOL    HW150497  13.675  10.529   6.290
16749SOL    HW250498  13.679  10.382   6.252
16750SOL     OW50499  11.313  10.804   0.957
16750SOL    HW150500  11.397  10.762   0.976
16750SOL    HW250501  11.251  10.731   0.950
16751SOL     OW50502   1.804   9.452   0.122
16751SOL    HW150503   1.722   9.407   0.145
16751SOL    HW250504   1.787   9.488   0.035
16752SOL     OW50505  12.893   9.905   4.681
16752SOL    HW150506  12.917   9.996   4.663
16752SOL    HW250507  12.941   9.883   4.762
16753SOL     OW50508   3.131   3.500   0.137
16753SOL    HW150509   3.046   3.544   0.136
16753SOL    HW250510   3.111   3.410   0.162
16754SOL     OW50511   9.570   5.342   3.748
16754SOL    HW150512   9.539   5.328   3.658
16754SOL    HW250513   9.636   5.411   3.740
16755SOL     OW50514  11.259  11.579   5.630
16755SOL    HW150515  11.269  11.625   5.714
16755SOL    HW250516  11.348  11.554   5.606
16756SOL     OW50517  14.165  13.928   6.140
16756SOL    HW150518  14.177  14.014   6.181
16756SOL    HW250519  14.230  13.872   6.183
16757SOL     OW50520  12.106   9.412   6.298
16757SOL    HW150521  12.095   9.507   6.301
16757SOL    HW250522  12.178   9.395   6.359
16758SOL     OW50523   3.618   4.891   0.075
16758SOL    HW150524   3.655   4.976   0.052
16758SOL    HW250525   3.552   4.910   0.141
16759SOL     OW50526   3.361  12.049   1.968
16759SOL    HW150527   3.450  12.065   1.936
16759SOL    HW250528   3.371  11.982   2.036
16760SOL     OW50529  10.044   9.016   6.145
16760SOL    HW150530  10.059   9.000   6.052
16760SOL    HW250531   9.955   9.049   6.149
16761SOL     OW50532   9.784   7.670   2.886
16761SOL    HW150533   9.868   7.653   2.928
16761SOL    HW250534   9.723   7.683   2.958
16762SOL     OW50535  11.041   5.719   3.532
16762SOL    HW150536  11.060   5.696   3.623
16762SOL    HW250537  10.956   5.763   3.536
16763SOL     OW50538  10.897   6.945   1.150
16763SOL    HW150539  10.853   7.023   1.115
16763SOL    HW250540  10.846   6.872   1.115
16764SOL     OW50541   8.035   4.907   1.064
16764SOL    HW150542   8.074   4.963   1.132
16764SOL    HW250543   8.103   4.899   0.998
16765SOL     OW50544   5.001   5.461   1.794
16765SOL    HW150545   4.914   5.474   1.832
16765SOL    HW250546   5.006   5.522   1.721
16766SOL     OW50547   3.870   6.389   3.256
16766SOL    HW150548   3.937   6.386   3.188
16766SOL    HW250549   3.900   6.326   3.322
16767SOL     OW50550   8.757   8.993   2.888
16767SOL    HW150551   8.806   9.056   2.835
16767SOL    HW250552   8.666   9.005   2.861
16768SOL     OW50553   6.920  11.636   2.503
16768SOL    HW150554   7.011  11.654   2.481
16768SOL    HW250555   6.888  11.582   2.431
16769SOL     OW50556  10.779  13.700   6.198
16769SOL    HW150557  10.836  13.768   6.160
16769SOL    HW250558  10.828  13.619   6.187
16770SOL     OW50559   9.528   7.258   0.605
16770SOL    HW150560   9.433   7.243   0.607
16770SOL    HW250561   9.565   7.170   0.610
16771SOL     OW50562  10.725  10.146   7.350
16771SOL    HW150563  10.710  10.138   7.256
16771SOL    HW250564  10.667  10.081   7.390
16772SOL     OW50565   2.225   6.237   1.371
16772SOL    HW150566   2.299   6.238   1.310
16772SOL    HW250567   2.266   6.238   1.458
16773SOL     OW50568   3.855   4.016   4.789
16773SOL    HW150569   3.827   4.078   4.722
16773SOL    HW250570   3.814   3.934   4.764
16774SOL     OW50571  13.979   5.823   5.601
16774SOL    HW150572  14.045   5.837   5.533
16774SOL    HW250573  13.896   5.846   5.559
16775SOL     OW50574   8.701   4.465   2.294
16775SOL    HW150575   8.743   4.500   2.372
16775SOL    HW250576   8.703   4.538   2.231
16776SOL     OW50577   3.939   7.003   3.138
16776SOL    HW150578   4.013   7.064   3.135
16776SOL    HW250579   3.955   6.949   3.215
16777SOL     OW50580   5.037  11.748   1.757
16777SOL    HW150581   5.050  11.826   1.703
16777SOL    HW250582   4.987  11.780   1.833
16778SOL     OW50583   5.704   8.973   4.297
16778SOL    HW150584   5.702   9.045   4.361
16778SOL    HW250585   5.659   9.008   4.221
16779SOL     OW50586   8.828   5.069   0.787
16779SOL    HW150587   8.861   4.981   0.806
16779SOL    HW250588   8.846   5.119   0.866
16780SOL     OW50589   7.460   8.271   1.990
16780SOL    HW150590   7.390   8.310   2.043
16780SOL    HW250591   7.445   8.304   1.902
16781SOL     OW50592   5.353   6.331   0.667
16781SOL    HW150593   5.417   6.281   0.717
16781SOL    HW250594   5.405   6.393   0.615
16782SOL     OW50595   5.723  10.836   1.410
16782SOL    HW150596   5.709  10.887   1.331
16782SOL    HW250597   5.635  10.817   1.443
16783SOL     OW50598  11.574   6.705   2.738
16783SOL    HW150599  11.638   6.777   2.740
16783SOL    HW250600  11.548   6.694   2.829
16784SOL     OW50601   9.752  13.519   4.473
16784SOL    HW150602   9.772  13.435   4.515
16784SOL    HW250603   9.755  13.583   4.544
16785SOL     OW50604  13.699  13.614   7.424
16785SOL    HW150605  13.689  13.527   7.463
16785SOL    HW250606  13.629  13.667   7.464
16786SOL     OW50607   8.755   6.168   6.776
16786SOL    HW150608   8.758   6.099   6.843
16786SOL    HW250609   8.834   6.152   6.724
16787SOL     OW50610   5.935  12.355   6.235
16787SOL    HW150611   5.995  12.419   6.273
16787SOL    HW250612   5.848  12.391   6.254
16788SOL     OW50613   7.144   3.416   0.414
16788SOL    HW150614   7.053   3.393   0.431
16788SOL    HW250615   7.194   3.360   0.474
16789SOL     OW50616   7.721  10.934   3.170
16789SOL    HW150617   7.703  10.871   3.101
16789SOL    HW250618   7.781  10.997   3.130
16790SOL     OW50619   1.951  10.659   2.139
16790SOL    HW150620   1.985  10.732   2.190
16790SOL    HW250621   1.986  10.581   2.182
16791SOL     OW50622   9.546   9.112   6.775
16791SOL    HW150623   9.558   9.207   6.779
16791SOL    HW250624   9.582   9.079   6.858
16792SOL     OW50625  11.101  10.005   6.402
16792SOL    HW150626  11.010  10.036   6.399
16792SOL    HW250627  11.130  10.026   6.491
16793SOL     OW50628   5.903   5.131   5.180
16793SOL    HW150629   5.808   5.131   5.185
16793SOL    HW250630   5.930   5.057   5.234
16794SOL     OW50631  15.017   8.229   6.465
16794SOL    HW150632  15.045   8.309   6.510
16794SOL    HW250633  15.098   8.180   6.451
16795SOL     OW50634   5.226   7.696   1.259
16795SOL    HW150635   5.231   7.630   1.189
16795SOL    HW250636   5.162   7.760   1.228
16796SOL     OW50637   4.287   1.726   1.185
16796SOL    HW150638   4.215   1.665   1.200
16796SOL    HW250639   4.289   1.739   1.090
16797SOL     OW50640  11.333  10.046   3.395
16797SOL    HW150641  11.252  10.083   3.432
16797SOL    HW250642  11.347   9.966   3.445
16798SOL     OW50643   3.304  11.750   3.247
16798SOL    HW150644   3.323  11.836   3.209
16798SOL    HW250645   3.337  11.687   3.182
16799SOL     OW50646   6.606  11.531   1.244
16799SOL    HW150647   6.689  11.570   1.218
16799SOL    HW250648   6.624  11.492   1.330
16800SOL     OW50649  13.543  12.067   5.486
16800SOL    HW150650  13.626  12.098   5.520
16800SOL    HW250651  13.492  12.043   5.563
16801SOL     OW50652  10.691   2.303   0.943
16801SOL    HW150653  10.599   2.328   0.948
16801SOL    HW250654  10.737   2.384   0.920
16802SOL     OW50655   4.353  12.248   4.520
16802SOL    HW150656   4.283  12.185   4.535
16802SOL    HW250657   4.429  12.195   4.498
16803SOL     OW50658   4.023   8.552   4.649
16803SOL    HW150659   4.080   8.533   4.574
16803SOL    HW250660   4.080   8.539   4.725
16804SOL     OW50661   3.671   3.645   3.017
16804SOL    HW150662   3.659   3.652   3.112
16804SOL    HW250663   3.589   3.677   2.980
16805SOL     OW50664   5.547   9.108   4.784
16805SOL    HW150665   5.458   9.143   4.791
16805SOL    HW250666   5.536   9.020   4.749
16806SOL     OW50667   6.597   4.774   5.109
16806SOL    HW150668   6.591   4.797   5.201
16806SOL    HW250669   6.689   4.789   5.087
16807SOL     OW50670   8.263   6.938   0.104
16807SOL    HW150671   8.312   6.856   0.099
16807SOL    HW250672   8.200   6.933   0.032
16808SOL     OW50673  10.450  10.629   6.788
16808SOL    HW150674  10.406  10.576   6.854
16808SOL    HW250675  10.541  10.601   6.792
16809SOL     OW50676  14.282   6.641   5.788
16809SOL    HW150677  14.223   6.717   5.782
16809SOL    HW250678  14.275   6.599   5.703
16810SOL     OW50679   8.667   5.651   5.637
16810SOL    HW150680   8.625   5.566   5.648
16810SOL    HW250681   8.625   5.707   5.701
16811SOL     OW50682  10.783  13.484   4.053
16811SOL    HW150683  10.790  13.539   3.974
16811SOL    HW250684  10.710  13.522   4.101
16812SOL     OW50685   7.348  12.287   4.642
16812SOL    HW150686   7.382  12.214   4.694
16812SOL    HW250687   7.319  12.246   4.560
16813SOL     OW50688  13.769   5.243   5.675
16813SOL    HW150689  13.739   5.280   5.592
16813SOL    HW250690  13.862   5.265   5.679
16814SOL     OW50691   0.458   4.475   0.257
16814SOL    HW150692   0.501   4.556   0.229
16814SOL    HW250693   0.396   4.455   0.187
16815SOL     OW50694   7.658  11.709   2.403
16815SOL    HW150695   7.586  11.769   2.381
16815SOL    HW250696   7.615  11.636   2.446
16816SOL     OW50697  12.525  13.910   5.483
16816SOL    HW150698  12.599  13.902   5.543
16816SOL    HW250699  12.530  13.832   5.427
16817SOL     OW50700  13.921   8.391   5.434
16817SOL    HW150701  13.924   8.407   5.339
16817SOL    HW250702  13.990   8.445   5.470
16818SOL     OW50703  11.253   4.171   3.395
16818SOL    HW150704  11.187   4.221   3.442
16818SOL    HW250705  11.320   4.152   3.460
16819SOL     OW50706   4.533  13.269   4.083
16819SOL    HW150707   4.544  13.221   4.165
16819SOL    HW250708   4.618  13.311   4.068
16820SOL     OW50709   3.465   2.365   2.310
16820SOL    HW150710   3.490   2.419   2.385
16820SOL    HW250711   3.369   2.367   2.310
16821SOL     OW50712   4.900  12.103   3.729
16821SOL    HW150713   4.844  12.037   3.770
16821SOL    HW250714   4.962  12.128   3.798
16822SOL     OW50715   7.665   8.650   6.664
16822SOL    HW150716   7.612   8.714   6.617
16822SOL    HW250717   7.708   8.701   6.733
16823SOL     OW50718   7.351   5.098   4.920
16823SOL    HW150719   7.397   5.181   4.907
16823SOL    HW250720   7.405   5.034   4.873
16824SOL     OW50721   7.280  12.341   3.662
16824SOL    HW150722   7.305  12.433   3.658
16824SOL    HW250723   7.185  12.342   3.659
16825SOL     OW50724  12.073   4.092   4.595
16825SOL    HW150725  12.024   4.061   4.671
16825SOL    HW250726  12.010   4.141   4.543
16826SOL     OW50727   3.576   3.197   2.486
16826SOL    HW150728   3.623   3.256   2.426
16826SOL    HW250729   3.484   3.221   2.475
16827SOL     OW50730  13.595   7.222   6.731
16827SOL    HW150731  13.596   7.137   6.776
16827SOL    HW250732  13.666   7.271   6.771
16828SOL     OW50733  12.148   9.389   7.535
16828SOL    HW150734  12.128   9.345   7.617
16828SOL    HW250735  12.244   9.398   7.536
16829SOL     OW50736  14.107  11.152   4.844
16829SOL    HW150737  14.115  11.112   4.930
16829SOL    HW250738  14.145  11.087   4.784
16830SOL     OW50739  12.113  12.239   5.103
16830SOL    HW150740  12.036  12.215   5.052
16830SOL    HW250741  12.176  12.271   5.038
16831SOL     OW50742   5.549  14.350   6.770
16831SOL    HW150743   5.519  14.338   6.860
16831SOL    HW250744   5.518  14.438   6.747
16832SOL     OW50745   9.140   5.328   2.742
16832SOL    HW150746   9.073   5.394   2.725
16832SOL    HW250747   9.211   5.350   2.682
16833SOL     OW50748   7.151  12.691   6.858
16833SOL    HW150749   7.089  12.660   6.924
16833SOL    HW250750   7.118  12.655   6.775
16834SOL     OW50751   9.035   4.495   5.498
16834SOL    HW150752   9.051   4.405   5.524
16834SOL    HW250753   9.026   4.491   5.403
16835SOL     OW50754   3.012   7.227   1.020
16835SOL    HW150755   2.954   7.196   0.950
16835SOL    HW250756   2.955   7.234   1.096
16836SOL     OW50757   1.610   9.419   1.002
16836SOL    HW150758   1.664   9.341   1.015
16836SOL    HW250759   1.532   9.387   0.957
16837SOL     OW50760   4.451   8.742   4.584
16837SOL    HW150761   4.509   8.719   4.512
16837SOL    HW250762   4.438   8.659   4.631
16838SOL     OW50763   4.617   2.401   2.148
16838SOL    HW150764   4.660   2.470   2.098
16838SOL    HW250765   4.552   2.448   2.201
16839SOL     OW50766  12.035  13.847   6.818
16839SOL    HW150767  12.063  13.880   6.733
16839SOL    HW250768  11.979  13.916   6.854
16840SOL     OW50769  14.514  12.176   6.863
16840SOL    HW150770  14.492  12.131   6.944
16840SOL    HW250771  14.516  12.269   6.886
16841SOL     OW50772   9.006   7.614   3.911
16841SOL    HW150773   8.974   7.583   3.826
16841SOL    HW250774   9.086   7.564   3.927
16842SOL     OW50775   2.445   5.486   0.404
16842SOL    HW150776   2.404   5.572   0.416
16842SOL    HW250777   2.373   5.428   0.382
16843SOL     OW50778  13.559   6.426   6.186
16843SOL    HW150779  13.614   6.359   6.226
16843SOL    HW250780  13.508   6.462   6.258
16844SOL     OW50781   5.852   7.600   3.981
16844SOL    HW150782   5.918   7.669   3.981
16844SOL    HW250783   5.896   7.525   4.020
16845SOL     OW50784   8.690   0.721   0.001
16845SOL    HW150785  14.027   6.094   7.540
16845SOL    HW250786  14.148   6.043   7.616
16846SOL     OW50787   2.674  10.999   1.184
16846SOL    HW150788   2.682  11.093   1.174
16846SOL    HW250789   2.620  10.971   1.110
16847SOL     OW50790  15.364   8.544   6.676
16847SOL    HW150791  15.396   8.593   6.600
16847SOL    HW250792  15.424   8.470   6.683
16848SOL     OW50793   3.666  14.026   5.124
16848SOL    HW150794   3.720  13.980   5.059
16848SOL    HW250795   3.709  14.112   5.133
16849SOL     OW50796  12.088   7.267   6.172
16849SOL    HW150797  12.023   7.277   6.242
16849SOL    HW250798  12.082   7.349   6.122
16850SOL     OW50799   4.828  11.255   4.866
16850SOL    HW150800   4.815  11.207   4.948
16850SOL    HW250801   4.904  11.311   4.883
16851SOL     OW50802   8.689   1.820   0.329
16851SOL    HW150803   8.725   1.847   0.413
16851SOL    HW250804   8.630   1.891   0.303
16852SOL     OW50805   9.232   6.549   0.792
16852SOL    HW150806   9.237   6.575   0.700
16852SOL    HW250807   9.206   6.457   0.790
16853SOL     OW50808   2.404   1.321   0.117
16853SOL    HW150809   2.454   1.246   0.150
16853SOL    HW250810   2.324   1.283   0.080
16854SOL     OW50811   7.084  10.711   5.999
16854SOL    HW150812   6.997  10.740   5.972
16854SOL    HW250813   7.068  10.660   6.079
16855SOL     OW50814   5.161   8.352   3.003
16855SOL    HW150815   5.188   8.412   2.933
16855SOL    HW250816   5.146   8.269   2.959
16856SOL     OW50817   3.232   6.712   2.565
16856SOL    HW150818   3.208   6.709   2.472
16856SOL    HW250819   3.321   6.677   2.567
16857SOL     OW50820  14.680  14.125   7.157
16857SOL    HW150821  14.720  14.157   7.238
16857SOL    HW250822  14.624  14.197   7.127
16858SOL     OW50823   5.045   8.115   2.885
16858SOL    HW150824   4.969   8.146   2.837
16858SOL    HW250825   5.009   8.055   2.950
16859SOL     OW50826   6.308  12.128   6.909
16859SOL    HW150827   6.371  12.079   6.856
16859SOL    HW250828   6.256  12.177   6.845
16860SOL     OW50829  12.393   9.173   3.132
16860SOL    HW150830  12.300   9.156   3.117
16860SOL    HW250831  12.396   9.219   3.216
16861SOL     OW50832   6.604   2.933   3.446
16861SOL    HW150833   6.522   2.888   3.425
16861SOL    HW250834   6.593   2.963   3.536
16862SOL     OW50835   7.944   6.208   2.722
16862SOL    HW150836   7.911   6.159   2.647
16862SOL    HW250837   8.033   6.175   2.735
16863SOL     OW50838   5.464  13.197   5.333
16863SOL    HW150839   5.376  13.178   5.365
16863SOL    HW250840   5.454  13.277   5.281
16864SOL     OW50841  13.932  12.815   5.244
16864SOL    HW150842  14.003  12.868   5.206
16864SOL    HW250843  13.855  12.872   5.240
16865SOL     OW50844  11.001   4.563   4.683
16865SOL    HW150845  10.922   4.509   4.673
16865SOL    HW250846  11.073   4.504   4.659
16866SOL     OW50847   7.861   4.639   3.723
16866SOL    HW150848   7.834   4.649   3.632
16866SOL    HW250849   7.840   4.723   3.764
16867SOL     OW50850  11.602   3.715   3.179
16867SOL    HW150851  11.575   3.785   3.118
16867SOL    HW250852  11.655   3.656   3.126
16868SOL     OW50853   5.274   9.221   6.018
16868SOL    HW150854   5.356   9.250   5.979
16868SOL    HW250855   5.233   9.302   6.049
16869SOL     OW50856   7.821   0.374   0.182
16869SOL    HW150857   7.894   0.394   0.123
16869SOL    HW250858   7.819   0.447   0.244
16870SOL     OW50859  10.717   3.226   0.796
16870SOL    HW150860  10.713   3.131   0.794
16870SOL    HW250861  10.639   3.253   0.845
16871SOL     OW50862  11.126  10.470   1.476
16871SOL    HW150863  11.143  10.545   1.533
16871SOL    HW250864  11.197  10.471   1.413
16872SOL     OW50865   7.595   7.464   4.135
16872SOL    HW150866   7.529   7.533   4.142
16872SOL    HW250867   7.546   7.385   4.111
16873SOL     OW50868   5.797   4.800   4.178
16873SOL    HW150869   5.742   4.805   4.256
16873SOL    HW250870   5.842   4.716   4.186
16874SOL     OW50871  10.020   4.057   4.899
16874SOL    HW150872  10.031   4.124   4.832
16874SOL    HW250873  10.067   4.091   4.975
16875SOL     OW50874   4.855   9.695   2.818
16875SOL    HW150875   4.762   9.687   2.799
16875SOL    HW250876   4.865   9.662   2.907
16876SOL     OW50877   7.305   1.686   1.562
16876SOL    HW150878   7.225   1.643   1.531
16876SOL    HW250879   7.281   1.779   1.568
16877SOL     OW50880  11.766   9.932   2.298
16877SOL    HW150881  11.818   9.936   2.217
16877SOL    HW250882  11.707   9.859   2.286
16878SOL     OW50883   9.534   9.717   6.249
16878SOL    HW150884   9.560   9.643   6.305
16878SOL    HW250885   9.461   9.683   6.197
16879SOL     OW50886  15.267   9.684   7.446
16879SOL    HW150887  15.250   9.591   7.428
16879SOL    HW250888  15.313   9.683   7.530
16880SOL     OW50889  13.530  13.711   6.890
16880SOL    HW150890  13.452  13.704   6.835
16880SOL    HW250891  13.555  13.803   6.883
16881SOL     OW50892   3.251   4.999   2.147
16881SOL    HW150893   3.291   4.948   2.218
16881SOL    HW250894   3.321   5.013   2.084
16882SOL     OW50895  14.052   5.069   6.807
16882SOL    HW150896  14.118   5.124   6.764
16882SOL    HW250897  13.980   5.129   6.828
16883SOL     OW50898   9.263  13.145   4.068
16883SOL    HW150899   9.181  13.096   4.058
16883SOL    HW250900   9.319  13.111   3.999
16884SOL     OW50901  10.863   5.837   3.273
16884SOL    HW150902  10.837   5.847   3.365
16884SOL    HW250903  10.842   5.745   3.253
16885SOL     OW50904  15.757  15.605   7.080
16885SOL    HW150905  15.692  15.659   7.126
16885SOL    HW250906   5.058  15.602   7.139
16886SOL     OW50907   5.801   9.258   4.083
16886SOL    HW150908   5.824   9.317   4.011
16886SOL    HW250909   5.882   9.209   4.101
16887SOL     OW50910  13.852   4.973   5.081
16887SOL    HW150911  13.831   4.940   4.994
16887SOL    HW250912  13.827   5.065   5.079
16888SOL     OW50913  10.080  11.053   5.283
16888SOL    HW150914  10.005  11.112   5.288
16888SOL    HW250915  10.103  11.051   5.190
16889SOL     OW50916   4.480  13.844   4.663
16889SOL    HW150917   4.524  13.789   4.598
16889SOL    HW250918   4.549  13.898   4.700
16890SOL     OW50919   6.255   8.811   1.519
16890SOL    HW150920   6.161   8.810   1.536
16890SOL    HW250921   6.262   8.830   1.425
16891SOL     OW50922   1.926   8.850   0.601
16891SOL    HW150923   1.856   8.916   0.598
16891SOL    HW250924   1.907   8.792   0.527
16892SOL     OW50925  13.825  10.281   5.935
16892SOL    HW150926  13.760  10.348   5.955
16892SOL    HW250927  13.787  10.230   5.864
16893SOL     OW50928  15.205  11.340   7.560
16893SOL    HW150929  15.157  11.356   7.479
16893SOL    HW250930  15.144  11.289   7.614
16894SOL     OW50931   4.155   7.276   1.581
16894SOL    HW150932   4.081   7.239   1.532
16894SOL    HW250933   4.121   7.288   1.670
16895SOL     OW50934  11.436   9.269   3.881
16895SOL    HW150935  11.378   9.283   3.956
16895SOL    HW250936  11.395   9.198   3.832
16896SOL     OW50937   9.005   3.592   4.526
16896SOL    HW150938   9.018   3.541   4.446
16896SOL    HW250939   8.968   3.530   4.589
16897SOL     OW50940   2.657   3.115   0.731
16897SOL    HW150941   2.573   3.124   0.776
16897SOL    HW250942   2.720   3.154   0.790
16898SOL     OW50943   5.882   3.585   1.923
16898SOL    HW150944   5.865   3.550   2.011
16898SOL    HW250945   5.816   3.652   1.910
16899SOL     OW50946   4.596  10.955   3.206
16899SOL    HW150947   4.660  11.010   3.249
16899SOL    HW250948   4.512  10.997   3.223
16900SOL     OW50949   5.000   1.979   2.521
16900SOL    HW150950   5.028   2.071   2.522
16900SOL    HW250951   4.990   1.959   2.428
16901SOL     OW50952  11.204   9.957   4.802
16901SOL    HW150953  11.180  10.048   4.821
16901SOL    HW250954  11.297   9.952   4.826
16902SOL     OW50955   7.002   6.806   5.966
16902SOL    HW150956   7.046   6.729   6.002
16902SOL    HW250957   6.925   6.819   6.022
16903SOL     OW50958   8.251  13.532   6.447
16903SOL    HW150959   8.212  13.502   6.530
16903SOL    HW250960   8.345  13.535   6.465
16904SOL     OW50961   1.914   3.565   2.662
16904SOL    HW150962  12.673   3.651   2.701
16904SOL    HW250963  12.612   3.513   2.686
16905SOL     OW50964  10.613   4.234   5.476
16905SOL    HW150965  10.690   4.180   5.460
16905SOL    HW250966  10.625   4.268   5.564
16906SOL     OW50967   6.904   7.338   0.287
16906SOL    HW150968   6.853   7.291   0.221
16906SOL    HW250969   6.991   7.297   0.284
16907SOL     OW50970   4.334   5.968   5.415
16907SOL    HW150971   4.429   5.980   5.420
16907SOL    HW250972   4.320   5.910   5.340
16908SOL     OW50973  12.253   5.994   7.144
16908SOL    HW150974  12.263   5.936   7.219
16908SOL    HW250975  12.158   6.003   7.133
16909SOL     OW50976  11.290   7.970   2.340
16909SOL    HW150977  11.203   8.008   2.354
16909SOL    HW250978  11.340   8.039   2.297
16910SOL     OW50979   8.257   3.222   1.962
16910SOL    HW150980   8.200   3.195   2.033
16910SOL    HW250981   8.233   3.166   1.888
16911SOL     OW50982  10.667   8.795   5.126
16911SOL    HW150983  10.581   8.751   5.122
16911SOL    HW250984  10.658   8.870   5.068
16912SOL     OW50985   3.961  10.132   1.386
16912SOL    HW150986   4.030  10.166   1.329
16912SOL    HW250987   3.969  10.182   1.467
16913SOL     OW50988  13.699   8.140   4.155
16913SOL    HW150989   3.000   8.186   4.189
16913SOL    HW250990  13.636   8.139   4.227
16914SOL     OW50991   9.196   5.538   4.482
16914SOL    HW150992   9.239   5.480   4.419
16914SOL    HW250993   9.267   5.571   4.538
16915SOL     OW50994  15.256  14.929   6.485
16915SOL    HW150995  15.351  14.932   6.494
16915SOL    HW250996  15.224  14.896   6.569
16916SOL     OW50997   8.866   3.487   2.669
16916SOL    HW150998   8.815   3.564   2.643
16916SOL    HW250999   8.902   3.453   2.587
16917SOL     OW51000   9.142  10.003   0.987
16917SOL    HW151001   9.162   9.971   0.899
16917SOL    HW251002   9.186   9.941   1.045
16918SOL     OW51003   6.558  11.861   2.472
16918SOL    HW151004   6.554  11.802   2.547
16918SOL    HW251005   6.652  11.878   2.460
16919SOL     OW51006   9.533   2.851   3.193
16919SOL    HW151007   9.496   2.935   3.221
16919SOL    HW251008   9.470   2.786   3.225
16920SOL     OW51009  11.443   4.370   1.254
16920SOL    HW151010  11.379   4.358   1.325
16920SOL    HW251011  11.399   4.429   1.192
16921SOL     OW51012   8.739  13.097   6.997
16921SOL    HW151013   8.719  13.004   6.992
16921SOL    HW251014   8.716  13.131   6.911
16922SOL     OW51015   7.651   5.080   6.621
16922SOL    HW151016   7.591   5.069   6.695
16922SOL    HW251017   7.665   5.174   6.614
16923SOL     OW51018  10.206   9.844   0.675
16923SOL    HW151019  10.261   9.787   0.729
16923SOL    HW251020  10.254   9.927   0.670
16924SOL     OW51021   7.064   5.742   3.913
16924SOL    HW151022   7.112   5.825   3.919
16924SOL    HW251023   7.062   5.709   4.002
16925SOL     OW51024   7.461   4.013   3.509
16925SOL    HW151025   7.439   3.986   3.598
16925SOL    HW251026   7.557   4.014   3.507
16926SOL     OW51027   7.812   7.853   5.485
16926SOL    HW151028   7.826   7.810   5.569
16926SOL    HW251029   7.743   7.803   5.443
16927SOL     OW51030   4.514  10.466   2.813
16927SOL    HW151031   4.521  10.409   2.890
16927SOL    HW251032   4.443  10.428   2.762
16928SOL     OW51033   9.460  13.618   5.541
16928SOL    HW151034   9.522  13.672   5.590
16928SOL    HW251035   9.514  13.550   5.501
16929SOL     OW51036  12.322   8.192   7.424
16929SOL    HW151037  12.312   8.119   7.363
16929SOL    HW251038  12.310   8.270   7.370
16930SOL     OW51039   8.992   7.745   4.187
16930SOL    HW151040   9.025   7.834   4.175
16930SOL    HW251041   8.966   7.717   4.100
16931SOL     OW51042   6.326   8.780   2.148
16931SOL    HW151043   6.308   8.841   2.076
16931SOL    HW251044   6.247   8.782   2.201
16932SOL     OW51045   6.011   9.696   0.768
16932SOL    HW151046   5.929   9.652   0.745
16932SOL    HW251047   6.008   9.778   0.719
16933SOL     OW51048   8.079   9.782   6.762
16933SOL    HW151049   8.074   9.833   6.682
16933SOL    HW251050   8.132   9.706   6.739
16934SOL     OW51051   2.730   7.730   0.803
16934SOL    HW151052   2.721   7.649   0.752
16934SOL    HW251053   2.649   7.778   0.788
16935SOL     OW51054   8.369   8.591   2.777
16935SOL    HW151055   8.330   8.583   2.864
16935SOL    HW251056   8.364   8.503   2.739
16936SOL     OW51057  10.676   5.863   2.820
16936SOL    HW151058  10.765   5.867   2.856
16936SOL    HW251059  10.626   5.816   2.887
16937SOL     OW51060  13.372   6.098   6.140
16937SOL    HW151061  13.277   6.098   6.128
16937SOL    HW251062  13.402   6.177   6.095
16938SOL     OW51063  10.148   5.039   2.555
16938SOL    HW151064  10.134   4.972   2.622
16938SOL    HW251065  10.211   5.099   2.593
16939SOL     OW51066   8.474   7.692   7.374
16939SOL    HW151067   8.426   7.667   7.453
16939SOL    HW251068   8.440   7.634   7.306
16940SOL     OW51069  15.873   7.436   7.374
16940SOL    HW151070  15.926   7.393   7.442
16940SOL    HW251071  15.927   7.509   7.344
16941SOL     OW51072   9.980  13.105   4.294
16941SOL    HW151073   9.939  13.082   4.211
16941SOL    HW251074  10.012  13.022   4.329
16942SOL     OW51075   8.513  10.238   3.759
16942SOL    HW151076   8.594  10.278   3.728
16942SOL    HW251077   8.507  10.263   3.851
16943SOL     OW51078   7.609   4.374   0.824
16943SOL    HW151079   7.582   4.451   0.873
16943SOL    HW251080   7.566   4.382   0.739
16944SOL     OW51081   2.500   2.267   3.042
16944SOL    HW151082   2.588   2.288   3.011
16944SOL    HW251083   2.457   2.352   3.052
16945SOL     OW51084   6.277   6.994   2.665
16945SOL    HW151085   6.298   6.966   2.576
16945SOL    HW251086   6.357   6.975   2.715
16946SOL     OW51087   6.217  11.761   5.033
16946SOL    HW151088   6.269  11.840   5.044
16946SOL    HW251089   6.267  11.693   5.078
16947SOL     OW51090  10.067   6.110   2.175
16947SOL    HW151091  10.037   6.064   2.253
16947SOL    HW251092  10.099   6.041   2.117
16948SOL     OW51093   1.533  10.788   0.548
16948SOL    HW151094   1.563  10.744   0.628
16948SOL    HW251095   1.599  10.856   0.532
16949SOL     OW51096   6.368   6.737   3.624
16949SOL    HW151097   6.334   6.709   3.539
16949SOL    HW251098   6.296   6.787   3.664
16950SOL     OW51099   2.255   1.065   0.193
16950SOL    HW151100   2.199   0.988   0.191
16950SOL    HW251101   2.242   1.107   0.108
16951SOL     OW51102   6.763   5.479   4.692
16951SOL    HW151103   6.679   5.510   4.659
16951SOL    HW251104   6.758   5.384   4.688
16952SOL     OW51105   3.798   2.017   2.471
16952SOL    HW151106   3.892   2.022   2.484
16952SOL    HW251107   3.774   1.929   2.500
16953SOL     OW51108   6.837   7.955   4.412
16953SOL    HW151109   6.781   8.005   4.472
16953SOL    HW251110   6.905   7.918   4.468
16954SOL     OW51111   7.610   1.302   1.539
16954SOL    HW151112   7.603   1.385   1.585
16954SOL    HW251113   7.523   1.286   1.504
16955SOL     OW51114   6.353   9.167   3.487
16955SOL    HW151115   6.368   9.260   3.474
16955SOL    HW251116   6.425   9.124   3.441
16956SOL     OW51117  10.162   4.621   3.597
16956SOL    HW151118  10.219   4.544   3.607
16956SOL    HW251119  10.128   4.614   3.508
16957SOL     OW51120  12.930  10.400   3.498
16957SOL    HW151121  13.024  10.412   3.511
16957SOL    HW251122  12.924  10.331   3.431
16958SOL     OW51123  12.604  12.491   7.000
16958SOL    HW151124  12.582  12.522   6.912
16958SOL    HW251125  12.694  12.461   6.994
16959SOL     OW51126   3.110   2.933   0.432
16959SOL    HW151127   3.091   3.009   0.378
16959SOL    HW251128   3.152   2.871   0.372
16960SOL     OW51129   7.362   6.391   4.623
16960SOL    HW151130   7.316   6.371   4.541
16960SOL    HW251131   7.299   6.367   4.692
16961SOL     OW51132   6.248  11.238   6.159
16961SOL    HW151133   6.342  11.252   6.146
16961SOL    HW251134   6.216  11.323   6.190
16962SOL     OW51135   7.131  11.455   1.977
16962SOL    HW151136   7.169  11.460   1.889
16962SOL    HW251137   7.046  11.412   1.963
16963SOL     OW51138  12.951   9.204   6.859
16963SOL    HW151139  12.886   9.134   6.853
16963SOL    HW251140  13.031   9.165   6.825
16964SOL     OW51141   4.837   4.497   4.421
16964SOL    HW151142   4.797   4.470   4.338
16964SOL    HW251143   4.820   4.425   4.480
16965SOL     OW51144   6.006   6.023   4.326
16965SOL    HW151145   6.030   5.986   4.242
16965SOL    HW251146   5.941   5.962   4.362
16966SOL     OW51147   6.170   2.535   1.582
16966SOL    HW151148   6.192   2.620   1.543
16966SOL    HW251149   6.114   2.556   1.656
16967SOL     OW51150   7.600  10.645   2.345
16967SOL    HW151151   7.649  10.715   2.304
16967SOL    HW251152   7.549  10.688   2.414
16968SOL     OW51153  10.392   5.671   6.389
16968SOL    HW151154  10.424   5.618   6.315
16968SOL    HW251155  10.319   5.620   6.424
16969SOL     OW51156   3.149   8.134   3.827
16969SOL    HW151157   3.177   8.076   3.898
16969SOL    HW251158   3.192   8.218   3.846
16970SOL     OW51159   2.967   1.979   1.573
16970SOL    HW151160   3.012   2.059   1.599
16970SOL    HW251161   2.974   1.922   1.649
16971SOL     OW51162  11.626  12.005   4.014
16971SOL    HW151163  11.561  11.942   4.044
16971SOL    HW251164  11.618  12.004   3.918
16972SOL     OW51165  14.647  13.802   7.248
16972SOL    HW151166  14.642  13.895   7.270
16972SOL    HW251167  14.717  13.768   7.304
16973SOL     OW51168  11.843   7.854   3.235
16973SOL    HW151169  11.801   7.833   3.152
16973SOL    HW251170  11.774   7.845   3.300
16974SOL     OW51171  15.390  12.591   6.671
16974SOL    HW151172   4.689  12.545   6.629
16974SOL    HW251173  15.380  12.548   6.756
16975SOL     OW51174   9.813   6.340   3.646
16975SOL    HW151175   9.867   6.359   3.722
16975SOL    HW251176   9.851   6.261   3.608
16976SOL     OW51177  13.482   6.078   7.534
16976SOL    HW151178  13.571   6.057   7.562
16976SOL    HW251179  13.471   6.032   7.451
16977SOL     OW51180   8.405   9.815   7.012
16977SOL    HW151181   8.474   9.834   6.948
16977SOL    HW251182   8.401   9.720   7.016
16978SOL     OW51183   4.703   9.388   6.202
16978SOL    HW151184   4.765   9.361   6.270
16978SOL    HW251185   4.618   9.390   6.247
16979SOL     OW51186   4.854   8.198   6.039
16979SOL    HW151187   4.805   8.121   6.069
16979SOL    HW251188   4.857   8.189   5.944
16980SOL     OW51189   4.812  10.761   6.001
16980SOL    HW151190   4.719  10.751   5.979
16980SOL    HW251191   4.857  10.695   5.948
16981SOL     OW51192  12.397   9.556   5.355
16981SOL    HW151193  12.334   9.535   5.424
16981SOL    HW251194  12.374   9.645   5.327
16982SOL     OW51195   6.054   3.296   1.016
16982SOL    HW151196   6.012   3.332   1.094
16982SOL    HW251197   6.001   3.219   0.994
16983SOL     OW51198   9.870  12.188   7.274
16983SOL    HW151199   9.860  12.104   7.229
16983SOL    HW251200   9.951  12.224   7.240
16984SOL     OW51201  10.146   4.553   5.653
16984SOL    HW151202  10.137   4.482   5.716
16984SOL    HW251203  10.216   4.608   5.689
16985SOL     OW51204   5.498   5.980   2.098
16985SOL    HW151205   5.549   5.936   2.166
16985SOL    HW251206   5.520   5.934   2.017
16986SOL     OW51207   7.618   1.038   0.870
16986SOL    HW151208   7.603   1.111   0.810
16986SOL    HW251209   7.591   0.961   0.820
16987SOL     OW51210  11.214  11.906   2.142
16987SOL    HW151211  11.267  11.935   2.068
16987SOL    HW251212  11.262  11.832   2.179
16988SOL     OW51213   9.499   4.350   6.112
16988SOL    HW151214   9.497  15.065   6.187
16988SOL    HW251215   9.520   4.294   6.038
16989SOL     OW51216   4.899   4.148   3.943
16989SOL    HW151217   4.808   4.163   3.919
16989SOL    HW251218   4.941   4.233   3.936
16990SOL     OW51219   1.241   1.126   1.191
16990SOL    HW151220   1.203   1.040   1.210
16990SOL    HW251221   1.317   1.108   1.137
16991SOL     OW51222  13.113  12.430   4.331
16991SOL    HW151223  13.110  12.521   4.300
16991SOL    HW251224  13.074  12.379   4.260
16992SOL     OW51225  12.264   8.883   4.984
16992SOL    HW151226  12.291   8.932   5.061
16992SOL    HW251227  12.312   8.800   4.990
16993SOL     OW51228   4.903   9.321   4.196
16993SOL    HW151229   4.875   9.407   4.227
16993SOL    HW251230   4.916   9.332   4.102
16994SOL     OW51231  15.735   6.100   7.112
16994SOL    HW151232   5.003   6.136   7.035
16994SOL    HW251233  15.800   6.043   7.152
16995SOL     OW51234   2.174   3.976   0.439
16995SOL    HW151235   2.225   3.914   0.387
16995SOL    HW251236   2.169   4.054   0.384
16996SOL     OW51237   2.993   7.746   2.890
16996SOL    HW151238   3.082   7.710   2.897
16996SOL    HW251239   2.944   7.702   2.959
16997SOL     OW51240   7.823   8.099   0.954
16997SOL    HW151241   7.768   8.172   0.984
16997SOL    HW251242   7.827   8.040   1.029
16998SOL     OW51243   5.305  11.471   5.585
16998SOL    HW151244   5.302  11.557   5.543
16998SOL    HW251245   5.220  11.431   5.566
16999SOL     OW51246   4.979   4.189   3.387
16999SOL    HW151247   4.932   4.170   3.468
16999SOL    HW251248   4.974   4.285   3.379
17000SOL     OW51249   1.090   8.891   1.373
17000SOL    HW151250   1.016   8.833   1.389
17000SOL    HW251251   1.119   8.869   1.284
17001SOL     OW51252   8.919   7.937   5.080
17001SOL    HW151253   8.913   7.923   5.174
17001SOL    HW251254   8.896   7.852   5.042
17002SOL     OW51255   4.793  11.795   6.626
17002SOL    HW151256   4.812  11.725   6.688
17002SOL    HW251257   4.698  11.806   6.630
17003SOL     OW51258   6.474  10.590   6.920
17003SOL    HW151259   6.515  10.622   7.000
17003SOL    HW251260   6.499  10.497   6.915
17004SOL     OW51261   9.899  10.796   2.915
17004SOL    HW151262   9.955  10.843   2.854
17004SOL    HW251263   9.955  10.777   2.991
17005SOL     OW51264   3.958  12.929   3.395
17005SOL    HW151265   3.932  12.859   3.455
17005SOL    HW251266   3.974  12.885   3.311
17006SOL     OW51267   4.977   9.440   3.674
17006SOL    HW151268   4.960   9.534   3.676
17006SOL    HW251269   4.900   9.403   3.632
17007SOL     OW51270   3.376   2.209   0.587
17007SOL    HW151271   3.465   2.174   0.582
17007SOL    HW251272   3.370   2.268   0.512
17008SOL     OW51273   7.723  10.612   1.973
17008SOL    HW151274   7.652  10.585   1.915
17008SOL    HW251275   7.800  10.613   1.916
17009SOL     OW51276  14.545   9.097   6.438
17009SOL    HW151277  14.493   9.037   6.386
17009SOL    HW251278  14.594   9.149   6.374
17010SOL     OW51279   3.273  10.814   3.423
17010SOL    HW151280   3.268  10.906   3.399
17010SOL    HW251281   3.354  10.806   3.472
17011SOL     OW51282   5.470  13.638   6.869
17011SOL    HW151283   5.455  13.731   6.853
17011SOL    HW251284   5.520  13.636   6.951
17012SOL     OW51285   6.184  11.721   3.487
17012SOL    HW151286   6.142  11.761   3.563
17012SOL    HW251287   6.263  11.679   3.523
17013SOL     OW51288  12.694   5.878   5.501
17013SOL    HW151289  12.627   5.858   5.436
17013SOL    HW251290  12.736   5.794   5.519
17014SOL     OW51291   6.221  13.112   3.810
17014SOL    HW151292   6.259  13.040   3.860
17014SOL    HW251293   6.211  13.077   3.721
17015SOL     OW51294   2.675   4.749   2.404
17015SOL    HW151295   2.752   4.716   2.357
17015SOL    HW251296   2.699   4.742   2.497
17016SOL     OW51297  10.234   4.804   6.650
17016SOL    HW151298  10.235   4.855   6.570
17016SOL    HW251299  10.309   4.836   6.701
17017SOL     OW51300  15.303  13.837   6.704
17017SOL    HW151301  15.324  13.759   6.756
17017SOL    HW251302  15.252  13.892   6.763
17018SOL     OW51303   6.426  10.960   5.684
17018SOL    HW151304   6.424  10.994   5.595
17018SOL    HW251305   6.493  10.892   5.683
17019SOL     OW51306  11.165   6.378   6.296
17019SOL    HW151307  11.161   6.394   6.390
17019SOL    HW251308  11.075   6.385   6.265
17020SOL     OW51309   5.463  11.862   6.903
17020SOL    HW151310   5.509  11.779   6.897
17020SOL    HW251311   5.492  11.900   6.986
17021SOL     OW51312   4.963   6.832   3.887
17021SOL    HW151313   4.968   6.833   3.791
17021SOL    HW251314   5.047   6.796   3.915
17022SOL     OW51315   5.093   8.951   1.788
17022SOL    HW151316   5.097   8.947   1.693
17022SOL    HW251317   5.031   9.021   1.807
17023SOL     OW51318   7.401   7.237   4.071
17023SOL    HW151319   7.406   7.328   4.043
17023SOL    HW251320   7.486   7.200   4.048
17024SOL     OW51321   7.394  13.500   6.274
17024SOL    HW151322   7.414  13.485   6.181
17024SOL    HW251323   7.302  13.478   6.283
17025SOL     OW51324  12.353   4.340   5.920
17025SOL    HW151325  12.442   4.371   5.938
17025SOL    HW251326  12.297   4.411   5.950
17026SOL     OW51327  11.487   7.852   1.272
17026SOL    HW151328  11.453   7.927   1.223
17026SOL    HW251329  11.436   7.851   1.353
17027SOL     OW51330  10.529   2.461   0.616
17027SOL    HW151331  10.602   2.519   0.598
17027SOL    HW251332  10.526   2.455   0.712
17028SOL     OW51333  14.292  11.890   6.940
17028SOL    HW151334  14.260  11.978   6.920
17028SOL    HW251335  14.217  11.845   6.978
17029SOL     OW51336   9.551  11.482   6.987
17029SOL    HW151337   9.578  11.441   7.069
17029SOL    HW251338   9.544  11.575   7.007
17030SOL     OW51339  11.184  12.759   6.604
17030SOL    HW151340  11.259  12.738   6.659
17030SOL    HW251341  11.108  12.729   6.654
17031SOL     OW51342   3.191   8.302   4.469
17031SOL    HW151343  13.897   8.245   4.504
17031SOL    HW251344   3.225   8.255   4.394
17032SOL     OW51345   5.248   3.007   2.947
17032SOL    HW151346   5.184   2.936   2.956
17032SOL    HW251347   5.325   2.964   2.910
17033SOL     OW51348   1.917   5.504   1.308
17033SOL    HW151349   1.967   5.428   1.338
17033SOL    HW251350   1.935   5.508   1.214
17034SOL     OW51351   3.137   9.640   0.255
17034SOL    HW151352   3.132   9.659   0.161
17034SOL    HW251353   3.072   9.572   0.270
17035SOL     OW51354   3.328   9.560   3.958
17035SOL    HW151355   3.238   9.529   3.948
17035SOL    HW251356   3.319   9.647   3.997
17036SOL     OW51357  14.024  12.232   5.379
17036SOL    HW151358  14.088  12.271   5.319
17036SOL    HW251359  14.040  12.277   5.462
17037SOL     OW51360  13.583  11.478   5.694
17037SOL    HW151361  13.653  11.543   5.694
17037SOL    HW251362  13.507  11.525   5.657
17038SOL     OW51363   5.277  11.695   5.458
17038SOL    HW151364   5.255  11.765   5.520
17038SOL    HW251365   5.268  11.736   5.372
17039SOL     OW51366  11.219   2.003   1.800
17039SOL    HW151367  11.182   2.010   1.712
17039SOL    HW251368  11.144   2.015   1.858
17040SOL     OW51369  14.983   9.798   6.951
17040SOL    HW151370  15.019   9.778   7.037
17040SOL    HW251371  14.980   9.714   6.906
17041SOL     OW51372  10.475   7.730   7.054
17041SOL    HW151373  10.404   7.785   7.087
17041SOL    HW251374  10.465   7.647   7.102
17042SOL     OW51375   5.425   9.980   6.140
17042SOL    HW151376   5.392  10.070   6.135
17042SOL    HW251377   5.488   9.981   6.212
17043SOL     OW51378   3.824   5.305   1.565
17043SOL    HW151379   3.799   5.214   1.549
17043SOL    HW251380   3.800   5.352   1.485
17044SOL     OW51381   9.749   6.073   0.305
17044SOL    HW151382   9.807   6.138   0.344
17044SOL    HW251383   9.801   5.993   0.301
17045SOL     OW51384   5.865   3.294   4.166
17045SOL    HW151385   5.818   3.224   4.121
17045SOL    HW251386   5.796   3.351   4.201
17046SOL     OW51387  12.145  12.566   6.637
17046SOL    HW151388  12.128  12.654   6.672
17046SOL    HW251389  12.060  12.521   6.645
17047SOL     OW51390   3.575   7.002   4.433
17047SOL    HW151391   3.522   7.045   4.366
17047SOL    HW251392   3.543   7.038   4.516
17048SOL     OW51393  11.628   2.396   2.128
17048SOL    HW151394  11.560   2.386   2.060
17048SOL    HW251395  11.700   2.341   2.097
17049SOL     OW51396   6.114   4.667   5.680
17049SOL    HW151397   6.071   4.725   5.618
17049SOL    HW251398   6.191   4.635   5.633
17050SOL     OW51399  11.260  10.666   4.200
17050SOL    HW151400  11.222  10.613   4.270
17050SOL    HW251401  11.302  10.739   4.245
17051SOL     OW51402  14.171   6.969   4.921
17051SOL    HW151403  14.099   6.992   4.863
17051SOL    HW251404   3.476   6.988   4.871
17052SOL     OW51405   8.176   5.917   5.766
17052SOL    HW151406   8.255   5.926   5.820
17052SOL    HW251407   8.130   6.001   5.777
17053SOL     OW51408   8.015   8.210   2.756
17053SOL    HW151409   8.037   8.117   2.751
17053SOL    HW251410   7.926   8.216   2.720
17054SOL     OW51411  13.212   8.950   7.118
17054SOL    HW151412  13.125   8.919   7.095
17054SOL    HW251413  13.198   9.037   7.156
17055SOL     OW51414   5.503   6.899   1.133
17055SOL    HW151415   5.596   6.895   1.112
17055SOL    HW251416   5.475   6.985   1.101
17056SOL     OW51417   3.672  12.183   3.370
17056SOL    HW151418   3.586  12.206   3.406
17056SOL    HW251419   3.725  12.262   3.384
17057SOL     OW51420   3.446  10.853   4.092
17057SOL    HW151421   3.366  10.878   4.137
17057SOL    HW251422   3.478  10.933   4.051
17058SOL     OW51423   8.941   7.202   5.215
17058SOL    HW151424   8.995   7.170   5.142
17058SOL    HW251425   8.932   7.126   5.273
17059SOL     OW51426   8.166  10.592   6.354
17059SOL    HW151427   8.107  10.604   6.279
17059SOL    HW251428   8.160  10.499   6.374
17060SOL     OW51429  12.543   8.121   3.956
17060SOL    HW151430  12.483   8.137   3.883
17060SOL    HW251431  12.524   8.031   3.984
17061SOL     OW51432  13.358   8.987   6.380
17061SOL    HW151433  13.341   8.981   6.286
17061SOL    HW251434  13.431   8.927   6.395
17062SOL     OW51435  13.199  12.273   6.163
17062SOL    HW151436  13.190  12.365   6.136
17062SOL    HW251437  13.170  12.223   6.086
17063SOL     OW51438  13.699  10.488   4.817
17063SOL    HW151439  13.692  10.583   4.810
17063SOL    HW251440  13.792  10.472   4.836
17064SOL     OW51441  10.485  14.696   6.298
17064SOL    HW151442  10.480  14.620   6.240
17064SOL    HW251443  10.395  14.729   6.302
17065SOL     OW51444   5.783   9.197   3.087
17065SOL    HW151445   5.853   9.254   3.054
17065SOL    HW251446   5.789   9.205   3.182
17066SOL     OW51447   3.240  10.689   4.297
17066SOL    HW151448   3.213  10.754   4.362
17066SOL    HW251449   3.197  10.716   4.216
17067SOL     OW51450   5.014   6.701   0.260
17067SOL    HW151451   4.975   6.780   0.223
17067SOL    HW251452   4.941   6.653   0.298
17068SOL     OW51453   1.740   7.689   2.337
17068SOL    HW151454   1.816   7.650   2.379
17068SOL    HW251455   1.766   7.780   2.321
17069SOL     OW51456  10.234  13.896   5.820
17069SOL    HW151457  10.255  13.965   5.883
17069SOL    HW251458  10.297  13.907   5.749
17070SOL     OW51459  10.180  10.068   6.119
17070SOL    HW151460  10.116  10.112   6.176
17070SOL    HW251461  10.265  10.096   6.153
17071SOL     OW51462   8.040   7.157   0.301
17071SOL    HW151463   8.120   7.171   0.250
17071SOL    HW251464   7.986   7.100   0.246
17072SOL     OW51465  14.230  14.936   6.902
17072SOL    HW151466  14.298  14.901   6.846
17072SOL    HW251467  14.269  15.013   6.943
17073SOL     OW51468   9.643   2.000   0.023
17073SOL    HW151469  15.048   7.412   7.551
17073SOL    HW251470   9.729   1.988   0.062
17074SOL     OW51471   8.424   8.252   5.792
17074SOL    HW151472   8.497   8.192   5.809
17074SOL    HW251473   8.396   8.280   5.879
17075SOL     OW51474  10.792   4.344   3.628
17075SOL    HW151475  10.800   4.272   3.565
17075SOL    HW251476  10.865   4.331   3.688
17076SOL     OW51477  11.762  11.439   5.136
17076SOL    HW151478  11.793  11.351   5.154
17076SOL    HW251479  11.794  11.458   5.048
17077SOL     OW51480  12.520   5.029   6.870
17077SOL    HW151481  12.565   5.071   6.944
17077SOL    HW251482  12.518   4.936   6.892
17078SOL     OW51483   5.479  12.137   7.454
17078SOL    HW151484   5.499  12.216   7.505
17078SOL    HW251485   5.410  12.093   7.503
17079SOL     OW51486  11.046  12.599   5.897
17079SOL    HW151487  11.070  12.536   5.966
17079SOL    HW251488  10.967  12.641   5.929
17080SOL     OW51489  10.178  14.700   5.672
17080SOL    HW151490  10.169  14.671   5.762
17080SOL    HW251491  10.162   4.020   5.675
17081SOL     OW51492   6.775   6.141   4.189
17081SOL    HW151493   6.814   6.060   4.156
17081SOL    HW251494   6.681   6.130   4.174
17082SOL     OW51495   7.236   4.407   1.777
17082SOL    HW151496   7.270   4.448   1.697
17082SOL    HW251497   7.314   4.373   1.821
17083SOL     OW51498   8.345  13.085   3.801
17083SOL    HW151499   8.396  13.019   3.849
17083SOL    HW251500   8.258  13.046   3.791
17084SOL     OW51501   4.665  12.039   5.622
17084SOL    HW151502   4.741  11.983   5.635
17084SOL    HW251503   4.701  12.121   5.589
17085SOL     OW51504   8.831   5.453   5.391
17085SOL    HW151505   8.784   5.505   5.456
17085SOL    HW251506   8.763   5.414   5.337
17086SOL     OW51507   7.318   2.953   0.228
17086SOL    HW151508   7.387   2.970   0.164
17086SOL    HW251509   7.348   2.875   0.275
17087SOL     OW51510  11.231   7.601   3.480
17087SOL    HW151511  11.296   7.641   3.422
17087SOL    HW251512  11.155   7.586   3.424
17088SOL     OW51513   4.923   3.061   3.803
17088SOL    HW151514   5.006   3.039   3.844
17088SOL    HW251515   4.944   3.130   3.741
17089SOL     OW51516  12.062   9.831   5.728
17089SOL    HW151517  12.113   9.807   5.650
17089SOL    HW251518  11.971   9.827   5.698
17090SOL     OW51519  10.619   9.971   4.959
17090SOL    HW151520  10.573  10.001   5.037
17090SOL    HW251521  10.565   9.900   4.924
17091SOL     OW51522   4.805  12.809   3.016
17091SOL    HW151523   4.859  12.756   3.075
17091SOL    HW251524   4.718  12.769   3.020
17092SOL     OW51525  13.928  10.469   6.896
17092SOL    HW151526  13.910  10.437   6.985
17092SOL    HW251527  13.896  10.398   6.839
17093SOL     OW51528   3.330   4.511   2.623
17093SOL    HW151529   3.260   4.519   2.688
17093SOL    HW251530   3.314   4.583   2.562
17094SOL     OW51531   2.959  10.734   1.774
17094SOL    HW151532   2.935  10.824   1.754
17094SOL    HW251533   2.924  10.683   1.700
17095SOL     OW51534   8.408   7.758   0.708
17095SOL    HW151535   8.345   7.686   0.713
17095SOL    HW251536   8.392   7.810   0.787
17096SOL     OW51537   6.647   6.148   4.504
17096SOL    HW151538   6.645   6.217   4.437
17096SOL    HW251539   6.646   6.067   4.453
17097SOL     OW51540   5.405   6.139   3.447
17097SOL    HW151541   5.438   6.049   3.449
17097SOL    HW251542   5.465   6.185   3.388
17098SOL     OW51543  14.355   9.881   5.992
17098SOL    HW151544  14.317   9.933   6.063
17098SOL    HW251545  14.448   9.877   6.012
17099SOL     OW51546  10.458   6.074   2.465
17099SOL    HW151547  10.434   5.982   2.479
17099SOL    HW251548  10.382   6.112   2.421
17100SOL     OW51549  10.341  10.274   4.730
17100SOL    HW151550  10.431  10.278   4.697
17100SOL    HW251551  10.301  10.202   4.681
17101SOL     OW51552  10.218   9.360   0.894
17101SOL    HW151553  10.163   9.314   0.958
17101SOL    HW251554  10.164   9.366   0.816
17102SOL     OW51555  13.470  10.841   4.485
17102SOL    HW151556  13.421  10.863   4.565
17102SOL    HW251557  13.551  10.890   4.493
17103SOL     OW51558   5.718   5.493   7.390
17103SOL    HW151559   5.795   5.518   7.442
17103SOL    HW251560   5.653   5.466   7.456
17104SOL     OW51561  13.294  11.138   7.285
17104SOL    HW151562  13.216  11.088   7.263
17104SOL    HW251563  13.261  11.222   7.317
17105SOL     OW51564   8.933   5.310   0.695
17105SOL    HW151565   8.928   5.216   0.713
17105SOL    HW251566   8.851   5.330   0.650
17106SOL     OW51567   4.812   5.249   0.681
17106SOL    HW151568   4.860   5.167   0.666
17106SOL    HW251569   4.881   5.312   0.704
17107SOL     OW51570  14.426   8.482   6.021
17107SOL    HW151571  14.445   8.480   6.115
17107SOL    HW251572  14.508   8.506   5.980
17108SOL     OW51573  11.937  11.668   3.252
17108SOL    HW151574  11.955  11.589   3.202
17108SOL    HW251575  11.977  11.739   3.201
17109SOL     OW51576  13.428  15.165   6.523
17109SOL    HW151577  13.349  15.218   6.508
17109SOL    HW251578  13.495  15.229   6.549
17110SOL     OW51579   9.450   3.361   2.356
17110SOL    HW151580   9.467   3.291   2.292
17110SOL    HW251581   9.361   3.390   2.335
17111SOL     OW51582   9.546   8.411   1.381
17111SOL    HW151583   9.499   8.393   1.300
17111SOL    HW251584   9.495   8.367   1.449
17112SOL     OW51585  12.201  11.563   6.552
17112SOL    HW151586  12.221  11.577   6.645
17112SOL    HW251587  12.267  11.501   6.522
17113SOL     OW51588  11.267   1.932   2.608
17113SOL    HW151589  11.319   2.007   2.579
17113SOL    HW251590  11.313   1.900   2.686
17114SOL     OW51591  12.275  14.988   6.814
17114SOL    HW151592  12.255  14.901   6.847
17114SOL    HW251593  12.193  15.018   6.774
17115SOL     OW51594  11.085   5.187   6.813
17115SOL    HW151595  11.108   5.095   6.825
17115SOL    HW251596  11.169   5.233   6.809
17116SOL     OW51597   6.987   7.927   1.590
17116SOL    HW151598   6.962   7.846   1.545
17116SOL    HW251599   7.055   7.900   1.652
17117SOL     OW51600  15.237  15.262   6.760
17117SOL    HW151601  15.282  15.305   6.688
17117SOL    HW251602  15.299  15.196   6.791
17118SOL     OW51603   5.788   4.431   5.614
17118SOL    HW151604   5.816   4.495   5.549
17118SOL    HW251605   5.866   4.381   5.634
17119SOL     OW51606   1.247   2.195   1.172
17119SOL    HW151607   1.295   2.112   1.168
17119SOL    HW251608   1.273   2.234   1.256
17120SOL     OW51609   7.320   6.643   2.365
17120SOL    HW151610   7.384   6.707   2.333
17120SOL    HW251611   7.245   6.696   2.393
17121SOL     OW51612   6.676  12.125   3.638
17121SOL    HW151613   6.662  12.094   3.549
17121SOL    HW251614   6.689  12.220   3.628
17122SOL     OW51615  10.817  10.352   3.079
17122SOL    HW151616  10.766  10.271   3.069
17122SOL    HW251617  10.901  10.332   3.039
17123SOL     OW51618   9.289  12.162   6.605
17123SOL    HW151619   9.256  12.242   6.565
17123SOL    HW251620   9.221  12.097   6.586
17124SOL     OW51621   3.606   7.534   3.921
17124SOL    HW151622   3.613   7.440   3.937
17124SOL    HW251623   3.671   7.550   3.852
17125SOL     OW51624   4.509  13.804   4.358
17125SOL    HW151625   4.543  13.755   4.284
17125SOL    HW251626   4.417  13.778   4.364
17126SOL     OW51627   5.919   8.768   5.197
17126SOL    HW151628   5.924   8.730   5.285
17126SOL    HW251629   5.907   8.692   5.139
17127SOL     OW51630  12.587   7.424   7.603
17127SOL    HW151631   7.181   2.033   0.078
17127SOL    HW251632  12.507   7.393   7.561
17128SOL     OW51633  12.304  14.126   5.459
17128SOL    HW151634  12.381  14.071   5.475
17128SOL    HW251635  12.275  14.153   5.546
17129SOL     OW51636   5.685   5.949   4.763
17129SOL    HW151637   5.703   5.862   4.799
17129SOL    HW251638   5.641   5.996   4.835
17130SOL     OW51639   5.443   6.854   3.797
17130SOL    HW151640   5.451   6.942   3.834
17130SOL    HW251641   5.531   6.816   3.807
17131SOL     OW51642   4.538  10.807   4.912
17131SOL    HW151643   4.540  10.889   4.960
17131SOL    HW251644   4.469  10.756   4.954
17132SOL     OW51645   8.011   2.873   3.911
17132SOL    HW151646   7.965   2.882   3.995
17132SOL    HW251647   7.985   2.951   3.862
17133SOL     OW51648   9.042   4.020   1.045
17133SOL    HW151649   9.067   3.979   1.128
17133SOL    HW251650   9.036   3.948   0.983
17134SOL     OW51651   9.694  10.834   2.035
17134SOL    HW151652   9.708  10.856   2.128
17134SOL    HW251653   9.633  10.901   2.004
17135SOL     OW51654   5.019   3.231   2.881
17135SOL    HW151655   4.993   3.147   2.842
17135SOL    HW251656   5.114   3.232   2.875
17136SOL     OW51657  13.336  13.969   7.321
17136SOL    HW151658  13.429  13.947   7.322
17136SOL    HW251659  13.291  13.889   7.347
17137SOL     OW51660  11.813   9.912   3.268
17137SOL    HW151661  11.817  10.001   3.304
17137SOL    HW251662  11.819   9.855   3.345
17138SOL     OW51663   8.289   7.717   4.533
17138SOL    HW151664   8.346   7.692   4.460
17138SOL    HW251665   8.205   7.674   4.514
17139SOL     OW51666  11.302   4.573   6.457
17139SOL    HW151667  11.378   4.606   6.409
17139SOL    HW251668  11.339  15.300   6.531
17140SOL     OW51669   4.378   0.519   0.066
17140SOL    HW151670   4.398   0.611   0.084
17140SOL    HW251671   4.444   0.470   0.115
17141SOL     OW51672  11.117   7.420   0.891
17141SOL    HW151673  11.026   7.391   0.883
17141SOL    HW251674  11.168   7.340   0.883
17142SOL     OW51675  10.778   4.534   6.061
17142SOL    HW151676  10.795   4.614   6.011
17142SOL    HW251677  10.844   4.472   6.030
17143SOL     OW51678   5.002  11.337   1.870
17143SOL    HW151679   4.981  11.346   1.963
17143SOL    HW251680   4.940  11.395   1.826
17144SOL     OW51681   4.627  13.053   3.527
17144SOL    HW151682   4.666  12.986   3.583
17144SOL    HW251683   4.674  13.133   3.549
17145SOL     OW51684   9.543   2.566   2.874
17145SOL    HW151685   9.453   2.535   2.866
17145SOL    HW251686   9.583   2.543   2.790
17146SOL     OW51687   4.129   2.246   0.846
17146SOL    HW151688   4.044   2.227   0.884
17146SOL    HW251689   4.116   2.240   0.751
17147SOL     OW51690   4.925   2.220   0.480
17147SOL    HW151691   4.933   2.283   0.408
17147SOL    HW251692   5.006   2.169   0.475
17148SOL     OW51693   6.276   6.133   0.794
17148SOL    HW151694   6.281   6.170   0.706
17148SOL    HW251695   6.251   6.042   0.780
17149SOL     OW51696   8.273   3.034   3.984
17149SOL    HW151697   8.245   2.943   3.974
17149SOL    HW251698   8.357   3.028   4.028
17150SOL     OW51699  13.064   7.050   6.107
17150SOL    HW151700  13.056   6.988   6.035
17150SOL    HW251701  12.977   7.055   6.145
17151SOL     OW51702   4.029  10.630   1.185
17151SOL    HW151703   4.070  10.698   1.239
17151SOL    HW251704   4.071  10.639   1.099
17152SOL     OW51705   7.835  13.180   6.986
17152SOL    HW151706   7.902  13.248   6.983
17152SOL    HW251707   7.825  13.160   7.079
17153SOL     OW51708  11.088  14.314   7.164
17153SOL    HW151709  11.141  14.234   7.164
17153SOL    HW251710  11.073  14.333   7.071
17154SOL     OW51711   7.034   5.461   5.555
17154SOL    HW151712   7.109   5.468   5.615
17154SOL    HW251713   7.036   5.543   5.506
17155SOL     OW51714   6.112   6.774   1.338
17155SOL    HW151715   6.105   6.679   1.322
17155SOL    HW251716   6.194   6.785   1.386
17156SOL     OW51717   3.898   9.167   3.420
17156SOL    HW151718   3.948   9.199   3.495
17156SOL    HW251719   3.847   9.242   3.391
17157SOL     OW51720   2.500   4.778   3.330
17157SOL    HW151721   2.434   4.719   3.294
17157SOL    HW251722   2.496   4.765   3.424
17158SOL     OW51723   9.821   8.573   2.509
17158SOL    HW151724   9.911   8.548   2.490
17158SOL    HW251725   9.817   8.579   2.605
17159SOL     OW51726   2.968  11.458   1.465
17159SOL    HW151727   2.910  11.500   1.529
17159SOL    HW251728   2.975  11.522   1.394
17160SOL     OW51729   0.958   0.481   0.473
17160SOL    HW151730   1.016   0.539   0.423
17160SOL    HW251731   0.975   0.394   0.436
17161SOL     OW51732  10.481  12.267   4.785
17161SOL    HW151733  10.554  12.297   4.731
17161SOL    HW251734  10.520  12.204   4.845
17162SOL     OW51735  11.661   8.471   5.737
17162SOL    HW151736  11.707   8.452   5.819
17162SOL    HW251737  11.730   8.490   5.674
17163SOL     OW51738   1.690  10.949   0.295
17163SOL    HW151739   1.707  10.999   0.374
17163SOL    HW251740   1.711  10.859   0.319
17164SOL     OW51741   9.008   2.359   2.687
17164SOL    HW151742   9.014   2.291   2.619
17164SOL    HW251743   9.067   2.329   2.756
17165SOL     OW51744   8.580   2.095   0.800
17165SOL    HW151745   8.609   2.077   0.890
17165SOL    HW251746   8.608   2.185   0.783
17166SOL     OW51747  13.517  12.282   5.821
17166SOL    HW151748  13.587  12.217   5.816
17166SOL    HW251749  13.491  12.282   5.913
17167SOL     OW51750   1.771   2.529   2.471
17167SOL    HW151751   1.831   2.571   2.533
17167SOL    HW251752   1.827   2.501   2.399
17168SOL     OW51753  13.033   4.487   4.230
17168SOL    HW151754  13.083   4.478   4.311
17168SOL    HW251755  12.973   4.412   4.231
17169SOL     OW51756   5.824   1.375   1.920
17169SOL    HW151757   5.843  12.126   2.010
17169SOL    HW251758   5.762  12.083   1.890
17170SOL     OW51759   2.524   5.026   1.827
17170SOL    HW151760   2.581   5.069   1.763
17170SOL    HW251761   2.566   4.942   1.843
17171SOL     OW51762  10.679  10.367   4.755
17171SOL    HW151763  10.632  10.364   4.838
17171SOL    HW251764  10.655  10.285   4.711
17172SOL     OW51765   6.402   4.057   0.078
17172SOL    HW151766   6.450   4.120   0.025
17172SOL    HW251767   6.433   4.072   0.167
17173SOL     OW51768  12.547  11.408   4.797
17173SOL    HW151769  12.556  11.503   4.805
17173SOL    HW251770  12.546  11.377   4.887
17174SOL     OW51771   3.745   6.854   0.474
17174SOL    HW151772   3.792   6.891   0.399
17174SOL    HW251773   3.763   6.760   0.470
17175SOL     OW51774  11.343  12.973   4.997
17175SOL    HW151775  11.420  13.029   4.998
17175SOL    HW251776  11.369  12.898   4.944
17176SOL     OW51777  10.558  11.360   4.472
17176SOL    HW151778  10.604  11.278   4.491
17176SOL    HW251779  10.598  11.392   4.392
17177SOL     OW51780   6.094   6.725   4.783
17177SOL    HW151781   6.117   6.813   4.753
17177SOL    HW251782   6.065   6.738   4.874
17178SOL     OW51783   5.256   2.944   1.651
17178SOL    HW151784   5.177   2.894   1.630
17178SOL    HW251785   5.266   2.934   1.746
17179SOL     OW51786   5.117  12.393   5.961
17179SOL    HW151787   5.032  12.437   5.951
17179SOL    HW251788   5.103  12.307   5.919
17180SOL     OW51789  10.037   7.481   5.539
17180SOL    HW151790  10.088   7.400   5.539
17180SOL    HW251791   9.954   7.457   5.499
17181SOL     OW51792   5.859  13.617   5.144
17181SOL    HW151793   5.932  13.556   5.154
17181SOL    HW251794   5.792  13.584   5.204
17182SOL     OW51795   8.589  11.776   4.815
17182SOL    HW151796   8.537  11.713   4.765
17182SOL    HW251797   8.535  11.797   4.891
17183SOL     OW51798  12.385   6.333   7.429
17183SOL    HW151799  12.364   6.245   7.461
17183SOL    HW251800  12.311   6.357   7.373
17184SOL     OW51801   7.081  12.591   6.597
17184SOL    HW151802   7.098  12.586   6.503
17184SOL    HW251803   7.044  12.506   6.620
17185SOL     OW51804   4.742   7.576   3.680
17185SOL    HW151805   4.738   7.604   3.772
17185SOL    HW251806   4.674   7.510   3.672
17186SOL     OW51807   5.767  12.700   6.896
17186SOL    HW151808   5.731  12.699   6.807
17186SOL    HW251809   5.861  12.712   6.883
17187SOL     OW51810  12.291  11.854   4.017
17187SOL    HW151811  12.245  11.823   3.939
17187SOL    HW251812  12.244  11.815   4.091
17188SOL     OW51813  12.430  11.921   4.855
17188SOL    HW151814  12.404  11.896   4.766
17188SOL    HW251815  12.523  11.900   4.860
17189SOL     OW51816  10.958   6.280   6.515
17189SOL    HW151817  10.937   6.342   6.445
17189SOL    HW251818  10.968   6.196   6.471
17190SOL     OW51819   6.231   5.859   1.410
17190SOL    HW151820   6.280   5.783   1.380
17190SOL    HW251821   6.288   5.900   1.476
17191SOL     OW51822   9.860  11.840   1.651
17191SOL    HW151823   9.943  11.791   1.654
17191SOL    HW251824   9.861   1.110   1.567
17192SOL     OW51825   9.915   9.450   4.459
17192SOL    HW151826   9.916   9.444   4.363
17192SOL    HW251827   9.867   9.373   4.488
17193SOL     OW51828   4.626  10.572   6.238
17193SOL    HW151829   4.570  10.495   6.229
17193SOL    HW251830   4.576  10.643   6.197
17194SOL     OW51831  12.105  10.065   7.231
17194SOL    HW151832  12.125  10.007   7.157
17194SOL    HW251833  12.183  10.119   7.241
17195SOL     OW51834   3.497  11.825   3.580
17195SOL    HW151835   3.518  11.862   3.494
17195SOL    HW251836   3.536  11.887   3.642
17196SOL     OW51837   5.836  13.542   4.027
17196SOL    HW151838   5.777  13.514   3.956
17196SOL    HW251839   5.919  13.500   4.006
17197SOL     OW51840   5.970   3.569   3.803
17197SOL    HW151841   6.050   3.572   3.751
17197SOL    HW251842   5.966   3.655   3.846
17198SOL     OW51843  13.556   5.513   5.200
17198SOL    HW151844  13.487   5.579   5.207
17198SOL    HW251845  13.637   5.564   5.191
17199SOL     OW51846   6.165  10.344   1.500
17199SOL    HW151847   6.157  10.410   1.569
17199SOL    HW251848   6.077  10.337   1.463
17200SOL     OW51849  11.224  12.945   3.239
17200SOL    HW151850  11.223  13.009   3.310
17200SOL    HW251851  11.314  12.914   3.235
17201SOL     OW51852   8.325  12.989   4.750
17201SOL    HW151853   8.412  12.954   4.730
17201SOL    HW251854   8.320  13.071   4.702
17202SOL     OW51855   6.482  12.757   3.402
17202SOL    HW151856   6.430  12.688   3.362
17202SOL    HW251857   6.572  12.739   3.375
17203SOL     OW51858   6.367  11.089   4.562
17203SOL    HW151859   6.349  10.999   4.588
17203SOL    HW251860   6.408  11.128   4.638
17204SOL     OW51861   9.699  10.466   6.845
17204SOL    HW151862   9.792  10.481   6.859
17204SOL    HW251863   9.655  10.527   6.904
17205SOL     OW51864  12.496   8.913   6.724
17205SOL    HW151865  12.410   8.954   6.711
17205SOL    HW251866  12.553   8.985   6.750
17206SOL     OW51867  14.483  11.828   6.046
17206SOL    HW151868  14.503  11.878   5.967
17206SOL    HW251869  14.501  11.737   6.022
17207SOL     OW51870   6.366  13.050   6.492
17207SOL    HW151871   6.439  13.038   6.552
17207SOL    HW251872   6.386  12.994   6.417
17208SOL     OW51873   9.230   9.999   5.112
17208SOL    HW151874   9.165  10.062   5.081
17208SOL    HW251875   9.232   9.931   5.045
17209SOL     OW51876  11.002   5.984   2.863
17209SOL    HW151877  10.988   6.029   2.947
17209SOL    HW251878  11.030   6.052   2.803
17210SOL     OW51879   7.720  13.170   5.989
17210SOL    HW151880   7.748  13.178   5.897
17210SOL    HW251881   7.703  13.260   6.016
17211SOL     OW51882   9.924   9.974   0.727
17211SOL    HW151883  10.018   9.958   0.727
17211SOL    HW251884   9.885   9.890   0.705
17212SOL     OW51885   2.632   0.593   0.463
17212SOL    HW151886   2.716   0.638   0.475
17212SOL    HW251887   2.627   0.578   0.369
17213SOL     OW51888  10.037  11.999   4.568
17213SOL    HW151889  10.018  11.910   4.596
17213SOL    HW251890  10.034  11.996   4.473
17214SOL     OW51891   6.110   8.256   6.075
17214SOL    HW151892   6.159   8.273   6.155
17214SOL    HW251893   6.177   8.237   6.009
17215SOL     OW51894   4.146   6.126   2.878
17215SOL    HW151895   4.086   6.068   2.925
17215SOL    HW251896   4.103   6.212   2.880
17216SOL     OW51897   7.765   8.461   6.858
17216SOL    HW151898   7.796   8.523   6.923
17216SOL    HW251899   7.751   8.380   6.907
17217SOL     OW51900  10.323  13.113   5.770
17217SOL    HW151901  10.261  13.115   5.843
17217SOL    HW251902  10.270  13.090   5.694
17218SOL     OW51903  12.852  10.713   5.725
17218SOL    HW151904  12.854  10.790   5.668
17218SOL    HW251905  12.906  10.648   5.679
17219SOL     OW51906   9.321  14.046   6.230
17219SOL    HW151907   9.344  14.125   6.181
17219SOL    HW251908   9.291  14.080   6.315
17220SOL     OW51909   5.720   8.518   3.806
17220SOL    HW151910   5.723   8.487   3.896
17220SOL    HW251911   5.653   8.587   3.807
17221SOL     OW51912  10.096   7.605   3.702
17221SOL    HW151913  10.137   7.591   3.787
17221SOL    HW251914  10.112   7.524   3.654
17222SOL     OW51915   3.998   0.669   0.030
17222SOL    HW151916   3.999   0.739   0.096
17222SOL    HW251917   9.304   6.070   7.601
17223SOL     OW51918   9.219  15.579   7.349
17223SOL    HW151919   9.168  15.629   7.412
17223SOL    HW251920   9.278  15.643   7.309
17224SOL     OW51921   3.967  10.661   2.657
17224SOL    HW151922   3.873  10.660   2.643
17224SOL    HW251923   3.986  10.579   2.702
17225SOL     OW51924   6.052   6.437   1.338
17225SOL    HW151925   6.070   6.392   1.421
17225SOL    HW251926   5.983   6.500   1.360
17226SOL     OW51927   4.513   1.688   2.067
17226SOL    HW151928   4.419   1.703   2.055
17226SOL    HW251929   4.520   1.593   2.079
17227SOL     OW51930   0.502   2.712   0.378
17227SOL    HW151931   0.593   2.712   0.406
17227SOL    HW251932   0.507   2.711   0.282
17228SOL     OW51933   4.448   5.182   3.276
17228SOL    HW151934   4.369   5.212   3.320
17228SOL    HW251935   4.452   5.088   3.296
17229SOL     OW51936   7.726  11.135   7.544
17229SOL    HW151937   7.811  11.099   7.517
17229SOL    HW251938   7.687  11.168   7.463
17230SOL     OW51939   5.468   8.242   4.258
17230SOL    HW151940   5.559   8.217   4.249
17230SOL    HW251941   5.434   8.188   4.329
17231SOL     OW51942   5.000  15.521   6.814
17231SOL    HW151943   5.068  15.462   6.848
17231SOL    HW251944   4.994  15.591   6.879
17232SOL     OW51945   2.478   2.008   0.406
17232SOL    HW151946   2.517   1.936   0.457
17232SOL    HW251947   2.497   2.086   0.457
17233SOL     OW51948   4.103   7.760   5.176
17233SOL    HW151949   4.050   7.836   5.153
17233SOL    HW251950   4.040   7.690   5.193
17234SOL     OW51951  12.787   7.139   3.382
17234SOL    HW151952  12.803   7.229   3.410
17234SOL    HW251953  12.702   7.117   3.421
17235SOL     OW51954  13.997  15.513   6.856
17235SOL    HW151955  13.902  15.499   6.850
17235SOL    HW251956  14.021  15.548   6.770
17236SOL     OW51957  12.400   8.411   7.225
17236SOL    HW151958  12.397   8.500   7.189
17236SOL    HW251959  12.421   8.356   7.150
17237SOL     OW51960   3.582   5.958   3.828
17237SOL    HW151961   3.507   5.936   3.773
17237SOL    HW251962   3.546   6.016   3.895
17238SOL     OW51963  10.351  11.658   5.826
17238SOL    HW151964  10.257  11.649   5.842
17238SOL    HW251965  10.377  11.734   5.877
17239SOL     OW51966   5.207   8.324   3.899
17239SOL    HW151967   5.186   8.350   3.810
17239SOL    HW251968   5.122   8.303   3.939
17240SOL     OW51969   3.414   4.163   1.015
17240SOL    HW151970   3.395   4.189   0.924
17240SOL    HW251971   3.494   4.111   1.008
17241SOL     OW51972  11.332   6.111   1.925
17241SOL    HW151973  11.352   6.126   2.018
17241SOL    HW251974  11.331   6.016   1.915
17242SOL     OW51975   5.295  13.816   4.307
17242SOL    HW151976   5.328  13.731   4.337
17242SOL    HW251977   5.257  13.856   4.385
17243SOL     OW51978  14.088  14.546   5.799
17243SOL    HW151979  14.051  14.458   5.799
17243SOL    HW251980  14.179  14.535   5.773
17244SOL     OW51981  12.390  14.833   7.471
17244SOL    HW151982  12.429  14.826   7.385
17244SOL    HW251983  12.302  14.795   7.461
17245SOL     OW51984   2.843  11.773   2.667
17245SOL    HW151985   2.814  11.744   2.753
17245SOL    HW251986   2.913  11.712   2.644
17246SOL     OW51987   8.181   6.345   1.651
17246SOL    HW151988   8.102   6.304   1.617
17246SOL    HW251989   8.247   6.331   1.582
17247SOL     OW51990   4.721   5.376   4.852
17247SOL    HW151991   4.663   5.451   4.864
17247SOL    HW251992   4.672   5.316   4.796
17248SOL     OW51993   9.917   9.793   5.262
17248SOL    HW151994   9.992   9.813   5.205
17248SOL    HW251995   9.901   9.874   5.309
17249SOL     OW51996   5.341   7.963   0.844
17249SOL    HW151997   5.402   8.023   0.801
17249SOL    HW251998   5.257   7.980   0.802
17250SOL     OW51999   3.379   5.532   2.331
17250SOL    HW152000   3.356   5.575   2.413
17250SOL    HW252001   3.367   5.599   2.264
17251SOL     OW52002  10.732   6.755   7.261
17251SOL    HW152003  10.758   6.792   7.177
17251SOL    HW252004  10.641   6.782   7.272
17252SOL     OW52005  13.794  12.187   5.580
17252SOL    HW152006  13.823  12.237   5.503
17252SOL    HW252007  13.872  12.179   5.634
17253SOL     OW52008  12.117  12.533   6.125
17253SOL    HW152009  12.113  12.448   6.082
17253SOL    HW252010  12.120  12.512   6.218
17254SOL     OW52011   3.749  10.301   0.843
17254SOL    HW152012   3.753  10.209   0.869
17254SOL    HW252013   3.657  10.317   0.822
17255SOL     OW52014   8.280   3.769   0.305
17255SOL    HW152015   8.269   3.856   0.342
17255SOL    HW252016   8.192   3.745   0.274
17256SOL     OW52017  10.268  10.914   2.598
17256SOL    HW152018  10.257  11.005   2.626
17256SOL    HW252019  10.344  10.883   2.647
17257SOL     OW52020   1.151   6.310   0.892
17257SOL    HW152021   1.060   6.335   0.909
17257SOL    HW252022   1.177   6.259   0.969
17258SOL     OW52023   6.950   4.367   3.062
17258SOL    HW152024   7.038   4.406   3.061
17258SOL    HW252025   6.895   4.435   3.101
17259SOL     OW52026   4.559   1.421   0.839
17259SOL    HW152027   4.478   1.449   0.882
17259SOL    HW252028   4.627   1.438   0.903
17260SOL     OW52029   0.414   7.693   0.520
17260SOL    HW152030   0.451   7.782   0.520
17260SOL    HW252031   0.340   7.699   0.460
17261SOL     OW52032   7.463   4.402   5.868
17261SOL    HW152033   7.558   4.409   5.870
17261SOL    HW252034   7.434   4.479   5.818
17262SOL     OW52035  11.145   2.772   1.925
17262SOL    HW152036  11.074   2.835   1.917
17262SOL    HW252037  11.109   2.690   1.893
17263SOL     OW52038   3.917   2.558   0.805
17263SOL    HW152039   4.013   2.562   0.798
17263SOL    HW252040   3.901   2.506   0.884
17264SOL     OW52041   7.035  13.594   7.461
17264SOL    HW152042   7.009  13.606   7.370
17264SOL    HW252043   6.953  13.599   7.511
17265SOL     OW52044   3.271   9.961   1.338
17265SOL    HW152045   3.354   9.996   1.369
17265SOL    HW252046   3.293   9.914   1.257
17266SOL     OW52047   6.507   5.160   7.162
17266SOL    HW152048   6.483   5.188   7.250
17266SOL    HW252049   6.591   5.116   7.173
17267SOL     OW52050   5.020   8.009   0.778
17267SOL    HW152051   4.963   8.022   0.853
17267SOL    HW252052   5.060   8.095   0.763
17268SOL     OW52053   9.654   6.931   0.303
17268SOL    HW152054   9.697   6.909   0.221
17268SOL    HW252055   9.654   7.027   0.304
17269SOL     OW52056   9.847  12.947   7.557
17269SOL    HW152057   9.915  12.899   7.509
17269SOL    HW252058   9.896  13.008   7.613
17270SOL     OW52059   7.327   5.530   4.455
17270SOL    HW152060   7.321   5.495   4.366
17270SOL    HW252061   7.418   5.558   4.464
17271SOL     OW52062  11.401  13.571   4.302
17271SOL    HW152063  11.479  13.563   4.356
17271SOL    HW252064  11.395  13.487   4.256
17272SOL     OW52065  10.702  11.002   5.819
17272SOL    HW152066  10.666  11.084   5.853
17272SOL    HW252067  10.645  10.934   5.855
17273SOL     OW52068   6.263  12.763   5.551
17273SOL    HW152069   6.288  12.778   5.643
17273SOL    HW252070   6.279  12.670   5.537
17274SOL     OW52071  11.657   4.891   2.127
17274SOL    HW152072  11.668   4.849   2.042
17274SOL    HW252073  11.562   4.900   2.137
17275SOL     OW52074   4.748   4.427   0.197
17275SOL    HW152075   4.681   4.390   0.254
17275SOL    HW252076   4.794   4.351   0.160
17276SOL     OW52077   6.716  11.877   4.724
17276SOL    HW152078   6.633  11.838   4.751
17276SOL    HW252079   6.744  11.826   4.649
17277SOL     OW52080   8.792   4.084   3.156
17277SOL    HW152081   8.855   4.071   3.085
17277SOL    HW252082   8.717   4.028   3.133
17278SOL     OW52083  10.341   9.807   6.595
17278SOL    HW152084  10.267   9.790   6.537
17278SOL    HW252085  10.387   9.724   6.601
17279SOL     OW52086   9.240   8.956   6.089
17279SOL    HW152087   9.186   8.902   6.146
17279SOL    HW252088   9.253   8.903   6.010
17280SOL     OW52089   8.201   1.013   0.777
17280SOL    HW152090   8.237   0.946   0.835
17280SOL    HW252091   8.166   1.079   0.837
17281SOL     OW52092   8.349   4.872   0.037
17281SOL    HW152093   8.313   4.891   0.123
17281SOL    HW252094  13.711  10.334   7.602
17282SOL     OW52095  11.092   0.657   0.779
17282SOL    HW152096  11.067   0.748   0.793
17282SOL    HW252097  11.027   0.607   0.829
17283SOL     OW52098  14.275  12.646   7.108
17283SOL    HW152099  14.370  12.638   7.119
17283SOL    HW252100  14.246  12.557   7.088
17284SOL     OW52101   1.392   9.201   1.257
17284SOL    HW152102   1.347   9.161   1.183
17284SOL    HW252103   1.415   9.289   1.228
17285SOL     OW52104   6.668   9.025   4.788
17285SOL    HW152105   6.690   9.074   4.867
17285SOL    HW252106   6.626   9.090   4.731
17286SOL     OW52107  12.522   9.108   7.113
17286SOL    HW152108  12.540   9.187   7.164
17286SOL    HW252109  12.607   9.082   7.077
17287SOL     OW52110   8.376   5.776   6.292
17287SOL    HW152111   8.367   5.867   6.321
17287SOL    HW252112   8.429   5.735   6.360
17288SOL     OW52113   6.917   3.274   3.216
17288SOL    HW152114   6.971   3.218   3.272
17288SOL    HW252115   6.850   3.310   3.274
17289SOL     OW52116   7.969   9.921   5.567
17289SOL    HW152117   7.980   9.888   5.478
17289SOL    HW252118   7.875   9.914   5.584
17290SOL     OW52119   7.714   9.893   0.012
17290SOL    HW152120  13.172  15.254   7.573
17290SOL    HW252121   7.745   9.973   0.054
17291SOL     OW52122   3.901  13.697   4.527
17291SOL    HW152123   3.953  13.754   4.584
17291SOL    HW252124   3.828  13.668   4.582
17292SOL     OW52125   4.517   9.218   6.368
17292SOL    HW152126  15.301   9.130   6.405
17292SOL    HW252127  15.263   9.271   6.442
17293SOL     OW52128   7.495   6.041   4.364
17293SOL    HW152129   7.442   5.962   4.365
17293SOL    HW252130   7.445   6.105   4.414
17294SOL     OW52131   4.972   6.373   6.738
17294SOL    HW152132   5.033   6.446   6.749
17294SOL    HW252133   4.902   6.391   6.801
17295SOL     OW52134   2.762   6.469   3.202
17295SOL    HW152135   2.722   6.430   3.124
17295SOL    HW252136   2.759   6.563   3.185
17296SOL     OW52137   2.752  11.650   2.452
17296SOL    HW152138   2.663  11.616   2.446
17296SOL    HW252139   2.783  11.622   2.538
17297SOL     OW52140   4.244   9.479   0.002
17297SOL    HW152141   9.586  14.947   7.596
17297SOL    HW252142   4.174   9.415   0.014
17298SOL     OW52143  10.632   7.440   5.527
17298SOL    HW152144  10.611   7.350   5.501
17298SOL    HW252145  10.547   7.484   5.530
17299SOL     OW52146   8.177  12.214   3.833
17299SOL    HW152147   8.134  12.295   3.805
17299SOL    HW252148   8.184  12.222   3.928
17300SOL     OW52149   6.628   3.985   1.047
17300SOL    HW152150   6.572   4.010   1.120
17300SOL    HW252151   6.645   3.892   1.061
17301SOL     OW52152   3.384   8.724   3.445
17301SOL    HW152153   3.337   8.764   3.519
17301SOL    HW252154   3.413   8.799   3.393
17302SOL     OW52155   7.483   8.465   2.308
17302SOL    HW152156   7.409   8.409   2.329
17302SOL    HW252157   7.539   8.411   2.252
17303SOL     OW52158   8.487   9.924   7.476
17303SOL    HW152159   8.441   9.853   7.431
17303SOL    HW252160   8.470   9.908   7.569
17304SOL     OW52161   7.090   1.361   0.939
17304SOL    HW152162   6.999   1.388   0.946
17304SOL    HW252163   7.100   1.332   0.849
17305SOL     OW52164   7.287   9.898   3.382
17305SOL    HW152165   7.306   9.839   3.456
17305SOL    HW252166   7.303   9.844   3.305
17306SOL     OW52167   1.086   6.669   1.325
17306SOL    HW152168   1.022   6.601   1.344
17306SOL    HW252169   1.169   6.622   1.315
17307SOL     OW52170   3.553   8.198   1.992
17307SOL    HW152171   3.541   8.293   2.004
17307SOL    HW252172   3.626   8.192   1.930
17308SOL     OW52173   5.496  12.399   7.533
17308SOL    HW152174   5.432  12.467   7.511
17308SOL    HW252175   5.581  12.442   7.520
17309SOL     OW52176   7.327   7.168   2.231
17309SOL    HW152177   7.370   7.215   2.160
17309SOL    HW252178   7.355   7.213   2.311
17310SOL     OW52179   5.059   5.816   6.208
17310SOL    HW152180   5.056   5.720   6.204
17310SOL    HW252181   4.968   5.843   6.194
17311SOL     OW52182   6.687   7.137   2.209
17311SOL    HW152183   6.601   7.118   2.172
17311SOL    HW252184   6.727   7.197   2.146
17312SOL     OW52185   6.406   1.837   1.935
17312SOL    HW152186   6.359   1.754   1.947
17312SOL    HW252187   6.477   1.815   1.875
17313SOL     OW52188   5.892   3.907   1.733
17313SOL    HW152189   5.838   3.852   1.677
17313SOL    HW252190   5.980   3.898   1.699
17314SOL     OW52191   6.264   9.833   0.195
17314SOL    HW152192   6.246   9.926   0.206
17314SOL    HW252193   6.355   9.822   0.223
17315SOL     OW52194   9.352   3.593   1.985
17315SOL    HW152195   9.422   3.640   2.030
17315SOL    HW252196   9.276   3.651   1.992
17316SOL     OW52197   8.069  10.392   4.344
17316SOL    HW152198   8.001  10.458   4.337
17316SOL    HW252199   8.053  10.333   4.271
17317SOL     OW52200   6.354   1.613   0.993
17317SOL    HW152201   6.406   1.538   1.018
17317SOL    HW252202   6.298   1.630   1.069
17318SOL     OW52203   9.645   9.738   5.147
17318SOL    HW152204   9.599   9.673   5.094
17318SOL    HW252205   9.716   9.688   5.189
17319SOL     OW52206   8.795   6.004   5.959
17319SOL    HW152207   8.726   6.019   6.023
17319SOL    HW252208   8.850   6.082   5.964
17320SOL     OW52209   3.326   6.955   3.523
17320SOL    HW152210   3.368   6.971   3.607
17320SOL    HW252211   3.249   6.902   3.543
17321SOL     OW52212   4.546   7.186   6.182
17321SOL    HW152213   4.563   7.257   6.120
17321SOL    HW252214   4.458   7.157   6.161
17322SOL     OW52215  12.245   6.711   7.008
17322SOL    HW152216  12.251   6.796   6.965
17322SOL    HW252217  12.254   6.647   6.938
17323SOL     OW52218   8.819   7.192   0.516
17323SOL    HW152219   8.871   7.251   0.461
17323SOL    HW252220   8.728   7.213   0.494
17324SOL     OW52221   3.832   2.632   0.167
17324SOL    HW152222   3.809   2.606   0.256
17324SOL    HW252223   3.756   2.680   0.135
17325SOL     OW52224   6.409  10.745   6.057
17325SOL    HW152225   6.487  10.782   6.016
17325SOL    HW252226   6.337  10.770   5.998
17326SOL     OW52227  11.385   4.491   2.498
17326SOL    HW152228  11.327   4.566   2.496
17326SOL    HW252229  11.329   4.418   2.524
17327SOL     OW52230  11.026   5.248   5.313
17327SOL    HW152231  10.986   5.330   5.282
17327SOL    HW252232  11.043   5.263   5.406
17328SOL     OW52233   6.858   1.160   0.821
17328SOL    HW152234   6.832   1.161   0.730
17328SOL    HW252235   6.941   1.111   0.822
17329SOL     OW52236   7.353   2.831   3.001
17329SOL    HW152237   7.385   2.920   2.989
17329SOL    HW252238   7.310   2.833   3.087
17330SOL     OW52239   8.463  14.046   4.893
17330SOL    HW152240   8.375  14.018   4.870
17330SOL    HW252241   8.498  13.975   4.947
17331SOL     OW52242   4.875  13.014   6.547
17331SOL    HW152243   4.876  13.003   6.642
17331SOL    HW252244   4.830  12.936   6.514
17332SOL     OW52245  13.467   6.489   4.441
17332SOL    HW152246  13.472   6.584   4.452
17332SOL    HW252247  13.547   6.457   4.483
17333SOL     OW52248   4.198   6.617   4.385
17333SOL    HW152249   4.279   6.632   4.337
17333SOL    HW252250   4.208   6.530   4.422
17334SOL     OW52251   8.255   2.234   0.952
17334SOL    HW152252   8.342   2.273   0.963
17334SOL    HW252253   8.238   2.192   1.037
17335SOL     OW52254  13.151   4.379   3.477
17335SOL    HW152255  13.185   4.378   3.567
17335SOL    HW252256  13.109   4.465   3.469
17336SOL     OW52257   5.502   7.364   2.861
17336SOL    HW152258   5.509   7.457   2.839
17336SOL    HW252259   5.446   7.362   2.939
17337SOL     OW52260  12.206  10.468   6.070
17337SOL    HW152261  12.263  10.405   6.113
17337SOL    HW252262  12.163  10.516   6.141
17338SOL     OW52263  12.117   8.724   3.747
17338SOL    HW152264  12.191   8.682   3.702
17338SOL    HW252265  12.043   8.713   3.687
17339SOL     OW52266  12.767  10.620   6.358
17339SOL    HW152267  12.846  10.575   6.330
17339SOL    HW252268  12.761  10.697   6.301
17340SOL     OW52269   4.449  11.236   3.759
17340SOL    HW152270   4.480  11.295   3.690
17340SOL    HW252271   4.354  11.234   3.747
17341SOL     OW52272  11.386   9.759   4.536
17341SOL    HW152273  11.455   9.714   4.487
17341SOL    HW252274  11.385   9.717   4.622
17342SOL     OW52275   8.084   7.241   4.609
17342SOL    HW152276   8.064   7.168   4.550
17342SOL    HW252277   8.039   7.219   4.690
17343SOL     OW52278   9.085   8.715   3.284
17343SOL    HW152279   9.094   8.807   3.259
17343SOL    HW252280   9.175   8.684   3.296
17344SOL     OW52281   2.921   8.361   0.875
17344SOL    HW152282   2.978   8.391   0.805
17344SOL    HW252283   2.852   8.312   0.831
17345SOL     OW52284   9.328  14.291   6.070
17345SOL    HW152285   9.274  14.368   6.089
17345SOL    HW252286   9.277  14.242   6.005
17346SOL     OW52287   8.900   7.956   0.774
17346SOL    HW152288   8.979   7.957   0.721
17346SOL    HW252289   8.839   7.900   0.726
17347SOL     OW52290   2.990   5.865   3.619
17347SOL    HW152291   2.975   5.949   3.662
17347SOL    HW252292   2.933   5.867   3.542
17348SOL     OW52293  10.762   9.715   1.877
17348SOL    HW152294  10.667   9.725   1.879
17348SOL    HW252295  10.792   9.777   1.810
17349SOL     OW52296   6.358  10.733   7.199
17349SOL    HW152297   6.368  10.823   7.167
17349SOL    HW252298   6.431  10.720   7.259
17350SOL     OW52299   6.028  14.150   4.851
17350SOL    HW152300   6.008   3.402   4.761
17350SOL    HW252301   6.089  14.077   4.841
17351SOL     OW52302  10.589   2.776   3.308
17351SOL    HW152303  10.618   2.771   3.399
17351SOL    HW252304  10.614   2.863   3.279
17352SOL     OW52305   7.922   3.910   3.229
17352SOL    HW152306   8.015   3.888   3.233
17352SOL    HW252307   7.920   4.006   3.220
17353SOL     OW52308  12.227   7.224   2.215
17353SOL    HW152309  12.197   7.145   2.172
17353SOL    HW252310  12.198   7.215   2.306
17354SOL     OW52311   5.776  10.318   0.061
17354SOL    HW152312   5.767  10.394   0.004
17354SOL    HW252313   5.695  10.316   0.111
17355SOL     OW52314   5.167   8.061   1.192
17355SOL    HW152315   5.254   8.073   1.230
17355SOL    HW252316   5.163   8.125   1.122
17356SOL     OW52317  11.365   5.844   7.485
17356SOL    HW152318  11.315   5.860   7.566
17356SOL    HW252319  11.325   5.903   7.421
17357SOL     OW52320   9.845  13.380   6.866
17357SOL    HW152321   9.932  13.370   6.826
17357SOL    HW252322   9.784  13.377   6.792
17358SOL     OW52323  10.824   7.653   0.609
17358SOL    HW152324  10.896   7.589   0.610
17358SOL    HW252325  10.753   7.608   0.563
17359SOL     OW52326   9.082  11.201   5.596
17359SOL    HW152327   9.073  11.228   5.504
17359SOL    HW252328   9.087  11.105   5.592
17360SOL     OW52329   3.629   5.260   5.021
17360SOL    HW152330  14.329   5.278   5.079
17360SOL    HW252331   3.682   5.196   5.069
17361SOL     OW52332  11.624   6.948   5.888
17361SOL    HW152333  11.719   6.943   5.885
17361SOL    HW252334  11.603   6.960   5.980
17362SOL     OW52335  10.177   9.172   1.506
17362SOL    HW152336  10.247   9.234   1.489
17362SOL    HW252337  10.121   9.216   1.570
17363SOL     OW52338   3.672   6.099   3.262
17363SOL    HW152339   3.615   6.136   3.330
17363SOL    HW252340   3.755   6.146   3.272
17364SOL     OW52341   7.750   5.503   4.642
17364SOL    HW152342   7.681   5.460   4.692
17364SOL    HW252343   7.831   5.461   4.673
17365SOL     OW52344  11.807   7.983   4.299
17365SOL    HW152345  11.814   7.940   4.384
17365SOL    HW252346  11.822   8.076   4.317
17366SOL     OW52347   8.004  12.078   2.687
17366SOL    HW152348   8.071  12.146   2.687
17366SOL    HW252349   8.022  12.026   2.608
17367SOL     OW52350   5.442   4.344   2.745
17367SOL    HW152351   5.357   4.314   2.777
17367SOL    HW252352   5.496   4.348   2.824
17368SOL     OW52353  11.358   9.498   6.895
17368SOL    HW152354  11.398   9.553   6.962
17368SOL    HW252355  11.352   9.555   6.818
17369SOL     OW52356   5.819  11.167   1.394
17369SOL    HW152357   5.875  11.185   1.470
17369SOL    HW252358   5.791  11.076   1.406
17370SOL     OW52359   7.364   8.092   5.671
17370SOL    HW152360   7.368   8.148   5.750
17370SOL    HW252361   7.275   8.059   5.669
17371SOL     OW52362  15.617  12.143   7.313
17371SOL    HW152363  15.592  12.073   7.374
17371SOL    HW252364  15.677  12.198   7.363
17372SOL     OW52365   8.525   8.089   0.755
17372SOL    HW152366   8.547   8.044   0.674
17372SOL    HW252367   8.431   8.073   0.767
17373SOL     OW52368  11.746   7.552   5.171
17373SOL    HW152369  11.771   7.515   5.086
17373SOL    HW252370  11.651   7.538   5.176
17374SOL     OW52371   4.398  11.651   3.689
17374SOL    HW152372   4.411  11.576   3.632
17374SOL    HW252373   4.478  11.704   3.677
17375SOL     OW52374   8.066  11.641   5.957
17375SOL    HW152375   8.033  11.554   5.933
17375SOL    HW252376   7.996  11.701   5.932
17376SOL     OW52377   5.218   6.172   1.257
17376SOL    HW152378   5.238   6.220   1.177
17376SOL    HW252379   5.155   6.227   1.304
17377SOL     OW52380   9.213  11.953   4.400
17377SOL    HW152381   9.268  11.875   4.388
17377SOL    HW252382   9.184  11.948   4.491
17378SOL     OW52383   7.767   4.451   1.957
17378SOL    HW152384   7.810   4.516   2.012
17378SOL    HW252385   7.685   4.492   1.930
17379SOL     OW52386   7.254   9.056   0.373
17379SOL    HW152387   7.251   9.118   0.300
17379SOL    HW252388   7.305   8.983   0.340
17380SOL     OW52389  12.076   5.234   2.105
17380SOL    HW152390  12.055   5.320   2.140
17380SOL    HW252391  12.021   5.225   2.027
17381SOL     OW52392   7.717   7.676   4.328
17381SOL    HW152393   7.769   7.596   4.333
17381SOL    HW252394   7.677   7.673   4.241
17382SOL     OW52395   4.122   5.871   2.590
17382SOL    HW152396   4.167   5.799   2.635
17382SOL    HW252397   4.184   5.901   2.524
17383SOL     OW52398   7.886  12.327   4.311
17383SOL    HW152399   7.912  12.379   4.387
17383SOL    HW252400   7.923  12.240   4.327
17384SOL     OW52401  14.023   8.541   7.502
17384SOL    HW152402  13.958   8.537   7.572
17384SOL    HW252403  14.098   8.585   7.542
17385SOL     OW52404  10.753   7.227   3.210
17385SOL    HW152405  10.748   7.146   3.261
17385SOL    HW252406  10.845   7.252   3.213
17386SOL     OW52407   7.531  10.596   5.693
17386SOL    HW152408   7.598  10.615   5.759
17386SOL    HW252409   7.448  10.615   5.738
17387SOL     OW52410   9.332   3.624   3.727
17387SOL    HW152411   9.241   3.596   3.719
17387SOL    HW252412   9.381   3.567   3.669
17388SOL     OW52413  12.116  14.432   5.254
17388SOL    HW152414  12.079  14.344   5.262
17388SOL    HW252415  12.210  14.419   5.256
17389SOL     OW52416   7.047   7.286   4.736
17389SOL    HW152417   7.119   7.318   4.789
17389SOL    HW252418   6.990   7.240   4.797
17390SOL     OW52419   8.639   8.400   6.941
17390SOL    HW152420   8.697   8.457   6.891
17390SOL    HW252421   8.696   8.333   6.978
17391SOL     OW52422  11.961   9.743   5.388
17391SOL    HW152423  11.883   9.724   5.336
17391SOL    HW252424  12.026   9.775   5.324
17392SOL     OW52425   8.068   6.990   4.086
17392SOL    HW152426   8.007   6.917   4.091
17392SOL    HW252427   8.090   7.009   4.177
17393SOL     OW52428   7.862   5.985   3.759
17393SOL    HW152429   7.905   6.022   3.682
17393SOL    HW252430   7.857   6.058   3.821
17394SOL     OW52431   7.838   4.206   4.438
17394SOL    HW152432   7.873   4.176   4.522
17394SOL    HW252433   7.772   4.271   4.461
17395SOL     OW52434   5.703   2.718   3.789
17395SOL    HW152435   5.696   2.643   3.729
17395SOL    HW252436   5.730   2.791   3.734
17396SOL     OW52437  14.357  13.710   5.809
17396SOL    HW152438  14.433  13.664   5.773
17396SOL    HW252439  14.354  13.683   5.901
17397SOL     OW52440   3.747  10.296   5.249
17397SOL    HW152441  14.465  10.219   5.243
17397SOL    HW252442  14.461  10.369   5.262
17398SOL     OW52443  12.501   9.441   3.740
17398SOL    HW152444  12.453   9.481   3.668
17398SOL    HW252445  12.523   9.354   3.709
17399SOL     OW52446  12.464  10.448   6.198
17399SOL    HW152447  12.429  10.537   6.201
17399SOL    HW252448  12.547  10.456   6.152
17400SOL     OW52449   0.473   0.628   0.219
17400SOL    HW152450   0.460   0.571   0.295
17400SOL    HW252451   0.493   0.568   0.147
17401SOL     OW52452   7.155  12.924   6.722
17401SOL    HW152453   7.186  12.843   6.762
17401SOL    HW252454   7.060  12.917   6.724
17402SOL     OW52455   3.754  10.216   4.873
17402SOL    HW152456   3.816  10.158   4.829
17402SOL    HW252457   3.805  10.293   4.895
17403SOL     OW52458   8.320   7.440   7.082
17403SOL    HW152459   8.413   7.456   7.069
17403SOL    HW252460   8.281   7.448   6.995
17404SOL     OW52461   5.806  10.488   4.059
17404SOL    HW152462   5.872  10.519   3.996
17404SOL    HW252463   5.723  10.516   4.022
17405SOL     OW52464   6.452   4.787   0.961
17405SOL    HW152465   6.530   4.744   0.925
17405SOL    HW252466   6.391   4.791   0.887
17406SOL     OW52467  12.648   5.220   7.037
17406SOL    HW152468  12.735   5.203   7.075
17406SOL    HW252469  12.662   5.296   6.981
17407SOL     OW52470   5.385   9.935   7.276
17407SOL    HW152471   5.353   9.875   7.343
17407SOL    HW252472   5.471   9.902   7.252
17408SOL     OW52473   4.894   6.343   5.837
17408SOL    HW152474   4.822   6.313   5.892
17408SOL    HW252475   4.969   6.350   5.896
17409SOL     OW52476  10.686   6.960   0.176
17409SOL    HW152477  10.769   6.914   0.183
17409SOL    HW252478  10.704   7.032   0.115
17410SOL     OW52479   6.749   3.496   2.182
17410SOL    HW152480   6.706   3.577   2.155
17410SOL    HW252481   6.723   3.484   2.274
17411SOL     OW52482   6.104   9.541   5.664
17411SOL    HW152483   6.172   9.494   5.712
17411SOL    HW252484   6.103   9.501   5.577
17412SOL     OW52485   5.062   5.687   1.650
17412SOL    HW152486   5.138   5.731   1.610
17412SOL    HW252487   5.040   5.741   1.725
17413SOL     OW52488  12.370  10.139   5.462
17413SOL    HW152489  12.450  10.168   5.418
17413SOL    HW252490  12.382  10.164   5.554
17414SOL     OW52491   8.210   7.623   7.248
17414SOL    HW152492   8.241   7.555   7.188
17414SOL    HW252493   8.178   7.575   7.324
17415SOL     OW52494  10.427   6.845   0.795
17415SOL    HW152495  10.483   6.783   0.747
17415SOL    HW252496  10.475   6.928   0.793
17416SOL     OW52497   4.222  13.137   4.017
17416SOL    HW152498   4.127  13.146   4.012
17416SOL    HW252499   4.242  13.139   4.110
17417SOL     OW52500   8.560   3.222   0.890
17417SOL    HW152501   8.555   3.305   0.936
17417SOL    HW252502   8.590   3.159   0.955
17418SOL     OW52503  10.922  10.402   7.061
17418SOL    HW152504  10.833  10.389   7.092
17418SOL    HW252505  10.942  10.493   7.081
17419SOL     OW52506  11.152   1.767   0.937
17419SOL    HW152507  11.153   1.789   1.030
17419SOL    HW252508  11.240   1.732   0.920
17420SOL     OW52509   8.061   7.564   1.422
17420SOL    HW152510   8.068   7.603   1.335
17420SOL    HW252511   8.032   7.635   1.479
17421SOL     OW52512  13.845   6.434   5.732
17421SOL    HW152513  13.846   6.349   5.776
17421SOL    HW252514  13.922   6.432   5.674
17422SOL     OW52515   5.659  11.092   6.211
17422SOL    HW152516   5.564  11.091   6.226
17422SOL    HW252517   5.668  11.109   6.117
17423SOL     OW52518   3.539  13.967   4.640
17423SOL    HW152519   3.601  13.982   4.569
17423SOL    HW252520   3.457  13.944   4.595
17424SOL     OW52521   8.204   7.799   2.440
17424SOL    HW152522   8.124   7.814   2.390
17424SOL    HW252523   8.230   7.709   2.418
17425SOL     OW52524  11.942   7.132   3.175
17425SOL    HW152525  12.035   7.135   3.152
17425SOL    HW252526  11.941   7.113   3.269
17426SOL     OW52527   5.247  11.114   6.568
17426SOL    HW152528   5.335  11.134   6.536
17426SOL    HW252529   5.189  11.146   6.499
17427SOL     OW52530   1.075   3.221   1.257
17427SOL    HW152531   1.097   3.306   1.296
17427SOL    HW252532   1.156   3.192   1.216
17428SOL     OW52533   6.507   9.868   3.335
17428SOL    HW152534   6.417   9.884   3.308
17428SOL    HW252535   6.518   9.919   3.415
17429SOL     OW52536   9.168   8.666   4.087
17429SOL    HW152537   9.168   8.708   4.001
17429SOL    HW252538   9.194   8.736   4.148
17430SOL     OW52539   2.273   1.098   1.343
17430SOL    HW152540   2.236   1.024   1.295
17430SOL    HW252541   2.211   1.115   1.414
17431SOL     OW52542   8.057   6.491   4.988
17431SOL    HW152543   7.995   6.467   5.056
17431SOL    HW252544   8.087   6.406   4.953
17432SOL     OW52545  10.484  10.489   0.910
17432SOL    HW152546  10.501  10.575   0.872
17432SOL    HW252547  10.492  10.502   1.005
17433SOL     OW52548   8.240   9.557   6.723
17433SOL    HW152549   8.297   9.480   6.718
17433SOL    HW252550   8.229   9.572   6.817
17434SOL     OW52551   7.672   8.931   4.087
17434SOL    HW152552   7.700   8.994   4.021
17434SOL    HW252553   7.713   8.962   4.168
17435SOL     OW52554   8.027   1.299   1.700
17435SOL    HW152555   8.035   1.321   1.793
17435SOL    HW252556   7.965   1.364   1.666
17436SOL     OW52557   4.310  12.796   5.825
17436SOL    HW152558   4.380  12.862   5.823
17436SOL    HW252559   4.246  12.832   5.887
17437SOL     OW52560  13.261   8.365   6.042
17437SOL    HW152561  13.347   8.352   6.003
17437SOL    HW252562  13.269   8.330   6.131
17438SOL     OW52563   4.728  13.432   5.290
17438SOL    HW152564   4.704  13.374   5.362
17438SOL    HW252565   4.692  13.389   5.212
17439SOL     OW52566  14.409  10.741   5.915
17439SOL    HW152567  14.341  10.709   5.856
17439SOL    HW252568  14.411  10.678   5.987
17440SOL     OW52569   7.846   8.610   4.942
17440SOL    HW152570   7.834   8.705   4.933
17440SOL    HW252571   7.845   8.577   4.853
17441SOL     OW52572  10.224  13.362   7.337
17441SOL    HW152573  10.251  13.389   7.425
17441SOL    HW252574  10.153  13.422   7.315
17442SOL     OW52575   3.989  13.024   3.706
17442SOL    HW152576   3.991  13.045   3.613
17442SOL    HW252577   4.007  13.108   3.750
17443SOL     OW52578   1.080   6.115   0.701
17443SOL    HW152579   1.123   6.182   0.755
17443SOL    HW252580   1.097   6.144   0.611
17444SOL     OW52581  14.550  13.823   6.111
17444SOL    HW152582  14.498  13.746   6.086
17444SOL    HW252583  14.508  13.856   6.190
17445SOL     OW52584  11.630  10.088   3.009
17445SOL    HW152585  11.656   9.999   2.989
17445SOL    HW252586  11.558  10.107   2.950
17446SOL     OW52587   4.513   5.673   4.171
17446SOL    HW152588   4.496   5.583   4.143
17446SOL    HW252589   4.494   5.673   4.265
17447SOL     OW52590   8.247   6.382   3.258
17447SOL    HW152591   8.291   6.297   3.258
17447SOL    HW252592   8.160   6.363   3.223
17448SOL     OW52593   6.892   4.373   0.732
17448SOL    HW152594   6.815   4.335   0.773
17448SOL    HW252595   6.861   4.452   0.689
17449SOL     OW52596  11.160   8.441   6.477
17449SOL    HW152597  11.102   8.371   6.449
17449SOL    HW252598  11.240   8.397   6.507
17450SOL     OW52599   8.267   3.854   2.994
17450SOL    HW152600   8.198   3.879   2.934
17450SOL    HW252601   8.331   3.926   2.989
17451SOL     OW52602  11.328   5.518   2.003
17451SOL    HW152603  11.249   5.535   2.053
17451SOL    HW252604  11.321   5.575   1.927
17452SOL     OW52605   7.077  10.188   1.185
17452SOL    HW152606   7.172  10.199   1.182
17452SOL    HW252607   7.061  10.103   1.143
17453SOL     OW52608   8.287   5.012   3.974
17453SOL    HW152609   8.225   4.945   4.001
17453SOL    HW252610   8.345   5.023   4.049
17454SOL     OW52611   7.789   7.693   7.505
17454SOL    HW152612   7.814   7.647   7.585
17454SOL    HW252613   7.697   7.713   7.516
17455SOL     OW52614   6.397   7.146   0.253
17455SOL    HW152615   6.357   7.065   0.221
17455SOL    HW252616   6.485   7.119   0.282
17456SOL     OW52617   9.383   2.860   2.487
17456SOL    HW152618   9.385   2.872   2.392
17456SOL    HW252619   9.414   2.944   2.522
17457SOL     OW52620   5.668   6.139   6.057
17457SOL    HW152621   5.612   6.168   6.129
17457SOL    HW252622   5.716   6.064   6.093
17458SOL     OW52623   3.563   6.374   2.876
17458SOL    HW152624   3.593   6.415   2.957
17458SOL    HW252625   3.492   6.317   2.903
17459SOL     OW52626   2.037  10.887   0.415
17459SOL    HW152627   2.108  10.831   0.383
17459SOL    HW252628   2.035  10.872   0.510
17460SOL     OW52629   9.092   9.349   4.492
17460SOL    HW152630   9.083   9.393   4.576
17460SOL    HW252631   9.022   9.284   4.491
17461SOL     OW52632   8.282   4.628   5.431
17461SOL    HW152633   8.267   4.554   5.372
17461SOL    HW252634   8.195   4.648   5.467
17462SOL     OW52635   5.309   5.363   7.115
17462SOL    HW152636   5.295   5.445   7.163
17462SOL    HW252637   5.316   5.390   7.023
17463SOL     OW52638   5.476  12.135   4.024
17463SOL    HW152639   5.419  12.088   4.084
17463SOL    HW252640   5.453  12.101   3.937
17464SOL     OW52641  10.386   1.078   0.372
17464SOL    HW152642  10.305   1.050   0.414
17464SOL    HW252643  10.359   1.149   0.313
17465SOL     OW52644   6.467   2.763   1.075
17465SOL    HW152645   6.428   2.733   1.157
17465SOL    HW252646   6.459   2.858   1.078
17466SOL     OW52647  13.611   4.675   6.015
17466SOL    HW152648  13.547   4.744   5.997
17466SOL    HW252649  13.664   4.670   5.935
17467SOL     OW52650   9.506   0.721   0.598
17467SOL    HW152651   9.597   0.714   0.627
17467SOL    HW252652   9.506   0.677   0.513
17468SOL     OW52653  12.306   9.238   3.687
17468SOL    HW152654  12.332   9.291   3.763
17468SOL    HW252655  12.281   9.154   3.725
17469SOL     OW52656  10.518  12.931   5.941
17469SOL    HW152657  10.528  12.937   6.036
17469SOL    HW252658  10.543  13.018   5.909
17470SOL     OW52659  12.414   9.603   6.673
17470SOL    HW152660  12.443   9.694   6.673
17470SOL    HW252661  12.355   9.597   6.598
17471SOL     OW52662   3.448   3.976   4.041
17471SOL    HW152663   3.445   3.951   4.133
17471SOL    HW252664   3.520   4.039   4.037
17472SOL     OW52665   5.369   3.281   2.237
17472SOL    HW152666   5.328   3.203   2.200
17472SOL    HW252667   5.455   3.284   2.196
17473SOL     OW52668  11.272  12.797   5.294
17473SOL    HW152669  11.187  12.805   5.251
17473SOL    HW252670  11.308  12.886   5.294
17474SOL     OW52671   6.434   0.664   0.630
17474SOL    HW152672   6.371   0.691   0.563
17474SOL    HW252673   6.510   0.720   0.615
17475SOL     OW52674  10.612  13.283   6.261
17475SOL    HW152675  10.618  13.199   6.307
17475SOL    HW252676  10.619  13.349   6.330
17476SOL     OW52677   7.822  10.645   6.270
17476SOL    HW152678   7.792  10.638   6.361
17476SOL    HW252679   7.836  10.739   6.256
17477SOL     OW52680   4.958  10.109   5.022
17477SOL    HW152681   4.881  10.140   5.070
17477SOL    HW252682   4.999  10.189   4.989
17478SOL     OW52683   7.034   9.249   2.533
17478SOL    HW152684   6.954   9.299   2.523
17478SOL    HW252685   7.015   9.186   2.602
17479SOL     OW52686  10.107   1.260   1.632
17479SOL    HW152687  10.072   1.191   1.576
17479SOL    HW252688  10.129   1.331   1.572
17480SOL     OW52689   0.648  10.691   0.440
17480SOL    HW152690   0.642  10.698   0.345
17480SOL    HW252691   0.725  10.742   0.464
17481SOL     OW52692   5.061   9.864   2.723
17481SOL    HW152693   5.006   9.790   2.751
17481SOL    HW252694   5.011   9.941   2.750
17482SOL     OW52695   2.265   3.967   2.975
17482SOL    HW152696   2.319   4.007   2.907
17482SOL    HW252697   2.243   4.039   3.034
17483SOL     OW52698   5.656   7.105   3.509
17483SOL    HW152699   5.749   7.089   3.499
17483SOL    HW252700   5.619   7.019   3.532
17484SOL     OW52701   8.511   5.522   3.806
17484SOL    HW152702   8.554   5.517   3.891
17484SOL    HW252703   8.484   5.613   3.797
17485SOL     OW52704   5.516  10.331   2.998
17485SOL    HW152705   5.469  10.253   3.027
17485SOL    HW252706   5.514  10.390   3.074
17486SOL     OW52707  13.324   4.388   5.314
17486SOL    HW152708  13.390   4.322   5.335
17486SOL    HW252709  13.372   4.458   5.271
17487SOL     OW52710  13.348  11.235   5.583
17487SOL    HW152711  13.330  11.328   5.571
17487SOL    HW252712  13.366  11.226   5.677
17488SOL     OW52713  10.171   4.884   2.309
17488SOL    HW152714  10.209   4.914   2.226
17488SOL    HW252715  10.177   4.959   2.367
17489SOL     OW52716   7.919  13.374   5.117
17489SOL    HW152717   7.996  13.330   5.081
17489SOL    HW252718   7.860  13.302   5.141
17490SOL     OW52719   6.223  10.348   6.885
17490SOL    HW152720   6.316  10.360   6.869
17490SOL    HW252721   6.196  10.429   6.929
17491SOL     OW52722   3.984   7.427   1.363
17491SOL    HW152723   3.890   7.443   1.361
17491SOL    HW252724   4.006   7.419   1.456
17492SOL     OW52725  12.101   7.970   3.109
17492SOL    HW152726  12.117   7.881   3.139
17492SOL    HW252727  12.164   8.023   3.157
17493SOL     OW52728   9.462  11.249   2.608
17493SOL    HW152729   9.535  11.198   2.643
17493SOL    HW252730   9.447  11.317   2.674
17494SOL     OW52731   7.106  13.335   3.883
17494SOL    HW152732   7.090  13.407   3.943
17494SOL    HW252733   7.081  13.257   3.932
17495SOL     OW52734   4.538   8.638   4.344
17495SOL    HW152735   4.595   8.569   4.376
17495SOL    HW252736   4.546   8.634   4.249
17496SOL     OW52737   6.241   3.649   1.102
17496SOL    HW152738   6.320   3.701   1.090
17496SOL    HW252739   6.233   3.638   1.196
17497SOL     OW52740   2.198   8.313   0.956
17497SOL    HW152741   2.212   8.268   1.039
17497SOL    HW252742   2.105   8.303   0.937
17498SOL     OW52743   5.739   9.195   4.948
17498SOL    HW152744   5.650   9.158   4.942
17498SOL    HW252745   5.725   9.289   4.951
17499SOL     OW52746  13.459  13.176   7.545
17499SOL    HW152747  13.365  13.175   7.566
17499SOL    HW252748  13.484  13.269   7.552
17500SOL     OW52749  14.014   5.224   7.378
17500SOL    HW152750  14.020  15.905   7.361
17500SOL    HW252751  13.979  16.005   7.467
17501SOL     OW52752   4.635   7.658   1.360
17501SOL    HW152753   4.667   7.585   1.414
17501SOL    HW252754   4.714   7.707   1.337
17502SOL     OW52755  10.316  11.978   7.495
17502SOL    HW152756  10.313  11.899   7.440
17502SOL    HW252757  10.338  11.946   7.582
17503SOL     OW52758   6.612   9.362   5.657
17503SOL    HW152759   6.535   9.367   5.714
17503SOL    HW252760   6.581   9.393   5.572
17504SOL     OW52761  11.727  15.227   6.535
17504SOL    HW152762  11.726  15.322   6.531
17504SOL    HW252763  11.818  15.203   6.521
17505SOL     OW52764   5.207  10.894   4.170
17505SOL    HW152765   5.223  10.806   4.134
17505SOL    HW252766   5.224  10.885   4.264
17506SOL     OW52767   2.554   2.179   2.769
17506SOL    HW152768   2.644   2.172   2.738
17506SOL    HW252769   2.562   2.188   2.864
17507SOL     OW52770  14.001  10.044   7.427
17507SOL    HW152771  13.909  10.066   7.412
17507SOL    HW252772  14.046  10.067   7.346
17508SOL     OW52773   5.854   3.076   1.735
17508SOL    HW152774   5.910   3.153   1.733
17508SOL    HW252775   5.765   3.111   1.735
17509SOL     OW52776   3.214  13.592   4.220
17509SOL    HW152777   3.163  13.545   4.155
17509SOL    HW252778   3.284  13.635   4.170
17510SOL     OW52779  14.029  13.912   4.840
17510SOL    HW152780  14.022  13.978   4.771
17510SOL    HW252781  14.069  13.837   4.796
17511SOL     OW52782   4.176   6.623   3.671
17511SOL    HW152783   4.116   6.626   3.746
17511SOL    HW252784   4.263   6.622   3.711
17512SOL     OW52785   8.182   6.559   1.845
17512SOL    HW152786   8.097   6.605   1.843
17512SOL    HW252787   8.178   6.497   1.773
17513SOL     OW52788   8.979  10.194   1.019
17513SOL    HW152789   9.021  10.109   1.002
17513SOL    HW252790   8.969  10.196   1.115
17514SOL     OW52791   5.726   9.187   0.989
17514SOL    HW152792   5.779   9.210   1.065
17514SOL    HW252793   5.660   9.127   1.023
17515SOL     OW52794  15.281   7.676   7.074
17515SOL    HW152795  15.252   7.723   6.997
17515SOL    HW252796  15.371   7.706   7.088
17516SOL     OW52797  10.372   4.367   3.197
17516SOL    HW152798  10.363   4.277   3.165
17516SOL    HW252799  10.289   4.409   3.176
17517SOL     OW52800   3.812   7.541   4.685
17517SOL    HW152801   3.850   7.483   4.750
17517SOL    HW252802   3.771   7.483   4.621
17518SOL     OW52803  11.535   3.944   4.387
17518SOL    HW152804  11.533   3.939   4.291
17518SOL    HW252805  11.446   3.919   4.414
17519SOL     OW52806   5.022   8.500   2.468
17519SOL    HW152807   5.014   8.540   2.555
17519SOL    HW252808   4.933   8.473   2.446
17520SOL     OW52809   4.610  13.136   4.769
17520SOL    HW152810   4.539  13.179   4.721
17520SOL    HW252811   4.684  13.196   4.762
17521SOL     OW52812  13.635   6.698   4.538
17521SOL    HW152813  13.678   6.723   4.455
17521SOL    HW252814  13.707   6.692   4.601
17522SOL     OW52815  12.694   7.648   3.366
17522SOL    HW152816  12.760   7.707   3.402
17522SOL    HW252817  12.621   7.705   3.342
17523SOL     OW52818   6.060  12.995   4.234
17523SOL    HW152819   6.154  13.000   4.214
17523SOL    HW252820   6.036  12.905   4.215
17524SOL     OW52821   6.732   7.657   5.189
17524SOL    HW152822   6.748   7.619   5.275
17524SOL    HW252823   6.662   7.604   5.151
17525SOL     OW52824   5.944   5.467   6.746
17525SOL    HW152825   5.850   5.453   6.760
17525SOL    HW252826   5.975   5.383   6.712
17526SOL     OW52827   4.202   5.062   4.577
17526SOL    HW152828   4.134   5.127   4.592
17526SOL    HW252829   4.267   5.107   4.523
17527SOL     OW52830   5.147   9.022   4.057
17527SOL    HW152831   5.178   9.099   4.105
17527SOL    HW252832   5.103   9.058   3.979
17528SOL     OW52833   9.442   6.012   5.687
17528SOL    HW152834   9.370   5.995   5.748
17528SOL    HW252835   9.401   6.008   5.600
17529SOL     OW52836   7.196  10.529   2.370
17529SOL    HW152837   7.191  10.448   2.421
17529SOL    HW252838   7.174  10.598   2.434
17530SOL     OW52839   2.721  10.429   2.061
17530SOL    HW152840   2.707  10.522   2.041
17530SOL    HW252841   2.703  10.421   2.154
17531SOL     OW52842  12.690   8.849   6.487
17531SOL    HW152843  12.668   8.768   6.441
17531SOL    HW252844  12.617   8.862   6.548
17532SOL     OW52845   5.174  10.880   4.814
17532SOL    HW152846   5.174  10.787   4.838
17532SOL    HW252847   5.196  10.926   4.894
17533SOL     OW52848  14.548  14.976   6.881
17533SOL    HW152849  14.513  14.923   6.809
17533SOL    HW252850  14.639  14.947   6.889
17534SOL     OW52851   3.349   3.108   1.957
17534SOL    HW152852   3.276   3.122   1.898
17534SOL    HW252853   3.369   3.015   1.949
17535SOL     OW52854  11.163   9.388   4.973
17535SOL    HW152855  11.133   9.301   4.946
17535SOL    HW252856  11.105   9.413   5.044
17536SOL     OW52857   1.674   3.455   0.028
17536SOL    HW152858   1.720   3.377   0.059
17536SOL    HW252859   7.006   8.811   7.575
17537SOL     OW52860   2.112  10.397   2.781
17537SOL    HW152861   2.046  10.422   2.717
17537SOL    HW252862   2.085  10.442   2.862
17538SOL     OW52863   5.976   8.806   6.096
17538SOL    HW152864   5.948   8.867   6.164
17538SOL    HW252865   6.041   8.854   6.045
17539SOL     OW52866   6.071   3.579   1.620
17539SOL    HW152867   6.124   3.596   1.542
17539SOL    HW252868   6.109   3.636   1.687
17540SOL     OW52869  15.372  11.387   6.992
17540SOL    HW152870  15.362  11.317   6.927
17540SOL    HW252871  15.458  11.425   6.974
17541SOL     OW52872   4.417   6.683   4.231
17541SOL    HW152873   4.387   6.690   4.140
17541SOL    HW252874   4.499   6.635   4.225
17542SOL     OW52875   6.257   8.056   0.464
17542SOL    HW152876   6.222   8.145   0.461
17542SOL    HW252877   6.181   8.001   0.482
17543SOL     OW52878  11.514   6.722   4.746
17543SOL    HW152879  11.599   6.684   4.770
17543SOL    HW252880  11.517   6.811   4.782
17544SOL     OW52881   9.490   4.039   5.491
17544SOL    HW152882   9.492   3.944   5.496
17544SOL    HW252883   9.472   4.057   5.398
17545SOL     OW52884   6.290   7.760   4.769
17545SOL    HW152885   6.351   7.831   4.791
17545SOL    HW252886   6.252   7.787   4.686
17546SOL     OW52887   3.468   8.891   0.179
17546SOL    HW152888   3.404   8.833   0.220
17546SOL    HW252889   3.478   8.857   0.090
17547SOL     OW52890   2.064  10.674   0.941
17547SOL    HW152891   2.097  10.669   1.031
17547SOL    HW252892   1.999  10.744   0.943
17548SOL     OW52893   9.114   8.092   4.952
17548SOL    HW152894   9.033   8.041   4.941
17548SOL    HW252895   9.135   8.082   5.044
17549SOL     OW52896   8.106  10.900   2.223
17549SOL    HW152897   8.036  10.963   2.207
17549SOL    HW252898   8.180  10.934   2.173
17550SOL     OW52899   9.196   6.207   6.337
17550SOL    HW152900   9.212   6.126   6.385
17550SOL    HW252901   9.118   6.188   6.284
17551SOL     OW52902   2.058   2.336   2.468
17551SOL    HW152903   1.981   2.297   2.427
17551SOL    HW252904   2.112   2.367   2.395
17552SOL     OW52905   8.598   5.987   1.043
17552SOL    HW152906   8.601   6.018   1.134
17552SOL    HW252907   8.528   5.922   1.042
17553SOL     OW52908  12.117   2.613   2.506
17553SOL    HW152909  12.108   2.682   2.572
17553SOL    HW252910  12.027   2.592   2.481
17554SOL     OW52911   5.342   2.283   2.211
17554SOL    HW152912   5.291   2.208   2.181
17554SOL    HW252913   5.407   2.246   2.270
17555SOL     OW52914   9.438   5.852   5.167
17555SOL    HW152915   9.514   5.889   5.211
17555SOL    HW252916   9.364   5.881   5.219
17556SOL     OW52917   5.298   8.676   2.058
17556SOL    HW152918   5.276   8.585   2.077
17556SOL    HW252919   5.321   8.677   1.965
17557SOL     OW52920  14.526   5.766   6.796
17557SOL    HW152921  14.538   5.797   6.886
17557SOL    HW252922  14.572   5.832   6.743
17558SOL     OW52923   9.651   4.704   0.786
17558SOL    HW152924   9.712   4.678   0.718
17558SOL    HW252925   9.596   4.770   0.745
17559SOL     OW52926   3.016  12.069   2.087
17559SOL    HW152927   2.991  12.155   2.053
17559SOL    HW252928   3.095  12.086   2.138
17560SOL     OW52929  12.936  11.675   4.832
17560SOL    HW152930  12.958  11.738   4.764
17560SOL    HW252931  12.908  11.596   4.785
17561SOL     OW52932   3.667   6.983   3.034
17561SOL    HW152933   3.762   6.993   3.036
17561SOL    HW252934   3.635   7.039   3.104
17562SOL     OW52935   5.287   9.945   1.065
17562SOL    HW152936   5.261  10.037   1.061
17562SOL    HW252937   5.228   9.900   1.004
17563SOL     OW52938  10.818  10.769   6.324
17563SOL    HW152939  10.776  10.769   6.238
17563SOL    HW252940  10.775  10.840   6.372
17564SOL     OW52941   5.960   4.276   1.207
17564SOL    HW152942   6.012   4.356   1.218
17564SOL    HW252943   5.954   4.265   1.112
17565SOL     OW52944   7.999  12.423   3.383
17565SOL    HW152945   7.995  12.332   3.354
17565SOL    HW252946   8.091  12.447   3.370
17566SOL     OW52947   6.882   4.134   5.701
17566SOL    HW152948   6.832   4.094   5.772
17566SOL    HW252949   6.964   4.160   5.740
17567SOL     OW52950   2.254   4.735   2.464
17567SOL    HW152951   2.205   4.751   2.383
17567SOL    HW252952   2.197   4.769   2.533
17568SOL     OW52953   5.809   4.329   0.404
17568SOL    HW152954   5.831   4.251   0.353
17568SOL    HW252955   5.857   4.318   0.486
17569SOL     OW52956  11.122   3.504   3.409
17569SOL    HW152957  11.093   3.575   3.352
17569SOL    HW252958  11.167   3.443   3.350
17570SOL     OW52959   9.084   1.882   1.308
17570SOL    HW152960   9.056   1.928   1.228
17570SOL    HW252961   9.034   1.923   1.378
17571SOL     OW52962   3.994   6.835   2.883
17571SOL    HW152963   4.008   6.845   2.977
17571SOL    HW252964   4.066   6.883   2.842
17572SOL     OW52965   8.940   1.036   1.209
17572SOL    HW152966   8.875   1.005   1.146
17572SOL    HW252967   8.890   1.050   1.290
17573SOL     OW52968   2.942   3.288   2.882
17573SOL    HW152969   2.953   3.223   2.951
17573SOL    HW252970   2.915   3.368   2.928
17574SOL     OW52971   7.747   9.374   6.093
17574SOL    HW152972   7.703   9.394   6.176
17574SOL    HW252973   7.676   9.347   6.035
17575SOL     OW52974  10.766  12.889   6.740
17575SOL    HW152975  10.819  12.845   6.673
17575SOL    HW252976  10.683  12.842   6.739
17576SOL     OW52977   8.658  11.356   5.424
17576SOL    HW152978   8.590  11.301   5.386
17576SOL    HW252979   8.611  11.431   5.462
17577SOL     OW52980  15.336   6.921   7.129
17577SOL    HW152981  15.303   6.844   7.083
17577SOL    HW252982  15.379   6.885   7.207
17578SOL     OW52983   8.785   8.136   0.073
17578SOL    HW152984   8.837   8.061   0.044
17578SOL    HW252985   8.829   8.212   0.034
17579SOL     OW52986   3.119   7.784   0.311
17579SOL    HW152987   3.173   7.818   0.240
17579SOL    HW252988   3.163   7.704   0.338
17580SOL     OW52989   4.742   8.025   1.686
17580SOL    HW152990   4.693   8.090   1.737
17580SOL    HW252991   4.692   8.017   1.605
17581SOL     OW52992  12.214  13.782   6.574
17581SOL    HW152993  12.175  13.695   6.581
17581SOL    HW252994  12.152  13.833   6.522
17582SOL     OW52995   8.639  10.284   6.315
17582SOL    HW152996   8.609  10.317   6.400
17582SOL    HW252997   8.681  10.359   6.274
17583SOL     OW52998  13.608   5.271   4.192
17583SOL    HW152999  13.537   5.268   4.257
17583SOL    HW253000  13.642   5.360   4.197
17584SOL     OW53001   6.903   9.765   3.586
17584SOL    HW153002   6.948   9.693   3.542
17584SOL    HW253003   6.958   9.785   3.662
17585SOL     OW53004   9.177  12.775   3.735
17585SOL    HW153005   9.239  12.847   3.730
17585SOL    HW253006   9.218  12.704   3.686
17586SOL     OW53007   9.614   9.032   3.870
17586SOL    HW153008   9.551   8.980   3.919
17586SOL    HW253009   9.584   9.123   3.881
17587SOL     OW53010   3.638   8.788   2.671
17587SOL    HW153011   3.564   8.786   2.731
17587SOL    HW253012   3.683   8.704   2.685
17588SOL     OW53013   8.812   3.187   3.998
17588SOL    HW153014   8.900   3.152   3.983
17588SOL    HW253015   8.778   3.137   4.072
17589SOL     OW53016   7.963   6.142   1.376
17589SOL    HW153017   7.935   6.185   1.295
17589SOL    HW253018   7.966   6.049   1.353
17590SOL     OW53019  11.088   8.101   0.512
17590SOL    HW153020  11.147   8.038   0.553
17590SOL    HW253021  11.027   8.048   0.461
17591SOL     OW53022   5.478   8.553   5.431
17591SOL    HW153023   5.561   8.538   5.386
17591SOL    HW253024   5.479   8.647   5.451
17592SOL     OW53025   5.276   3.407   0.001
17592SOL    HW153026   5.315   3.425   0.086
17592SOL    HW253027   5.191   3.368   0.022
17593SOL     OW53028   7.136   6.350   3.770
17593SOL    HW153029   7.108   6.325   3.858
17593SOL    HW253030   7.167   6.440   3.780
17594SOL     OW53031   9.013  13.064   3.612
17594SOL    HW153032   9.041  12.981   3.650
17594SOL    HW253033   9.089  13.121   3.621
17595SOL     OW53034   9.688  10.248   6.684
17595SOL    HW153035   9.646  10.330   6.709
17595SOL    HW253036   9.728  10.216   6.765
17596SOL     OW53037  14.133  13.255   5.480
17596SOL    HW153038  14.222  13.280   5.506
17596SOL    HW253039  14.083  13.337   5.485
17597SOL     OW53040  11.082   7.472   4.227
17597SOL    HW153041  11.087   7.519   4.144
17597SOL    HW253042  11.015   7.517   4.278
17598SOL     OW53043  12.731  12.253   3.169
17598SOL    HW153044  12.814  12.269   3.213
17598SOL    HW253045  12.748  12.179   3.111
17599SOL     OW53046  13.625   8.368   5.407
17599SOL    HW153047  13.614   8.402   5.318
17599SOL    HW253048  13.701   8.311   5.401
17600SOL     OW53049   7.308   9.819   6.570
17600SOL    HW153050   7.220   9.788   6.549
17600SOL    HW253051   7.324   9.786   6.659
17601SOL     OW53052   3.249   8.074   2.738
17601SOL    HW153053   3.199   8.128   2.677
17601SOL    HW253054   3.248   7.987   2.698
17602SOL     OW53055  10.885   2.249   0.442
17602SOL    HW153056  10.934   2.311   0.496
17602SOL    HW253057  10.949   2.218   0.377
17603SOL     OW53058   6.969  11.268   6.703
17603SOL    HW153059   6.976  11.363   6.699
17603SOL    HW253060   6.937  11.242   6.616
17604SOL     OW53061   3.558  10.131   1.580
17604SOL    HW153062   3.515  10.104   1.662
17604SOL    HW253063   3.611  10.055   1.555
17605SOL     OW53064   5.274   9.048   7.426
17605SOL    HW153065  16.005   9.037   7.511
17605SOL    HW253066   5.277   9.142   7.413
17606SOL     OW53067   4.087   3.992   1.275
17606SOL    HW153068   4.065   4.075   1.232
17606SOL    HW253069   4.115   3.935   1.203
17607SOL     OW53070   2.298   6.598   2.916
17607SOL    HW153071   2.361   6.567   2.851
17607SOL    HW253072   2.233   6.646   2.866
17608SOL     OW53073  10.975  11.135   0.766
17608SOL    HW153074  10.995  11.128   0.673
17608SOL    HW253075  10.904  11.200   0.771
17609SOL     OW53076   0.917   4.489   0.954
17609SOL    HW153077   0.839   4.440   0.928
17609SOL    HW253078   0.909   4.497   1.050
17610SOL     OW53079  10.152   6.332   4.085
17610SOL    HW153080  10.147   6.264   4.152
17610SOL    HW253081  10.105   6.406   4.123
17611SOL     OW53082   5.091  14.179   4.966
17611SOL    HW153083   5.128  14.217   4.886
17611SOL    HW253084   5.166  14.168   5.024
17612SOL     OW53085   4.138   4.851   5.347
17612SOL    HW153086   4.086   4.927   5.321
17612SOL    HW253087   4.084   4.806   5.412
17613SOL     OW53088   4.249  12.170   3.890
17613SOL    HW153089   4.239  12.105   3.820
17613SOL    HW253090   4.339  12.203   3.880
17614SOL     OW53091   7.586   8.486   2.853
17614SOL    HW153092   7.603   8.564   2.801
17614SOL    HW253093   7.661   8.480   2.913
17615SOL     OW53094  10.536   2.452   2.878
17615SOL    HW153095  10.623   2.461   2.839
17615SOL    HW253096  10.492   2.387   2.823
17616SOL     OW53097  12.601  13.188   5.694
17616SOL    HW153098  12.609  13.154   5.605
17616SOL    HW253099  12.618  13.282   5.686
17617SOL     OW53100   2.303   4.720   1.269
17617SOL    HW153101   2.289   4.685   1.181
17617SOL    HW253102   2.218   4.710   1.313
17618SOL     OW53103   4.724  10.384   3.423
17618SOL    HW153104   4.668  10.439   3.478
17618SOL    HW253105   4.666  10.315   3.391
17619SOL     OW53106   3.689   4.825   2.033
17619SOL    HW153107   3.679   4.867   1.948
17619SOL    HW253108   3.772   4.777   2.027
17620SOL     OW53109   4.335   7.078   2.125
17620SOL    HW153110   4.381   7.055   2.044
17620SOL    HW253111   4.278   7.151   2.100
17621SOL     OW53112  12.307   5.832   4.090
17621SOL    HW153113  12.247   5.894   4.132
17621SOL    HW253114  12.374   5.814   4.155
17622SOL     OW53115   9.561   9.347   4.776
17622SOL    HW153116   9.653   9.323   4.770
17622SOL    HW253117   9.515   9.278   4.728
17623SOL     OW53118   2.478   5.941   2.311
17623SOL    HW153119   2.421   5.980   2.244
17623SOL    HW253120   2.419   5.891   2.367
17624SOL     OW53121   1.387   9.832   0.993
17624SOL    HW153122   1.435   9.911   1.014
17624SOL    HW253123   1.409   9.770   1.062
17625SOL     OW53124   8.775   4.787   5.209
17625SOL    HW153125   8.847   4.831   5.163
17625SOL    HW253126   8.720   4.751   5.140
17626SOL     OW53127   5.896  11.408   1.703
17626SOL    HW153128   5.882  11.318   1.731
17626SOL    HW253129   5.813  11.432   1.660
17627SOL     OW53130   6.273  12.683   5.167
17627SOL    HW153131   6.178  12.689   5.180
17627SOL    HW253132   6.284  12.672   5.073
17628SOL     OW53133   8.080   9.848   5.296
17628SOL    HW153134   8.056   9.866   5.205
17628SOL    HW253135   8.040   9.764   5.316
17629SOL     OW53136   9.322  13.471   6.357
17629SOL    HW153137   9.380  13.399   6.332
17629SOL    HW253138   9.343  13.541   6.295
17630SOL     OW53139   6.690   8.826   2.312
17630SOL    HW153140   6.726   8.905   2.352
17630SOL    HW253141   6.686   8.762   2.384
17631SOL     OW53142  12.518   3.938   4.201
17631SOL    HW153143  12.463   3.862   4.180
17631SOL    HW253144  12.480   3.974   4.280
17632SOL     OW53145   6.156  12.297   2.443
17632SOL    HW153146   6.142  12.382   2.485
17632SOL    HW253147   6.077  12.247   2.464
17633SOL     OW53148   3.422   5.586   3.828
17633SOL    HW153149   3.344   5.550   3.785
17633SOL    HW253150   3.398   5.677   3.848
17634SOL     OW53151  10.951  13.310   7.055
17634SOL    HW153152  10.954  13.215   7.066
17634SOL    HW253153  10.878  13.325   6.995
17635SOL     OW53154   4.135   6.742   0.457
17635SOL    HW153155   4.061   6.685   0.437
17635SOL    HW253156   4.140   6.802   0.382
17636SOL     OW53157   5.658   4.358   1.170
17636SOL    HW153158   5.715   4.281   1.174
17636SOL    HW253159   5.694   4.412   1.100
17637SOL     OW53160   8.039   3.433   0.549
17637SOL    HW153161   8.060   3.464   0.636
17637SOL    HW253162   8.122   3.430   0.502
17638SOL     OW53163   7.036  13.813   7.041
17638SOL    HW153164   7.070  13.735   7.084
17638SOL    HW253165   7.109  13.845   6.988
17639SOL     OW53166   5.710  10.799   0.245
17639SOL    HW153167   5.798  10.808   0.208
17639SOL    HW253168   5.706  10.867   0.312
17640SOL     OW53169  11.034  11.675   1.990
17640SOL    HW153170  11.103  11.628   1.943
17640SOL    HW253171  10.953  11.645   1.949
17641SOL     OW53172   7.785   3.838   5.081
17641SOL    HW153173   7.818   3.759   5.124
17641SOL    HW253174   7.841   3.849   5.004
17642SOL     OW53175   9.041  13.984   6.993
17642SOL    HW153176   8.999  14.067   6.970
17642SOL    HW253177   9.133  13.995   6.969
17643SOL     OW53178  10.569   1.859   1.308
17643SOL    HW153179  10.489   1.835   1.261
17643SOL    HW253180  10.638   1.811   1.262
17644SOL     OW53181  10.650   8.969   6.809
17644SOL    HW153182  10.741   8.979   6.780
17644SOL    HW253183  10.651   8.999   6.900
17645SOL     OW53184  12.347   9.862   4.389
17645SOL    HW153185  12.328   9.815   4.471
17645SOL    HW253186  12.434   9.899   4.403
17646SOL     OW53187   2.064   5.440   1.018
17646SOL    HW153188   2.046   5.532   1.000
17646SOL    HW253189   2.007   5.392   0.958
17647SOL     OW53190  11.575  11.602   1.909
17647SOL    HW153191  11.559  11.687   1.870
17647SOL    HW253192  11.648  11.565   1.858
17648SOL     OW53193   6.117   9.736   3.501
17648SOL    HW153194   6.148   9.679   3.571
17648SOL    HW253195   6.162   9.705   3.422
17649SOL     OW53196   1.823   6.776   0.824
17649SOL    HW153197   1.782   6.859   0.849
17649SOL    HW253198   1.754   6.729   0.776
17650SOL     OW53199  11.870  12.616   3.040
17650SOL    HW153200  11.877  12.622   2.945
17650SOL    HW253201  11.777  12.598   3.055
17651SOL     OW53202   5.436   8.527   0.283
17651SOL    HW153203   5.365   8.477   0.325
17651SOL    HW253204   5.392   8.605   0.247
17652SOL     OW53205   7.988   4.229   0.534
17652SOL    HW153206   7.969   4.273   0.617
17652SOL    HW253207   7.927   4.268   0.472
17653SOL     OW53208  11.212   3.189   2.494
17653SOL    HW153209  11.288   3.211   2.440
17653SOL    HW253210  11.138   3.199   2.435
17654SOL     OW53211   4.571   9.624   1.916
17654SOL    HW153212   4.584   9.719   1.916
17654SOL    HW253213   4.572   9.600   1.823
17655SOL     OW53214   6.151   9.849   0.557
17655SOL    HW153215   6.202   9.918   0.515
17655SOL    HW253216   6.083   9.827   0.493
17656SOL     OW53217  10.694   5.907   1.182
17656SOL    HW153218  10.698   5.882   1.275
17656SOL    HW253219  10.703   5.824   1.135
17657SOL     OW53220   1.624   9.833   1.265
17657SOL    HW153221   1.630   9.776   1.341
17657SOL    HW253222   1.602   9.774   1.193
17658SOL     OW53223  11.236   6.832   4.035
17658SOL    HW153224  11.256   6.793   3.949
17658SOL    HW253225  11.217   6.757   4.091
17659SOL     OW53226   1.262   5.268   0.277
17659SOL    HW153227   1.345   5.303   0.245
17659SOL    HW253228   1.282   5.237   0.366
17660SOL     OW53229   4.107   4.513   3.933
17660SOL    HW153230   4.013   4.523   3.946
17660SOL    HW253231   4.116   4.443   3.869
17661SOL     OW53232   8.191   7.373   2.132
17661SOL    HW153233   8.223   7.302   2.076
17661SOL    HW253234   8.192   7.336   2.220
17662SOL     OW53235   9.931   9.172   4.102
17662SOL    HW153236   9.897   9.259   4.124
17662SOL    HW253237  10.021   9.188   4.073
17663SOL     OW53238  10.924  12.039   6.827
17663SOL    HW153239  10.933  11.976   6.899
17663SOL    HW253240  10.874  11.992   6.761
17664SOL     OW53241   4.599   6.189   2.816
17664SOL    HW153242   4.631   6.245   2.745
17664SOL    HW253243   4.667   6.193   2.883
17665SOL     OW53244   3.193  12.592   3.439
17665SOL    HW153245   3.248  12.663   3.404
17665SOL    HW253246   3.103  12.621   3.422
17666SOL     OW53247   1.967   7.037   1.122
17666SOL    HW153248   1.976   6.954   1.168
17666SOL    HW253249   2.038   7.036   1.057
17667SOL     OW53250   8.490   6.467   0.951
17667SOL    HW153251   8.454   6.503   0.870
17667SOL    HW253252   8.581   6.448   0.930
17668SOL     OW53253   9.930   9.125   6.386
17668SOL    HW153254   9.924   9.029   6.391
17668SOL    HW253255   9.845   9.152   6.351
17669SOL     OW53256  12.349  13.378   5.918
17669SOL    HW153257  12.390  13.378   6.005
17669SOL    HW253258  12.256  13.365   5.936
17670SOL     OW53259   8.417   3.618   0.880
17670SOL    HW153260   8.420   3.634   0.974
17670SOL    HW253261   8.471   3.540   0.867
17671SOL     OW53262   1.381   1.677   1.653
17671SOL    HW153263   1.318   1.735   1.610
17671SOL    HW253264   1.352   1.675   1.745
17672SOL     OW53265   9.387   2.786   1.567
17672SOL    HW153266   9.328   2.719   1.534
17672SOL    HW253267   9.452   2.798   1.498
17673SOL     OW53268   3.266   7.115   0.125
17673SOL    HW153269   3.316   7.067   0.059
17673SOL    HW253270   3.317   7.105   0.206
17674SOL     OW53271  11.964   4.419   2.941
17674SOL    HW153272  11.892   4.395   2.882
17674SOL    HW253273  12.034   4.449   2.883
17675SOL     OW53274   8.649   3.443   1.010
17675SOL    HW153275   8.723   3.429   0.950
17675SOL    HW253276   8.674   3.397   1.090
17676SOL     OW53277   4.148  10.007   3.756
17676SOL    HW153278   4.192  10.031   3.674
17676SOL    HW253279   4.063  10.051   3.751
17677SOL     OW53280   9.970  12.627   6.438
17677SOL    HW153281  10.041  12.588   6.489
17677SOL    HW253282  10.006  12.636   6.350
17678SOL     OW53283   7.220  11.062   0.807
17678SOL    HW153284   7.160  11.037   0.737
17678SOL    HW253285   7.307  11.053   0.769
17679SOL     OW53286   4.758   4.931   3.895
17679SOL    HW153287   4.701   4.998   3.858
17679SOL    HW253288   4.710   4.849   3.884
17680SOL     OW53289   6.977  11.585   3.063
17680SOL    HW153290   6.964  11.576   2.969
17680SOL    HW253291   6.918  11.656   3.089
17681SOL     OW53292   2.052   6.236   2.131
17681SOL    HW153293   2.084   6.213   2.219
17681SOL    HW253294   2.132   6.247   2.079
17682SOL     OW53295   2.835   1.934   0.218
17682SOL    HW153296   2.930   1.944   0.221
17682SOL    HW253297   2.806   1.951   0.307
17683SOL     OW53298  10.190   9.003   7.132
17683SOL    HW153299  10.185   8.910   7.108
17683SOL    HW253300  10.221   9.047   7.053
17684SOL     OW53301  13.737  10.139   5.684
17684SOL    HW153302  13.765  10.049   5.697
17684SOL    HW253303  13.654  10.146   5.732
17685SOL     OW53304   9.309   9.313   7.607
17685SOL    HW153305   9.221   9.277   7.611
17685SOL    HW253306   9.362   9.245   7.567
17686SOL     OW53307  12.464   5.676   3.950
17686SOL    HW153308  12.393   5.728   3.989
17686SOL    HW253309  12.539   5.735   3.950
17687SOL     OW53310   2.803   3.378   1.669
17687SOL    HW153311   2.889   3.343   1.645
17687SOL    HW253312   2.755   3.302   1.704
17688SOL     OW53313  11.875  10.515   2.390
17688SOL    HW153314  11.797  10.571   2.393
17688SOL    HW253315  11.855  10.443   2.449
17689SOL     OW53316   4.495   3.925   5.374
17689SOL    HW153317   4.459   3.882   5.451
17689SOL    HW253318   4.581   3.957   5.402
17690SOL     OW53319  11.608   4.902   6.336
17690SOL    HW153320  11.597   4.939   6.424
17690SOL    HW253321  11.698   4.924   6.311
17691SOL     OW53322   7.540   4.507   3.518
17691SOL    HW153323   7.505   4.514   3.607
17691SOL    HW253324   7.594   4.586   3.508
17692SOL     OW53325   8.512  13.542   6.401
17692SOL    HW153326   8.526  13.619   6.346
17692SOL    HW253327   8.592  13.490   6.389
17693SOL     OW53328   9.554  10.758   6.898
17693SOL    HW153329   9.576  10.700   6.971
17693SOL    HW253330   9.458  10.757   6.896
17694SOL     OW53331   9.223   9.196   6.872
17694SOL    HW153332   9.215   9.266   6.936
17694SOL    HW253333   9.316   9.174   6.872
17695SOL     OW53334   5.981   4.476   6.303
17695SOL    HW153335   6.030   4.557   6.313
17695SOL    HW253336   6.048  15.183   6.291
17696SOL     OW53337   9.161   1.228   0.073
17696SOL    HW153338   9.208   1.225   0.155
17696SOL    HW253339   9.099   1.301   0.083
17697SOL     OW53340   8.371  14.179   7.057
17697SOL    HW153341   8.423  14.223   7.124
17697SOL    HW253342   8.435  14.147   6.993
17698SOL     OW53343   8.750  11.158   4.721
17698SOL    HW153344   8.694  11.229   4.751
17698SOL    HW253345   8.725  11.144   4.630
17699SOL     OW53346   8.890   1.509   1.842
17699SOL    HW153347   8.842   1.441   1.796
17699SOL    HW253348   8.932   1.560   1.773
17700SOL     OW53349  10.987   6.647   7.331
17700SOL    HW153350  10.892   6.655   7.326
17700SOL    HW253351  11.015   6.723   7.381
17701SOL     OW53352   9.190   5.491   3.562
17701SOL    HW153353   9.250   5.565   3.558
17701SOL    HW253354   9.235   5.427   3.616
17702SOL     OW53355   6.740   1.803   0.996
17702SOL    HW153356   6.789   1.872   0.950
17702SOL    HW253357   6.792   1.723   0.981
17703SOL     OW53358   9.604   3.095   2.423
17703SOL    HW153359   9.648   3.171   2.386
17703SOL    HW253360   9.589   3.037   2.349
17704SOL     OW53361   7.900   1.021   0.660
17704SOL    HW153362   7.942   1.068   0.588
17704SOL    HW253363   7.967   0.959   0.691
17705SOL     OW53364   8.458  15.179   6.787
17705SOL    HW153365   8.546  15.189   6.823
17705SOL    HW253366   8.407  15.247   6.830
17706SOL     OW53367   6.101   9.643   4.760
17706SOL    HW153368   6.085   9.730   4.724
17706SOL    HW253369   6.036   9.634   4.830
17707SOL     OW53370   8.797  11.460   4.043
17707SOL    HW153371   8.733  11.445   4.113
17707SOL    HW253372   8.802  11.376   3.996
17708SOL     OW53373   3.622  12.014   3.746
17708SOL    HW153374   3.677  12.034   3.822
17708SOL    HW253375   3.576  12.096   3.727
17709SOL     OW53376   3.228   4.480   0.973
17709SOL    HW153377   3.175   4.548   1.014
17709SOL    HW253378   3.189   4.398   1.002
17710SOL     OW53379   4.859  11.109   3.965
17710SOL    HW153380   4.878  11.043   3.898
17710SOL    HW253381   4.847  11.059   4.046
17711SOL     OW53382   9.856   3.172   3.146
17711SOL    HW153383   9.872   3.247   3.203
17711SOL    HW253384   9.763   3.153   3.156
17712SOL     OW53385   9.415   8.017   0.061
17712SOL    HW153386  14.822  13.361   7.597
17712SOL    HW253387   9.471   8.095   0.061
17713SOL     OW53388   6.498   5.212   3.706
17713SOL    HW153389   6.500   5.168   3.791
17713SOL    HW253390   6.474   5.143   3.644
17714SOL     OW53391   4.089   7.781   3.674
17714SOL    HW153392   4.125   7.706   3.625
17714SOL    HW253393   4.077   7.747   3.763
17715SOL     OW53394   5.443   5.445   2.311
17715SOL    HW153395   5.502   5.476   2.242
17715SOL    HW253396   5.358   5.435   2.267
17716SOL     OW53397   8.287   6.489   3.632
17716SOL    HW153398   8.221   6.420   3.636
17716SOL    HW253399   8.370   6.443   3.619
17717SOL     OW53400   7.940  14.286   5.513
17717SOL    HW153401   8.019  14.325   5.550
17717SOL    HW253402   7.919  14.341   5.437
17718SOL     OW53403   7.195  12.802   3.327
17718SOL    HW153404   7.114  12.852   3.318
17718SOL    HW253405   7.265  12.866   3.312
17719SOL     OW53406   2.396   3.056   2.255
17719SOL    HW153407   2.467   2.995   2.272
17719SOL    HW253408   2.433   3.142   2.276
17720SOL     OW53409   8.370  11.593   4.095
17720SOL    HW153410   8.297  11.549   4.138
17720SOL    HW253411   8.445  11.534   4.107
17721SOL     OW53412   2.419   8.295   0.175
17721SOL    HW153413   2.367   8.215   0.183
17721SOL    HW253414   2.507   8.263   0.153
17722SOL     OW53415   3.614   6.268   4.223
17722SOL    HW153416   3.634   6.358   4.194
17722SOL    HW253417   3.642   6.265   4.314
17723SOL     OW53418  12.912  14.183   7.402
17723SOL    HW153419  12.842  14.247   7.385
17723SOL    HW253420  12.966  14.225   7.470
17724SOL     OW53421   7.750   7.509   0.561
17724SOL    HW153422   7.684   7.555   0.510
17724SOL    HW253423   7.788   7.445   0.500
17725SOL     OW53424   8.687   9.972   3.188
17725SOL    HW153425   8.758   9.923   3.147
17725SOL    HW253426   8.614   9.965   3.127
17726SOL     OW53427  11.931   4.346   5.510
17726SOL    HW153428  11.966   4.279   5.452
17726SOL    HW253429  11.852   4.306   5.548
17727SOL     OW53430  12.397   7.512   5.994
17727SOL    HW153431  12.407   7.582   6.059
17727SOL    HW253432  12.452   7.441   6.027
17728SOL     OW53433  14.651  11.059   6.963
17728SOL    HW153434  14.578  10.999   6.946
17728SOL    HW253435  14.609  11.135   7.005
17729SOL     OW53436   9.188  10.374   2.538
17729SOL    HW153437   9.139  10.336   2.611
17729SOL    HW253438   9.235  10.448   2.576
17730SOL     OW53439  15.179  11.941   6.532
17730SOL    HW153440  15.250  11.904   6.585
17730SOL    HW253441  15.223  11.982   6.458
17731SOL     OW53442   8.974   4.023   5.565
17731SOL    HW153443   8.930   3.938   5.566
17731SOL    HW253444   9.029   4.023   5.643
17732SOL     OW53445   8.432   9.475   6.185
17732SOL    HW153446   8.459   9.482   6.277
17732SOL    HW253447   8.380   9.554   6.169
17733SOL     OW53448   3.418  10.277   3.794
17733SOL    HW153449   3.505  10.251   3.764
17733SOL    HW253450   3.397  10.213   3.862
17734SOL     OW53451   1.526   9.090   0.374
17734SOL    HW153452   1.515   9.175   0.415
17734SOL    HW253453   1.525   9.107   0.280
17735SOL     OW53454  12.473   6.835   4.213
17735SOL    HW153455  12.565   6.827   4.187
17735SOL    HW253456  12.475   6.854   4.307
17736SOL     OW53457  11.821   6.012   2.632
17736SOL    HW153458  11.739   6.037   2.590
17736SOL    HW253459  11.880   6.085   2.614
17737SOL     OW53460  10.475   6.743   5.386
17737SOL    HW153461  10.571   6.737   5.384
17737SOL    HW253462  10.446   6.690   5.312
17738SOL     OW53463   6.404   8.434   7.494
17738SOL    HW153464   6.342   8.484   7.440
17738SOL    HW253465   6.438   8.366   7.435
17739SOL     OW53466   5.378   3.147   1.888
17739SOL    HW153467   5.283   3.137   1.893
17739SOL    HW253468   5.412   3.059   1.903
17740SOL     OW53469   8.770   7.991   3.967
17740SOL    HW153470   8.775   7.998   4.062
17740SOL    HW253471   8.845   7.937   3.942
17741SOL     OW53472   6.607   3.744   3.959
17741SOL    HW153473   6.694   3.746   3.998
17741SOL    HW253474   6.619   3.778   3.870
17742SOL     OW53475  14.318  11.896   7.313
17742SOL    HW153476  14.266  11.967   7.352
17742SOL    HW253477  14.254  11.827   7.295
17743SOL     OW53478   5.503  12.111   2.055
17743SOL    HW153479   5.556  12.168   2.111
17743SOL    HW253480   5.488  12.163   1.976
17744SOL     OW53481   5.395   2.654   0.050
17744SOL    HW153482   5.434   2.714   0.114
17744SOL    HW253483  10.814   8.072   7.584
17745SOL     OW53484   9.101  10.151   4.788
17745SOL    HW153485   9.061  10.172   4.873
17745SOL    HW253486   9.185  10.111   4.811
17746SOL     OW53487   7.403   4.842   1.099
17746SOL    HW153488   7.432   4.769   1.044
17746SOL    HW253489   7.342   4.891   1.045
17747SOL     OW53490   4.653   6.415   4.238
17747SOL    HW153491   4.746   6.435   4.250
17747SOL    HW253492   4.627   6.373   4.320
17748SOL     OW53493  10.693  12.314   5.978
17748SOL    HW153494  10.751  12.387   5.956
17748SOL    HW253495  10.743  12.261   6.039
17749SOL     OW53496   9.951   9.729   6.349
17749SOL    HW153497   9.904   9.769   6.422
17749SOL    HW253498   9.883   9.683   6.300
17750SOL     OW53499   6.273   7.167   1.720
17750SOL    HW153500   6.180   7.164   1.697
17750SOL    HW253501   6.277   7.229   1.793
17751SOL     OW53502  12.008  14.242   6.062
17751SOL    HW153503  12.088  14.205   6.026
17751SOL    HW253504  11.979  14.177   6.127
17752SOL     OW53505   5.497  14.120   4.984
17752SOL    HW153506   5.587  14.129   5.016
17752SOL    HW253507   5.485  14.025   4.977
17753SOL     OW53508  12.459   4.816   6.669
17753SOL    HW153509  12.532   4.765   6.703
17753SOL    HW253510  12.437   4.774   6.585
17754SOL     OW53511   5.108   7.663   6.920
17754SOL    HW153512   5.107   7.682   6.826
17754SOL    HW253513   5.092   7.748   6.961
17755SOL     OW53514  12.465  10.743   2.730
17755SOL    HW153515  12.519  10.721   2.805
17755SOL    HW253516  12.427  10.659   2.702
17756SOL     OW53517  10.737   8.162   7.408
17756SOL    HW153518  10.801   8.192   7.344
17756SOL    HW253519  10.734   8.067   7.397
17757SOL     OW53520   9.894   6.132   7.458
17757SOL    HW153521   9.931   6.115   7.371
17757SOL    HW253522   9.950   6.200   7.495
17758SOL     OW53523   5.247   6.905   2.759
17758SOL    HW153524   5.258   6.976   2.695
17758SOL    HW253525   5.255   6.825   2.707
17759SOL     OW53526  10.602   5.141   6.498
17759SOL    HW153527  10.533   5.114   6.558
17759SOL    HW253528  10.558   5.194   6.432
17760SOL     OW53529  13.525   4.208   4.821
17760SOL    HW153530  13.581   4.286   4.821
17760SOL    HW253531  13.584   4.136   4.841
17761SOL     OW53532   8.361   7.271   3.398
17761SOL    HW153533   8.417   7.195   3.413
17761SOL    HW253534   8.321   7.288   3.483
17762SOL     OW53535  10.056   5.643   4.249
17762SOL    HW153536  10.087   5.638   4.159
17762SOL    HW253537   9.998   5.719   4.251
17763SOL     OW53538  11.853   5.723   6.947
17763SOL    HW153539  11.918   5.665   6.984
17763SOL    HW253540  11.859   5.803   7.000
17764SOL     OW53541   9.816  11.409   6.904
17764SOL    HW153542   9.741  11.357   6.930
17764SOL    HW253543   9.786  11.500   6.912
17765SOL     OW53544   6.116   5.882   5.242
17765SOL    HW153545   6.116   5.944   5.169
17765SOL    HW253546   6.158   5.804   5.208
17766SOL     OW53547  10.385  14.040   7.464
17766SOL    HW153548  10.434  13.986   7.402
17766SOL    HW253549  10.397  14.129   7.433
17767SOL     OW53550  12.474  14.685   6.447
17767SOL    HW153551  12.433  14.616   6.394
17767SOL    HW253552  12.528  14.637   6.510
17768SOL     OW53553  11.087   9.651   7.077
17768SOL    HW153554  11.127   9.727   7.036
17768SOL    HW253555  11.056   9.598   7.004
17769SOL     OW53556   8.534  14.905   7.081
17769SOL    HW153557   8.468  14.848   7.122
17769SOL    HW253558   8.618  14.866   7.105
17770SOL     OW53559   2.379   7.096   2.517
17770SOL    HW153560   2.384   7.002   2.536
17770SOL    HW253561   2.426   7.137   2.590
17771SOL     OW53562   9.928  12.211   3.099
17771SOL    HW153563   9.898  12.133   3.052
17771SOL    HW253564  10.015  12.228   3.064
17772SOL     OW53565   2.412   2.704   1.601
17772SOL    HW153566   2.369   2.735   1.522
17772SOL    HW253567   2.362   2.743   1.673
17773SOL     OW53568  10.051  10.174   7.536
17773SOL    HW153569  10.070  10.081   7.544
17773SOL    HW253570  10.135  10.214   7.516
17774SOL     OW53571   2.564   1.479   0.678
17774SOL    HW153572   2.643   1.452   0.631
17774SOL    HW253573   2.517   1.397   0.694
17775SOL     OW53574  15.820  11.165   7.499
17775SOL    HW153575  15.827  11.072   7.478
17775SOL    HW253576  15.863  11.209   7.426
17776SOL     OW53577   5.767   9.200   6.390
17776SOL    HW153578   5.842   9.179   6.446
17776SOL    HW253579   5.750   9.119   6.343
17777SOL     OW53580   5.357   8.111   3.278
17777SOL    HW153581   5.378   8.046   3.211
17777SOL    HW253582   5.394   8.075   3.359
17778SOL     OW53583   4.754   7.022   1.583
17778SOL    HW153584   4.822   7.023   1.650
17778SOL    HW253585   4.752   6.931   1.552
17779SOL     OW53586   1.996   8.088   0.217
17779SOL    HW153587   1.998   8.182   0.234
17779SOL    HW253588   2.027   8.049   0.299
17780SOL     OW53589   6.754  12.958   4.122
17780SOL    HW153590   6.798  12.958   4.207
17780SOL    HW253591   6.701  12.879   4.122
17781SOL     OW53592  11.263   8.387   5.355
17781SOL    HW153593  11.178   8.424   5.377
17781SOL    HW253594  11.317   8.463   5.332
17782SOL     OW53595   8.821   9.314   2.788
17782SOL    HW153596   8.757   9.325   2.718
17782SOL    HW253597   8.893   9.266   2.747
17783SOL     OW53598  11.224   7.885   1.371
17783SOL    HW153599  11.221   7.942   1.295
17783SOL    HW253600  11.175   7.932   1.439
17784SOL     OW53601  12.654   7.598   5.862
17784SOL    HW153602  12.725   7.552   5.817
17784SOL    HW253603  12.574   7.566   5.821
17785SOL     OW53604   9.621   8.598   5.920
17785SOL    HW153605   9.668   8.680   5.937
17785SOL    HW253606   9.565   8.618   5.845
17786SOL     OW53607   2.584   5.955   0.517
17786SOL    HW153608   2.669   5.973   0.478
17786SOL    HW253609   2.528   5.931   0.444
17787SOL     OW53610   4.698   1.756   1.729
17787SOL    HW153611   4.685   1.661   1.727
17787SOL    HW253612   4.785   1.767   1.768
17788SOL     OW53613  11.329  10.527   1.289
17788SOL    HW153614  11.359  10.508   1.201
17788SOL    HW253615  11.262  10.594   1.278
17789SOL     OW53616  11.197  10.819   3.665
17789SOL    HW153617  11.280  10.846   3.626
17789SOL    HW253618  11.217  10.809   3.758
17790SOL     OW53619  12.356  11.583   3.794
17790SOL    HW153620  12.316  11.497   3.802
17790SOL    HW253621  12.305  11.628   3.727
17791SOL     OW53622   6.202   7.844   3.726
17791SOL    HW153623   6.179   7.910   3.660
17791SOL    HW253624   6.249   7.777   3.677
17792SOL     OW53625   1.542   5.130   2.132
17792SOL    HW153626   1.568   5.042   2.104
17792SOL    HW253627  12.224   5.136   2.109
17793SOL     OW53628   9.879  10.294   2.402
17793SOL    HW153629   9.896  10.339   2.320
17793SOL    HW253630   9.904  10.356   2.470
17794SOL     OW53631  13.445  10.100   4.017
17794SOL    HW153632  13.416  10.151   4.093
17794SOL    HW253633  13.526  10.058   4.046
17795SOL     OW53634   5.957  11.448   5.577
17795SOL    HW153635   5.931  11.540   5.573
17795SOL    HW253636   5.952  11.417   5.487
17796SOL     OW53637  11.508   9.037   6.844
17796SOL    HW153638  11.480   8.952   6.877
17796SOL    HW253639  11.495   9.097   6.918
17797SOL     OW53640   9.656   3.825   0.749
17797SOL    HW153641   9.597   3.755   0.780
17797SOL    HW253642   9.729   3.823   0.810
17798SOL     OW53643   6.124  10.593   0.280
17798SOL    HW153644   6.073  10.673   0.293
17798SOL    HW253645   6.190  10.617   0.215
17799SOL     OW53646   1.216   9.264   0.058
17799SOL    HW153647   1.217   9.175   0.022
17799SOL    HW253648   1.300   9.301   0.034
17800SOL     OW53649  10.579  12.066   5.160
17800SOL    HW153650  10.560  12.160   5.153
17800SOL    HW253651  10.494  12.026   5.177
17801SOL     OW53652   3.963  11.953   4.209
17801SOL    HW153653   3.893  11.996   4.257
17801SOL    HW253654   3.921  11.876   4.170
17802SOL     OW53655  13.049   9.154   3.447
17802SOL    HW153656  12.967   9.199   3.470
17802SOL    HW253657  13.104   9.223   3.410
17803SOL     OW53658   7.447   6.976   0.810
17803SOL    HW153659   7.499   6.987   0.890
17803SOL    HW253660   7.362   6.945   0.842
17804SOL     OW53661   4.738   8.536   5.909
17804SOL    HW153662   4.711   8.620   5.874
17804SOL    HW253663   4.782   8.556   5.992
17805SOL     OW53664   5.445   9.296   6.826
17805SOL    HW153665   5.490   9.267   6.746
17805SOL    HW253666   5.408   9.216   6.863
17806SOL     OW53667   4.756   3.132   4.103
17806SOL    HW153668   4.809   3.056   4.077
17806SOL    HW253669   4.670   3.096   4.124
17807SOL     OW53670  12.749  10.869   4.804
17807SOL    HW153671  12.771  10.820   4.724
17807SOL    HW253672  12.833  10.887   4.845
17808SOL     OW53673   6.378  11.177   3.887
17808SOL    HW153674   6.356  11.090   3.853
17808SOL    HW253675   6.472  11.173   3.901
17809SOL     OW53676   8.859   6.720   2.419
17809SOL    HW153677   8.792   6.652   2.416
17809SOL    HW253678   8.852   6.766   2.336
17810SOL     OW53679   7.241   5.737   3.335
17810SOL    HW153680   7.312   5.686   3.298
17810SOL    HW253681   7.276   5.826   3.342
17811SOL     OW53682   4.869  10.172   4.639
17811SOL    HW153683   4.961  10.175   4.665
17811SOL    HW253684   4.853  10.256   4.595
17812SOL     OW53685   8.897   9.765   4.325
17812SOL    HW153686   8.876   9.831   4.259
17812SOL    HW253687   8.952   9.811   4.389
17813SOL     OW53688   6.675  11.329   2.564
17813SOL    HW153689   6.669  11.273   2.487
17813SOL    HW253690   6.736  11.284   2.622
17814SOL     OW53691   6.924  11.047   7.362
17814SOL    HW153692   6.994  11.089   7.412
17814SOL    HW253693   6.930  11.088   7.275
17815SOL     OW53694  10.595   4.249   5.097
17815SOL    HW153695  10.590   4.162   5.057
17815SOL    HW253696  10.667   4.241   5.160
17816SOL     OW53697   7.928  15.664   7.390
17816SOL    HW153698   7.972  15.700   7.466
17816SOL    HW253699   7.875  15.736   7.355
17817SOL     OW53700   7.656   2.928   0.536
17817SOL    HW153701   7.661   2.995   0.604
17817SOL    HW253702   7.624   2.850   0.582
17818SOL     OW53703   5.944   5.885   4.887
17818SOL    HW153704   5.991   5.834   4.822
17818SOL    HW253705   5.869   5.831   4.911
17819SOL     OW53706   8.808  10.507   4.419
17819SOL    HW153707   8.889  10.486   4.374
17819SOL    HW253708   8.807  10.450   4.496
17820SOL     OW53709   7.363   9.967   2.033
17820SOL    HW153710   7.373  10.057   2.062
17820SOL    HW253711   7.319   9.974   1.948
17821SOL     OW53712   4.941   5.280   0.060
17821SOL    HW153713   5.013   5.242   0.110
17821SOL    HW253714   4.980   5.353   0.011
17822SOL     OW53715  10.960   8.824   5.148
17822SOL    HW153716  10.871   8.793   5.134
17822SOL    HW253717  10.995   8.837   5.060
17823SOL     OW53718   4.862   4.891   2.380
17823SOL    HW153719   4.775   4.920   2.354
17823SOL    HW253720   4.922   4.935   2.320
17824SOL     OW53721   0.205   3.003   0.132
17824SOL    HW153722   0.284   2.949   0.135
17824SOL    HW253723   0.237   3.092   0.124
17825SOL     OW53724   3.271  10.854   1.793
17825SOL    HW153725   3.303  10.882   1.708
17825SOL    HW253726   3.183  10.890   1.799
17826SOL     OW53727   7.043   8.582   0.169
17826SOL    HW153728   6.955   8.596   0.204
17826SOL    HW253729   7.030   8.529   0.091
17827SOL     OW53730   8.411   2.911   3.251
17827SOL    HW153731   8.498   2.947   3.269
17827SOL    HW253732   8.400   2.842   3.317
17828SOL     OW53733  10.736  11.732   7.310
17828SOL    HW153734  10.817  11.700   7.272
17828SOL    HW253735  10.703  11.796   7.246
17829SOL     OW53736   8.701   6.488   5.058
17829SOL    HW153737   8.674   6.407   5.015
17829SOL    HW253738   8.787   6.508   5.019
17830SOL     OW53739   6.599  10.070   5.307
17830SOL    HW153740   6.513  10.101   5.281
17830SOL    HW253741   6.596   9.975   5.296
17831SOL     OW53742  13.890  11.945   7.540
17831SOL    HW153743  13.824  11.876   7.538
17831SOL    HW253744  13.966  11.904   7.581
17832SOL     OW53745  13.285   3.744   4.051
17832SOL    HW153746  13.230   3.815   4.018
17832SOL    HW253747  13.358   3.740   3.989
17833SOL     OW53748   7.375  13.191   6.298
17833SOL    HW153749   7.460  13.158   6.268
17833SOL    HW253750   7.338  13.234   6.221
17834SOL     OW53751   9.536   6.074   5.371
17834SOL    HW153752   9.609   6.136   5.366
17834SOL    HW253753   9.459   6.127   5.351
17835SOL     OW53754   4.623  12.230   4.306
17835SOL    HW153755   4.562  12.281   4.254
17835SOL    HW253756   4.652  12.160   4.247
17836SOL     OW53757  10.712   2.517   2.270
17836SOL    HW153758  10.699   2.606   2.237
17836SOL    HW253759  10.737   2.529   2.361
17837SOL     OW53760   9.742   0.991   0.683
17837SOL    HW153761   9.789   1.041   0.750
17837SOL    HW253762   9.740   0.902   0.716
17838SOL     OW53763   5.271   6.462   0.123
17838SOL    HW153764   5.204   6.420   0.177
17838SOL    HW253765   5.338   6.489   0.185
17839SOL     OW53766   7.229   8.852   5.497
17839SOL    HW153767   7.142   8.860   5.458
17839SOL    HW253768   7.278   8.799   5.435
17840SOL     OW53769   9.921   9.745   2.963
17840SOL    HW153770   9.874   9.689   3.025
17840SOL    HW253771  10.007   9.703   2.953
17841SOL     OW53772  10.756   9.991   0.408
17841SOL    HW153773  10.719  10.035   0.331
17841SOL    HW253774  10.741  10.053   0.480
17842SOL     OW53775   5.569   6.764   7.297
17842SOL    HW153776   5.537   6.848   7.264
17842SOL    HW253777   5.661   6.762   7.270
17843SOL     OW53778   5.555  11.284   2.880
17843SOL    HW153779   5.605  11.203   2.878
17843SOL    HW253780   5.479  11.264   2.935
17844SOL     OW53781   6.419  13.315   6.703
17844SOL    HW153782   6.514  13.327   6.706
17844SOL    HW253783   6.387  13.393   6.657
17845SOL     OW53784   8.847   6.406   0.632
17845SOL    HW153785   8.839   6.349   0.555
17845SOL    HW253786   8.936   6.441   0.626
17846SOL     OW53787   5.335   6.197   0.318
17846SOL    HW153788   5.280   6.268   0.351
17846SOL    HW253789   5.417   6.240   0.293
17847SOL     OW53790   2.815   5.507   0.427
17847SOL    HW153791   2.750   5.442   0.399
17847SOL    HW253792   2.899   5.461   0.422
17848SOL     OW53793   5.462   8.051   7.205
17848SOL    HW153794   5.472   8.145   7.221
17848SOL    HW253795   5.408   8.046   7.126
17849SOL     OW53796   7.617   2.634   2.982
17849SOL    HW153797   7.578   2.699   3.040
17849SOL    HW253798   7.711   2.655   2.983
17850SOL     OW53799   4.659   4.759   6.229
17850SOL    HW153800   4.700   4.845   6.228
17850SOL    HW253801   4.713   4.707   6.289
17851SOL     OW53802   5.729  11.561   4.689
17851SOL    HW153803   5.739  11.626   4.758
17851SOL    HW253804   5.683  11.488   4.730
17852SOL     OW53805   6.203  11.054   7.014
17852SOL    HW153806   6.173  10.993   6.947
17852SOL    HW253807   6.184  11.009   7.097
17853SOL     OW53808   8.838   7.711   2.676
17853SOL    HW153809   8.780   7.638   2.698
17853SOL    HW253810   8.793   7.788   2.709
17854SOL     OW53811   8.553  11.645   1.454
17854SOL    HW153812   8.637  11.602   1.437
17854SOL    HW253813   8.577  11.730   1.490
17855SOL     OW53814   6.303  11.438   5.407
17855SOL    HW153815   6.269  11.407   5.323
17855SOL    HW253816   6.318  11.531   5.395
17856SOL     OW53817  10.415   5.335   5.217
17856SOL    HW153818  10.484   5.359   5.155
17856SOL    HW253819  10.370   5.261   5.174
17857SOL     OW53820   7.116   9.589   0.360
17857SOL    HW153821   7.145   9.524   0.424
17857SOL    HW253822   7.029   9.559   0.332
17858SOL     OW53823   4.264   7.553   4.546
17858SOL    HW153824   4.353   7.581   4.567
17858SOL    HW253825   4.258   7.463   4.579
17859SOL     OW53826   7.524   9.745   0.760
17859SOL    HW153827   7.460   9.690   0.806
17859SOL    HW253828   7.594   9.758   0.823
17860SOL     OW53829  13.121   4.700   4.459
17860SOL    HW153830  13.163   4.785   4.477
17860SOL    HW253831  13.059   4.688   4.531
17861SOL     OW53832  14.570  11.094   5.739
17861SOL    HW153833  14.541  11.010   5.773
17861SOL    HW253834  14.637  11.123   5.802
17862SOL     OW53835   9.607   9.563   4.329
17862SOL    HW153836   9.516   9.592   4.336
17862SOL    HW253837   9.620   9.507   4.405
17863SOL     OW53838   8.787   9.102   6.037
17863SOL    HW153839   8.710   9.159   6.037
17863SOL    HW253840   8.816   9.101   6.128
17864SOL     OW53841   4.673   9.710   1.613
17864SOL    HW153842   4.659   9.615   1.612
17864SOL    HW253843   4.590   9.748   1.586
17865SOL     OW53844  10.608  10.818   2.013
17865SOL    HW153845  10.650  10.804   2.098
17865SOL    HW253846  10.534  10.876   2.032
17866SOL     OW53847   7.181  10.902   2.825
17866SOL    HW153848   7.215  10.865   2.906
17866SOL    HW253849   7.136  10.982   2.852
17867SOL     OW53850   5.704   8.490   5.635
17867SOL    HW153851   5.761   8.489   5.712
17867SOL    HW253852   5.758   8.453   5.565
17868SOL     OW53853   6.198  12.847   4.711
17868SOL    HW153854   6.132  12.867   4.777
17868SOL    HW253855   6.276  12.892   4.740
17869SOL     OW53856   4.497  12.965   6.345
17869SOL    HW153857   4.510  13.059   6.358
17869SOL    HW253858  15.183  12.958   6.310
17870SOL     OW53859   2.958   5.078   3.610
17870SOL    HW153860   2.898   5.106   3.541
17870SOL    HW253861   3.044   5.104   3.579
17871SOL     OW53862   6.619  13.269   7.312
17871SOL    HW153863   6.579  13.351   7.340
17871SOL    HW253864   6.642  13.283   7.220
17872SOL     OW53865   3.520  10.574   4.201
17872SOL    HW153866   3.481  10.611   4.280
17872SOL    HW253867   3.478  10.622   4.129
17873SOL     OW53868  10.837   6.103   6.935
17873SOL    HW153869  10.776   6.032   6.954
17873SOL    HW253870  10.823   6.166   7.006
17874SOL     OW53871   3.213   8.406   3.567
17874SOL    HW153872   3.126   8.447   3.559
17874SOL    HW253873   3.224   8.359   3.484
17875SOL     OW53874  10.632   5.834   1.431
17875SOL    HW153875  10.673   5.795   1.508
17875SOL    HW253876  10.612   5.759   1.374
17876SOL     OW53877   8.569  14.106   5.326
17876SOL    HW153878   8.556  14.014   5.302
17876SOL    HW253879   8.539  14.111   5.417
17877SOL     OW53880   5.286  10.521   1.981
17877SOL    HW153881   5.300  10.557   2.069
17877SOL    HW253882   5.252  10.433   1.996
17878SOL     OW53883  12.079   2.663   3.343
17878SOL    HW153884  12.158   2.717   3.348
17878SOL    HW253885  12.104   2.591   3.285
17879SOL     OW53886   0.941   2.724   1.316
17879SOL    HW153887  11.673   2.744   1.399
17879SOL    HW253888   1.012   2.789   1.310
17880SOL     OW53889   9.243  11.521   3.901
17880SOL    HW153890   9.219  11.453   3.964
17880SOL    HW253891   9.177  11.515   3.832
17881SOL     OW53892   7.633  11.191   1.560
17881SOL    HW153893   7.726  11.198   1.581
17881SOL    HW253894   7.595  11.272   1.592
17882SOL     OW53895   7.066  12.015   6.035
17882SOL    HW153896   6.990  12.061   5.999
17882SOL    HW253897   7.073  11.936   5.982
17883SOL     OW53898   5.543   9.722   6.081
17883SOL    HW153899   5.484   9.651   6.058
17883SOL    HW253900   5.487   9.790   6.119
17884SOL     OW53901   7.463   6.958   4.053
17884SOL    HW153902   7.431   6.963   4.143
17884SOL    HW253903   7.510   7.040   4.041
17885SOL     OW53904   9.744   2.554   3.531
17885SOL    HW153905   9.815  13.265   3.538
17885SOL    HW253906   9.664   2.501   3.531
17886SOL     OW53907   7.702  13.998   5.692
17886SOL    HW153908   7.678  13.918   5.739
17886SOL    HW253909   7.708  13.971   5.600
17887SOL     OW53910   6.228  12.542   4.500
17887SOL    HW153911   6.286  12.466   4.490
17887SOL    HW253912   6.141  12.504   4.511
17888SOL     OW53913  10.091   1.913   1.526
17888SOL    HW153914  10.152   1.979   1.560
17888SOL    HW253915  10.071   1.858   1.602
17889SOL     OW53916   7.049   8.594   5.777
17889SOL    HW153917   6.993   8.671   5.785
17889SOL    HW253918   7.138   8.628   5.786
17890SOL     OW53919   4.539  13.162   5.731
17890SOL    HW153920   4.465  13.105   5.709
17890SOL    HW253921   4.520  13.244   5.685
17891SOL     OW53922   1.366   5.119   0.514
17891SOL    HW153923   1.333   5.039   0.555
17891SOL    HW253924   1.455   5.129   0.550
17892SOL     OW53925   4.122   4.310   1.793
17892SOL    HW153926   4.045   4.284   1.843
17892SOL    HW253927   4.088   4.331   1.706
17893SOL     OW53928   4.793   6.773   5.006
17893SOL    HW153929   4.825   6.813   5.087
17893SOL    HW253930   4.857   6.705   4.987
17894SOL     OW53931   2.222   8.534   1.519
17894SOL    HW153932   2.148   8.557   1.463
17894SOL    HW253933   2.186   8.532   1.608
17895SOL     OW53934   0.433   4.303   0.002
17895SOL    HW153935   0.405   4.213   0.018
17895SOL    HW253936   5.748   9.729   7.570
17896SOL     OW53937   4.486   6.766   1.621
17896SOL    HW153938   4.549   6.697   1.600
17896SOL    HW253939   4.521   6.808   1.699
17897SOL     OW53940   5.924   8.423   0.944
17897SOL    HW153941   5.928   8.378   0.860
17897SOL    HW253942   5.830   8.433   0.961
17898SOL     OW53943   8.425   7.243   7.572
17898SOL    HW153944   8.462   7.265   7.486
17898SOL    HW253945   3.037   1.939   0.001
17899SOL     OW53946  13.156   4.163   5.209
17899SOL    HW153947  13.227   4.206   5.160
17899SOL    HW253948  13.201   4.106   5.271
17900SOL     OW53949  14.293   8.726   5.156
17900SOL    HW153950  14.271   8.738   5.064
17900SOL    HW253951  14.357   8.654   5.156
17901SOL     OW53952   6.365   0.915   0.764
17901SOL    HW153953   6.403   0.877   0.843
17901SOL    HW253954   6.434   0.907   0.698
17902SOL     OW53955   7.375   7.684   0.192
17902SOL    HW153956   7.326   7.690   0.274
17902SOL    HW253957   7.452   7.739   0.206
17903SOL     OW53958   5.498  13.705   6.510
17903SOL    HW153959   5.525  13.756   6.434
17903SOL    HW253960   5.578  13.665   6.543
17904SOL     OW53961  11.084   7.939   1.732
17904SOL    HW153962  11.105   8.026   1.697
17904SOL    HW253963  11.001   7.916   1.689
17905SOL     OW53964   7.092   5.002   6.212
17905SOL    HW153965   7.102   4.953   6.294
17905SOL    HW253966   6.998   5.017   6.204
17906SOL     OW53967  10.693   4.144   3.093
17906SOL    HW153968  10.773   4.108   3.056
17906SOL    HW253969  10.720   4.185   3.175
17907SOL     OW53970  11.057   3.652   2.953
17907SOL    HW153971  11.020   3.566   2.969
17907SOL    HW253972  10.982   3.711   2.947
17908SOL     OW53973   5.135   5.627   4.398
17908SOL    HW153974   5.069   5.628   4.468
17908SOL    HW253975   5.091   5.670   4.324
17909SOL     OW53976  12.555  10.409   5.682
17909SOL    HW153977  12.518  10.439   5.600
17909SOL    HW253978  12.558  10.487   5.738
17910SOL     OW53979   1.576   1.909   0.527
17910SOL    HW153980   1.549   1.842   0.590
17910SOL    HW253981   1.671   1.914   0.535
17911SOL     OW53982  12.220   5.908   2.724
17911SOL    HW153983  12.228   5.822   2.682
17911SOL    HW253984  12.263   5.897   2.809
17912SOL     OW53985  14.162   8.475   5.230
17912SOL    HW153986  14.186   8.506   5.317
17912SOL    HW253987  14.191   8.545   5.171
17913SOL     OW53988  10.705  14.344   6.312
17913SOL    HW153989  10.750  14.424   6.285
17913SOL    HW253990  10.776  14.285   6.339
17914SOL     OW53991   2.802   9.240   3.595
17914SOL    HW153992   2.857   9.191   3.534
17914SOL    HW253993   2.840   9.223   3.681
17915SOL     OW53994  10.715   9.253   0.923
17915SOL    HW153995  10.646   9.316   0.943
17915SOL    HW253996  10.796   9.299   0.946
17916SOL     OW53997   7.245   8.709   7.077
17916SOL    HW153998   7.193   8.774   7.125
17916SOL    HW253999   7.261   8.640   7.140
17917SOL     OW54000   9.818  12.243   4.478
17917SOL    HW154001   9.879  12.240   4.551
17917SOL    HW254002   9.782  12.155   4.473
17918SOL     OW54003  13.308   8.925   4.805
17918SOL    HW154004  13.283   8.987   4.873
17918SOL    HW254005  13.229   8.913   4.753
17919SOL     OW54006  11.360   7.948   3.207
17919SOL    HW154007  11.428   8.016   3.200
17919SOL    HW254008  11.332   7.952   3.298
17920SOL     OW54009  11.142  12.325   4.968
17920SOL    HW154010  11.096  12.274   4.902
17920SOL    HW254011  11.222  12.355   4.924
17921SOL     OW54012  11.743   6.833   3.018
17921SOL    HW154013  11.799   6.909   3.034
17921SOL    HW254014  11.747   6.782   3.099
17922SOL     OW54015   5.608   1.861   2.453
17922SOL    HW154016   5.581   1.862   2.362
17922SOL    HW254017   5.551   1.796   2.495
17923SOL     OW54018   7.964   7.907   7.249
17923SOL    HW154019   7.878   7.877   7.278
17923SOL    HW254020   8.025   7.871   7.313
17924SOL     OW54021  11.516   9.155   6.173
17924SOL    HW154022  11.594   9.174   6.121
17924SOL    HW254023  11.520   9.061   6.189
17925SOL     OW54024  10.268   7.077   7.459
17925SOL    HW154025  10.263   7.004   7.397
17925SOL    HW254026  10.253   7.036   7.545
17926SOL     OW54027   3.014   3.505   0.675
17926SOL    HW154028   3.089   3.563   0.684
17926SOL    HW254029   3.015   3.451   0.754
17927SOL     OW54030  12.194  12.822   6.520
17927SOL    HW154031  12.102  12.824   6.492
17927SOL    HW254032  12.241  12.864   6.448
17928SOL     OW54033   6.513   2.151   1.329
17928SOL    HW154034   6.447   2.203   1.375
17928SOL    HW254035   6.582   2.214   1.307
17929SOL     OW54036   1.555   6.700   2.000
17929SOL    HW154037   1.566   6.633   1.933
17929SOL    HW254038   1.615   6.771   1.975
17930SOL     OW54039   6.635   6.333   3.252
17930SOL    HW154040   6.588   6.319   3.334
17930SOL    HW254041   6.709   6.273   3.256
17931SOL     OW54042   5.672   2.759   0.466
17931SOL    HW154043   5.746   2.699   0.476
17931SOL    HW254044   5.711   2.846   0.468
17932SOL     OW54045   5.496  11.634   3.327
17932SOL    HW154046   5.470  11.561   3.271
17932SOL    HW254047   5.476  11.605   3.416
17933SOL     OW54048  11.736   7.216   3.405
17933SOL    HW154049  11.744   7.216   3.310
17933SOL    HW254050  11.757   7.306   3.432
17934SOL     OW54051  12.622   8.606   6.399
17934SOL    HW154052  12.527   8.614   6.397
17934SOL    HW254053  12.639   8.534   6.460
17935SOL     OW54054   7.736   4.404   5.915
17935SOL    HW154055   7.746   4.316   5.951
17935SOL    HW254056   7.740   4.462   5.991
17936SOL     OW54057  10.917   8.565   4.811
17936SOL    HW154058  10.915   8.649   4.765
17936SOL    HW254059  10.824   8.542   4.820
17937SOL     OW54060  10.518   3.628   3.746
17937SOL    HW154061  10.528   3.662   3.657
17937SOL    HW254062  10.508   3.533   3.734
17938SOL     OW54063   9.278   1.282   0.861
17938SOL    HW154064   9.251   1.339   0.932
17938SOL    HW254065   9.334   1.337   0.805
17939SOL     OW54066   3.325   2.018   0.029
17939SOL    HW154067   8.658   7.333   7.617
17939SOL    HW254068   3.400   1.976   0.071
17940SOL     OW54069   6.780   4.161   0.938
17940SOL    HW154070   6.776   4.223   1.011
17940SOL    HW254071   6.722   4.090   0.964
17941SOL     OW54072   6.256   3.799   0.536
17941SOL    HW154073   6.262   3.879   0.484
17941SOL    HW254074   6.219   3.827   0.619
17942SOL     OW54075   4.980   9.781   1.519
17942SOL    HW154076   4.897   9.824   1.497
17942SOL    HW254077   5.045   9.852   1.513
17943SOL     OW54078   3.952   5.612   3.322
17943SOL    HW154079   3.901   5.551   3.376
17943SOL    HW254080   3.972   5.563   3.243
17944SOL     OW54081   5.343  10.652   2.313
17944SOL    HW154082   5.410  10.698   2.364
17944SOL    HW254083   5.271  10.714   2.306
17945SOL     OW54084   5.121   1.164   1.602
17945SOL    HW154085   5.036   1.207   1.615
17945SOL    HW254086   5.185   1.232   1.621
17946SOL     OW54087   3.037  10.842   0.899
17946SOL    HW154088   3.021  10.748   0.908
17946SOL    HW254089   2.951  10.880   0.880
17947SOL     OW54090   6.301   5.628   5.182
17947SOL    HW154091   6.360   5.689   5.138
17947SOL    HW254092   6.355   5.552   5.201
17948SOL     OW54093   5.483  14.938   7.092
17948SOL    HW154094   5.508  14.931   7.184
17948SOL    HW254095   5.396  14.979   7.094
17949SOL     OW54096   4.973  10.174   3.434
17949SOL    HW154097   5.048  10.172   3.493
17949SOL    HW254098   4.912  10.234   3.475
17950SOL     OW54099   5.987   2.840   0.540
17950SOL    HW154100   6.022   2.754   0.560
17950SOL    HW254101   6.039   2.871   0.466
17951SOL     OW54102   9.253   8.871   2.506
17951SOL    HW154103   9.183   8.891   2.568
17951SOL    HW254104   9.210   8.823   2.435
17952SOL     OW54105  10.907   9.701   3.054
17952SOL    HW154106  10.863   9.775   3.012
17952SOL    HW254107  10.995   9.699   3.015
17953SOL     OW54108  13.598   6.988   6.100
17953SOL    HW154109  13.617   6.909   6.150
17953SOL    HW254110  13.572   6.955   6.013
17954SOL     OW54111   6.113  13.161   7.451
17954SOL    HW154112   6.026  13.200   7.438
17954SOL    HW254113   6.109  13.078   7.404
17955SOL     OW54114  10.079  11.241   6.920
17955SOL    HW154115  10.052  11.149   6.917
17955SOL    HW254116  10.006  11.286   6.962
17956SOL     OW54117  10.320   3.558   1.353
17956SOL    HW154118  10.378   3.546   1.429
17956SOL    HW254119  10.241   3.598   1.390
17957SOL     OW54120   5.698  10.552   1.039
17957SOL    HW154121   5.684  10.605   0.960
17957SOL    HW254122   5.770  10.494   1.016
17958SOL     OW54123   9.840  13.191   4.867
17958SOL    HW154124   9.831  13.286   4.867
17958SOL    HW254125   9.934  13.176   4.864
17959SOL     OW54126  10.736  10.750   0.158
17959SOL    HW154127  10.694  10.666   0.139
17959SOL    HW254128  10.806  10.729   0.219
17960SOL     OW54129   1.852  11.323   2.035
17960SOL    HW154130   1.812  11.333   2.121
17960SOL    HW254131   1.779  11.303   1.976
17961SOL     OW54132  11.161  10.346   2.687
17961SOL    HW154133  11.211  10.399   2.749
17961SOL    HW254134  11.081  10.323   2.734
17962SOL     OW54135   8.092  13.382   6.301
17962SOL    HW154136   8.121  13.384   6.210
17962SOL    HW254137   8.154  13.440   6.346
17963SOL     OW54138  10.943   6.141   1.272
17963SOL    HW154139  10.964   6.128   1.364
17963SOL    HW254140  10.951   6.054   1.233
17964SOL     OW54141  13.501  11.698   6.905
17964SOL    HW154142  13.502  11.786   6.868
17964SOL    HW254143  13.544  11.644   6.839
17965SOL     OW54144   3.187   5.081   4.211
17965SOL    HW154145   3.159   5.078   4.302
17965SOL    HW254146   3.278   5.049   4.213
17966SOL     OW54147  12.093   9.705   6.253
17966SOL    HW154148  12.085   9.800   6.262
17966SOL    HW254149  12.082   9.689   6.159
17967SOL     OW54150  11.073   8.570   0.955
17967SOL    HW154151  11.056   8.517   0.877
17967SOL    HW254152  11.089   8.506   1.024
17968SOL     OW54153  10.481   4.906   1.475
17968SOL    HW154154  10.492   4.883   1.382
17968SOL    HW254155  10.543   4.850   1.521
17969SOL     OW54156   9.609   8.565   0.190
17969SOL    HW154157   9.642   8.512   0.263
17969SOL    HW254158   9.687   8.596   0.145
17970SOL     OW54159   8.186   9.523   5.011
17970SOL    HW154160   8.201   9.465   4.936
17970SOL    HW254161   8.251   9.495   5.076
17971SOL     OW54162   6.551   7.536   4.591
17971SOL    HW154163   6.619   7.493   4.642
17971SOL    HW254164   6.471   7.525   4.642
17972SOL     OW54165   3.073   9.664   1.725
17972SOL    HW154166   3.098   9.721   1.653
17972SOL    HW254167   3.056   9.723   1.799
17973SOL     OW54168   8.636   9.900   2.214
17973SOL    HW154169   8.604   9.936   2.297
17973SOL    HW254170   8.562   9.849   2.180
17974SOL     OW54171  14.105  13.963   6.463
17974SOL    HW154172  14.069  13.881   6.428
17974SOL    HW254173  14.041  13.992   6.528
17975SOL     OW54174  14.164   7.921   5.517
17975SOL    HW154175  14.189   7.983   5.448
17975SOL    HW254176  14.087   7.877   5.483
17976SOL     OW54177  13.580  11.965   4.624
17976SOL    HW154178  13.523  12.022   4.676
17976SOL    HW254179  13.594  11.888   4.680
17977SOL     OW54180   3.178  10.110   3.400
17977SOL    HW154181   3.154  10.080   3.488
17977SOL    HW254182   3.237  10.184   3.415
17978SOL     OW54183   8.986   5.400   4.360
17978SOL    HW154184   8.993   5.333   4.427
17978SOL    HW254185   9.023   5.479   4.400
17979SOL     OW54186   4.626  12.308   5.247
17979SOL    HW154187   4.591  12.222   5.271
17979SOL    HW254188   4.550  12.366   5.247
17980SOL     OW54189   2.783   2.545   2.626
17980SOL    HW154190   2.797   2.639   2.634
17980SOL    HW254191   2.693   2.537   2.596
17981SOL     OW54192   0.770   3.074   0.315
17981SOL    HW154193   0.714   3.038   0.384
17981SOL    HW254194   0.761   3.012   0.242
17982SOL     OW54195   1.815   3.791   2.352
17982SOL    HW154196   1.818   3.818   2.444
17982SOL    HW254197   1.841   3.699   2.354
17983SOL     OW54198   9.295   8.707   0.826
17983SOL    HW154199   9.271   8.635   0.767
17983SOL    HW254200   9.366   8.671   0.880
17984SOL     OW54201   3.213   8.801   0.039
17984SOL    HW154202   3.180   8.856   0.110
17984SOL    HW254203   3.199   8.712   0.070
17985SOL     OW54204   1.870   2.995   2.190
17985SOL    HW154205   1.955   2.987   2.146
17985SOL    HW254206   1.815   2.929   2.150
17986SOL     OW54207  12.553   6.971   2.895
17986SOL    HW154208  12.597   7.031   2.836
17986SOL    HW254209  12.548   6.888   2.847
17987SOL     OW54210   5.094   5.561   1.291
17987SOL    HW154211   5.131   5.568   1.379
17987SOL    HW254212   5.043   5.641   1.280
17988SOL     OW54213   1.013   2.432   1.234
17988SOL    HW154214   1.073   2.506   1.247
17988SOL    HW254215   1.067   2.354   1.248
17989SOL     OW54216   6.353  14.609   5.576
17989SOL    HW154217   6.442  14.608   5.541
17989SOL    HW254218   6.334  14.517   5.596
17990SOL     OW54219   7.380  12.474   4.851
17990SOL    HW154220   7.326  12.422   4.792
17990SOL    HW254221   7.318  12.516   4.910
17991SOL     OW54222   2.895   5.020   2.409
17991SOL    HW154223   2.812   4.998   2.451
17991SOL    HW254224   2.945   5.066   2.476
17992SOL     OW54225   9.981   4.915   5.721
17992SOL    HW154226  10.063   4.956   5.694
17992SOL    HW254227   9.913   4.960   5.671
17993SOL     OW54228   4.503   6.667   0.977
17993SOL    HW154229   4.591   6.669   0.940
17993SOL    HW254230   4.481   6.574   0.980
17994SOL     OW54231   2.413   9.587   2.490
17994SOL    HW154232   2.446   9.517   2.433
17994SOL    HW254233   2.361   9.542   2.556
17995SOL     OW54234  10.810  13.795   7.398
17995SOL    HW154235  10.849  13.852   7.331
17995SOL    HW254236  10.779  13.856   7.465
17996SOL     OW54237  11.749   4.670   4.568
17996SOL    HW154238  11.673   4.697   4.517
17996SOL    HW254239  11.817   4.651   4.503
17997SOL     OW54240  11.105   6.491   6.854
17997SOL    HW154241  11.175   6.536   6.901
17997SOL    HW254242  11.081   6.551   6.783
17998SOL     OW54243   8.614   6.067   1.298
17998SOL    HW154244   8.703   6.101   1.312
17998SOL    HW254245   8.607   5.992   1.356
17999SOL     OW54246  11.689  13.711   5.440
17999SOL    HW154247  11.672  13.681   5.529
17999SOL    HW254248  11.710  13.631   5.392
18000SOL     OW54249  11.649   4.212   2.575
18000SOL    HW154250  11.557   4.185   2.567
18000SOL    HW254251  11.647   4.306   2.561
18001SOL     OW54252   1.755   4.378   2.420
18001SOL    HW154253  12.492   4.461   2.450
18001SOL    HW254254   1.744   4.380   2.325
18002SOL     OW54255  10.355   8.714   6.193
18002SOL    HW154256  10.375   8.677   6.107
18002SOL    HW254257  10.260   8.704   6.202
18003SOL     OW54258  12.486  13.240   7.483
18003SOL    HW154259  12.558  13.215   7.540
18003SOL    HW254260  12.420  13.277   7.541
18004SOL     OW54261   9.386  13.220   4.314
18004SOL    HW154262   9.439  13.165   4.371
18004SOL    HW254263   9.349  13.160   4.249
18005SOL     OW54264   5.736   4.875   5.361
18005SOL    HW154265   5.730   4.943   5.294
18005SOL    HW254266   5.735   4.793   5.313
18006SOL     OW54267   4.491  12.208   3.749
18006SOL    HW154268   4.435  12.134   3.723
18006SOL    HW254269   4.576  12.188   3.710
18007SOL     OW54270   5.836   9.612   1.961
18007SOL    HW154271   5.843   9.686   1.900
18007SOL    HW254272   5.907   9.553   1.936
18008SOL     OW54273  15.060   6.216   6.562
18008SOL    HW154274  15.134   6.241   6.618
18008SOL    HW254275  15.000   6.290   6.566
18009SOL     OW54276   7.758   5.764   5.001
18009SOL    HW154277   7.674   5.754   4.957
18009SOL    HW254278   7.810   5.819   4.943
18010SOL     OW54279   6.937   8.392   6.196
18010SOL    HW154280   6.910   8.472   6.150
18010SOL    HW254281   6.982   8.340   6.130
18011SOL     OW54282   9.864   9.224   0.679
18011SOL    HW154283   9.839   9.309   0.644
18011SOL    HW254284   9.940   9.242   0.734
18012SOL     OW54285  10.845  10.577   1.656
18012SOL    HW154286  10.886  10.578   1.569
18012SOL    HW254287  10.765  10.629   1.645
18013SOL     OW54288   1.137   2.611   0.427
18013SOL    HW154289   1.135   2.703   0.454
18013SOL    HW254290   1.193   2.567   0.491
18014SOL     OW54291   9.480   4.896   3.271
18014SOL    HW154292   9.419   4.859   3.335
18014SOL    HW254293   9.431   4.969   3.232
18015SOL     OW54294  14.099   6.399   5.104
18015SOL    HW154295  14.124   6.489   5.125
18015SOL    HW254296  14.084   6.358   5.190
18016SOL     OW54297   7.741   5.291   0.925
18016SOL    HW154298   7.832   5.321   0.922
18016SOL    HW254299   7.746   5.196   0.922
18017SOL     OW54300   8.510   5.433   0.030
18017SOL    HW154301   8.530   5.427   0.123
18017SOL    HW254302  13.956  10.889   7.616
18018SOL     OW54303  10.902   8.832   4.432
18018SOL    HW154304  10.833   8.776   4.468
18018SOL    HW254305  10.867   8.921   4.437
18019SOL     OW54306  12.793   9.396   7.358
18019SOL    HW154307  12.854   9.322   7.361
18019SOL    HW254308  12.802   9.438   7.444
18020SOL     OW54309   3.504   7.979   4.950
18020SOL    HW154310  14.192   7.978   4.909
18020SOL    HW254311   3.552   8.046   4.901
18021SOL     OW54312   7.752  12.729   5.583
18021SOL    HW154313   7.768  12.707   5.492
18021SOL    HW254314   7.760  12.824   5.586
18022SOL     OW54315  11.653   3.173   1.438
18022SOL    HW154316  11.723   3.168   1.374
18022SOL    HW254317  11.589   3.232   1.400
18023SOL     OW54318  13.501   4.697   4.773
18023SOL    HW154319  13.465   4.783   4.795
18023SOL    HW254320  13.481   4.686   4.680
18024SOL     OW54321   7.662   2.130   0.921
18024SOL    HW154322   7.706   2.195   0.975
18024SOL    HW254323   7.691   2.046   0.957
18025SOL     OW54324   7.288  10.848   2.276
18025SOL    HW154325   7.275  10.941   2.295
18025SOL    HW254326   7.329  10.813   2.355
18026SOL     OW54327   2.155   5.599   1.957
18026SOL    HW154328   2.179   5.552   2.036
18026SOL    HW254329   2.143   5.531   1.891
18027SOL     OW54330  14.365  10.328   6.359
18027SOL    HW154331  14.415  10.379   6.423
18027SOL    HW254332  14.359  10.241   6.398
18028SOL     OW54333   3.827   7.263   5.213
18028SOL    HW154334   3.790   7.186   5.171
18028SOL    HW254335   3.912   7.233   5.247
18029SOL     OW54336  10.907   7.269   1.407
18029SOL    HW154337  10.820   7.306   1.392
18029SOL    HW254338  10.907   7.246   1.500
18030SOL     OW54339  12.471   7.516   7.195
18030SOL    HW154340  12.562   7.488   7.197
18030SOL    HW254341  12.460   7.567   7.275
18031SOL     OW54342  11.561  12.607   5.696
18031SOL    HW154343  11.580  12.562   5.778
18031SOL    HW254344  11.466  12.616   5.694
18032SOL     OW54345   8.934   7.456   4.714
18032SOL    HW154346   8.998   7.526   4.708
18032SOL    HW254347   8.928   7.421   4.625
18033SOL     OW54348  14.054  13.348   4.769
18033SOL    HW154349  14.010  13.394   4.841
18033SOL    HW254350  13.984  13.310   4.717
18034SOL     OW54351   5.988   7.876   1.477
18034SOL    HW154352   5.999   7.899   1.385
18034SOL    HW254353   5.914   7.815   1.478
18035SOL     OW54354   7.610   5.538   0.822
18035SOL    HW154355   7.566   5.491   0.752
18035SOL    HW254356   7.631   5.471   0.887
18036SOL     OW54357  12.435   4.910   5.623
18036SOL    HW154358  12.477   4.827   5.647
18036SOL    HW254359  12.343   4.897   5.643
18037SOL     OW54360  11.566   3.736   2.145
18037SOL    HW154361  11.551   3.712   2.236
18037SOL    HW254362  11.521   3.820   2.134
18038SOL     OW54363   5.084   6.083   4.136
18038SOL    HW154364   5.164   6.131   4.111
18038SOL    HW254365   5.014   6.147   4.123
18039SOL     OW54366  11.612  11.596   6.744
18039SOL    HW154367  11.674  11.540   6.698
18039SOL    HW254368  11.531  11.590   6.693
18040SOL     OW54369   5.157  11.700   2.992
18040SOL    HW154370   5.211  11.737   2.922
18040SOL    HW254371   5.068  11.708   2.960
18041SOL     OW54372   4.845   6.487   4.923
18041SOL    HW154373   4.849   6.396   4.894
18041SOL    HW254374   4.873   6.484   5.014
18042SOL     OW54375  12.058   4.920   5.042
18042SOL    HW154376  12.019   5.007   5.047
18042SOL    HW254377  12.148   4.933   5.071
18043SOL     OW54378  14.489  10.013   7.066
18043SOL    HW154379  14.580   9.984   7.064
18043SOL    HW254380  14.493  10.108   7.054
18044SOL     OW54381   8.836  13.151   4.726
18044SOL    HW154382   8.860  13.244   4.734
18044SOL    HW254383   8.919  13.107   4.709
18045SOL     OW54384   5.976  11.002   4.608
18045SOL    HW154385   6.058  10.988   4.655
18045SOL    HW254386   5.986  10.950   4.528
18046SOL     OW54387  10.967   5.914   1.917
18046SOL    HW154388  10.954   6.006   1.892
18046SOL    HW254389  11.011   5.875   1.842
18047SOL     OW54390  12.824   7.212   7.581
18047SOL    HW154391   7.374   1.773   0.012
18047SOL    HW254392  12.818   7.300   7.618
18048SOL     OW54393   5.271   1.483   0.808
18048SOL    HW154394   5.353   1.519   0.775
18048SOL    HW254395   5.248   1.414   0.745
18049SOL     OW54396   8.919  11.096   3.113
18049SOL    HW154397   8.881  11.022   3.066
18049SOL    HW254398   9.011  11.075   3.121
18050SOL     OW54399   4.702  12.600   3.721
18050SOL    HW154400   4.690  12.534   3.789
18050SOL    HW254401   4.639  12.575   3.653
18051SOL     OW54402   7.565  12.439   5.341
18051SOL    HW154403   7.613  12.369   5.297
18051SOL    HW254404   7.484  12.398   5.370
18052SOL     OW54405  11.024  12.057   3.024
18052SOL    HW154406  10.952  12.077   3.084
18052SOL    HW254407  11.023  11.961   3.017
18053SOL     OW54408   6.841   6.850   5.405
18053SOL    HW154409   6.776   6.919   5.415
18053SOL    HW254410   6.892   6.854   5.486
18054SOL     OW54411   5.120   6.850   6.454
18054SOL    HW154412   5.098   6.884   6.541
18054SOL    HW254413   5.214   6.865   6.445
18055SOL     OW54414   5.979  15.805   7.475
18055SOL    HW154415   5.989  15.711   7.460
18055SOL    HW254416   6.011  15.818   7.565
18056SOL     OW54417   9.339  11.871   3.007
18056SOL    HW154418   9.357  11.821   3.086
18056SOL    HW254419   9.374  11.958   3.025
18057SOL     OW54420   3.200   8.346   3.280
18057SOL    HW154421   3.290   8.359   3.251
18057SOL    HW254422   3.160   8.432   3.274
18058SOL     OW54423  10.980  14.719   6.751
18058SOL    HW154424  11.013  14.804   6.723
18058SOL    HW254425  10.921  14.739   6.824
18059SOL     OW54426  12.854   5.491   6.434
18059SOL    HW154427  12.831   5.447   6.352
18059SOL    HW254428  12.861   5.421   6.498
18060SOL     OW54429   7.254   5.787   1.135
18060SOL    HW154430   7.268   5.730   1.060
18060SOL    HW254431   7.181   5.747   1.183
18061SOL     OW54432   4.667   9.090   5.568
18061SOL    HW154433   4.594   9.049   5.615
18061SOL    HW254434   4.714   9.139   5.636
18062SOL     OW54435   6.657   7.002   2.434
18062SOL    HW154436   6.575   7.014   2.481
18062SOL    HW254437   6.653   7.065   2.361
18063SOL     OW54438  14.104  12.941   5.936
18063SOL    HW154439  14.153  12.899   6.007
18063SOL    HW254440  14.074  13.024   5.973
18064SOL     OW54441   9.555   5.329   3.476
18064SOL    HW154442   9.486   5.263   3.470
18064SOL    HW254443   9.631   5.281   3.510
18065SOL     OW54444   9.234  13.371   7.446
18065SOL    HW154445   9.176  13.421   7.388
18065SOL    HW254446   9.204  13.281   7.438
18066SOL     OW54447  14.796  12.524   6.288
18066SOL    HW154448  14.754  12.445   6.321
18066SOL    HW254449  14.777  12.591   6.354
18067SOL     OW54450   7.555  11.494   2.576
18067SOL    HW154451   7.473  11.446   2.562
18067SOL    HW254452   7.583  11.468   2.664
18068SOL     OW54453   2.705   2.698   0.253
18068SOL    HW154454   2.749   2.681   0.169
18068SOL    HW254455   2.756   2.768   0.293
18069SOL     OW54456   3.224   7.214   3.030
18069SOL    HW154457   3.303   7.228   3.082
18069SOL    HW254458   3.195   7.302   3.006
18070SOL     OW54459   7.321   3.558   1.422
18070SOL    HW154460   7.258   3.498   1.463
18070SOL    HW254461   7.407   3.524   1.448
18071SOL     OW54462   8.991   7.408   0.399
18071SOL    HW154463   8.912   7.441   0.442
18071SOL    HW254464   9.008   7.469   0.328
18072SOL     OW54465  14.302   7.384   5.191
18072SOL    HW154466  14.259   7.468   5.175
18072SOL    HW254467  14.392   7.398   5.162
18073SOL     OW54468   6.483   9.526   6.908
18073SOL    HW154469   6.433   9.545   6.828
18073SOL    HW254470   6.421   9.479   6.963
18074SOL     OW54471   7.150   7.405   4.433
18074SOL    HW154472   7.086   7.475   4.447
18074SOL    HW254473   7.160   7.364   4.518
18075SOL     OW54474   9.888   2.738   0.935
18075SOL    HW154475   9.887   2.812   0.995
18075SOL    HW254476   9.944   2.767   0.862
18076SOL     OW54477   9.646  12.916   3.929
18076SOL    HW154478   9.714  12.972   3.891
18076SOL    HW254479   9.652  12.931   4.023
18077SOL     OW54480  10.472   7.065   6.663
18077SOL    HW154481  10.427   6.992   6.621
18077SOL    HW254482  10.418   7.087   6.738
18078SOL     OW54483   4.074  11.628   5.417
18078SOL    HW154484   4.108  11.599   5.502
18078SOL    HW254485   4.040  11.548   5.377
18079SOL     OW54486   6.565  13.660   7.061
18079SOL    HW154487   6.529  13.573   7.076
18079SOL    HW254488   6.522  13.690   6.981
18080SOL     OW54489  14.561   4.689   5.887
18080SOL    HW154490  14.547   4.636   5.808
18080SOL    HW254491  14.651   4.722   5.878
18081SOL     OW54492   7.105  14.532   5.968
18081SOL    HW154493   7.034  14.517   6.030
18081SOL    HW254494   7.185  14.506   6.015
18082SOL     OW54495   7.393   4.200   4.980
18082SOL    HW154496   7.368   4.252   4.904
18082SOL    HW254497   7.484   4.222   4.996
18083SOL     OW54498   6.683   4.670   5.370
18083SOL    HW154499   6.670   4.701   5.460
18083SOL    HW254500   6.763   4.714   5.341
18084SOL     OW54501   9.740   6.411   0.459
18084SOL    HW154502   9.801   6.337   0.454
18084SOL    HW254503   9.717   6.417   0.551
18085SOL     OW54504  10.616  11.942   4.367
18085SOL    HW154505  10.706  11.938   4.334
18085SOL    HW254506  10.582  11.853   4.356
18086SOL     OW54507   7.601   5.385   4.065
18086SOL    HW154508   7.637   5.335   3.991
18086SOL    HW254509   7.641   5.471   4.058
18087SOL     OW54510  13.562   8.219   4.378
18087SOL    HW154511  13.485   8.193   4.328
18087SOL    HW254512  13.550   8.180   4.464
18088SOL     OW54513   7.807   5.955   3.176
18088SOL    HW154514   7.866   5.976   3.248
18088SOL    HW254515   7.784   6.041   3.139
18089SOL     OW54516  10.432   4.505   5.002
18089SOL    HW154517  10.378   4.430   4.980
18089SOL    HW254518  10.465   4.486   5.090
18090SOL     OW54519   7.264  13.027   6.083
18090SOL    HW154520   7.345  13.046   6.036
18090SOL    HW254521   7.292  13.014   6.174
18091SOL     OW54522  10.822   9.355   2.981
18091SOL    HW154523  10.865   9.420   2.925
18091SOL    HW254524  10.877   9.277   2.973
18092SOL     OW54525  11.979   8.520   3.990
18092SOL    HW154526  11.924   8.460   4.040
18092SOL    HW254527  11.968   8.493   3.899
18093SOL     OW54528  10.801  12.346   3.473
18093SOL    HW154529  10.732  12.400   3.436
18093SOL    HW254530  10.819  12.385   3.559
18094SOL     OW54531   8.891   9.677   7.147
18094SOL    HW154532   8.807   9.720   7.131
18094SOL    HW254533   8.907   9.690   7.240
18095SOL     OW54534  11.701   9.759   3.983
18095SOL    HW154535  11.764   9.822   4.018
18095SOL    HW254536  11.616   9.791   4.014
18096SOL     OW54537   4.897   9.436   2.404
18096SOL    HW154538   4.965   9.401   2.347
18096SOL    HW254539   4.938   9.512   2.445
18097SOL     OW54540   9.670   7.965   1.701
18097SOL    HW154541   9.660   7.921   1.785
18097SOL    HW254542   9.582   7.996   1.680
18098SOL     OW54543   7.663   8.945   2.536
18098SOL    HW154544   7.722   8.920   2.606
18098SOL    HW254545   7.643   9.038   2.553
18099SOL     OW54546   8.900   5.591   5.717
18099SOL    HW154547   8.943   5.532   5.655
18099SOL    HW254548   8.818   5.615   5.675
18100SOL     OW54549  13.510  14.025   6.293
18100SOL    HW154550  13.590  13.991   6.253
18100SOL    HW254551  13.458  13.948   6.313
18101SOL     OW54552  13.383  11.353   6.515
18101SOL    HW154553  13.376  11.448   6.509
18101SOL    HW254554  13.293  11.323   6.532
18102SOL     OW54555  10.428  10.885   7.143
18102SOL    HW154556  10.464  10.806   7.182
18102SOL    HW254557  10.370  10.920   7.211
18103SOL     OW54558  13.949   6.709   6.337
18103SOL    HW154559  13.874   6.745   6.385
18103SOL    HW254560  13.978   6.634   6.389
18104SOL     OW54561   8.300   3.436   2.110
18104SOL    HW154562   8.309   3.390   2.194
18104SOL    HW254563   8.302   3.367   2.044
18105SOL     OW54564   3.826   6.434   5.108
18105SOL    HW154565   3.795   6.500   5.171
18105SOL    HW254566   3.767   6.443   5.033
18106SOL     OW54567   5.046  12.754   4.937
18106SOL    HW154568   4.964  12.803   4.928
18106SOL    HW254569   5.078  12.778   5.024
18107SOL     OW54570   5.251   6.815   6.756
18107SOL    HW154571   5.176   6.802   6.814
18107SOL    HW254572   5.312   6.869   6.806
18108SOL     OW54573   1.607   4.363   1.847
18108SOL    HW154574   1.523   4.337   1.886
18108SOL    HW254575   1.583   4.401   1.763
18109SOL     OW54576   6.968   7.753   4.259
18109SOL    HW154577   6.897   7.817   4.268
18109SOL    HW254578   6.947   7.704   4.179
18110SOL     OW54579   5.694  10.674   2.881
18110SOL    HW154580   5.747  10.665   2.802
18110SOL    HW254581   5.633  10.599   2.878
18111SOL     OW54582   7.131   5.946   5.585
18111SOL    HW154583   7.194   5.893   5.634
18111SOL    HW254584   7.062   5.965   5.649
18112SOL     OW54585  12.940  11.393   4.949
18112SOL    HW154586  12.986  11.347   4.879
18112SOL    HW254587  13.000  11.461   4.976
18113SOL     OW54588   9.110  13.952   6.043
18113SOL    HW154589   9.188  13.962   6.097
18113SOL    HW254590   9.041  13.997   6.092
18114SOL     OW54591  14.782  13.171   6.065
18114SOL    HW154592  14.715  13.216   6.116
18114SOL    HW254593  14.864  13.190   6.110
18115SOL     OW54594   6.066  12.488   7.551
18115SOL    HW154595   6.155  12.478   7.517
18115SOL    HW254596   0.688   7.089   0.027
18116SOL     OW54597   2.870   9.466   0.032
18116SOL    HW154598   2.960   9.440   0.052
18116SOL    HW254599   2.816   9.398   0.073
18117SOL     OW54600   2.740   3.024   3.582
18117SOL    HW154601   2.725   2.976   3.663
18117SOL    HW254602   2.834   3.042   3.581
18118SOL     OW54603   2.971   4.155   0.069
18118SOL    HW154604   3.006   4.133   0.155
18118SOL    HW254605   2.877   4.135   0.075
18119SOL     OW54606  12.377   7.843   2.571
18119SOL    HW154607  12.327   7.924   2.564
18119SOL    HW254608  12.371   7.804   2.484
18120SOL     OW54609  10.623   3.746   1.141
18120SOL    HW154610  10.605   3.652   1.131
18120SOL    HW254611  10.703   3.760   1.090
18121SOL     OW54612  12.109   7.040   2.015
18121SOL    HW154613  12.074   6.959   1.977
18121SOL    HW254614  12.032   7.086   2.049
18122SOL     OW54615   9.606   6.288   5.932
18122SOL    HW154616   9.674   6.355   5.928
18122SOL    HW254617   9.543   6.322   5.995
18123SOL     OW54618   8.719   5.645   4.847
18123SOL    HW154619   8.716   5.632   4.942
18123SOL    HW254620   8.633   5.615   4.816
18124SOL     OW54621   9.396  12.472   5.115
18124SOL    HW154622   9.383  12.388   5.160
18124SOL    HW254623   9.445  12.449   5.036
18125SOL     OW54624  10.900   4.376   2.902
18125SOL    HW154625  10.918   4.462   2.865
18125SOL    HW254626  10.869   4.324   2.828
18126SOL     OW54627   8.463  13.662   7.452
18126SOL    HW154628   8.377  13.627   7.425
18126SOL    HW254629   8.501  13.593   7.506
18127SOL     OW54630   5.553   7.128   3.026
18127SOL    HW154631   5.546   7.150   2.933
18127SOL    HW254632   5.589   7.039   3.026
18128SOL     OW54633  12.089   8.145   6.750
18128SOL    HW154634  12.132   8.076   6.700
18128SOL    HW254635  12.063   8.210   6.685
18129SOL     OW54636   7.405   8.468   7.501
18129SOL    HW154637   7.392   8.395   7.562
18129SOL    HW254638   7.440   8.427   7.422
18130SOL     OW54639   8.835   2.745   1.504
18130SOL    HW154640   8.897   2.676   1.484
18130SOL    HW254641   8.831   2.798   1.424
18131SOL     OW54642  13.622   4.429   4.229
18131SOL    HW154643  13.695   4.450   4.172
18131SOL    HW254644  13.574   4.360   4.183
18132SOL     OW54645   1.707   8.551   2.145
18132SOL    HW154646   1.622   8.534   2.104
18132SOL    HW254647   1.686   8.603   2.223
18133SOL     OW54648   7.326   3.832   3.302
18133SOL    HW154649   7.388   3.855   3.371
18133SOL    HW254650   7.326   3.909   3.244
18134SOL     OW54651   6.939   4.021   1.731
18134SOL    HW154652   6.938   4.112   1.761
18134SOL    HW254653   7.026   3.989   1.755
18135SOL     OW54654  10.107   7.381   3.467
18135SOL    HW154655  10.182   7.376   3.407
18135SOL    HW254656  10.088   7.290   3.488
18136SOL     OW54657  11.292  10.844   3.112
18136SOL    HW154658  11.234  10.881   3.046
18136SOL    HW254659  11.374  10.827   3.065
18137SOL     OW54660   8.942   6.628   3.204
18137SOL    HW154661   8.990   6.700   3.163
18137SOL    HW254662   9.003   6.554   3.199
18138SOL     OW54663   9.131   9.877   3.062
18138SOL    HW154664   9.041   9.906   3.048
18138SOL    HW254665   9.155   9.917   3.146
18139SOL     OW54666   7.633  13.509   4.128
18139SOL    HW154667   7.565  13.559   4.174
18139SOL    HW254668   7.642  13.552   4.043
18140SOL     OW54669   9.226   8.037   0.901
18140SOL    HW154670   9.255   7.958   0.855
18140SOL    HW254671   9.171   8.005   0.973
18141SOL     OW54672  11.207   4.287   5.584
18141SOL    HW154673  11.297   4.264   5.561
18141SOL    HW254674  11.157   4.208   5.564
18142SOL     OW54675   3.527  11.183   2.181
18142SOL    HW154676   3.465  11.256   2.172
18142SOL    HW254677   3.489  11.113   2.129
18143SOL     OW54678   9.099   5.501   5.915
18143SOL    HW154679   9.081   5.539   5.829
18143SOL    HW254680   9.121   5.410   5.895
18144SOL     OW54681   8.530  13.276   4.779
18144SOL    HW154682   8.568  13.188   4.771
18144SOL    HW254683   8.548  13.317   4.694
18145SOL     OW54684   3.261   2.117   0.838
18145SOL    HW154685   3.274   2.192   0.895
18145SOL    HW254686   3.274   2.151   0.750
18146SOL     OW54687   5.441  13.708   6.079
18146SOL    HW154688   5.374  13.766   6.042
18146SOL    HW254689   5.480  13.665   6.003
18147SOL     OW54690   6.371  11.684   1.313
18147SOL    HW154691   6.453  11.656   1.273
18147SOL    HW254692   6.309  11.613   1.294
18148SOL     OW54693  10.956   7.005   3.507
18148SOL    HW154694  10.873   6.969   3.537
18148SOL    HW254695  11.008   7.014   3.587
18149SOL     OW54696   6.944   6.253   4.407
18149SOL    HW154697   6.996   6.183   4.366
18149SOL    HW254698   6.862   6.253   4.358
18150SOL     OW54699   2.091   8.147   1.158
18150SOL    HW154700   2.038   8.173   1.233
18150SOL    HW254701   2.028   8.122   1.091
18151SOL     OW54702  11.164  13.047   4.047
18151SOL    HW154703  11.086  12.996   4.069
18151SOL    HW254704  11.213  12.990   3.986
18152SOL     OW54705   8.830  10.736   4.061
18152SOL    HW154706   8.904  10.677   4.073
18152SOL    HW254707   8.843  10.775   3.974
18153SOL     OW54708   2.829   3.019   0.203
18153SOL    HW154709   2.851   2.943   0.150
18153SOL    HW254710   2.753   3.058   0.159
18154SOL     OW54711   7.334   4.204   1.118
18154SOL    HW154712   7.332   4.114   1.087
18154SOL    HW254713   7.242   4.231   1.121
18155SOL     OW54714   2.228   5.217   0.577
18155SOL    HW154715   2.272   5.291   0.618
18155SOL    HW254716   2.186   5.171   0.649
18156SOL     OW54717   2.151   1.178   0.540
18156SOL    HW154718   2.246   1.187   0.543
18156SOL    HW254719   2.120   1.263   0.506
18157SOL     OW54720   7.919   5.573   6.813
18157SOL    HW154721   7.964   5.658   6.821
18157SOL    HW254722   7.851   5.588   6.748
18158SOL     OW54723   8.180  11.799   4.783
18158SOL    HW154724   8.233  11.835   4.713
18158SOL    HW254725   8.128  11.730   4.742
18159SOL     OW54726  11.545   7.402   4.254
18159SOL    HW154727  11.641   7.403   4.245
18159SOL    HW254728  11.526   7.478   4.310
18160SOL     OW54729  10.039   9.857   1.592
18160SOL    HW154730  10.064   9.943   1.558
18160SOL    HW254731   9.948   9.846   1.565
18161SOL     OW54732   5.364   7.746   1.779
18161SOL    HW154733   5.391   7.721   1.867
18161SOL    HW254734   5.433   7.806   1.749
18162SOL     OW54735   8.589  10.099   0.912
18162SOL    HW154736   8.551  10.145   0.837
18162SOL    HW254737   8.514  10.067   0.961
18163SOL     OW54738  11.572   6.383   5.096
18163SOL    HW154739  11.495   6.387   5.039
18163SOL    HW254740  11.569   6.465   5.145
18164SOL     OW54741  13.383   6.965   5.739
18164SOL    HW154742  13.313   7.013   5.696
18164SOL    HW254743  13.367   6.978   5.833
18165SOL     OW54744   3.143   0.994   0.423
18165SOL    HW154745   3.067   1.053   0.418
18165SOL    HW254746   3.201   1.024   0.353
18166SOL     OW54747  12.054   8.965   2.161
18166SOL    HW154748  12.108   9.038   2.133
18166SOL    HW254749  12.060   8.902   2.090
18167SOL     OW54750   7.391   4.749   6.501
18167SOL    HW154751   7.401   4.830   6.452
18167SOL    HW254752   7.476   4.704   6.491
18168SOL     OW54753  10.106   7.051   3.545
18168SOL    HW154754  10.027   7.032   3.494
18168SOL    HW254755  10.178   7.045   3.481
18169SOL     OW54756   6.706   5.078   1.451
18169SOL    HW154757   6.659   5.104   1.530
18169SOL    HW254758   6.790   5.043   1.483
18170SOL     OW54759  10.606   6.668   2.349
18170SOL    HW154760  10.675   6.602   2.354
18170SOL    HW254761  10.531   6.627   2.392
18171SOL     OW54762   7.388   2.688   2.078
18171SOL    HW154763   7.387   2.731   2.163
18171SOL    HW254764   7.361   2.597   2.097
18172SOL     OW54765   5.472   5.620   2.849
18172SOL    HW154766   5.408   5.630   2.778
18172SOL    HW254767   5.527   5.546   2.822
18173SOL     OW54768  11.407   5.315   4.219
18173SOL    HW154769  11.456   5.257   4.277
18173SOL    HW254770  11.331   5.341   4.270
18174SOL     OW54771   7.478  12.332   6.921
18174SOL    HW154772   7.423  12.393   6.872
18174SOL    HW254773   7.560  12.380   6.935
18175SOL     OW54774   0.727   4.029   0.358
18175SOL    HW154775   0.635   4.055   0.351
18175SOL    HW254776   0.771   4.074   0.286
18176SOL     OW54777   8.915   8.225   1.178
18176SOL    HW154778   8.900   8.289   1.248
18176SOL    HW254779   9.003   8.245   1.145
18177SOL     OW54780   4.569  10.618   0.324
18177SOL    HW154781   4.480  10.584   0.318
18177SOL    HW254782   4.623  10.541   0.343
18178SOL     OW54783   7.636   7.374   6.670
18178SOL    HW154784   7.566   7.382   6.735
18178SOL    HW254785   7.617   7.442   6.606
18179SOL     OW54786   4.362   4.585   1.026
18179SOL    HW154787   4.450   4.546   1.022
18179SOL    HW254788   4.360   4.630   1.110
18180SOL     OW54789   6.681  13.115   5.285
18180SOL    HW154790   6.650  13.067   5.362
18180SOL    HW254791   6.652  13.062   5.211
18181SOL     OW54792   6.394   5.451   2.628
18181SOL    HW154793   6.348   5.498   2.559
18181SOL    HW254794   6.377   5.501   2.707
18182SOL     OW54795  11.809   3.941   3.911
18182SOL    HW154796  11.782   4.004   3.844
18182SOL    HW254797  11.899   3.918   3.886
18183SOL     OW54798   8.296   7.016   5.641
18183SOL    HW154799   8.313   7.078   5.570
18183SOL    HW254800   8.302   6.930   5.599
18184SOL     OW54801  13.294   9.074   4.024
18184SOL    HW154802  13.296   9.135   3.950
18184SOL    HW254803  13.348   9.000   3.996
18185SOL     OW54804   5.243  10.430   7.116
18185SOL    HW154805   5.301  10.361   7.150
18185SOL    HW254806   5.275  10.446   7.027
18186SOL     OW54807   6.707   5.549   6.335
18186SOL    HW154808   6.708   5.643   6.319
18186SOL    HW254809   6.774   5.513   6.276
18187SOL     OW54810   9.780   3.302   4.035
18187SOL    HW154811   9.808   3.212   4.023
18187SOL    HW254812   9.688   3.296   4.062
18188SOL     OW54813  12.038   6.338   3.331
18188SOL    HW154814  12.010   6.328   3.240
18188SOL    HW254815  11.963   6.378   3.376
18189SOL     OW54816  12.146   4.200   4.853
18189SOL    HW154817  12.093   4.152   4.790
18189SOL    HW254818  12.085   4.265   4.890
18190SOL     OW54819   4.896   9.926   3.625
18190SOL    HW154820   4.860   9.946   3.538
18190SOL    HW254821   4.869   9.836   3.643
18191SOL     OW54822   6.404  12.098   7.395
18191SOL    HW154823   6.310  12.116   7.402
18191SOL    HW254824   6.433  12.148   7.319
18192SOL     OW54825   8.913   8.098   6.004
18192SOL    HW154826   8.926   8.064   5.915
18192SOL    HW254827   8.994   8.079   6.050
18193SOL     OW54828   5.121   8.576   4.475
18193SOL    HW154829   5.111   8.649   4.536
18193SOL    HW254830   5.184   8.606   4.411
18194SOL     OW54831   9.268  12.384   7.269
18194SOL    HW154832   9.261  12.445   7.196
18194SOL    HW254833   9.351  12.407   7.312
18195SOL     OW54834   5.976   5.036   0.987
18195SOL    HW154835   6.039   4.964   0.978
18195SOL    HW254836   6.008   5.103   0.926
18196SOL     OW54837  13.419  10.222   5.535
18196SOL    HW154838  13.503  10.177   5.531
18196SOL    HW254839  13.368  10.183   5.464
18197SOL     OW54840   7.916   4.242   2.750
18197SOL    HW154841   7.856   4.237   2.825
18197SOL    HW254842   7.865   4.209   2.676
18198SOL     OW54843   2.294   1.380   1.351
18198SOL    HW154844   2.269   1.372   1.259
18198SOL    HW254845   2.307   1.289   1.380
18199SOL     OW54846   3.049   8.476   0.654
18199SOL    HW154847   2.989   8.550   0.666
18199SOL    HW254848   3.115   8.508   0.593
18200SOL     OW54849   8.440   1.917   0.582
18200SOL    HW154850   8.494   1.995   0.594
18200SOL    HW254851   8.365   1.931   0.640
18201SOL     OW54852   3.597   3.377   0.939
18201SOL    HW154853   3.607   3.285   0.915
18201SOL    HW254854   3.660   3.424   0.883
18202SOL     OW54855  12.051   7.531   7.112
18202SOL    HW154856  12.020   7.601   7.169
18202SOL    HW254857  12.129   7.567   7.069
18203SOL     OW54858  10.184   5.911   6.241
18203SOL    HW154859  10.142   5.969   6.179
18203SOL    HW254860  10.205   5.833   6.190
18204SOL     OW54861   9.477   4.596   5.666
18204SOL    HW154862   9.383   4.581   5.663
18204SOL    HW254863   9.493   4.628   5.755
18205SOL     OW54864   7.263   7.093   0.983
18205SOL    HW154865   7.321   7.042   1.040
18205SOL    HW254866   7.242   7.171   1.034
18206SOL     OW54867   4.339  11.619   5.632
18206SOL    HW154868   4.305  11.696   5.587
18206SOL    HW254869   4.397  11.577   5.568
18207SOL     OW54870   3.676   7.608   2.944
18207SOL    HW154871   3.583   7.624   2.957
18207SOL    HW254872   3.681   7.516   2.916
18208SOL     OW54873  10.447   0.416   0.428
18208SOL    HW154874  10.436   0.511   0.423
18208SOL    HW254875  10.387   0.382   0.361
18209SOL     OW54876   2.330   3.510   0.161
18209SOL    HW154877   2.305   3.435   0.215
18209SOL    HW254878   2.266   3.512   0.091
18210SOL     OW54879   5.420   6.378   4.947
18210SOL    HW154880   5.344   6.435   4.952
18210SOL    HW254881   5.473   6.415   4.876
18211SOL     OW54882   9.419   5.398   0.257
18211SOL    HW154883   9.376   5.319   0.224
18211SOL    HW254884   9.376   5.470   0.212
18212SOL     OW54885   3.483   4.660   3.969
18212SOL    HW154886   3.462   4.638   4.060
18212SOL    HW254887   3.404   4.637   3.920
18213SOL     OW54888   8.668   4.574   2.849
18213SOL    HW154889   8.622   4.639   2.795
18213SOL    HW254890   8.615   4.568   2.929
18214SOL     OW54891   7.210   8.651   1.802
18214SOL    HW154892   7.136   8.692   1.758
18214SOL    HW254893   7.178   8.564   1.826
18215SOL     OW54894   6.793   9.078   0.455
18215SOL    HW154895   6.834   9.038   0.532
18215SOL    HW254896   6.838   9.036   0.381
18216SOL     OW54897   4.223  14.050   5.482
18216SOL    HW154898   4.163  14.080   5.414
18216SOL    HW254899   4.304  14.031   5.435
18217SOL     OW54900   6.137   9.946   5.595
18217SOL    HW154901   6.056   9.985   5.627
18217SOL    HW254902   6.108   9.879   5.533
18218SOL     OW54903   1.689   5.991   0.337
18218SOL    HW154904   1.752   5.956   0.399
18218SOL    HW254905   1.723   6.078   0.315
18219SOL     OW54906  10.170   4.155   2.897
18219SOL    HW154907  10.095   4.113   2.854
18219SOL    HW254908  10.137   4.242   2.921
18220SOL     OW54909   3.997   5.224   4.285
18220SOL    HW154910   3.999   5.134   4.317
18220SOL    HW254911   4.070   5.267   4.330
18221SOL     OW54912   9.320   6.936   6.748
18221SOL    HW154913   9.311   7.009   6.809
18221SOL    HW254914   9.409   6.945   6.714
18222SOL     OW54915   5.053  11.401   4.999
18222SOL    HW154916   5.004  11.444   5.069
18222SOL    HW254917   5.082  11.473   4.942
18223SOL     OW54918   5.730   0.988   0.565
18223SOL    HW154919   5.730   0.892   0.572
18223SOL    HW254920   5.819   1.013   0.585
18224SOL     OW54921   4.392  13.009   5.294
18224SOL    HW154922   4.377  12.934   5.353
18224SOL    HW254923   4.448  12.974   5.225
18225SOL     OW54924  15.038   9.092   6.608
18225SOL    HW154925  15.032   9.183   6.638
18225SOL    HW254926  14.949   9.059   6.614
18226SOL     OW54927   0.798  10.338   0.025
18226SOL    HW154928   0.793  10.265   0.087
18226SOL    HW254929   6.179  15.684   7.557
18227SOL     OW54930   9.391  15.187   6.440
18227SOL    HW154931   9.310  15.209   6.394
18227SOL    HW254932   9.412  15.098   6.413
18228SOL     OW54933   6.195   3.358   2.617
18228SOL    HW154934   6.240   3.441   2.608
18228SOL    HW254935   6.200   3.318   2.530
18229SOL     OW54936   6.110  11.035   6.011
18229SOL    HW154937   6.099  10.981   6.089
18229SOL    HW254938   6.147  11.117   6.044
18230SOL     OW54939   9.826   6.877   0.844
18230SOL    HW154940   9.802   6.961   0.805
18230SOL    HW254941   9.767   6.814   0.802
18231SOL     OW54942   7.146   3.373   2.970
18231SOL    HW154943   7.206   3.440   2.937
18231SOL    HW254944   7.064   3.420   2.987
18232SOL     OW54945   9.564  14.556   5.374
18232SOL    HW154946   9.476  14.546   5.338
18232SOL    HW254947   9.620  14.502   5.318
18233SOL     OW54948   7.044  14.982   7.166
18233SOL    HW154949   7.052  14.970   7.261
18233SOL    HW254950   7.068  15.073   7.150
18234SOL     OW54951   6.938   1.762   0.379
18234SOL    HW154952   7.004   1.759   0.448
18234SOL    HW254953   6.988   1.779   0.299
18235SOL     OW54954   7.712  11.396   6.020
18235SOL    HW154955   7.735  11.486   6.044
18235SOL    HW254956   7.702  11.351   6.103
18236SOL     OW54957   7.164   4.627   6.070
18236SOL    HW154958   7.189   4.608   5.979
18236SOL    HW254959   7.212   4.706   6.092
18237SOL     OW54960  13.644  16.063   7.579
18237SOL    HW154961  13.678   5.369   7.541
18237SOL    HW254962  13.722  16.016   7.610
18238SOL     OW54963   7.814   5.170   3.955
18238SOL    HW154964   7.814   5.179   3.859
18238SOL    HW254965   7.895   5.212   3.983
18239SOL     OW54966   4.777   4.342   5.220
18239SOL    HW154967   4.685   4.359   5.240
18239SOL    HW254968   4.777   4.305   5.132
18240SOL     OW54969   3.445   2.845   1.867
18240SOL    HW154970   3.428   2.778   1.800
18240SOL    HW254971   3.536   2.828   1.894
18241SOL     OW54972  12.567  10.964   3.836
18241SOL    HW154973  12.628  10.972   3.909
18241SOL    HW254974  12.613  11.004   3.762
18242SOL     OW54975   9.268   2.861   3.872
18242SOL    HW154976   9.263   2.800   3.945
18242SOL    HW254977   9.339   2.828   3.817
18243SOL     OW54978   1.597   8.557   0.004
18243SOL    HW154979   1.509   8.528   0.030
18243SOL    HW254980   1.646   8.562   0.086
18244SOL     OW54981   4.215  11.817   4.103
18244SOL    HW154982   4.120  11.805   4.098
18244SOL    HW254983   4.247  11.795   4.016
18245SOL     OW54984   8.887   4.138   3.614
18245SOL    HW154985   8.835   4.183   3.546
18245SOL    HW254986   8.952   4.203   3.641
18246SOL     OW54987   3.529   8.933   3.237
18246SOL    HW154988   3.465   8.995   3.202
18246SOL    HW254989   3.583   8.984   3.297
18247SOL     OW54990  10.588  13.641   5.099
18247SOL    HW154991  10.677  13.611   5.082
18247SOL    HW254992  10.537  13.608   5.025
18248SOL     OW54993   7.336  13.032   3.261
18248SOL    HW154994   7.376  13.047   3.347
18248SOL    HW254995   7.410  13.012   3.204
18249SOL     OW54996   4.625   6.911   6.312
18249SOL    HW154997   4.570   6.979   6.274
18249SOL    HW254998   4.681   6.882   6.240
18250SOL     OW54999  12.644  15.239   6.411
18250SOL    HW155000  12.639  15.177   6.339
18250SOL    HW255001  12.626  15.187   6.490
18251SOL     OW55002   8.496  10.766   1.578
18251SOL    HW155003   8.510  10.853   1.541
18251SOL    HW255004   8.544  10.768   1.661
18252SOL     OW55005   5.512   8.100   2.349
18252SOL    HW155006   5.601   8.085   2.318
18252SOL    HW255007   5.508   8.194   2.365
18253SOL     OW55008   4.616   2.750   1.311
18253SOL    HW155009   4.539   2.807   1.313
18253SOL    HW255010   4.660   2.771   1.228
18254SOL     OW55011   5.972   3.769   3.104
18254SOL    HW155012   5.921   3.702   3.149
18254SOL    HW255013   6.006   3.726   3.025
18255SOL     OW55014  11.010   6.676   0.616
18255SOL    HW155015  11.059   6.745   0.572
18255SOL    HW255016  11.048   6.594   0.583
18256SOL     OW55017   3.537   2.648   2.335
18256SOL    HW155018   3.616   2.687   2.299
18256SOL    HW255019   3.465   2.694   2.291
18257SOL     OW55020  11.574   2.032   2.728
18257SOL    HW155021  11.486   2.054   2.697
18257SOL    HW255022  11.621   2.115   2.725
18258SOL     OW55023   9.697  14.415   7.359
18258SOL    HW155024   9.668  14.429   7.449
18258SOL    HW255025   9.761  14.344   7.365
18259SOL     OW55026   5.736   7.186   6.769
18259SOL    HW155027   5.664   7.154   6.715
18259SOL    HW255028   5.697   7.203   6.854
18260SOL     OW55029  11.677   3.277   3.429
18260SOL    HW155030  11.743   3.229   3.479
18260SOL    HW255031  11.727   3.338   3.375
18261SOL     OW55032   7.962   3.370   0.259
18261SOL    HW155033   8.020   3.353   0.185
18261SOL    HW255034   8.008   3.435   0.312
18262SOL     OW55035   5.727   8.602   1.233
18262SOL    HW155036   5.671   8.583   1.309
18262SOL    HW255037   5.674   8.576   1.158
18263SOL     OW55038  15.432  13.593   6.862
18263SOL    HW155039  15.395  13.593   6.774
18263SOL    HW255040  15.527  13.586   6.847
18264SOL     OW55041   6.109   8.738   3.210
18264SOL    HW155042   6.197   8.741   3.247
18264SOL    HW255043   6.081   8.830   3.208
18265SOL     OW55044   5.412   2.010   0.354
18265SOL    HW155045   5.476   1.974   0.415
18265SOL    HW255046   5.464   2.064   0.294
18266SOL     OW55047   3.606   6.786   1.634
18266SOL    HW155048   3.626   6.702   1.676
18266SOL    HW255049   3.680   6.802   1.575
18267SOL     OW55050   7.367  10.497   0.121
18267SOL    HW155051   7.430  10.547   0.069
18267SOL    HW255052   7.294  10.557   0.135
18268SOL     OW55053   1.455   6.020   0.080
18268SOL    HW155054   1.508   6.015   0.159
18268SOL    HW255055   1.477   5.940   0.031
18269SOL     OW55056  12.930   7.464   5.326
18269SOL    HW155057  13.006   7.407   5.311
18269SOL    HW255058  12.966   7.540   5.371
18270SOL     OW55059  13.618   8.543   7.200
18270SOL    HW155060  13.686   8.484   7.167
18270SOL    HW255061  13.536   8.500   7.177
18271SOL     OW55062   5.472  14.349   7.338
18271SOL    HW155063   5.433  14.352   7.425
18271SOL    HW255064   5.418  14.288   7.289
18272SOL     OW55065  14.301   4.378   5.188
18272SOL    HW155066  14.376   4.397   5.244
18272SOL    HW255067  14.250   4.314   5.237
18273SOL     OW55068  12.815   8.834   3.618
18273SOL    HW155069  12.820   8.754   3.670
18273SOL    HW255070  12.745   8.885   3.660
18274SOL     OW55071   7.299   3.325   2.310
18274SOL    HW155072   7.354   3.269   2.366
18274SOL    HW255073   7.346   3.408   2.306
18275SOL     OW55074   3.571   6.447   4.613
18275SOL    HW155075   3.548   6.358   4.640
18275SOL    HW255076   3.588   6.440   4.519
18276SOL     OW55077   3.984   5.989   1.930
18276SOL    HW155078   3.982   6.015   1.838
18276SOL    HW255079   4.012   6.067   1.977
18277SOL     OW55080   8.948   9.931   4.106
18277SOL    HW155081   8.897   9.856   4.076
18277SOL    HW255082   9.004   9.954   4.033
18278SOL     OW55083   7.659   4.364   3.195
18278SOL    HW155084   7.729   4.336   3.253
18278SOL    HW255085   7.587   4.303   3.214
18279SOL     OW55086   6.543   5.241   0.937
18279SOL    HW155087   6.501   5.321   0.969
18279SOL    HW255088   6.547   5.253   0.842
18280SOL     OW55089   9.860   5.536   5.672
18280SOL    HW155090   9.791   5.515   5.609
18280SOL    HW255091   9.857   5.631   5.680
18281SOL     OW55092  10.031   1.600   1.067
18281SOL    HW155093   9.941   1.583   1.094
18281SOL    HW255094  10.061   1.669   1.126
18282SOL     OW55095   1.711   2.197   1.726
18282SOL    HW155096   1.751   2.175   1.810
18282SOL    HW255097   1.757   2.141   1.663
18283SOL     OW55098   8.566   7.598   3.414
18283SOL    HW155099   8.475   7.596   3.386
18283SOL    HW255100   8.602   7.514   3.384
18284SOL     OW55101   8.675   3.183   4.305
18284SOL    HW155102   8.682   3.100   4.353
18284SOL    HW255103   8.581   3.202   4.305
18285SOL     OW55104   9.575   2.993   0.491
18285SOL    HW155105   9.543   3.065   0.436
18285SOL    HW255106   9.554   2.914   0.442
18286SOL     OW55107   6.209   8.489   5.110
18286SOL    HW155108   6.189   8.395   5.104
18286SOL    HW255109   6.265   8.506   5.033
18287SOL     OW55110  11.026   1.332   0.894
18287SOL    HW155111  11.008   1.408   0.950
18287SOL    HW255112  11.120   1.336   0.878
18288SOL     OW55113  11.262   6.863   2.817
18288SOL    HW155114  11.342   6.910   2.842
18288SOL    HW255115  11.192   6.926   2.829
18289SOL     OW55116  12.264   3.222   3.319
18289SOL    HW155117  12.239   3.285   3.251
18289SOL    HW255118  12.350   3.191   3.291
18290SOL     OW55119   7.744   8.420   3.055
18290SOL    HW155120   7.837   8.439   3.042
18290SOL    HW255121   7.720   8.472   3.132
18291SOL     OW55122   4.039  12.160   5.142
18291SOL    HW155123   4.106  12.153   5.074
18291SOL    HW255124   3.956  12.149   5.096
18292SOL     OW55125   9.497   3.849   3.001
18292SOL    HW155126   9.555   3.773   3.001
18292SOL    HW255127   9.449   3.843   2.918
18293SOL     OW55128   9.019   8.653   0.068
18293SOL    HW155129   8.982   8.742   0.065
18293SOL    HW255130   9.074   8.653   0.146
18294SOL     OW55131  10.682   6.887   5.810
18294SOL    HW155132  10.664   6.977   5.835
18294SOL    HW255133  10.764   6.865   5.854
18295SOL     OW55134  12.725  13.800   4.544
18295SOL    HW155135  12.776  13.872   4.580
18295SOL    HW255136  12.746  13.725   4.599
18296SOL     OW55137   5.685   2.208   0.018
18296SOL    HW155138  11.135   7.574   7.568
18296SOL    HW255139  11.027   7.673   7.605
18297SOL     OW55140   7.219  10.947   7.055
18297SOL    HW155141   7.143  10.988   7.014
18297SOL    HW255142   7.293  10.998   7.023
18298SOL     OW55143   9.036  12.585   7.082
18298SOL    HW155144   9.124  12.617   7.100
18298SOL    HW255145   8.982  12.664   7.074
18299SOL     OW55146   9.485   3.529   4.018
18299SOL    HW155147   9.556   3.527   3.954
18299SOL    HW255148   9.492   3.616   4.058
18300SOL     OW55149   6.368   3.523   1.773
18300SOL    HW155150   6.387   3.429   1.768
18300SOL    HW255151   6.348   3.548   1.683
18301SOL     OW55152   6.492   2.693   2.926
18301SOL    HW155153   6.466   2.610   2.966
18301SOL    HW255154   6.477   2.758   2.995
18302SOL     OW55155  10.186   9.906   3.340
18302SOL    HW155156  10.110   9.960   3.319
18302SOL    HW255157  10.261   9.956   3.307
18303SOL     OW55158   2.002   4.848   2.036
18303SOL    HW155159   1.952   4.803   1.968
18303SOL    HW255160   2.082   4.797   2.044
18304SOL     OW55161   9.670   7.935   2.391
18304SOL    HW155162   9.747   7.934   2.335
18304SOL    HW255163   9.631   8.022   2.377
18305SOL     OW55164   4.664   4.423   5.900
18305SOL    HW155165   4.597   4.415   5.968
18305SOL    HW255166   4.616   4.454   5.823
18306SOL     OW55167   6.768   5.589   2.306
18306SOL    HW155168   6.682   5.553   2.282
18306SOL    HW255169   6.748   5.670   2.353
18307SOL     OW55170  12.566   6.164   6.002
18307SOL    HW155171  12.603   6.183   5.916
18307SOL    HW255172  12.500   6.097   5.985
18308SOL     OW55173   6.841   8.281   6.507
18308SOL    HW155174   6.766   8.338   6.495
18308SOL    HW255175   6.911   8.320   6.455
18309SOL     OW55176   9.185   6.533   4.563
18309SOL    HW155177   9.228   6.457   4.523
18309SOL    HW255178   9.230   6.545   4.647
18310SOL     OW55179   8.213  11.864   6.636
18310SOL    HW155180   8.238  11.774   6.656
18310SOL    HW255181   8.260  11.917   6.700
18311SOL     OW55182  13.795   8.905   5.872
18311SOL    HW155183  13.872   8.877   5.923
18311SOL    HW255184  13.832   8.948   5.795
18312SOL     OW55185  13.005   7.837   7.466
18312SOL    HW155186  12.929   7.853   7.521
18312SOL    HW255187  13.073   7.807   7.526
18313SOL     OW55188   1.985   7.754   1.007
18313SOL    HW155189   1.902   7.767   1.054
18313SOL    HW255190   1.963   7.695   0.935
18314SOL     OW55191  13.477   6.022   6.651
18314SOL    HW155192  13.539   6.085   6.689
18314SOL    HW255193  13.417   6.076   6.599
18315SOL     OW55194  12.396   8.336   2.372
18315SOL    HW155195   1.617   8.332   2.276
18315SOL    HW255196  12.385   8.429   2.393
18316SOL     OW55197   8.647   5.481   7.250
18316SOL    HW155198   8.686   5.568   7.254
18316SOL    HW255199   8.626   5.468   7.158
18317SOL     OW55200   2.563   1.900   1.992
18317SOL    HW155201   2.607   1.979   1.959
18317SOL    HW255202   2.554   1.843   1.916
18318SOL     OW55203   7.961   2.522   0.445
18318SOL    HW155204   7.958   2.427   0.437
18318SOL    HW255205   7.930   2.554   0.360
18319SOL     OW55206   2.752   3.029   1.439
18319SOL    HW155207   2.768   2.948   1.487
18319SOL    HW255208   2.829   3.040   1.383
18320SOL     OW55209  11.494   5.852   6.924
18320SOL    HW155210  11.442   5.782   6.883
18320SOL    HW255211  11.464   5.932   6.881
18321SOL     OW55212   6.527   3.573   4.486
18321SOL    HW155213   6.440   3.536   4.503
18321SOL    HW255214   6.552   3.614   4.569
18322SOL     OW55215   7.425   9.305   7.614
18322SOL    HW155216   7.463   9.239   7.555
18322SOL    HW255217   2.114   3.960   0.035
18323SOL     OW55218   8.363   5.421   7.293
18323SOL    HW155219   8.448   5.379   7.310
18323SOL    HW255220   8.299   5.357   7.322
18324SOL     OW55221  10.939   5.938   7.162
18324SOL    HW155222  10.902   5.866   7.213
18324SOL    HW255223  10.907   6.017   7.206
18325SOL     OW55224   1.398  10.068   0.679
18325SOL    HW155225   1.369  10.157   0.697
18325SOL    HW255226   1.463  10.049   0.747
18326SOL     OW55227   8.342  12.976   5.042
18326SOL    HW155228   8.427  13.021   5.039
18326SOL    HW255229   8.326  12.948   4.952
18327SOL     OW55230   8.810  14.829   7.187
18327SOL    HW155231   8.847  14.879   7.259
18327SOL    HW255232   8.835  14.877   7.108
18328SOL     OW55233  12.361  10.425   3.332
18328SOL    HW155234  12.449  10.459   3.312
18328SOL    HW255235  12.309  10.503   3.350
18329SOL     OW55236   7.036  11.745   7.019
18329SOL    HW155237   7.034  11.840   7.007
18329SOL    HW255238   7.119  11.717   6.980
18330SOL     OW55239   2.418   1.861   2.346
18330SOL    HW155240   2.355   1.912   2.397
18330SOL    HW255241   2.443   1.789   2.404
18331SOL     OW55242   3.498   2.231   1.750
18331SOL    HW155243   3.468   2.306   1.801
18331SOL    HW255244   3.546   2.269   1.677
18332SOL     OW55245  13.633  14.521   5.666
18332SOL    HW155246  13.696  14.530   5.737
18332SOL    HW255247  13.591  14.607   5.659
18333SOL     OW55248   9.137   3.042   3.047
18333SOL    HW155249   9.074   2.971   3.061
18333SOL    HW255250   9.207   3.002   2.995
18334SOL     OW55251   3.029   4.233   3.097
18334SOL    HW155252   2.938   4.216   3.123
18334SOL    HW255253   3.025   4.315   3.048
18335SOL     OW55254  11.019   1.627   1.804
18335SOL    HW155255  11.013   1.661   1.715
18335SOL    HW255256  10.963   1.549   1.803
18336SOL     OW55257   7.255   1.425   1.277
18336SOL    HW155258   7.241   1.504   1.225
18336SOL    HW255259   7.185   1.366   1.251
18337SOL     OW55260  12.435  12.920   4.409
18337SOL    HW155261  12.348  12.883   4.425
18337SOL    HW255262  12.477  12.857   4.351
18338SOL     OW55263   3.703   8.555   3.869
18338SOL    HW155264   3.631   8.500   3.838
18338SOL    HW255265   3.769   8.492   3.899
18339SOL     OW55266   7.522   8.657   4.385
18339SOL    HW155267   7.459   8.615   4.442
18339SOL    HW255268   7.470   8.691   4.312
18340SOL     OW55269  10.629  11.716   4.922
18340SOL    HW155270  10.576  11.792   4.898
18340SOL    HW255271  10.586  11.680   4.999
18341SOL     OW55272   6.095   6.895   1.047
18341SOL    HW155273   6.189   6.876   1.055
18341SOL    HW255274   6.070   6.927   1.134
18342SOL     OW55275  10.777   9.706   5.322
18342SOL    HW155276  10.743   9.768   5.387
18342SOL    HW255277  10.860   9.676   5.360
18343SOL     OW55278   4.619   6.875   5.656
18343SOL    HW155279   4.641   6.788   5.623
18343SOL    HW255280   4.680   6.889   5.729
18344SOL     OW55281   1.645   9.689   0.991
18344SOL    HW155282   1.623   9.596   0.986
18344SOL    HW255283   1.736   9.690   1.019
18345SOL     OW55284   5.685   9.460   7.600
18345SOL    HW155285   0.344   3.998   0.021
18345SOL    HW255286   5.610   9.421   7.556
18346SOL     OW55287   5.718   8.157   5.195
18346SOL    HW155288   5.698   8.228   5.256
18346SOL    HW255289   5.704   8.195   5.108
18347SOL     OW55290  11.023   2.580   0.419
18347SOL    HW155291   0.338   2.589   0.383
18347SOL    HW255292  11.024   2.632   0.499
18348SOL     OW55293   5.982   3.500   0.818
18348SOL    HW155294   5.924   3.432   0.787
18348SOL    HW255295   6.058   3.454   0.854
18349SOL     OW55296   8.851  10.989   1.625
18349SOL    HW155297   8.907  10.917   1.599
18349SOL    HW255298   8.903  11.068   1.607
18350SOL     OW55299   9.944   9.637   5.497
18350SOL    HW155300   9.987   9.553   5.514
18350SOL    HW255301   9.916   9.632   5.406
18351SOL     OW55302  12.656   6.156   3.375
18351SOL    HW155303  12.743   6.126   3.403
18351SOL    HW255304  12.652   6.247   3.404
18352SOL     OW55305   2.586   1.577   2.070
18352SOL    HW155306   2.625   1.658   2.103
18352SOL    HW255307   2.583   1.588   1.975
18353SOL     OW55308   8.151   9.275   6.938
18353SOL    HW155309   8.170   9.307   7.027
18353SOL    HW255310   8.234   9.287   6.891
18354SOL     OW55311   2.755   4.735   2.691
18354SOL    HW155312   2.674   4.743   2.742
18354SOL    HW255313   2.823   4.717   2.757
18355SOL     OW55314  10.941  13.216   3.935
18355SOL    HW155315  10.886  13.160   3.880
18355SOL    HW255316  10.918  13.305   3.909
18356SOL     OW55317   3.097   6.563   0.341
18356SOL    HW155318   3.071   6.504   0.411
18356SOL    HW255319   3.098   6.650   0.382
18357SOL     OW55320  11.816  12.341   2.564
18357SOL    HW155321  11.743  12.381   2.516
18357SOL    HW255322  11.774  12.284   2.627
18358SOL     OW55323   4.650   9.760   3.950
18358SOL    HW155324   4.734   9.790   3.915
18358SOL    HW255325   4.655   9.779   4.044
18359SOL     OW55326   7.499   5.735   3.633
18359SOL    HW155327   7.405   5.732   3.617
18359SOL    HW255328   7.525   5.824   3.608
18360SOL     OW55329  11.790   8.100   5.857
18360SOL    HW155330  11.794   8.191   5.886
18360SOL    HW255331  11.697   8.084   5.842
18361SOL     OW55332   2.899   2.821   2.620
18361SOL    HW155333   2.981   2.772   2.619
18361SOL    HW255334   2.924   2.910   2.646
18362SOL     OW55335   8.658   9.128   3.644
18362SOL    HW155336   8.603   9.050   3.653
18362SOL    HW255337   8.596   9.201   3.648
18363SOL     OW55338   8.066   3.619   3.809
18363SOL    HW155339   8.095   3.572   3.887
18363SOL    HW255340   8.134   3.602   3.743
18364SOL     OW55341  11.016  13.666   5.202
18364SOL    HW155342  10.936  13.708   5.173
18364SOL    HW255343  11.046  13.719   5.275
18365SOL     OW55344   9.640  10.756   4.376
18365SOL    HW155345   9.733  10.768   4.357
18365SOL    HW255346   9.595  10.795   4.301
18366SOL     OW55347  11.494  10.478   2.469
18366SOL    HW155348  11.568  10.536   2.488
18366SOL    HW255349  11.452  10.518   2.393
18367SOL     OW55350   3.487  10.699   3.164
18367SOL    HW155351   3.392  10.708   3.170
18367SOL    HW255352   3.500  10.621   3.111
18368SOL     OW55353   6.210  10.168   1.955
18368SOL    HW155354   6.117  10.149   1.949
18368SOL    HW255355   6.220  10.254   1.915
18369SOL     OW55356  10.539   8.181   5.126
18369SOL    HW155357  10.554   8.271   5.097
18369SOL    HW255358  10.444   8.177   5.143
18370SOL     OW55359  12.739  12.287   6.729
18370SOL    HW155360  12.688  12.267   6.808
18370SOL    HW255361  12.781  12.371   6.749
18371SOL     OW55362  12.405  12.541   2.985
18371SOL    HW155363  12.313  12.544   2.959
18371SOL    HW255364  12.448  12.605   2.929
18372SOL     OW55365   3.208   6.447   1.798
18372SOL    HW155366   3.267   6.518   1.773
18372SOL    HW255367   3.239   6.418   1.884
18373SOL     OW55368  11.541   6.244   5.927
18373SOL    HW155369  11.498   6.311   5.981
18373SOL    HW255370  11.610   6.210   5.984
18374SOL     OW55371   9.805   9.460   2.932
18374SOL    HW155372   9.748   9.500   2.867
18374SOL    HW255373   9.842   9.384   2.887
18375SOL     OW55374   6.128  14.302   6.085
18375SOL    HW155375   6.103  14.388   6.119
18375SOL    HW255376   6.053  14.246   6.102
18376SOL     OW55377   9.926   7.499   2.571
18376SOL    HW155378   9.933   7.560   2.497
18376SOL    HW255379  10.017   7.478   2.593
18377SOL     OW55380  10.326   1.474   2.026
18377SOL    HW155381  10.244   1.499   1.982
18377SOL    HW255382  10.305  12.165   2.069
18378SOL     OW55383   8.916  10.365   1.939
18378SOL    HW155384   8.870  10.323   2.012
18378SOL    HW255385   9.009  10.348   1.956
18379SOL     OW55386   6.585  11.437   6.558
18379SOL    HW155387   6.517  11.473   6.615
18379SOL    HW255388   6.555  11.347   6.540
18380SOL     OW55389   7.242  13.592   6.887
18380SOL    HW155390   7.182  13.568   6.958
18380SOL    HW255391   7.195  13.568   6.807
18381SOL     OW55392   1.146  10.965   1.588
18381SOL    HW155393   1.239  10.945   1.575
18381SOL    HW255394   1.120  11.010   1.508
18382SOL     OW55395   5.672   5.532   3.164
18382SOL    HW155396   5.591   5.486   3.187
18382SOL    HW255397   5.681   5.600   3.231
18383SOL     OW55398   2.282   8.062   0.257
18383SOL    HW155399   2.307   7.990   0.199
18383SOL    HW255400   2.347   8.059   0.327
18384SOL     OW55401   9.026   5.584   6.901
18384SOL    HW155402   9.103   5.595   6.845
18384SOL    HW255403   8.981   5.668   6.896
18385SOL     OW55404   9.858   2.810   2.571
18385SOL    HW155405   9.946   2.829   2.540
18385SOL    HW255406   9.862   2.721   2.605
18386SOL     OW55407   5.364   6.871   1.356
18386SOL    HW155408   5.427   6.866   1.284
18386SOL    HW255409   5.283   6.900   1.315
18387SOL     OW55410  12.363   9.105   5.162
18387SOL    HW155411  12.454   9.125   5.142
18387SOL    HW255412  12.328   9.186   5.199
18388SOL     OW55413   6.759   9.889   0.040
18388SOL    HW155414  12.118  15.260   7.569
18388SOL    HW255415   6.807   9.810   0.065
18389SOL     OW55416   7.992   7.224   7.203
18389SOL    HW155417   7.965   7.308   7.239
18389SOL    HW255418   7.957   7.159   7.264
18390SOL     OW55419   9.651  12.718   2.828
18390SOL    HW155420   9.596  12.681   2.897
18390SOL    HW255421   9.626  12.670   2.749
18391SOL     OW55422   8.335   5.115   4.239
18391SOL    HW155423   8.292   5.198   4.254
18391SOL    HW255424   8.421   5.124   4.281
18392SOL     OW55425  10.404   8.657   5.151
18392SOL    HW155426  10.362   8.679   5.068
18392SOL    HW255427  10.352   8.585   5.186
18393SOL     OW55428  10.629   1.636   2.310
18393SOL    HW155429  10.598  12.390   2.398
18393SOL    HW255430  10.622   1.731   2.303
18394SOL     OW55431  11.225   6.349   4.824
18394SOL    HW155432  11.307   6.332   4.779
18394SOL    HW255433  11.207   6.269   4.873
18395SOL     OW55434   9.453  11.416   0.941
18395SOL    HW155435   9.375  11.400   0.887
18395SOL    HW255436   9.474   0.733   0.925
18396SOL     OW55437   9.906   4.144   1.512
18396SOL    HW155438   9.819   4.115   1.541
18396SOL    HW255439   9.890   4.229   1.470
18397SOL     OW55440  13.286  10.670   4.062
18397SOL    HW155441  13.245  10.683   3.976
18397SOL    HW255442  13.231  10.605   4.105
18398SOL     OW55443   7.979  11.545   4.889
18398SOL    HW155444   8.056  11.565   4.943
18398SOL    HW255445   7.915  11.611   4.914
18399SOL     OW55446  11.919   6.378   4.795
18399SOL    HW155447  11.846   6.409   4.742
18399SOL    HW255448  11.954   6.457   4.837
18400SOL     OW55449  11.685  12.241   3.808
18400SOL    HW155450  11.620  12.295   3.764
18400SOL    HW255451  11.754  12.303   3.834
18401SOL     OW55452  10.163   7.309   6.781
18401SOL    HW155453  10.253   7.339   6.795
18401SOL    HW255454  10.172   7.238   6.717
18402SOL     OW55455   8.661  12.716   4.656
18402SOL    HW155456   8.566  12.729   4.647
18402SOL    HW255457   8.669  12.640   4.713
18403SOL     OW55458  11.638   8.281   6.476
18403SOL    HW155459  11.719   8.274   6.425
18403SOL    HW255460  11.652   8.226   6.552
18404SOL     OW55461  15.806  10.236   7.199
18404SOL    HW155462  15.829  10.328   7.210
18404SOL    HW255463  15.789  10.227   7.106
18405SOL     OW55464   5.545  10.868   0.601
18405SOL    HW155465   5.492  10.918   0.663
18405SOL    HW255466   5.510  10.892   0.516
18406SOL     OW55467   7.458  12.562   3.783
18406SOL    HW155468   7.363  12.550   3.791
18406SOL    HW255469   7.479  12.626   3.851
18407SOL     OW55470   7.778  10.825   4.337
18407SOL    HW155471   7.860  10.854   4.297
18407SOL    HW255472   7.722  10.903   4.338
18408SOL     OW55473  15.034  10.626   7.141
18408SOL    HW155474  15.035  10.669   7.055
18408SOL    HW255475  15.091  10.680   7.195
18409SOL     OW55476   2.675  11.235   0.723
18409SOL    HW155477   2.581  11.218   0.729
18409SOL    HW255478   2.696  11.220   0.631
18410SOL     OW55479   2.896   3.000   2.330
18410SOL    HW155480   2.960   3.044   2.387
18410SOL    HW255481   2.945   2.981   2.250
18411SOL     OW55482   8.804   2.065   2.073
18411SOL    HW155483   8.848   2.119   2.007
18411SOL    HW255484   8.743   2.125   2.117
18412SOL     OW55485   2.437   2.191   0.131
18412SOL    HW155486   2.456   2.112   0.181
18412SOL    HW255487   2.342   2.203   0.141
18413SOL     OW55488   6.480   6.737   2.984
18413SOL    HW155489   6.494   6.815   3.037
18413SOL    HW255490   6.561   6.727   2.933
18414SOL     OW55491   7.158   4.774   1.009
18414SOL    HW155492   7.109   4.851   1.039
18414SOL    HW255493   7.099   4.700   1.027
18415SOL     OW55494  10.496   2.897   1.415
18415SOL    HW155495  10.418   2.942   1.447
18415SOL    HW255496  10.476   2.878   1.323
18416SOL     OW55497  12.121   9.460   3.575
18416SOL    HW155498  12.043   9.500   3.537
18416SOL    HW255499  12.090   9.420   3.657
18417SOL     OW55500   8.419   9.952   4.115
18417SOL    HW155501   8.499   9.949   4.168
18417SOL    HW255502   8.351   9.984   4.175
18418SOL     OW55503   7.240   2.264   2.915
18418SOL    HW155504   7.229   2.261   3.010
18418SOL    HW255505   7.314   2.324   2.902
18419SOL     OW55506   7.778  10.191   4.935
18419SOL    HW155507   7.760  10.209   5.027
18419SOL    HW255508   7.779  10.095   4.929
18420SOL     OW55509   7.394   7.155   1.760
18420SOL    HW155510   7.347   7.165   1.677
18420SOL    HW255511   7.374   7.065   1.788
18421SOL     OW55512   9.936  12.749   5.149
18421SOL    HW155513   9.901  12.689   5.214
18421SOL    HW255514   9.997  12.805   5.198
18422SOL     OW55515   5.760   7.507   6.358
18422SOL    HW155516   5.766   7.442   6.428
18422SOL    HW255517   5.811   7.582   6.390
18423SOL     OW55518   2.156  10.393   1.348
18423SOL    HW155519   2.189  10.457   1.412
18423SOL    HW255520   2.082  10.351   1.392
18424SOL     OW55521  10.498   8.481   2.414
18424SOL    HW155522  10.467   8.437   2.494
18424SOL    HW255523  10.421   8.527   2.381
18425SOL     OW55524   8.584   8.432   1.284
18425SOL    HW155525   8.649   8.395   1.225
18425SOL    HW255526   8.620   8.517   1.310
18426SOL     OW55527   5.755  11.967   2.408
18426SOL    HW155528   5.819  11.907   2.445
18426SOL    HW255529   5.679  11.912   2.387
18427SOL     OW55530   3.809   5.502   0.855
18427SOL    HW155531   3.794   5.447   0.932
18427SOL    HW255532   3.765   5.585   0.876
18428SOL     OW55533   9.697   1.800   1.753
18428SOL    HW155534   9.621   1.778   1.699
18428SOL    HW255535   9.723   1.887   1.724
18429SOL     OW55536   4.632  10.454   3.175
18429SOL    HW155537   4.619  10.538   3.130
18429SOL    HW255538   4.630  10.477   3.268
18430SOL     OW55539   7.419   6.659   7.103
18430SOL    HW155540   7.431   6.709   7.022
18430SOL    HW255541   7.325   6.646   7.109
18431SOL     OW55542   3.062   3.948   0.807
18431SOL    HW155543   3.113   3.868   0.814
18431SOL    HW255544   3.018   3.942   0.722
18432SOL     OW55545   4.981  14.029   6.306
18432SOL    HW155546   4.897  14.047   6.347
18432SOL    HW255547   4.975  14.070   6.220
18433SOL     OW55548  10.433   3.191   2.078
18433SOL    HW155549  10.369   3.260   2.061
18433SOL    HW255550  10.388   3.131   2.137
18434SOL     OW55551  13.964  13.394   6.434
18434SOL    HW155552  13.968  13.303   6.407
18434SOL    HW255553  13.892  13.398   6.496
18435SOL     OW55554   4.929   9.051   2.447
18435SOL    HW155555   4.986   8.982   2.483
18435SOL    HW255556   4.842   9.012   2.448
18436SOL     OW55557  13.187   6.060   7.140
18436SOL    HW155558  13.107   6.090   7.096
18436SOL    HW255559  13.181   5.964   7.136
18437SOL     OW55560   5.805   7.770   7.505
18437SOL    HW155561   5.726   7.765   7.451
18437SOL    HW255562   5.851   7.689   7.488
18438SOL     OW55563   5.233   7.602   6.212
18438SOL    HW155564   5.319   7.561   6.224
18438SOL    HW255565   5.226   7.666   6.282
18439SOL     OW55566   8.208   9.076   0.090
18439SOL    HW155567   8.151   9.053   0.017
18439SOL    HW255568   8.289   9.028   0.072
18440SOL     OW55569   9.490   2.849   0.993
18440SOL    HW155570   9.548   2.915   1.030
18440SOL    HW255571   9.522   2.835   0.904
18441SOL     OW55572   7.900   8.894   7.476
18441SOL    HW155573   7.896   8.883   7.381
18441SOL    HW255574   7.906   8.805   7.510
18442SOL     OW55575  13.348  13.681   6.703
18442SOL    HW155576  13.254  13.664   6.700
18442SOL    HW255577  13.358  13.768   6.663
18443SOL     OW55578  12.223   9.482   5.543
18443SOL    HW155579  12.260   9.437   5.619
18443SOL    HW255580  12.145   9.525   5.577
18444SOL     OW55581   8.814   8.634   7.096
18444SOL    HW155582   8.811   8.705   7.033
18444SOL    HW255583   8.812   8.677   7.181
18445SOL     OW55584  11.387  14.403   7.015
18445SOL    HW155585  11.302  14.411   6.972
18445SOL    HW255586  11.403  14.491   7.051
18446SOL     OW55587   8.269  14.957   6.377
18446SOL    HW155588   8.186  14.972   6.332
18446SOL    HW255589   8.278  15.032   6.436
18447SOL     OW55590  13.125  12.877   3.551
18447SOL    HW155591  13.155  12.810   3.613
18447SOL    HW255592  13.059  12.832   3.498
18448SOL     OW55593  14.036  13.789   7.527
18448SOL    HW155594  14.103  13.856   7.515
18448SOL    HW255595  14.045  13.732   7.450
18449SOL     OW55596   7.026   3.655   3.044
18449SOL    HW155597   7.031   3.695   2.957
18449SOL    HW255598   7.113   3.670   3.082
18450SOL     OW55599  12.736  10.370   7.470
18450SOL    HW155600  12.784  10.307   7.417
18450SOL    HW255601  12.794  10.446   7.475
18451SOL     OW55602  12.666  12.628   3.850
18451SOL    HW155603  12.684  12.711   3.805
18451SOL    HW255604  12.722  12.565   3.805
18452SOL     OW55605  10.488   2.633   1.844
18452SOL    HW155606  10.478   2.725   1.818
18452SOL    HW255607  10.418   2.618   1.908
18453SOL     OW55608   7.617   7.275   6.168
18453SOL    HW155609   7.593   7.221   6.244
18453SOL    HW255610   7.533   7.297   6.127
18454SOL     OW55611   6.601   3.578   2.784
18454SOL    HW155612   6.587   3.486   2.806
18454SOL    HW255613   6.696   3.588   2.780
18455SOL     OW55614   7.388   3.767   1.248
18455SOL    HW155615   7.346   3.711   1.314
18455SOL    HW255616   7.338   3.848   1.250
18456SOL     OW55617   3.188  10.459   0.256
18456SOL    HW155618   3.168  10.388   0.318
18456SOL    HW255619   3.106  10.507   0.248
18457SOL     OW55620  13.447  15.154   7.242
18457SOL    HW155621  13.368  15.188   7.201
18457SOL    HW255622  13.464  15.072   7.197
18458SOL     OW55623   5.972   6.256   3.228
18458SOL    HW155624   6.007   6.244   3.140
18458SOL    HW255625   5.999   6.345   3.252
18459SOL     OW55626   7.172   9.357   5.116
18459SOL    HW155627   7.125   9.418   5.173
18459SOL    HW255628   7.102   9.309   5.070
18460SOL     OW55629  10.282  11.472   2.717
18460SOL    HW155630  10.252  11.554   2.756
18460SOL    HW255631  10.361  11.449   2.768
18461SOL     OW55632   9.313   6.574   4.778
18461SOL    HW155633   9.398   6.543   4.811
18461SOL    HW255634   9.332   6.661   4.742
18462SOL     OW55635   2.834   6.504   3.611
18462SOL    HW155636   2.861   6.511   3.703
18462SOL    HW255637   2.880   6.426   3.579
18463SOL     OW55638  11.268  14.108   5.228
18463SOL    HW155639  11.355  14.133   5.198
18463SOL    HW255640  11.268  14.129   5.322
18464SOL     OW55641   3.171   7.330   4.196
18464SOL    HW155642   3.105   7.384   4.153
18464SOL    HW255643   3.241   7.392   4.218
18465SOL     OW55644   8.991  13.248   5.634
18465SOL    HW155645   9.040  13.285   5.561
18465SOL    HW255646   9.010  13.306   5.708
18466SOL     OW55647   3.761   5.213   3.185
18466SOL    HW155648   3.690   5.233   3.245
18466SOL    HW255649   3.742   5.125   3.154
18467SOL     OW55650  11.243  11.495   3.488
18467SOL    HW155651  11.234  11.482   3.394
18467SOL    HW255652  11.337  11.494   3.505
18468SOL     OW55653   5.192  12.130   5.496
18468SOL    HW155654   5.133  12.192   5.540
18468SOL    HW255655   5.203  12.166   5.409
18469SOL     OW55656   5.760  12.664   3.395
18469SOL    HW155657   5.724  12.752   3.385
18469SOL    HW255658   5.850  12.678   3.426
18470SOL     OW55659   2.820   6.846   3.788
18470SOL    HW155660   2.788   6.918   3.734
18470SOL    HW255661   2.748   6.782   3.789
18471SOL     OW55662   6.116   4.410   3.208
18471SOL    HW155663   6.143   4.318   3.217
18471SOL    HW255664   6.103   4.440   3.298
18472SOL     OW55665   5.712  12.866   6.294
18472SOL    HW155666   5.674  12.939   6.344
18472SOL    HW255667   5.736  12.905   6.210
18473SOL     OW55668   3.433   5.774   1.441
18473SOL    HW155669   3.429   5.793   1.534
18473SOL    HW255670   3.503   5.709   1.433
18474SOL     OW55671   7.609  11.452   3.662
18474SOL    HW155672   7.514  11.437   3.668
18474SOL    HW255673   7.618  11.527   3.604
18475SOL     OW55674   7.773  14.569   6.935
18475SOL    HW155675   7.775  14.538   6.845
18475SOL    HW255676   7.783  14.664   6.928
18476SOL     OW55677   4.161  11.129   3.411
18476SOL    HW155678   4.123  11.053   3.366
18476SOL    HW255679   4.253  11.106   3.423
18477SOL     OW55680  14.467  14.098   5.612
18477SOL    HW155681  14.384  14.076   5.569
18477SOL    HW255682  14.443  14.124   5.700
18478SOL     OW55683  14.641   8.798   7.394
18478SOL    HW155684  14.612   8.718   7.437
18478SOL    HW255685  14.702   8.768   7.327
18479SOL     OW55686   0.591   4.455   0.566
18479SOL    HW155687   0.559   4.545   0.557
18479SOL    HW255688   0.547   4.407   0.496
18480SOL     OW55689   7.482  10.773   6.160
18480SOL    HW155690   7.569  10.754   6.127
18480SOL    HW255691   7.471  10.868   6.148
18481SOL     OW55692  14.133  10.878   4.769
18481SOL    HW155693   3.375  10.809   4.704
18481SOL    HW255694  14.174  10.846   4.849
18482SOL     OW55695   7.821   8.327   0.621
18482SOL    HW155696   7.761   8.271   0.670
18482SOL    HW255697   7.908   8.290   0.638
18483SOL     OW55698   4.280  13.540   4.828
18483SOL    HW155699   4.362  13.541   4.877
18483SOL    HW255700   4.238  13.458   4.853
18484SOL     OW55701  10.808   3.456   0.089
18484SOL    HW155702   0.028   3.396   0.015
18484SOL    HW255703  10.774   3.405   0.163
18485SOL     OW55704  11.726   8.483   5.217
18485SOL    HW155705  11.680   8.498   5.299
18485SOL    HW255706  11.665   8.511   5.149
18486SOL     OW55707   9.947   8.536   5.775
18486SOL    HW155708   9.910   8.578   5.698
18486SOL    HW255709   9.888   8.463   5.793
18487SOL     OW55710   3.699   5.156   0.048
18487SOL    HW155711   3.680   5.245   0.018
18487SOL    HW255712   3.776   5.166   0.104
18488SOL     OW55713   4.454  10.736   4.579
18488SOL    HW155714   4.403  10.817   4.583
18488SOL    HW255715   4.543  10.762   4.602
18489SOL     OW55716   2.206   3.708   1.852
18489SOL    HW155717   2.178   3.754   1.932
18489SOL    HW255718   2.224   3.778   1.790
18490SOL     OW55719  12.578  11.514   5.247
18490SOL    HW155720  12.624  11.438   5.211
18490SOL    HW255721  12.568  11.574   5.173
18491SOL     OW55722   5.129  10.463   2.874
18491SOL    HW155723   5.099  10.408   2.947
18491SOL    HW255724   5.066  10.448   2.804
18492SOL     OW55725   8.335   4.221   5.809
18492SOL    HW155726   8.335   4.229   5.905
18492SOL    HW255727   8.412   4.167   5.790
18493SOL     OW55728   3.688  10.880   1.742
18493SOL    HW155729   3.609  10.836   1.773
18493SOL    HW255730   3.667  10.905   1.651
18494SOL     OW55731   6.635  10.576   2.016
18494SOL    HW155732   6.639  10.650   1.955
18494SOL    HW255733   6.594  10.506   1.965
18495SOL     OW55734  10.252   7.658   1.326
18495SOL    HW155735  10.289   7.577   1.292
18495SOL    HW255736  10.237   7.712   1.249
18496SOL     OW55737   3.329   5.704   4.275
18496SOL    HW155738   3.324   5.609   4.259
18496SOL    HW255739   3.316   5.743   4.189
18497SOL     OW55740  10.159   9.636   2.223
18497SOL    HW155741  10.191   9.701   2.285
18497SOL    HW255742  10.223   9.635   2.152
18498SOL     OW55743  12.948   2.715   3.698
18498SOL    HW155744  12.902  13.416   3.738
18498SOL    HW255745  12.885   2.753   3.637
18499SOL     OW55746  11.239   5.219   0.795
18499SOL    HW155747  11.249   5.307   0.832
18499SOL    HW255748   0.534   5.213   0.729
18500SOL     OW55749   8.522   5.926   4.969
18500SOL    HW155750   8.606   5.892   4.999
18500SOL    HW255751   8.492   5.862   4.905
18501SOL     OW55752   5.585   9.372   5.884
18501SOL    HW155753   5.586   9.444   5.946
18501SOL    HW255754   5.614   9.411   5.801
18502SOL     OW55755   7.837  11.822   5.852
18502SOL    HW155756   7.757  11.846   5.805
18502SOL    HW255757   7.889  11.902   5.853
18503SOL     OW55758   6.804   9.966   1.783
18503SOL    HW155759   6.866  10.030   1.749
18503SOL    HW255760   6.817   9.888   1.730
18504SOL     OW55761  13.807  13.078   6.830
18504SOL    HW155762  13.850  13.163   6.840
18504SOL    HW255763  13.727  13.085   6.881
18505SOL     OW55764  11.720   7.461   5.804
18505SOL    HW155765  11.722   7.407   5.883
18505SOL    HW255766  11.666   7.537   5.828
18506SOL     OW55767   5.245   9.384   5.246
18506SOL    HW155768   5.196   9.366   5.326
18506SOL    HW255769   5.191   9.349   5.176
18507SOL     OW55770  10.055  10.852   1.902
18507SOL    HW155771   9.961  10.835   1.911
18507SOL    HW255772  10.092  10.832   1.988
18508SOL     OW55773  10.222  13.814   7.474
18508SOL    HW155774  10.228  13.799   7.569
18508SOL    HW255775  10.275  13.892   7.458
18509SOL     OW55776   4.944  12.579   4.523
18509SOL    HW155777   4.857  12.565   4.558
18509SOL    HW255778   4.960  12.672   4.534
18510SOL     OW55779  12.640  11.749   3.660
18510SOL    HW155780  12.631  11.844   3.671
18510SOL    HW255781  12.592  11.729   3.580
18511SOL     OW55782  12.240   2.448   3.086
18511SOL    HW155783  12.310   2.440   3.021
18511SOL    HW255784  12.168   2.489   3.038
18512SOL     OW55785   2.761   5.998   2.338
18512SOL    HW155786   2.809   6.002   2.421
18512SOL    HW255787   2.669   5.990   2.364
18513SOL     OW55788   2.257   2.033   1.141
18513SOL    HW155789   2.212   2.007   1.061
18513SOL    HW255790   2.290   1.951   1.178
18514SOL     OW55791  11.158   1.730   1.572
18514SOL    HW155792  11.211   1.789   1.519
18514SOL    HW255793  11.207   1.721   1.654
18515SOL     OW55794  12.633   3.399   3.671
18515SOL    HW155795  12.722   3.392   3.705
18515SOL    HW255796  12.577   3.371   3.743
18516SOL     OW55797  13.065   9.494   3.846
18516SOL    HW155798  13.013   9.418   3.871
18516SOL    HW255799  13.002   9.555   3.807
18517SOL     OW55800  10.308   3.367   2.849
18517SOL    HW155801  10.235   3.335   2.797
18517SOL    HW255802  10.363   3.414   2.787
18518SOL     OW55803   5.078   4.891   6.465
18518SOL    HW155804   4.999   4.941   6.484
18518SOL    HW255805   5.046   4.802   6.447
18519SOL     OW55806   8.808  12.169   2.596
18519SOL    HW155807   8.834  12.261   2.594
18519SOL    HW255808   8.858  12.132   2.669
18520SOL     OW55809   5.159   8.273   6.666
18520SOL    HW155810   5.170   8.346   6.726
18520SOL    HW255811   5.189   8.306   6.581
18521SOL     OW55812   1.922   4.282   0.256
18521SOL    HW155813   1.844   4.301   0.204
18521SOL    HW255814   1.992   4.329   0.211
18522SOL     OW55815   8.618   2.831   3.681
18522SOL    HW155816   8.601   2.913   3.635
18522SOL    HW255817   8.545   2.774   3.657
18523SOL     OW55818  15.736   8.594   7.486
18523SOL    HW155819  15.777   8.670   7.444
18523SOL    HW255820  15.659   8.576   7.433
18524SOL     OW55821  11.891  13.661   4.633
18524SOL    HW155822  11.897  13.595   4.565
18524SOL    HW255823  11.941  13.626   4.706
18525SOL     OW55824   9.415   8.144   6.394
18525SOL    HW155825   9.449   8.233   6.401
18525SOL    HW255826   9.468   8.093   6.456
18526SOL     OW55827   5.537   5.985   3.850
18526SOL    HW155828   5.544   6.080   3.865
18526SOL    HW255829   5.580   5.971   3.766
18527SOL     OW55830  13.718  10.473   5.745
18527SOL    HW155831  13.664  10.538   5.791
18527SOL    HW255832  13.661  10.397   5.735
18528SOL     OW55833  13.373   5.111   5.353
18528SOL    HW155834  13.315   5.176   5.313
18528SOL    HW255835  13.434   5.163   5.405
18529SOL     OW55836  14.748   9.012   6.679
18529SOL    HW155837  14.737   8.948   6.750
18529SOL    HW255838  14.660   9.020   6.641
18530SOL     OW55839  12.766   3.841   3.349
18530SOL    HW155840  12.760   3.749   3.324
18530SOL    HW255841  12.675   3.872   3.347
18531SOL     OW55842  10.923   9.116   6.920
18531SOL    HW155843  10.983   9.188   6.901
18531SOL    HW255844  10.869   9.148   6.992
18532SOL     OW55845   5.753   9.923   2.359
18532SOL    HW155846   5.847   9.934   2.344
18532SOL    HW255847   5.748   9.879   2.444
18533SOL     OW55848  10.804   4.842   4.522
18533SOL    HW155849  10.818   4.923   4.473
18533SOL    HW255850  10.893   4.813   4.545
18534SOL     OW55851  15.577  12.545   7.103
18534SOL    HW155852  15.661  12.500   7.092
18534SOL    HW255853  15.555  12.531   7.195
18535SOL     OW55854   3.587   3.670   3.940
18535SOL    HW155855   3.578   3.684   4.034
18535SOL    HW255856   3.589   3.758   3.902
18536SOL     OW55857   8.085   6.062   3.195
18536SOL    HW155858   8.076   6.006   3.118
18536SOL    HW255859   8.096   6.001   3.268
18537SOL     OW55860   8.861  10.957   3.880
18537SOL    HW155861   8.894  10.973   3.792
18537SOL    HW255862   8.810  11.035   3.902
18538SOL     OW55863   7.102   6.700   6.571
18538SOL    HW155864   7.114   6.606   6.580
18538SOL    HW255865   7.184   6.732   6.535
18539SOL     OW55866   4.536   7.587   3.993
18539SOL    HW155867   4.466   7.523   3.982
18539SOL    HW255868   4.517   7.655   3.929
18540SOL     OW55869   8.528   4.963   0.605
18540SOL    HW155870   8.569   5.049   0.595
18540SOL    HW255871   8.467   4.973   0.678
18541SOL     OW55872   5.746  13.993   6.882
18541SOL    HW155873   5.736  13.908   6.926
18541SOL    HW255874   5.704  14.056   6.941
18542SOL     OW55875   3.116   8.635   2.999
18542SOL    HW155876   3.097   8.629   3.092
18542SOL    HW255877   3.144   8.726   2.986
18543SOL     OW55878   9.223   7.903   2.849
18543SOL    HW155879   9.141   7.946   2.824
18543SOL    HW255880   9.197   7.816   2.878
18544SOL     OW55881   2.637  12.660   2.776
18544SOL    HW155882   2.581   1.931   2.713
18544SOL    HW255883   2.697  12.609   2.721
18545SOL     OW55884   7.049   9.955   5.409
18545SOL    HW155885   6.992   9.896   5.458
18545SOL    HW255886   7.013   9.955   5.321
18546SOL     OW55887   5.267   9.983   4.469
18546SOL    HW155888   5.295  10.065   4.428
18546SOL    HW255889   5.346   9.929   4.472
18547SOL     OW55890   4.605   8.213   6.194
18547SOL    HW155891   4.568   8.298   6.216
18547SOL    HW255892   4.613   8.214   6.099
18548SOL     OW55893  13.717  13.855   6.179
18548SOL    HW155894  13.789  13.802   6.213
18548SOL    HW255895  13.751  13.893   6.098
18549SOL     OW55896   6.990   8.561   6.429
18549SOL    HW155897   6.994   8.541   6.335
18549SOL    HW255898   7.074   8.529   6.463
18550SOL     OW55899   4.980   7.703   3.433
18550SOL    HW155900   4.988   7.796   3.412
18550SOL    HW255901   4.886   7.688   3.440
18551SOL     OW55902  10.548   7.828   5.602
18551SOL    HW155903  10.512   7.740   5.597
18551SOL    HW255904  10.618   7.822   5.668
18552SOL     OW55905  10.624   7.609   1.216
18552SOL    HW155906  10.564   7.623   1.143
18552SOL    HW255907  10.643   7.697   1.249
18553SOL     OW55908  10.144   7.284   7.347
18553SOL    HW155909  10.198   7.212   7.379
18553SOL    HW255910  10.080   7.300   7.416
18554SOL     OW55911   2.978   6.924   1.865
18554SOL    HW155912   3.001   6.992   1.929
18554SOL    HW255913   3.062   6.890   1.835
18555SOL     OW55914  11.379   5.694   5.292
18555SOL    HW155915  11.454   5.641   5.320
18555SOL    HW255916  11.417   5.760   5.234
18556SOL     OW55917   2.803  11.793   1.447
18556SOL    HW155918   2.884  11.773   1.495
18556SOL    HW255919   2.826   1.006   1.355
18557SOL     OW55920   5.788   7.968   4.976
18557SOL    HW155921   5.840   7.998   5.051
18557SOL    HW255922   5.723   7.909   5.014
18558SOL     OW55923   7.673  12.310   4.812
18558SOL    HW155924   7.637  12.345   4.731
18558SOL    HW255925   7.715  12.385   4.854
18559SOL     OW55926  11.957  12.180   5.357
18559SOL    HW155927  12.025  12.121   5.389
18559SOL    HW255928  11.989  12.209   5.271
18560SOL     OW55929   9.629   2.116   0.627
18560SOL    HW155930   9.708   2.137   0.678
18560SOL    HW255931   9.661   2.085   0.543
18561SOL     OW55932   9.770   4.926   6.272
18561SOL    HW155933   9.680   4.953   6.250
18561SOL    HW255934   9.826   4.985   6.221
18562SOL     OW55935  11.205  13.704   7.191
18562SOL    HW155936  11.137  13.637   7.190
18562SOL    HW255937  11.187  13.758   7.114
18563SOL     OW55938   6.490   7.192   6.052
18563SOL    HW155939   6.469   7.099   6.062
18563SOL    HW255940   6.504   7.205   5.958
18564SOL     OW55941   2.263   4.501   2.072
18564SOL    HW155942   2.174   4.504   2.109
18564SOL    HW255943   2.321   4.504   2.148
18565SOL     OW55944  12.125  13.583   6.883
18565SOL    HW155945  12.122  13.672   6.920
18565SOL    HW255946  12.099  13.594   6.792
18566SOL     OW55947   4.821   2.781   0.540
18566SOL    HW155948   4.874   2.859   0.519
18566SOL    HW255949   4.879   2.707   0.522
18567SOL     OW55950   6.990   9.107   5.622
18567SOL    HW155951   6.940   9.089   5.702
18567SOL    HW255952   6.951   9.051   5.556
18568SOL     OW55953   9.708   7.724   6.073
18568SOL    HW155954   9.703   7.807   6.120
18568SOL    HW255955   9.798   7.720   6.041
18569SOL     OW55956  11.321   7.064   6.410
18569SOL    HW155957  11.394   7.010   6.439
18569SOL    HW255958  11.360   7.149   6.392
18570SOL     OW55959   5.834   3.747   0.422
18570SOL    HW155960   5.907   3.805   0.401
18570SOL    HW255961   5.808   3.710   0.337
18571SOL     OW55962  10.646   5.137   4.871
18571SOL    HW155963  10.582   5.088   4.819
18571SOL    HW255964  10.722   5.079   4.875
18572SOL     OW55965  11.238   8.358   1.893
18572SOL    HW155966  11.205   8.269   1.875
18572SOL    HW255967  11.315   8.366   1.838
18573SOL     OW55968   7.889   9.836   3.322
18573SOL    HW155969   7.940   9.779   3.265
18573SOL    HW255970   7.943   9.914   3.333
18574SOL     OW55971   4.345   6.116   1.887
18574SOL    HW155972   4.311   6.195   1.930
18574SOL    HW255973   4.410   6.082   1.948
18575SOL     OW55974   6.841   4.901   5.939
18575SOL    HW155975   6.757   4.901   5.894
18575SOL    HW255976   6.858   4.809   5.960
18576SOL     OW55977   9.646   6.771   5.444
18576SOL    HW155978   9.593   6.732   5.374
18576SOL    HW255979   9.590   6.840   5.480
18577SOL     OW55980   8.293   8.964   5.224
18577SOL    HW155981   8.211   8.930   5.189
18577SOL    HW255982   8.358   8.944   5.156
18578SOL     OW55983   5.483  12.060   7.191
18578SOL    HW155984   5.450  11.971   7.176
18578SOL    HW255985   5.475  12.072   7.286
18579SOL     OW55986  10.741  11.745   3.586
18579SOL    HW155987  10.822  11.756   3.536
18579SOL    HW255988  10.711  11.835   3.603
18580SOL     OW55989   2.738  11.401   2.646
18580SOL    HW155990   2.746  11.313   2.611
18580SOL    HW255991   2.826  11.424   2.674
18581SOL     OW55992   9.219   8.113   1.270
18581SOL    HW155993   9.137   8.089   1.226
18581SOL    HW255994   9.214   8.068   1.354
18582SOL     OW55995   7.110  10.268   1.468
18582SOL    HW155996   7.177  10.281   1.401
18582SOL    HW255997   7.073  10.355   1.483
18583SOL     OW55998   9.188   7.035   1.125
18583SOL    HW155999   9.102   6.999   1.101
18583SOL    HW256000   9.179   7.060   1.217
18584SOL     OW56001   7.129  11.905   2.886
18584SOL    HW156002   7.172  11.980   2.845
18584SOL    HW256003   7.147  11.917   2.980
18585SOL     OW56004  11.841   2.884   4.033
18585SOL    HW156005  11.922   2.894   3.983
18585SOL    HW256006  11.870  13.638   4.122
18586SOL     OW56007  11.787   8.331   6.912
18586SOL    HW156008  11.859   8.270   6.895
18586SOL    HW256009  11.830   8.409   6.949
18587SOL     OW56010   4.163   2.273   0.306
18587SOL    HW156011   4.121   2.263   0.220
18587SOL    HW256012   4.257   2.279   0.287
18588SOL     OW56013  14.591   8.461   6.305
18588SOL    HW156014  14.642   8.380   6.313
18588SOL    HW256015  14.645   8.528   6.347
18589SOL     OW56016   4.535  12.895   4.631
18589SOL    HW156017   4.443  12.872   4.636
18589SOL    HW256018   4.539  12.987   4.657
18590SOL     OW56019   6.714   5.213   4.710
18590SOL    HW156020   6.673   5.192   4.794
18590SOL    HW256021   6.779   5.143   4.697
18591SOL     OW56022   8.593   3.900   2.528
18591SOL    HW156023   8.583   3.851   2.446
18591SOL    HW256024   8.541   3.979   2.515
18592SOL     OW56025  11.021   7.056   4.485
18592SOL    HW156026  11.092   7.082   4.544
18592SOL    HW256027  10.980   7.139   4.458
18593SOL     OW56028   2.109   6.709   2.764
18593SOL    HW156029   2.051   6.645   2.806
18593SOL    HW256030   2.080   6.794   2.797
18594SOL     OW56031   2.917  10.988   2.786
18594SOL    HW156032   2.857  10.982   2.861
18594SOL    HW256033   2.985  11.048   2.815
18595SOL     OW56034  11.791   3.577   3.712
18595SOL    HW156035  11.826   3.626   3.787
18595SOL    HW256036  11.781   3.643   3.643
18596SOL     OW56037   7.254  10.699   4.577
18596SOL    HW156038   7.289  10.752   4.505
18596SOL    HW256039   7.203  10.630   4.534
18597SOL     OW56040  12.843   6.071   4.802
18597SOL    HW156041  12.824   6.000   4.864
18597SOL    HW256042  12.785   6.142   4.830
18598SOL     OW56043   5.080   7.915   4.111
18598SOL    HW156044   5.098   7.989   4.169
18598SOL    HW256045   5.087   7.951   4.023
18599SOL     OW56046   5.832   4.786   4.695
18599SOL    HW156047   5.862   4.698   4.716
18599SOL    HW256048   5.738   4.777   4.680
18600SOL     OW56049  11.693   8.760   4.227
18600SOL    HW156050  11.756   8.801   4.287
18600SOL    HW256051  11.652   8.834   4.182
18601SOL     OW56052   4.961   8.789   1.963
18601SOL    HW156053   5.000   8.873   1.940
18601SOL    HW256054   4.993   8.771   2.052
18602SOL     OW56055   6.879  12.106   5.834
18602SOL    HW156056   6.851  12.194   5.806
18602SOL    HW256057   6.805  12.073   5.886
18603SOL     OW56058   7.483  10.706   0.866
18603SOL    HW156059   7.422  10.708   0.792
18603SOL    HW256060   7.507  10.614   0.874
18604SOL     OW56061  10.162   6.475   0.209
18604SOL    HW156062  10.089   6.538   0.205
18604SOL    HW256063  10.179   6.453   0.118
18605SOL     OW56064   7.217   5.327   0.561
18605SOL    HW156065   7.167   5.403   0.531
18605SOL    HW256066   7.205   5.326   0.656
18606SOL     OW56067   3.506  10.731   1.875
18606SOL    HW156068   3.419  10.762   1.850
18606SOL    HW256069   3.493  10.638   1.893
18607SOL     OW56070   8.592   3.405   0.199
18607SOL    HW156071   8.569   3.411   0.107
18607SOL    HW256072   8.601   3.497   0.227
18608SOL     OW56073   5.267   3.486   2.570
18608SOL    HW156074   5.273   3.568   2.521
18608SOL    HW256075   5.192   3.499   2.629
18609SOL     OW56076   6.275   6.388   7.478
18609SOL    HW156077   6.222   6.417   7.552
18609SOL    HW256078   6.364   6.387   7.511
18610SOL     OW56079   9.123   8.045   7.362
18610SOL    HW156080   9.177   8.021   7.287
18610SOL    HW256081   9.044   7.992   7.353
18611SOL     OW56082   8.223   9.571   7.022
18611SOL    HW156083   8.277   9.510   7.073
18611SOL    HW256084   8.133   9.541   7.037
18612SOL     OW56085   8.963   4.379   2.926
18612SOL    HW156086   9.037   4.423   2.967
18612SOL    HW256087   8.933   4.316   2.992
18613SOL     OW56088  12.945   5.793   5.267
18613SOL    HW156089  12.942   5.698   5.275
18613SOL    HW256090  12.962   5.824   5.356
18614SOL     OW56091   6.635   6.023   3.421
18614SOL    HW156092   6.670   5.949   3.470
18614SOL    HW256093   6.601   6.082   3.489
18615SOL     OW56094  11.930   7.624   7.482
18615SOL    HW156095  11.878   7.704   7.487
18615SOL    HW256096  12.011   7.645   7.529
18616SOL     OW56097  14.792   8.647   7.194
18616SOL    HW156098  14.823   8.583   7.130
18616SOL    HW256099  14.869   8.667   7.247
18617SOL     OW56100   4.014   3.020   0.507
18617SOL    HW156101   3.925   2.992   0.529
18617SOL    HW256102   4.024   3.104   0.550
18618SOL     OW56103   8.749   8.477   0.846
18618SOL    HW156104   8.695   8.555   0.851
18618SOL    HW256105   8.716   8.420   0.916
18619SOL     OW56106  12.793   6.060   2.887
18619SOL    HW156107   2.064   6.123   2.833
18619SOL    HW256108   2.001   5.986   2.828
18620SOL     OW56109  13.005   8.819   7.232
18620SOL    HW156110  12.986   8.793   7.141
18620SOL    HW256111  12.919   8.825   7.273
18621SOL     OW56112  10.296   3.612   3.127
18621SOL    HW156113  10.384   3.626   3.162
18621SOL    HW256114  10.305   3.535   3.071
18622SOL     OW56115   6.479   4.978   4.477
18622SOL    HW156116   6.517   4.898   4.513
18622SOL    HW256117   6.554   5.034   4.456
18623SOL     OW56118   1.871   5.497   0.161
18623SOL    HW156119   1.784   5.533   0.145
18623SOL    HW256120   1.931   5.561   0.122
18624SOL     OW56121  10.043  10.589   6.050
18624SOL    HW156122  10.064  10.567   6.141
18624SOL    HW256123  10.091  10.524   5.998
18625SOL     OW56124   4.262   3.524   3.706
18625SOL    HW156125   4.356   3.511   3.723
18625SOL    HW256126   4.255   3.616   3.680
18626SOL     OW56127  10.972   7.728   0.837
18626SOL    HW156128  10.947   7.712   0.746
18626SOL    HW256129  10.901   7.782   0.873
18627SOL     OW56130   7.654   5.002   6.198
18627SOL    HW156131   7.732   4.949   6.179
18627SOL    HW256132   7.650   5.066   6.127
18628SOL     OW56133  11.179   3.458   1.238
18628SOL    HW156134  11.214   3.537   1.197
18628SOL    HW256135  11.153   3.486   1.326
18629SOL     OW56136   1.534   8.275   0.273
18629SOL    HW156137   1.508   8.302   0.361
18629SOL    HW256138   1.556   8.182   0.282
18630SOL     OW56139   2.308   8.946   1.093
18630SOL    HW156140   2.323   8.884   1.164
18630SOL    HW256141   2.222   8.983   1.112
18631SOL     OW56142  10.164   5.566   0.954
18631SOL    HW156143  10.090   5.552   0.895
18631SOL    HW256144  10.241   5.546   0.901
18632SOL     OW56145   8.754  11.793   2.130
18632SOL    HW156146   8.729  11.764   2.042
18632SOL    HW256147   8.672  11.795   2.179
18633SOL     OW56148  11.083   3.458   3.859
18633SOL    HW156149  11.055   3.502   3.779
18633SOL    HW256150  11.168   3.498   3.880
18634SOL     OW56151  13.068   3.944   4.023
18634SOL    HW156152  13.066   4.021   3.966
18634SOL    HW256153  12.980   3.939   4.061
18635SOL     OW56154  11.854   6.757   4.592
18635SOL    HW156155  11.841   6.805   4.510
18635SOL    HW256156  11.825   6.817   4.660
18636SOL     OW56157   7.904   3.187   1.880
18636SOL    HW156158   7.960   3.180   1.958
18636SOL    HW256159   7.961   3.158   1.808
18637SOL     OW56160   0.604   4.695   0.220
18637SOL    HW156161   0.682   4.726   0.266
18637SOL    HW256162   0.630   4.692   0.128
18638SOL     OW56163   7.541   8.005   6.404
18638SOL    HW156164   7.516   8.065   6.334
18638SOL    HW256165   7.525   7.918   6.367
18639SOL     OW56166   6.569  11.583   2.532
18639SOL    HW156167   6.620  11.503   2.523
18639SOL    HW256168   6.560  11.595   2.627
18640SOL     OW56169   8.430   5.829   6.854
18640SOL    HW156170   8.419   5.868   6.941
18640SOL    HW256171   8.525   5.829   6.840
18641SOL     OW56172   6.309  10.999   6.732
18641SOL    HW156173   6.361  10.952   6.796
18641SOL    HW256174   6.230  10.946   6.721
18642SOL     OW56175   4.787   4.208   0.008
18642SOL    HW156176   4.783   4.112   0.007
18642SOL    HW256177  10.117   9.622   7.555
18643SOL     OW56178   7.142   9.337   3.523
18643SOL    HW156179   7.138   9.245   3.550
18643SOL    HW256180   7.234   9.354   3.507
18644SOL     OW56181  13.081  10.184   7.508
18644SOL    HW156182  13.144  10.117   7.481
18644SOL    HW256183  13.128  10.235   7.575
18645SOL     OW56184   6.427  11.093   2.305
18645SOL    HW156185   6.333  11.096   2.326
18645SOL    HW256186   6.467  11.054   2.382
18646SOL     OW56187  10.990  10.621   3.696
18646SOL    HW156188  10.972  10.714   3.707
18646SOL    HW256189  10.915  10.576   3.736
18647SOL     OW56190   5.339   4.022   5.203
18647SOL    HW156191   5.315   4.091   5.265
18647SOL    HW256192   5.342   3.942   5.256
18648SOL     OW56193   9.284   5.555   2.342
18648SOL    HW156194   9.190   5.549   2.328
18648SOL    HW256195   9.303   5.649   2.339
18649SOL     OW56196   4.883   7.944   1.890
18649SOL    HW156197   4.838   7.942   1.806
18649SOL    HW256198   4.816   7.919   1.954
18650SOL     OW56199  13.295  14.972   7.421
18650SOL    HW156200  13.321  15.005   7.335
18650SOL    HW256201  13.373  14.983   7.476
18651SOL     OW56202   3.335  12.816   3.358
18651SOL    HW156203   3.311  12.836   3.268
18651SOL    HW256204   3.422  12.777   3.352
18652SOL     OW56205   3.992   3.671   3.028
18652SOL    HW156206   4.039   3.592   3.002
18652SOL    HW256207   3.965   3.654   3.118
18653SOL     OW56208   7.085   6.074   2.089
18653SOL    HW156209   7.141   6.139   2.132
18653SOL    HW256210   7.008   6.067   2.145
18654SOL     OW56211   7.311   8.598   1.330
18654SOL    HW156212   7.292   8.508   1.305
18654SOL    HW256213   7.251   8.651   1.277
18655SOL     OW56214  14.152   4.571   5.845
18655SOL    HW156215  14.080   4.571   5.909
18655SOL    HW256216  14.210   4.641   5.875
18656SOL     OW56217  10.690   8.228   2.868
18656SOL    HW156218  10.706   8.171   2.943
18656SOL    HW256219  10.669   8.313   2.906
18657SOL     OW56220  11.771   9.304   2.266
18657SOL    HW156221  11.728   9.282   2.349
18657SOL    HW256222  11.699   9.317   2.204
18658SOL     OW56223   7.083  10.440   7.022
18658SOL    HW156224   7.133  10.446   6.940
18658SOL    HW256225   7.018  10.371   7.006
18659SOL     OW56226  12.577  12.555   7.435
18659SOL    HW156227  12.495  12.526   7.475
18659SOL    HW256228  12.573  12.520   7.346
18660SOL     OW56229   4.188  11.459   2.782
18660SOL    HW156230   4.157  11.412   2.860
18660SOL    HW256231   4.109  11.470   2.729
18661SOL     OW56232  10.253   9.108   0.291
18661SOL    HW156233  10.221   9.183   0.340
18661SOL    HW256234  10.207   9.033   0.328
18662SOL     OW56235   5.146  11.467   3.926
18662SOL    HW156236   5.076  11.512   3.878
18662SOL    HW256237   5.204  11.537   3.956
18663SOL     OW56238   9.964   3.445   2.897
18663SOL    HW156239   9.886   3.451   2.843
18663SOL    HW256240  10.000   3.534   2.898
18664SOL     OW56241  10.058   2.969   3.020
18664SOL    HW156242  10.003   3.047   3.034
18664SOL    HW256243   9.996   2.902   2.992
18665SOL     OW56244   3.052   3.622   3.612
18665SOL    HW156245   3.104   3.682   3.559
18665SOL    HW256246   2.962   3.655   3.604
18666SOL     OW56247   8.753   6.637   0.378
18666SOL    HW156248   8.720   6.723   0.354
18666SOL    HW256249   8.849   6.647   0.375
18667SOL     OW56250   4.794   8.753   0.819
18667SOL    HW156251   4.830   8.689   0.758
18667SOL    HW256252   4.760   8.701   0.891
18668SOL     OW56253   5.898   5.304   7.482
18668SOL    HW156254   5.867  15.998   7.439
18668SOL    HW256255   5.992  16.065   7.493
18669SOL     OW56256  14.112  15.112   6.644
18669SOL    HW156257  14.041  15.059   6.607
18669SOL    HW256258  14.192  15.071   6.609
18670SOL     OW56259   5.971   8.783   1.550
18670SOL    HW156260   5.898   8.836   1.521
18670SOL    HW256261   5.931   8.707   1.592
18671SOL     OW56262   8.388   9.817   5.391
18671SOL    HW156263   8.444   9.852   5.322
18671SOL    HW256264   8.322   9.884   5.405
18672SOL     OW56265  11.483  11.411   6.942
18672SOL    HW156266  11.549  11.465   6.899
18672SOL    HW256267  11.417  11.473   6.972
18673SOL     OW56268   3.587   9.297   1.695
18673SOL    HW156269   3.576   9.378   1.645
18673SOL    HW256270   3.518   9.239   1.661
18674SOL     OW56271   5.564   4.930   3.383
18674SOL    HW156272   5.473   4.954   3.364
18674SOL    HW256273   5.557   4.869   3.456
18675SOL     OW56274   8.428  13.136   7.048
18675SOL    HW156275   8.496  13.164   7.109
18675SOL    HW256276   8.404  13.048   7.078
18676SOL     OW56277  12.710  11.986   4.695
18676SOL    HW156278  12.744  11.992   4.606
18676SOL    HW256279  12.727  12.072   4.733
18677SOL     OW56280   4.375  11.132   1.612
18677SOL    HW156281   4.305  11.197   1.615
18677SOL    HW256282   4.414  11.142   1.525
18678SOL     OW56283   7.451   6.245   5.876
18678SOL    HW156284   7.481   6.310   5.939
18678SOL    HW256285   7.415   6.174   5.930
18679SOL     OW56286   7.682  14.405   7.147
18679SOL    HW156287   7.665  14.312   7.127
18679SOL    HW256288   7.702  14.444   7.062
18680SOL     OW56289   6.194  10.103   1.240
18680SOL    HW156290   6.143  10.043   1.186
18680SOL    HW256291   6.131  10.168   1.270
18681SOL     OW56292   5.863  10.163   3.263
18681SOL    HW156293   5.822  10.245   3.235
18681SOL    HW256294   5.840  10.101   3.194
18682SOL     OW56295   3.177   2.597   3.237
18682SOL    HW156296   3.132   2.679   3.258
18682SOL    HW256297   3.162   2.585   3.144
18683SOL     OW56298  12.759   9.702   4.296
18683SOL    HW156299  12.695   9.670   4.233
18683SOL    HW256300  12.844   9.682   4.257
18684SOL     OW56301   7.576   8.866   5.049
18684SOL    HW156302   7.641   8.901   5.110
18684SOL    HW256303   7.501   8.924   5.058
18685SOL     OW56304   6.960   7.449   5.028
18685SOL    HW156305   7.031   7.414   5.080
18685SOL    HW256306   6.987   7.539   5.008
18686SOL     OW56307  11.217  11.370   5.070
18686SOL    HW156308  11.284  11.321   5.022
18686SOL    HW256309  11.267  11.431   5.124
18687SOL     OW56310   5.903  11.407   3.043
18687SOL    HW156311   5.981  11.401   3.097
18687SOL    HW256312   5.904  11.327   2.990
18688SOL     OW56313  11.525   7.633   3.578
18688SOL    HW156314  11.595   7.622   3.642
18688SOL    HW256315  11.528   7.553   3.525
18689SOL     OW56316   9.445   4.402   2.940
18689SOL    HW156317   9.474   4.431   2.853
18689SOL    HW256318   9.432   4.308   2.931
18690SOL     OW56319   8.230   6.569   5.342
18690SOL    HW156320   8.264   6.489   5.381
18690SOL    HW256321   8.154   6.541   5.292
18691SOL     OW56322   7.577  12.503   2.870
18691SOL    HW156323   7.501  12.562   2.868
18691SOL    HW256324   7.557  12.441   2.940
18692SOL     OW56325   8.807  11.506   2.058
18692SOL    HW156326   8.828  11.598   2.075
18692SOL    HW256327   8.800  11.501   1.962
18693SOL     OW56328   9.110   9.148   0.807
18693SOL    HW156329   9.069   9.160   0.721
18693SOL    HW256330   9.174   9.218   0.813
18694SOL     OW56331  13.246  15.338   6.654
18694SOL    HW156332  13.181  15.286   6.701
18694SOL    HW256333  13.197  15.412   6.619
18695SOL     OW56334   5.683  15.164   7.591
18695SOL    HW156335   5.658  15.242   7.541
18695SOL    HW256336   0.305   9.809   0.062
18696SOL     OW56337  12.428   7.359   3.190
18696SOL    HW156338  12.389   7.299   3.126
18696SOL    HW256339  12.522   7.350   3.176
18697SOL     OW56340   6.620  11.516   3.929
18697SOL    HW156341   6.630  11.474   4.015
18697SOL    HW256342   6.563  11.591   3.945
18698SOL     OW56343   8.460  11.789   1.719
18698SOL    HW156344   8.379  11.784   1.669
18698SOL    HW256345   8.519  11.840   1.663
18699SOL     OW56346   9.151   7.627   1.967
18699SOL    HW156347   9.072   7.613   1.916
18699SOL    HW256348   9.146   7.719   1.995
18700SOL     OW56349   9.950   5.067   0.691
18700SOL    HW156350   9.951   5.160   0.712
18700SOL    HW256351   9.947   5.023   0.776
18701SOL     OW56352  10.508  13.403   4.040
18701SOL    HW156353  10.496  13.411   4.134
18701SOL    HW256354  10.563  13.325   4.029
18702SOL     OW56355   5.579   4.799   1.587
18702SOL    HW156356   5.556   4.709   1.563
18702SOL    HW256357   5.675   4.802   1.583
18703SOL     OW56358  13.240  11.755   7.010
18703SOL    HW156359  13.249  11.849   6.998
18703SOL    HW256360  13.326  11.719   6.990
18704SOL     OW56361   6.229   9.665   3.259
18704SOL    HW156362   6.319   9.636   3.242
18704SOL    HW256363   6.232   9.760   3.244
18705SOL     OW56364   5.340   3.935   2.363
18705SOL    HW156365   5.428   3.940   2.400
18705SOL    HW256366   5.307   4.024   2.369
18706SOL     OW56367   2.696   7.121   2.742
18706SOL    HW156368   2.628   7.181   2.710
18706SOL    HW256369   2.689   7.045   2.684
18707SOL     OW56370   8.244   5.162   6.649
18707SOL    HW156371   8.182   5.130   6.584
18707SOL    HW256372   8.217   5.252   6.667
18708SOL     OW56373   5.767  13.549   6.501
18708SOL    HW156374   5.800  13.460   6.517
18708SOL    HW256375   5.840  13.593   6.457
18709SOL     OW56376  12.171  14.888   5.934
18709SOL    HW156377  12.216   4.195   5.912
18709SOL    HW256378  12.174  14.836   5.854
18710SOL     OW56379   2.004   7.242   2.817
18710SOL    HW156380  12.696   7.260   2.772
18710SOL    HW256381   2.025   7.152   2.793
18711SOL     OW56382   8.090  10.400   6.579
18711SOL    HW156383   8.120  10.356   6.658
18711SOL    HW256384   8.003  10.433   6.602
18712SOL     OW56385   3.034   8.371   2.791
18712SOL    HW156386   3.020   8.303   2.725
18712SOL    HW256387   3.091   8.435   2.747
18713SOL     OW56388   3.510  12.557   3.043
18713SOL    HW156389   3.516  12.638   3.094
18713SOL    HW256390   3.433  12.570   2.987
18714SOL     OW56391   5.218   4.377   2.458
18714SOL    HW156392   5.247   4.286   2.453
18714SOL    HW256393   5.246   4.416   2.375
18715SOL     OW56394   6.096  13.835   7.353
18715SOL    HW156395   6.180  13.882   7.352
18715SOL    HW256396   6.067  13.841   7.444
18716SOL     OW56397   6.688   8.288   5.956
18716SOL    HW156398   6.775   8.250   5.943
18716SOL    HW256399   6.658   8.253   6.039
18717SOL     OW56400  12.185   6.015   3.880
18717SOL    HW156401  12.222   6.019   3.792
18717SOL    HW256402  12.229   5.942   3.923
18718SOL     OW56403   6.574  14.434   6.219
18718SOL    HW156404   6.590  14.347   6.254
18718SOL    HW256405   6.638  14.444   6.149
18719SOL     OW56406   5.648  11.646   6.940
18719SOL    HW156407   5.735  11.642   6.899
18719SOL    HW256408   5.665  11.639   7.034
18720SOL     OW56409   8.840  12.801   5.296
18720SOL    HW156410   8.833  12.749   5.216
18720SOL    HW256411   8.832  12.892   5.267
18721SOL     OW56412  11.745  10.213   3.784
18721SOL    HW156413  11.680  10.264   3.735
18721SOL    HW256414  11.726  10.232   3.876
18722SOL     OW56415   6.535  11.969   6.831
18722SOL    HW156416   6.597  11.975   6.903
18722SOL    HW256417   6.585  11.997   6.754
18723SOL     OW56418  11.188   9.227   1.683
18723SOL    HW156419  11.188   9.249   1.590
18723SOL    HW256420  11.183   9.131   1.685
18724SOL     OW56421   9.748   3.328   1.676
18724SOL    HW156422   9.798   3.389   1.621
18724SOL    HW256423   9.744   3.370   1.761
18725SOL     OW56424   6.224  12.344   6.107
18725SOL    HW156425   6.130  12.353   6.089
18725SOL    HW256426   6.256  12.433   6.114
18726SOL     OW56427  10.851  10.548   0.732
18726SOL    HW156428  10.901  10.562   0.813
18726SOL    HW256429  10.778  10.609   0.738
18727SOL     OW56430   9.168   6.853   2.614
18727SOL    HW156431   9.116   6.829   2.691
18727SOL    HW256432   9.141   6.943   2.594
18728SOL     OW56433  15.570  12.445   6.813
18728SOL    HW156434   4.887  12.416   6.811
18728SOL    HW256435  15.553  12.462   6.905
18729SOL     OW56436  10.985   6.501   2.650
18729SOL    HW156437  11.022   6.571   2.705
18729SOL    HW256438  10.895   6.493   2.680
18730SOL     OW56439   5.878   8.754   4.519
18730SOL    HW156440   5.845   8.767   4.608
18730SOL    HW256441   5.804   8.719   4.471
18731SOL     OW56442  15.597   7.239   7.469
18731SOL    HW156443  15.509   7.249   7.433
18731SOL    HW256444  15.649   7.204   7.397
18732SOL     OW56445   8.700   7.745   5.029
18732SOL    HW156446   8.646   7.667   5.044
18732SOL    HW256447   8.753   7.723   4.953
18733SOL     OW56448   5.059   1.911   2.207
18733SOL    HW156449   5.151   1.921   2.231
18733SOL    HW256450   5.061   1.855   2.129
18734SOL     OW56451  12.651  11.870   7.061
18734SOL    HW156452  12.618  11.910   7.142
18734SOL    HW256453  12.746  11.869   7.071
18735SOL     OW56454   7.109   7.391   2.094
18735SOL    HW156455   7.124   7.335   2.018
18735SOL    HW256456   7.053   7.339   2.152
18736SOL     OW56457   4.204   9.937   0.392
18736SOL    HW156458   4.138  10.007   0.389
18736SOL    HW256459   4.228   9.931   0.484
18737SOL     OW56460  11.204  14.546   5.726
18737SOL    HW156461  11.248  14.584   5.801
18737SOL    HW256462  11.142  14.613   5.697
18738SOL     OW56463   3.626   3.210   3.730
18738SOL    HW156464   3.613   3.281   3.668
18738SOL    HW256465   3.604   3.249   3.815
18739SOL     OW56466   2.299   7.016   1.447
18739SOL    HW156467   2.334   7.075   1.513
18739SOL    HW256468   2.361   6.943   1.445
18740SOL     OW56469  11.744   8.936   1.729
18740SOL    HW156470  11.740   8.943   1.634
18740SOL    HW256471  11.745   9.026   1.760
18741SOL     OW56472   6.789   3.280   2.975
18741SOL    HW156473   6.775   3.374   2.962
18741SOL    HW256474   6.830   3.272   3.061
18742SOL     OW56475   4.289   8.062   3.768
18742SOL    HW156476   4.370   8.105   3.739
18742SOL    HW256477   4.315   7.971   3.783
18743SOL     OW56478   7.358   5.766   5.979
18743SOL    HW156479   7.377   5.709   6.053
18743SOL    HW256480   7.267   5.749   5.957
18744SOL     OW56481  10.066  12.975   5.947
18744SOL    HW156482  10.000  13.026   5.993
18744SOL    HW256483  10.029  12.959   5.860
18745SOL     OW56484   9.796  12.513   6.802
18745SOL    HW156485   9.781  12.456   6.878
18745SOL    HW256486   9.784  12.456   6.726
18746SOL     OW56487   6.157   9.047   3.616
18746SOL    HW156488   6.234   9.065   3.562
18746SOL    HW256489   6.084   9.045   3.554
18747SOL     OW56490   6.720  10.095   2.154
18747SOL    HW156491   6.629  10.122   2.139
18747SOL    HW256492   6.714  10.004   2.182
18748SOL     OW56493   7.126   6.398   2.258
18748SOL    HW156494   7.099   6.469   2.316
18748SOL    HW256495   7.185   6.345   2.311
18749SOL     OW56496  10.702   8.961   4.649
18749SOL    HW156497  10.672   8.877   4.613
18749SOL    HW256498  10.646   9.027   4.608
18750SOL     OW56499   4.462   8.455   0.220
18750SOL    HW156500   4.516   8.422   0.148
18750SOL    HW256501   4.480   8.395   0.293
18751SOL     OW56502   4.053  10.304   1.165
18751SOL    HW156503   4.041  10.325   1.258
18751SOL    HW256504   4.137  10.259   1.161
18752SOL     OW56505   6.640   7.980   7.133
18752SOL    HW156506   6.647   7.982   7.038
18752SOL    HW256507   6.701   8.046   7.164
18753SOL     OW56508   9.541   7.843   3.576
18753SOL    HW156509   9.582   7.779   3.635
18753SOL    HW256510   9.450   7.814   3.570
18754SOL     OW56511   6.179   1.714   0.537
18754SOL    HW156512   6.120   1.678   0.471
18754SOL    HW256513   6.143   1.684   0.621
18755SOL     OW56514   6.911  10.941   5.317
18755SOL    HW156515   6.880  10.956   5.406
18755SOL    HW256516   6.863  11.004   5.264
18756SOL     OW56517   8.647   9.863   7.169
18756SOL    HW156518   8.650   9.924   7.094
18756SOL    HW256519   8.703   9.904   7.235
18757SOL     OW56520   4.482   5.304   6.075
18757SOL    HW156521   4.502   5.393   6.047
18757SOL    HW256522   4.402   5.281   6.027
18758SOL     OW56523   2.801   2.808   3.072
18758SOL    HW156524   2.834   2.775   3.155
18758SOL    HW256525   2.739   2.742   3.042
18759SOL     OW56526  14.006   5.538   6.013
18759SOL    HW156527  13.961   5.463   6.051
18759SOL    HW256528  14.040   5.587   6.088
18760SOL     OW56529   4.422   9.038   4.537
18760SOL    HW156530   4.443   8.945   4.522
18760SOL    HW256531   4.421   9.047   4.632
18761SOL     OW56532   7.018   6.194   3.982
18761SOL    HW156533   7.009   6.106   3.946
18761SOL    HW256534   6.934   6.212   4.024
18762SOL     OW56535   8.190   2.430   2.197
18762SOL    HW156536   8.263   2.417   2.136
18762SOL    HW256537   8.212   2.510   2.244
18763SOL     OW56538   7.873  10.235   5.475
18763SOL    HW156539   7.799  10.296   5.477
18763SOL    HW256540   7.895  10.221   5.567
18764SOL     OW56541   3.803   3.877   2.886
18764SOL    HW156542   3.867   3.822   2.931
18764SOL    HW256543   3.830   3.875   2.794
18765SOL     OW56544   1.086  10.153   1.483
18765SOL    HW156545  11.861  10.192   1.571
18765SOL    HW256546   1.072  10.227   1.424
18766SOL     OW56547  14.353  13.434   5.453
18766SOL    HW156548  14.328  13.513   5.501
18766SOL    HW256549  14.332  13.455   5.362
18767SOL     OW56550   6.031   4.506   0.721
18767SOL    HW156551   6.113   4.549   0.747
18767SOL    HW256552   5.964   4.573   0.732
18768SOL     OW56553  10.979   3.645   2.474
18768SOL    HW156554  10.923   3.575   2.508
18768SOL    HW256555  10.919   3.717   2.456
18769SOL     OW56556   8.474   9.287   1.281
18769SOL    HW156557   8.514   9.200   1.276
18769SOL    HW256558   8.426   9.286   1.364
18770SOL     OW56559   6.455  12.355   2.970
18770SOL    HW156560   6.400  12.345   2.893
18770SOL    HW256561   6.466  12.450   2.980
18771SOL     OW56562   8.429   1.197   1.031
18771SOL    HW156563   8.340   1.200   0.995
18771SOL    HW256564   8.417   1.209   1.125
18772SOL     OW56565  11.428   5.934   1.033
18772SOL    HW156566  11.396   5.989   0.962
18772SOL    HW256567   0.704   5.865   0.989
18773SOL     OW56568   9.849   9.524   5.832
18773SOL    HW156569   9.908   9.560   5.766
18773SOL    HW256570   9.781   9.591   5.843
18774SOL     OW56571  13.233   6.936   3.909
18774SOL    HW156572  13.296   6.929   3.838
18774SOL    HW256573  13.149   6.954   3.866
18775SOL     OW56574  10.959   5.793   6.131
18775SOL    HW156575  10.912   5.750   6.202
18775SOL    HW256576  10.991   5.722   6.076
18776SOL     OW56577  15.025  13.280   6.132
18776SOL    HW156578  14.980  13.320   6.058
18776SOL    HW256579  15.111  13.321   6.134
18777SOL     OW56580   8.594   9.748   1.884
18777SOL    HW156581   8.586   9.804   1.961
18777SOL    HW256582   8.658   9.681   1.909
18778SOL     OW56583   4.685   9.675   0.769
18778SOL    HW156584   4.759   9.615   0.758
18778SOL    HW256585   4.614   9.619   0.801
18779SOL     OW56586  10.247   9.335   6.017
18779SOL    HW156587  10.265   9.269   6.083
18779SOL    HW256588  10.188   9.397   6.060
18780SOL     OW56589   8.621  11.060   1.467
18780SOL    HW156590   8.685  11.112   1.418
18780SOL    HW256591   8.673  11.009   1.529
18781SOL     OW56592   2.951   7.746   2.478
18781SOL    HW156593   2.949   7.696   2.559
18781SOL    HW256594   2.940   7.837   2.506
18782SOL     OW56595  11.914   1.998   2.473
18782SOL    HW156596  11.841   1.992   2.412
18782SOL    HW256597  11.908   1.919   2.527
18783SOL     OW56598  12.371  12.464   5.275
18783SOL    HW156599  12.279  12.453   5.298
18783SOL    HW256600  12.370  12.528   5.203
18784SOL     OW56601   4.878   6.220   1.330
18784SOL    HW156602   4.885   6.275   1.408
18784SOL    HW256603   4.885   6.282   1.257
18785SOL     OW56604   4.552   2.232   1.902
18785SOL    HW156605   4.580   2.281   1.980
18785SOL    HW256606   4.502   2.158   1.937
18786SOL     OW56607   4.340  10.087   2.019
18786SOL    HW156608   4.344  10.111   1.926
18786SOL    HW256609   4.409  10.021   2.029
18787SOL     OW56610   4.194   3.213   0.132
18787SOL    HW156611   4.146   3.163   0.067
18787SOL    HW256612   4.157   3.301   0.126
18788SOL     OW56613  10.004   5.882   4.597
18788SOL    HW156614   9.969   5.957   4.549
18788SOL    HW256615  10.099   5.891   4.590
18789SOL     OW56616   4.299   5.638   4.809
18789SOL    HW156617   4.254   5.563   4.849
18789SOL    HW256618   4.228   5.692   4.774
18790SOL     OW56619   5.298  11.386   7.377
18790SOL    HW156620   5.362  11.388   7.305
18790SOL    HW256621   5.215  11.410   7.337
18791SOL     OW56622   8.058   3.972   5.124
18791SOL    HW156623   8.109   3.934   5.052
18791SOL    HW256624   8.000   3.901   5.153
18792SOL     OW56625  13.408   9.315   3.957
18792SOL    HW156626  13.406   9.373   3.881
18792SOL    HW256627  13.500   9.312   3.983
18793SOL     OW56628  11.220   4.399   4.697
18793SOL    HW156629  11.249   4.327   4.641
18793SOL    HW256630  11.280   4.471   4.677
18794SOL     OW56631   9.596   2.010   1.338
18794SOL    HW156632   9.587   2.059   1.256
18794SOL    HW256633   9.622   2.076   1.403
18795SOL     OW56634  12.106   9.598   6.743
18795SOL    HW156635  12.024   9.596   6.694
18795SOL    HW256636  12.151   9.677   6.712
18796SOL     OW56637   2.944   8.115   3.350
18796SOL    HW156638   2.854   8.122   3.316
18796SOL    HW256639   2.961   8.021   3.354
18797SOL     OW56640  11.485  12.743   6.365
18797SOL    HW156641  11.448  12.744   6.277
18797SOL    HW256642  11.441  12.671   6.409
18798SOL     OW56643   4.930  11.148   1.592
18798SOL    HW156644   4.960  11.120   1.506
18798SOL    HW256645   4.843  11.110   1.601
18799SOL     OW56646   8.844   6.396   2.139
18799SOL    HW156647   8.831   6.481   2.098
18799SOL    HW256648   8.869   6.338   2.067
18800SOL     OW56649  10.244  14.759   6.696
18800SOL    HW156650  10.170  14.767   6.756
18800SOL    HW256651  10.320  14.784   6.749
18801SOL     OW56652   5.577  10.519   2.269
18801SOL    HW156653   5.636  10.546   2.199
18801SOL    HW256654   5.526  10.597   2.289
18802SOL     OW56655   6.722   4.021   3.826
18802SOL    HW156656   6.687   4.100   3.785
18802SOL    HW256657   6.812   4.043   3.847
18803SOL     OW56658  13.091  10.141   4.074
18803SOL    HW156659  13.111  10.078   4.005
18803SOL    HW256660  13.121  10.225   4.040
18804SOL     OW56661   3.801   9.009   0.754
18804SOL    HW156662   3.730   8.960   0.714
18804SOL    HW256663   3.868   8.943   0.774
18805SOL     OW56664  11.702  14.532   7.184
18805SOL    HW156665  11.732  14.577   7.262
18805SOL    HW256666  11.641  14.465   7.216
18806SOL     OW56667   7.741   1.526   0.504
18806SOL    HW156668   7.718   1.538   0.412
18806SOL    HW256669   7.815   1.584   0.519
18807SOL     OW56670   9.989  14.472   7.118
18807SOL    HW156671   9.941  14.404   7.070
18807SOL    HW256672  10.024  14.427   7.194
18808SOL     OW56673   1.700   4.367   0.455
18808SOL    HW156674   1.627   4.375   0.516
18808SOL    HW256675   1.730   4.277   0.465
18809SOL     OW56676   9.605   4.529   1.237
18809SOL    HW156677   9.546   4.475   1.185
18809SOL    HW256678   9.684   4.475   1.247
18810SOL     OW56679  12.753  11.855   4.985
18810SOL    HW156680  12.772  11.936   4.937
18810SOL    HW256681  12.750  11.788   4.917
18811SOL     OW56682  10.103  15.368   7.093
18811SOL    HW156683  10.042  15.357   7.166
18811SOL    HW256684  10.076  15.450   7.052
18812SOL     OW56685   8.380  11.055   1.615
18812SOL    HW156686   8.372  11.011   1.700
18812SOL    HW256687   8.473  11.049   1.594
18813SOL     OW56688   6.780  14.577   6.989
18813SOL    HW156689   6.691  14.610   6.998
18813SOL    HW256690   6.827  14.615   7.064
18814SOL     OW56691  12.615   8.983   5.564
18814SOL    HW156692  12.688   8.921   5.572
18814SOL    HW256693  12.655   9.063   5.530
18815SOL     OW56694  10.226   8.464   3.492
18815SOL    HW156695  10.158   8.468   3.559
18815SOL    HW256696  10.283   8.392   3.519
18816SOL     OW56697  10.235  10.969   0.394
18816SOL    HW156698  10.193   0.252   0.331
18816SOL    HW256699  10.169  10.903   0.415
18817SOL     OW56700   8.506   0.264   0.103
18817SOL    HW156701   8.426   0.288   0.056
18817SOL    HW256702   8.527   0.176   0.073
18818SOL     OW56703   7.985   5.852   1.156
18818SOL    HW156704   8.004   5.849   1.063
18818SOL    HW256705   7.908   5.908   1.164
18819SOL     OW56706   5.940   4.283   2.992
18819SOL    HW156707   6.019   4.336   3.008
18819SOL    HW256708   5.937   4.222   3.066
18820SOL     OW56709   5.479   7.692   5.255
18820SOL    HW156710   5.483   7.695   5.350
18820SOL    HW256711   5.526   7.612   5.231
18821SOL     OW56712   8.159   5.928   1.444
18821SOL    HW156713   8.249   5.933   1.475
18821SOL    HW256714   8.164   5.952   1.352
18822SOL     OW56715   4.734   5.496   1.956
18822SOL    HW156716   4.756   5.578   1.911
18822SOL    HW256717   4.751   5.514   2.048
18823SOL     OW56718   0.415   7.345   0.353
18823SOL    HW156719   0.431   7.254   0.379
18823SOL    HW256720   0.349   7.338   0.284
18824SOL     OW56721   9.173   9.762   1.275
18824SOL    HW156722   9.230   9.836   1.253
18824SOL    HW256723   9.132   9.738   1.192
18825SOL     OW56724   6.903  12.903   4.495
18825SOL    HW156725   6.921  12.952   4.575
18825SOL    HW256726   6.818  12.862   4.510
18826SOL     OW56727  10.892   2.871   1.939
18826SOL    HW156728  10.882   2.962   1.964
18826SOL    HW256729  10.829   2.824   1.994
18827SOL     OW56730   2.035   6.310   0.954
18827SOL    HW156731   2.035   6.215   0.948
18827SOL    HW256732   2.128   6.334   0.955
18828SOL     OW56733   9.897   9.977   3.602
18828SOL    HW156734   9.946  10.023   3.533
18828SOL    HW256735   9.844  10.046   3.643
18829SOL     OW56736  14.728   9.155   7.288
18829SOL    HW156737  14.767   9.141   7.374
18829SOL    HW256738  14.727   9.250   7.278
18830SOL     OW56739   6.475   4.435   4.093
18830SOL    HW156740   6.460   4.344   4.068
18830SOL    HW256741   6.509   4.477   4.014
18831SOL     OW56742   9.359   5.612   6.041
18831SOL    HW156743   9.397   5.570   5.963
18831SOL    HW256744   9.295   5.548   6.073
18832SOL     OW56745   5.742  14.064   5.070
18832SOL    HW156746   5.783  14.147   5.093
18832SOL    HW256747   5.779  14.000   5.130
18833SOL     OW56748   2.640   8.632   0.283
18833SOL    HW156749   2.619   8.558   0.225
18833SOL    HW256750   2.565   8.636   0.344
18834SOL     OW56751   2.605   8.998   2.963
18834SOL    HW156752   2.588   9.079   3.010
18834SOL    HW256753   2.611   8.931   3.031
18835SOL     OW56754   2.118   5.709   1.383
18835SOL    HW156755   2.094   5.795   1.350
18835SOL    HW256756   2.041   5.654   1.366
18836SOL     OW56757   6.533  10.885   1.524
18836SOL    HW156758   6.516  10.882   1.429
18836SOL    HW256759   6.573  10.801   1.543
18837SOL     OW56760  11.467   3.878   3.348
18837SOL    HW156761  11.392   3.827   3.318
18837SOL    HW256762  11.543   3.832   3.311
18838SOL     OW56763  12.340  12.522   5.527
18838SOL    HW156764  12.357  12.497   5.436
18838SOL    HW256765  12.277  12.595   5.520
18839SOL     OW56766   6.809  15.133   6.380
18839SOL    HW156767   6.754  15.208   6.356
18839SOL    HW256768   6.771  15.059   6.332
18840SOL     OW56769   4.303   6.558   2.219
18840SOL    HW156770   4.309   6.613   2.297
18840SOL    HW256771   4.282   6.620   2.149
18841SOL     OW56772   5.424  10.890   1.367
18841SOL    HW156773   5.437  10.796   1.361
18841SOL    HW256774   5.367  10.912   1.294
18842SOL     OW56775   6.260  13.170   4.943
18842SOL    HW156776   6.330  13.232   4.923
18842SOL    HW256777   6.305  13.088   4.962
18843SOL     OW56778   7.950   4.491   4.665
18843SOL    HW156779   7.884   4.469   4.599
18843SOL    HW256780   7.947   4.587   4.670
18844SOL     OW56781   1.678   4.463   1.559
18844SOL    HW156782   1.643   4.379   1.530
18844SOL    HW256783   1.772   4.456   1.545
18845SOL     OW56784   6.405   9.284   6.721
18845SOL    HW156785   6.311   9.285   6.704
18845SOL    HW256786   6.419   9.357   6.782
18846SOL     OW56787  11.504   9.074   7.196
18846SOL    HW156788  11.470   8.985   7.193
18846SOL    HW256789  11.470   9.110   7.278
18847SOL     OW56790   4.078  10.282   4.035
18847SOL    HW156791   4.132  10.356   4.063
18847SOL    HW256792   3.988  10.315   4.040
18848SOL     OW56793   6.323   8.307   2.653
18848SOL    HW156794   6.325   8.288   2.559
18848SOL    HW256795   6.306   8.222   2.694
18849SOL     OW56796  10.576   6.064   7.453
18849SOL    HW156797  10.524   5.984   7.459
18849SOL    HW256798  10.641   6.055   7.523
18850SOL     OW56799   3.706   9.236   4.682
18850SOL    HW156800   3.798   9.264   4.688
18850SOL    HW256801   3.711   9.141   4.674
18851SOL     OW56802   3.653   1.658   0.638
18851SOL    HW156803   3.597   1.585   0.612
18851SOL    HW256804   3.632   1.728   0.576
18852SOL     OW56805   7.473   6.223   5.474
18852SOL    HW156806   7.424   6.183   5.402
18852SOL    HW256807   7.537   6.157   5.498
18853SOL     OW56808   4.713   5.095   0.086
18853SOL    HW156809   4.769   5.071   0.012
18853SOL    HW256810   4.773   5.116   0.157
18854SOL     OW56811  12.122  12.009   2.622
18854SOL    HW156812  12.208  12.006   2.664
18854SOL    HW256813  12.141  12.011   2.528
18855SOL     OW56814   3.747   3.121   2.666
18855SOL    HW156815   3.782   3.043   2.622
18855SOL    HW256816   3.664   3.138   2.622
18856SOL     OW56817  12.610   4.145   4.079
18856SOL    HW156818  12.602   4.074   4.143
18856SOL    HW256819  12.568   4.111   4.000
18857SOL     OW56820  13.370  12.692   4.257
18857SOL    HW156821  13.327  12.699   4.342
18857SOL    HW256822  13.299  12.678   4.195
18858SOL     OW56823  11.002  16.115   7.597
18858SOL    HW156824   5.662  10.736   0.061
18858SOL    HW256825  10.991   5.430   7.566
18859SOL     OW56826   0.948   8.152   0.920
18859SOL    HW156827   1.002   8.075   0.903
18859SOL    HW256828   0.991   8.223   0.872
18860SOL     OW56829  14.905  11.195   6.504
18860SOL    HW156830  14.860  11.226   6.582
18860SOL    HW256831  14.873  11.106   6.491
18861SOL     OW56832   6.934  10.553   2.727
18861SOL    HW156833   7.018  10.545   2.682
18861SOL    HW256834   6.876  10.595   2.663
18862SOL     OW56835   7.820   2.645   1.487
18862SOL    HW156836   7.799   2.732   1.452
18862SOL    HW256837   7.908   2.655   1.524
18863SOL     OW56838  12.848  11.581   5.239
18863SOL    HW156839  12.839  11.578   5.334
18863SOL    HW256840  12.759  11.568   5.206
18864SOL     OW56841  10.656   2.607   1.628
18864SOL    HW156842  10.604   2.609   1.708
18864SOL    HW256843  10.610   2.667   1.569
18865SOL     OW56844   4.622   4.071   2.477
18865SOL    HW156845   4.571   3.993   2.501
18865SOL    HW256846   4.709   4.038   2.455
18866SOL     OW56847   7.308   3.296   2.050
18866SOL    HW156848   7.282   3.273   2.139
18866SOL    HW256849   7.393   3.340   2.061
18867SOL     OW56850   6.544  13.870   6.783
18867SOL    HW156851   6.465  13.921   6.802
18867SOL    HW256852   6.551  13.872   6.688
18868SOL     OW56853   7.576   4.623   3.128
18868SOL    HW156854   7.655   4.672   3.150
18868SOL    HW256855   7.585   4.540   3.175
18869SOL     OW56856   9.172   0.672   0.392
18869SOL    HW156857   9.079   0.677   0.367
18869SOL    HW256858   9.174   0.607   0.462
18870SOL     OW56859   1.991  10.242   1.094
18870SOL    HW156860   2.066  10.183   1.090
18870SOL    HW256861   1.956  10.231   1.182
18871SOL     OW56862   6.759   6.141   0.608
18871SOL    HW156863   6.665   6.126   0.596
18871SOL    HW256864   6.765   6.230   0.643
18872SOL     OW56865  10.634   9.884   5.860
18872SOL    HW156866  10.693   9.934   5.802
18872SOL    HW256867  10.595   9.818   5.803
18873SOL     OW56868  15.039  13.892   6.079
18873SOL    HW156869  14.946  13.909   6.093
18873SOL    HW256870   4.283  13.927   5.992
18874SOL     OW56871  11.803  11.193   4.226
18874SOL    HW156872  11.814  11.167   4.134
18874SOL    HW256873  11.852  11.127   4.275
18875SOL     OW56874  10.677   8.648   0.570
18875SOL    HW156875  10.635   8.584   0.513
18875SOL    HW256876  10.646   8.627   0.658
18876SOL     OW56877   8.804   5.564   0.845
18876SOL    HW156878   8.770   5.560   0.756
18876SOL    HW256879   8.896   5.590   0.835
18877SOL     OW56880   9.482   9.435   5.025
18877SOL    HW156881   9.514   9.403   4.941
18877SOL    HW256882   9.559   9.431   5.083
18878SOL     OW56883   3.354   5.669   1.137
18878SOL    HW156884   3.274   5.684   1.086
18878SOL    HW256885   3.389   5.757   1.153
18879SOL     OW56886   7.247   8.381   3.815
18879SOL    HW156887   7.296   8.321   3.759
18879SOL    HW256888   7.215   8.325   3.887
18880SOL     OW56889  12.956  12.761   3.283
18880SOL    HW156890  12.868  12.748   3.248
18880SOL    HW256891  12.956  12.851   3.315
18881SOL     OW56892   4.936   3.202   0.867
18881SOL    HW156893   4.923   3.179   0.775
18881SOL    HW256894   4.851   3.190   0.908
18882SOL     OW56895  15.664   6.549   7.301
18882SOL    HW156896  15.636   6.615   7.364
18882SOL    HW256897  15.660   6.593   7.216
18883SOL     OW56898   8.853   9.243   7.481
18883SOL    HW156899   8.830   9.279   7.567
18883SOL    HW256900   8.915   9.307   7.445
18884SOL     OW56901   9.016   6.236   3.088
18884SOL    HW156902   9.015   6.284   3.171
18884SOL    HW256903   8.924   6.234   3.061
18885SOL     OW56904   5.445   7.351   6.327
18885SOL    HW156905   5.378   7.293   6.292
18885SOL    HW256906   5.504   7.367   6.253
18886SOL     OW56907   7.877   8.193   2.195
18886SOL    HW156908   7.962   8.225   2.223
18886SOL    HW256909   7.822   8.271   2.190
18887SOL     OW56910   4.153  11.137   4.600
18887SOL    HW156911   4.192  11.217   4.566
18887SOL    HW256912   4.103  11.165   4.676
18888SOL     OW56913  12.898   4.837   4.631
18888SOL    HW156914  12.817   4.864   4.589
18888SOL    HW256915  12.877   4.835   4.725
18889SOL     OW56916  14.742  15.286   6.871
18889SOL    HW156917  14.743  15.204   6.822
18889SOL    HW256918  14.741  15.259   6.963
18890SOL     OW56919   3.615  12.279   3.651
18890SOL    HW156920   3.624  12.372   3.632
18890SOL    HW256921   3.691  12.239   3.609
18891SOL     OW56922   1.414  11.447   1.031
18891SOL    HW156923   1.332  11.409   1.064
18891SOL    HW256924   1.438  11.513   1.096
18892SOL     OW56925  11.605  11.088   6.954
18892SOL    HW156926  11.627  11.069   7.045
18892SOL    HW256927  11.626  11.180   6.942
18893SOL     OW56928   4.086  11.985   3.656
18893SOL    HW156929   4.061  11.992   3.748
18893SOL    HW256930   4.090  12.075   3.625
18894SOL     OW56931   7.738   2.449   1.338
18894SOL    HW156932   7.730   2.487   1.251
18894SOL    HW256933   7.758   2.522   1.396
18895SOL     OW56934  13.694   8.669   5.350
18895SOL    HW156935  13.686   8.582   5.389
18895SOL    HW256936  13.684   8.654   5.256
18896SOL     OW56937   4.086   7.319   4.429
18896SOL    HW156938   4.117   7.235   4.395
18896SOL    HW256939   4.132   7.385   4.377
18897SOL     OW56940  12.993   9.538   6.491
18897SOL    HW156941  12.923   9.555   6.427
18897SOL    HW256942  13.035   9.623   6.503
18898SOL     OW56943   5.491   8.673   3.178
18898SOL    HW156944   5.484   8.706   3.267
18898SOL    HW256945   5.457   8.584   3.182
18899SOL     OW56946   5.708   7.930   7.229
18899SOL    HW156947   5.698   7.836   7.247
18899SOL    HW256948   5.618   7.962   7.222
18900SOL     OW56949   2.660   3.328   2.795
18900SOL    HW156950   2.747   3.303   2.763
18900SOL    HW256951   2.660   3.301   2.887
18901SOL     OW56952   7.963   7.665   3.998
18901SOL    HW156953   8.055   7.664   3.972
18901SOL    HW256954   7.925   7.737   3.948
18902SOL     OW56955   5.206   9.818   5.362
18902SOL    HW156956   5.194   9.903   5.319
18902SOL    HW256957   5.253   9.765   5.298
18903SOL     OW56958   4.757   5.667   0.769
18903SOL    HW156959   4.817   5.608   0.815
18903SOL    HW256960   4.723   5.725   0.837
18904SOL     OW56961  11.431   4.569   1.790
18904SOL    HW156962  11.382   4.487   1.790
18904SOL    HW256963  11.429   4.598   1.698
18905SOL     OW56964   2.897   8.270   2.059
18905SOL    HW156965   2.944   8.193   2.091
18905SOL    HW256966   2.824   8.234   2.009
18906SOL     OW56967  13.946  10.874   5.169
18906SOL    HW156968  13.855  10.861   5.196
18906SOL    HW256969  13.977  10.946   5.223
18907SOL     OW56970  13.341   7.094   5.441
18907SOL    HW156971  13.424   7.072   5.484
18907SOL    HW256972  13.357   7.080   5.348
18908SOL     OW56973   1.626   4.689   1.411
18908SOL    HW156974   1.653   4.758   1.472
18908SOL    HW256975   1.648   4.607   1.455
18909SOL     OW56976   4.176   7.216   3.909
18909SOL    HW156977   4.265   7.249   3.894
18909SOL    HW256978   4.120   7.284   3.872
18910SOL     OW56979  12.133   3.743   2.961
18910SOL    HW156980  12.169   3.802   3.028
18910SOL    HW256981  12.061   3.793   2.922
18911SOL     OW56982   7.190  11.785   5.406
18911SOL    HW156983   7.247  11.786   5.329
18911SOL    HW256984   7.102  11.796   5.370
18912SOL     OW56985   3.567   9.431   4.009
18912SOL    HW156986   3.499   9.499   4.004
18912SOL    HW256987   3.519   9.349   4.009
18913SOL     OW56988  13.122   5.694   5.790
18913SOL    HW156989  13.094   5.634   5.720
18913SOL    HW256990  13.209   5.664   5.814
18914SOL     OW56991  13.341  15.278   7.475
18914SOL    HW156992  13.286  15.330   7.416
18914SOL    HW256993  13.417  15.253   7.423
18915SOL     OW56994  11.157  12.593   6.357
18915SOL    HW156995  11.194  12.660   6.416
18915SOL    HW256996  11.211  12.515   6.373
18916SOL     OW56997   6.572   7.450   2.199
18916SOL    HW156998   6.632   7.489   2.263
18916SOL    HW256999   6.630   7.404   2.138
18917SOL     OW57000   3.107  11.509   3.209
18917SOL    HW157001   3.108  11.545   3.298
18917SOL    HW257002   3.139  11.419   3.220
18918SOL     OW57003  14.065   8.172   5.299
18918SOL    HW157004  14.114   8.231   5.356
18918SOL    HW257005  14.039   8.227   5.225
18919SOL     OW57006  12.103  10.740   6.986
18919SOL    HW157007  12.099  10.660   6.934
18919SOL    HW257008  12.129  10.808   6.924
18920SOL     OW57009  11.096  11.783   4.686
18920SOL    HW157010  11.016  11.810   4.730
18920SOL    HW257011  11.153  11.752   4.757
18921SOL     OW57012  13.965  13.877   7.256
18921SOL    HW157013  13.985  13.903   7.346
18921SOL    HW257014  13.955  13.782   7.260
18922SOL     OW57015   6.703   7.653   3.869
18922SOL    HW157016   6.658   7.665   3.786
18922SOL    HW257017   6.633   7.653   3.935
18923SOL     OW57018   5.271   7.147   6.349
18923SOL    HW157019   5.302   7.146   6.440
18923SOL    HW257020   5.187   7.192   6.354
18924SOL     OW57021  11.362   8.911   4.098
18924SOL    HW157022  11.320   8.889   4.014
18924SOL    HW257023  11.383   9.004   4.090
18925SOL     OW57024  14.851  11.541   6.369
18925SOL    HW157025  14.817  11.606   6.430
18925SOL    HW257026  14.803  11.555   6.288
18926SOL     OW57027  10.796   9.572   6.187
18926SOL    HW157028  10.798   9.602   6.096
18926SOL    HW257029  10.870   9.616   6.228
18927SOL     OW57030  12.169   8.671   2.203
18927SOL    HW157031  12.162   8.665   2.108
18927SOL    HW257032  12.079   8.687   2.233
18928SOL     OW57033  10.169  11.624   5.463
18928SOL    HW157034  10.117  11.556   5.506
18928SOL    HW257035  10.164  11.602   5.370
18929SOL     OW57036   8.381   3.888   1.204
18929SOL    HW157037   8.309   3.905   1.264
18929SOL    HW257038   8.342   3.898   1.117
18930SOL     OW57039   8.614   4.436   2.044
18930SOL    HW157040   8.575   4.363   1.995
18930SOL    HW257041   8.615   4.406   2.135
18931SOL     OW57042   9.132   4.783   3.116
18931SOL    HW157043   9.044   4.789   3.077
18931SOL    HW257044   9.150   4.689   3.117
18932SOL     OW57045   8.610  10.094   6.104
18932SOL    HW157046   8.627  10.150   6.180
18932SOL    HW257047   8.628  10.151   6.029
18933SOL     OW57048   9.424   8.342   6.053
18933SOL    HW157049   9.457   8.359   6.141
18933SOL    HW257050   9.501   8.345   5.997
18934SOL     OW57051  11.781   7.426   1.883
18934SOL    HW157052  11.812   7.446   1.795
18934SOL    HW257053  11.794   7.331   1.891
18935SOL     OW57054   2.398   8.028   2.582
18935SOL    HW157055   2.345   8.103   2.608
18935SOL    HW257056   2.483   8.042   2.624
18936SOL     OW57057  14.104   9.973   6.150
18936SOL    HW157058  14.097  10.036   6.222
18936SOL    HW257059  14.067  10.019   6.075
18937SOL     OW57060   6.096   4.553   2.765
18937SOL    HW157061   6.078   4.621   2.700
18937SOL    HW257062   6.121   4.476   2.713
18938SOL     OW57063   7.729  11.985   4.244
18938SOL    HW157064   7.753  12.000   4.153
18938SOL    HW257065   7.783  12.047   4.294
18939SOL     OW57066   5.581   5.180   1.541
18939SOL    HW157067   5.584   5.229   1.624
18939SOL    HW257068   5.667   5.196   1.501
18940SOL     OW57069   2.760   8.770   2.397
18940SOL    HW157070   2.743   8.832   2.326
18940SOL    HW257071   2.790   8.824   2.470
18941SOL     OW57072   1.823   5.880   0.589
18941SOL    HW157073   1.871   5.800   0.565
18941SOL    HW257074   1.882   5.926   0.649
18942SOL     OW57075  12.679   6.087   3.701
18942SOL    HW157076  12.597   6.128   3.728
18942SOL    HW257077  12.724   6.155   3.651
18943SOL     OW57078   4.848   4.654   0.632
18943SOL    HW157079   4.808   4.735   0.600
18943SOL    HW257080   4.805   4.637   0.716
18944SOL     OW57081   7.892   4.871   4.235
18944SOL    HW157082   7.843   4.953   4.236
18944SOL    HW257083   7.827   4.804   4.213
18945SOL     OW57084  12.093   6.766   7.571
18945SOL    HW157085  12.183   6.745   7.548
18945SOL    HW257086   6.687   1.324   0.029
18946SOL     OW57087   2.233   8.585   3.103
18946SOL    HW157088  12.980   8.608   3.192
18946SOL    HW257089   2.304   8.646   3.083
18947SOL     OW57090   9.421   1.910   1.709
18947SOL    HW157091   9.459   1.997   1.727
18947SOL    HW257092   9.355   1.926   1.642
18948SOL     OW57093   9.205  10.826   4.200
18948SOL    HW157094   9.113  10.818   4.225
18948SOL    HW257095   9.253  10.820   4.283
18949SOL     OW57096   6.510   4.443   4.353
18949SOL    HW157097   6.540   4.519   4.403
18949SOL    HW257098   6.518   4.469   4.262
18950SOL     OW57099  13.701   5.028   5.503
18950SOL    HW157100  13.689   4.966   5.432
18950SOL    HW257101  13.793   5.016   5.529
18951SOL     OW57102   8.362   5.911   7.543
18951SOL    HW157103   8.378   5.822   7.512
18951SOL    HW257104   8.285   5.940   7.494
18952SOL     OW57105   9.228   8.311   7.097
18952SOL    HW157106   9.140   8.318   7.135
18952SOL    HW257107   9.213   8.303   7.003
18953SOL     OW57108   8.669   8.749   5.112
18953SOL    HW157109   8.741   8.812   5.116
18953SOL    HW257110   8.603   8.791   5.058
18954SOL     OW57111   6.269   2.441   3.446
18954SOL    HW157112   6.293   2.388   3.371
18954SOL    HW257113   6.181   2.473   3.426
18955SOL     OW57114  13.622  12.965   4.528
18955SOL    HW157115  13.626  13.048   4.480
18955SOL    HW257116  13.643  12.898   4.463
18956SOL     OW57117  13.311  13.957   6.770
18956SOL    HW157118  13.316  13.921   6.859
18956SOL    HW257119  13.218  13.975   6.757
18957SOL     OW57120   5.256   9.495   6.894
18957SOL    HW157121   5.175   9.448   6.914
18957SOL    HW257122   5.310   9.432   6.847
18958SOL     OW57123   5.967  10.359   6.791
18958SOL    HW157124   6.047  10.343   6.841
18958SOL    HW257125   5.896  10.352   6.855
18959SOL     OW57126  10.790   8.732   0.302
18959SOL    HW157127  10.706   8.718   0.346
18959SOL    HW257128  10.852   8.746   0.373
18960SOL     OW57129   5.765   8.723   2.035
18960SOL    HW157130   5.792   8.632   2.046
18960SOL    HW257131   5.712   8.741   2.113
18961SOL     OW57132   6.189   4.920   2.108
18961SOL    HW157133   6.201   4.826   2.124
18961SOL    HW257134   6.278   4.955   2.107
18962SOL     OW57135  11.258  11.881   2.952
18962SOL    HW157136  11.227  11.881   2.862
18962SOL    HW257137  11.350  11.857   2.946
18963SOL     OW57138   8.294   7.860   7.566
18963SOL    HW157139   8.221   7.803   7.588
18963SOL    HW257140   8.264   7.909   7.489
18964SOL     OW57141   8.519   9.539   5.834
18964SOL    HW157142   8.547   9.628   5.851
18964SOL    HW257143   8.531   9.493   5.917
18965SOL     OW57144  12.209   4.509   2.536
18965SOL    HW157145  12.120   4.508   2.569
18965SOL    HW257146  12.254   4.576   2.589
18966SOL     OW57147   1.425   0.978   0.002
18966SOL    HW157148   1.486   0.906   0.018
18966SOL    HW257149   1.411   1.018   0.087
18967SOL     OW57150   8.004   8.478   3.010
18967SOL    HW157151   8.019   8.467   2.916
18967SOL    HW257152   8.065   8.417   3.051
18968SOL     OW57153   0.820   4.787   1.107
18968SOL    HW157154   0.821   4.696   1.137
18968SOL    HW257155   0.851   4.837   1.182
18969SOL     OW57156   4.954   0.475   0.085
18969SOL    HW157157  10.386   5.867   7.619
18969SOL    HW257158   4.905   0.393   0.082
18970SOL     OW57159   9.608   5.008   0.872
18970SOL    HW157160   9.688   4.964   0.898
18970SOL    HW257161   9.638   5.089   0.830
18971SOL     OW57162  11.854  12.601   6.405
18971SOL    HW157163  11.848  12.574   6.313
18971SOL    HW257164  11.767  12.632   6.426
18972SOL     OW57165  11.107   3.952   4.262
18972SOL    HW157166  11.049   3.970   4.337
18972SOL    HW257167  11.083   4.019   4.198
18973SOL     OW57168   6.302  11.534   7.352
18973SOL    HW157169   6.364  11.471   7.387
18973SOL    HW257170   6.229  11.533   7.414
18974SOL     OW57171   6.639   6.751   3.995
18974SOL    HW157172   6.550   6.773   4.021
18974SOL    HW257173   6.686   6.835   3.996
18975SOL     OW57174   4.647  11.495   3.219
18975SOL    HW157175   4.634  11.522   3.128
18975SOL    HW257176   4.715  11.554   3.252
18976SOL     OW57177   4.903  11.750   4.605
18976SOL    HW157178   4.903  11.734   4.700
18976SOL    HW257179   4.816  11.723   4.577
18977SOL     OW57180  13.649   5.973   4.849
18977SOL    HW157181  13.722   5.925   4.811
18977SOL    HW257182  13.675   6.065   4.841
18978SOL     OW57183   8.623   6.721   7.388
18978SOL    HW157184   8.532   6.748   7.376
18978SOL    HW257185   8.645   6.747   7.477
18979SOL     OW57186  10.161   9.559   1.172
18979SOL    HW157187  10.135   9.469   1.188
18979SOL    HW257188  10.249   9.566   1.209
18980SOL     OW57189  11.741  10.417   3.990
18980SOL    HW157190  11.807  10.369   4.040
18980SOL    HW257191  11.752  10.508   4.018
18981SOL     OW57192   8.577   2.754   1.186
18981SOL    HW157193   8.499   2.809   1.183
18981SOL    HW257194   8.587   2.732   1.279
18982SOL     OW57195   4.623   7.429   2.829
18982SOL    HW157196   4.550   7.467   2.780
18982SOL    HW257197   4.615   7.467   2.917
18983SOL     OW57198   5.992  12.847   5.244
18983SOL    HW157199   5.984  12.869   5.151
18983SOL    HW257200   6.071  12.893   5.273
18984SOL     OW57201   6.946   6.747   7.423
18984SOL    HW157202   6.919   6.679   7.484
18984SOL    HW257203   6.882   6.817   7.435
18985SOL     OW57204   3.772   9.727   2.635
18985SOL    HW157205   3.837   9.710   2.704
18985SOL    HW257206   3.790   9.660   2.568
18986SOL     OW57207   4.423   9.309   3.426
18986SOL    HW157208   4.405   9.336   3.336
18986SOL    HW257209   4.370   9.230   3.438
18987SOL     OW57210  11.641  11.393   6.200
18987SOL    HW157211  11.726  11.355   6.219
18987SOL    HW257212  11.603  11.335   6.134
18988SOL     OW57213  10.283   9.802   4.131
18988SOL    HW157214  10.255   9.722   4.087
18988SOL    HW257215  10.226   9.870   4.095
18989SOL     OW57216   2.634  12.291   3.135
18989SOL    HW157217   2.614  12.288   3.041
18989SOL    HW257218   2.612  12.380   3.162
18990SOL     OW57219   5.320  10.392   4.608
18990SOL    HW157220   5.400  10.439   4.586
18990SOL    HW257221   5.318  10.393   4.704
18991SOL     OW57222   5.911   2.372   3.065
18991SOL    HW157223   5.922   2.371   2.970
18991SOL    HW257224   5.830   2.420   3.079
18992SOL     OW57225  13.663  12.823   7.368
18992SOL    HW157226  13.587  12.880   7.361
18992SOL    HW257227  13.688  12.827   7.461
18993SOL     OW57228   8.320   8.742   6.019
18993SOL    HW157229   8.335   8.738   6.114
18993SOL    HW257230   8.396   8.789   5.985
18994SOL     OW57231   7.200   7.644   7.450
18994SOL    HW157232   7.274   7.590   7.421
18994SOL    HW257233   7.166   7.684   7.370
18995SOL     OW57234  10.491  10.871   2.428
18995SOL    HW157235  10.510  10.798   2.487
18995SOL    HW257236  10.432  10.928   2.477
18996SOL     OW57237   9.430   9.201   6.191
18996SOL    HW157238   9.345   9.156   6.197
18996SOL    HW257239   9.471   9.164   6.113
18997SOL     OW57240   4.141   5.316   0.193
18997SOL    HW157241   4.136   5.298   0.287
18997SOL    HW257242   4.175   5.235   0.155
18998SOL     OW57243   4.341   8.425   1.827
18998SOL    HW157244   4.340   8.418   1.732
18998SOL    HW257245   4.433   8.423   1.851
18999SOL     OW57246  11.821  13.087   6.891
18999SOL    HW157247  11.752  13.079   6.827
18999SOL    HW257248  11.902  13.089   6.840
19000SOL     OW57249   5.853   1.684   0.211
19000SOL    HW157250   5.943   1.685   0.243
19000SOL    HW257251   5.839   1.772   0.177
19001SOL     OW57252   4.963   6.090   2.001
19001SOL    HW157253   5.002   6.030   1.937
19001SOL    HW257254   4.968   6.043   2.084
19002SOL     OW57255   8.881   8.814   4.352
19002SOL    HW157256   8.908   8.728   4.321
19002SOL    HW257257   8.827   8.797   4.429
19003SOL     OW57258   3.901   4.346   3.286
19003SOL    HW157259   3.922   4.304   3.369
19003SOL    HW257260   3.830   4.407   3.308
19004SOL     OW57261   4.473   4.593   4.507
19004SOL    HW157262   4.569   4.586   4.515
19004SOL    HW257263   4.456   4.686   4.495
19005SOL     OW57264  11.646  12.786   7.267
19005SOL    HW157265  11.609  12.717   7.212
19005SOL    HW257266  11.692  12.843   7.205
19006SOL     OW57267   9.083  13.356   5.913
19006SOL    HW157268   9.084  13.415   5.837
19006SOL    HW257269   9.014  13.391   5.969
19007SOL     OW57270   8.740  10.992   2.612
19007SOL    HW157271   8.824  10.954   2.585
19007SOL    HW257272   8.752  11.013   2.705
19008SOL     OW57273   6.628   3.648   1.041
19008SOL    HW157274   6.638   3.601   0.959
19008SOL    HW257275   6.559   3.601   1.088
19009SOL     OW57276   7.310   9.787   1.205
19009SOL    HW157277   7.357   9.798   1.122
19009SOL    HW257278   7.347   9.707   1.242
19010SOL     OW57279   9.189  13.129   5.263
19010SOL    HW157280   9.191  13.098   5.354
19010SOL    HW257281   9.126  13.073   5.219
19011SOL     OW57282   5.566   9.707   5.042
19011SOL    HW157283   5.478   9.669   5.052
19011SOL    HW257284   5.616   9.670   5.115
19012SOL     OW57285   5.900   9.688   7.330
19012SOL    HW157286   5.927   9.630   7.402
19012SOL    HW257287   5.805   9.678   7.326
19013SOL     OW57288   7.433   5.001   2.897
19013SOL    HW157289   7.425   4.938   2.825
19013SOL    HW257290   7.444   5.086   2.855
19014SOL     OW57291   4.010  10.188   4.695
19014SOL    HW157292   4.081  10.252   4.706
19014SOL    HW257293   4.055  10.103   4.693
19015SOL     OW57294   5.236   9.897   0.741
19015SOL    HW157295   5.321   9.868   0.711
19015SOL    HW257296   5.175   9.830   0.711
19016SOL     OW57297   4.910   8.445   6.127
19016SOL    HW157298   4.858   8.432   6.206
19016SOL    HW257299   4.942   8.358   6.105
19017SOL     OW57300  12.676  10.124   6.694
19017SOL    HW157301  12.648  10.145   6.605
19017SOL    HW257302  12.603  10.076   6.732
19018SOL     OW57303  11.149   4.842   4.279
19018SOL    HW157304  11.129   4.832   4.373
19018SOL    HW257305  11.064   4.832   4.236
19019SOL     OW57306   9.589  11.479   5.779
19019SOL    HW157307   9.604  11.404   5.836
19019SOL    HW257308   9.499  11.468   5.747
19020SOL     OW57309   4.789   1.966   0.890
19020SOL    HW157310   4.884   1.951   0.886
19020SOL    HW257311   4.773   2.032   0.823
19021SOL     OW57312   9.950   1.917   1.882
19021SOL    HW157313   9.883   1.984   1.869
19021SOL    HW257314   9.923   1.871   1.961
19022SOL     OW57315   8.545   9.053   1.049
19022SOL    HW157316   8.609   9.026   0.984
19022SOL    HW257317   8.596   9.099   1.116
19023SOL     OW57318  11.891  10.061   2.031
19023SOL    HW157319  11.841  10.002   1.974
19023SOL    HW257320  11.982  10.032   2.021
19024SOL     OW57321   0.457   5.818   0.022
19024SOL    HW157322   0.455   5.908   0.055
19024SOL    HW257323   0.377   5.779   0.056
19025SOL     OW57324  11.027  12.291   2.798
19025SOL    HW157325  11.042  12.217   2.856
19025SOL    HW257326  11.083  12.273   2.722
19026SOL     OW57327  12.646   3.705   5.084
19026SOL    HW157328  12.685   3.622   5.112
19026SOL    HW257329  12.710   3.772   5.107
19027SOL     OW57330   6.500   4.294   1.233
19027SOL    HW157331   6.563   4.243   1.284
19027SOL    HW257332   6.539   4.381   1.226
19028SOL     OW57333  11.396   2.164   2.569
19028SOL    HW157334  11.472   2.213   2.538
19028SOL    HW257335  11.321   2.217   2.540
19029SOL     OW57336   6.374  13.591   4.655
19029SOL    HW157337   6.279  13.581   4.646
19029SOL    HW257338   6.405  13.505   4.683
19030SOL     OW57339   8.290   2.765   0.505
19030SOL    HW157340   8.316   2.801   0.590
19030SOL    HW257341   8.272   2.842   0.451
19031SOL     OW57342   7.027  13.592   5.138
19031SOL    HW157343   7.121  13.595   5.154
19031SOL    HW257344   7.007  13.676   5.097
19032SOL     OW57345   2.541  12.542   3.209
19032SOL    HW157346   2.587  12.573   3.287
19032SOL    HW257347   2.521  12.621   3.159
19033SOL     OW57348   7.170   6.759   4.641
19033SOL    HW157349   7.155   6.770   4.547
19033SOL    HW257350   7.147   6.667   4.658
19034SOL     OW57351   7.622  11.191   5.220
19034SOL    HW157352   7.660  11.278   5.232
19034SOL    HW257353   7.532  11.199   5.253
19035SOL     OW57354  13.245  13.191   4.101
19035SOL    HW157355  13.274  13.196   4.010
19035SOL    HW257356  13.306  13.131   4.143
19036SOL     OW57357  10.561   6.365   1.756
19036SOL    HW157358  10.620   6.296   1.725
19036SOL    HW257359  10.620   6.434   1.788
19037SOL     OW57360  10.641  12.534   4.992
19037SOL    HW157361  10.583  12.565   4.923
19037SOL    HW257362  10.729  12.550   4.959
19038SOL     OW57363   7.276  10.236   0.303
19038SOL    HW157364   7.228  10.156   0.320
19038SOL    HW257365   7.296  10.233   0.209
19039SOL     OW57366   6.055   6.334   3.532
19039SOL    HW157367   6.017   6.251   3.559
19039SOL    HW257368   5.984   6.381   3.488
19040SOL     OW57369   8.305   4.221   4.575
19040SOL    HW157370   8.339   4.193   4.490
19040SOL    HW257371   8.282   4.312   4.562
19041SOL     OW57372   9.331   5.557   2.973
19041SOL    HW157373   9.278   5.501   2.916
19041SOL    HW257374   9.379   5.614   2.913
19042SOL     OW57375   2.390   5.052   0.877
19042SOL    HW157376   2.332   5.013   0.942
19042SOL    HW257377   2.331   5.093   0.813
19043SOL     OW57378   4.176   1.573   0.233
19043SOL    HW157379   4.223   1.644   0.189
19043SOL    HW257380   4.094   1.612   0.261
19044SOL     OW57381   6.362   6.198   4.397
19044SOL    HW157382   6.310   6.122   4.372
19044SOL    HW257383   6.341   6.213   4.489
19045SOL     OW57384   4.266   1.573   0.728
19045SOL    HW157385   4.315   1.513   0.672
19045SOL    HW257386   4.228   1.636   0.667
19046SOL     OW57387   8.690   6.541   0.123
19046SOL    HW157388   8.614   6.483   0.115
19046SOL    HW257389   8.694   6.561   0.216
19047SOL     OW57390   6.715  10.277   6.750
19047SOL    HW157391   6.643  10.263   6.811
19047SOL    HW257392   6.707  10.369   6.725
19048SOL     OW57393  11.981   9.669   4.309
19048SOL    HW157394  11.989   9.650   4.402
19048SOL    HW257395  12.062   9.636   4.271
19049SOL     OW57396   4.990  12.190   4.125
19049SOL    HW157397   4.904  12.209   4.087
19049SOL    HW257398   4.986  12.228   4.213
19050SOL     OW57399  10.364  12.828   3.846
19050SOL    HW157400  10.380  12.916   3.881
19050SOL    HW257401  10.326  12.843   3.760
19051SOL     OW57402   1.582   6.636   0.741
19051SOL    HW157403   1.593   6.623   0.835
19051SOL    HW257404   1.492   6.608   0.724
19052SOL     OW57405  12.806   6.567   4.484
19052SOL    HW157406  12.719   6.564   4.443
19052SOL    HW257407  12.830   6.660   4.482
19053SOL     OW57408   4.813   7.638   3.940
19053SOL    HW157409   4.758   7.715   3.923
19053SOL    HW257410   4.796   7.617   4.031
19054SOL     OW57411   4.337   6.525   1.264
19054SOL    HW157412   4.404   6.458   1.259
19054SOL    HW257413   4.285   6.502   1.341
19055SOL     OW57414  15.075   7.111   6.095
19055SOL    HW157415  15.074   7.018   6.117
19055SOL    HW257416  14.985   7.140   6.110
19056SOL     OW57417  14.951  14.068   6.745
19056SOL    HW157418  15.010  14.088   6.817
19056SOL    HW257419  14.867  14.048   6.788
19057SOL     OW57420  13.978  12.563   6.156
19057SOL    HW157421  13.945  12.622   6.087
19057SOL    HW257422  14.072  12.580   6.159
19058SOL     OW57423  10.941  12.765   4.166
19058SOL    HW157424  11.035  12.751   4.177
19058SOL    HW257425  10.903  12.743   4.251
19059SOL     OW57426   6.922  10.532   4.574
19059SOL    HW157427   6.974  10.457   4.603
19059SOL    HW257428   6.853  10.493   4.519
19060SOL     OW57429  11.800   9.041   4.115
19060SOL    HW157430  11.866   8.972   4.116
19060SOL    HW257431  11.846   9.118   4.081
19061SOL     OW57432   9.031   9.969   2.179
19061SOL    HW157433   9.124   9.948   2.187
19061SOL    HW257434   8.986   9.886   2.199
19062SOL     OW57435  10.344   8.695   4.056
19062SOL    HW157436  10.313   8.742   3.979
19062SOL    HW257437  10.438   8.685   4.043
19063SOL     OW57438   5.579   7.846   2.923
19063SOL    HW157439   5.664   7.876   2.954
19063SOL    HW257440   5.568   7.888   2.837
19064SOL     OW57441  12.131   4.091   3.731
19064SOL    HW157442  12.065   4.110   3.664
19064SOL    HW257443  12.203   4.050   3.684
19065SOL     OW57444  10.279   8.492   6.865
19065SOL    HW157445  10.234   8.411   6.889
19065SOL    HW257446  10.352   8.498   6.926
19066SOL     OW57447  11.837   2.523   2.487
19066SOL    HW157448  11.782   2.456   2.528
19066SOL    HW257449  11.787   2.604   2.493
19067SOL     OW57450  10.969  11.928   3.510
19067SOL    HW157451  11.004  12.001   3.560
19067SOL    HW257452  11.046  11.887   3.470
19068SOL     OW57453   9.939  12.922   3.428
19068SOL    HW157454   9.854  12.912   3.470
19068SOL    HW257455   9.925  12.988   3.360
19069SOL     OW57456  13.227  14.172   5.574
19069SOL    HW157457  13.228  14.182   5.479
19069SOL    HW257458  13.134  14.181   5.598
19070SOL     OW57459   9.821  10.855   6.931
19070SOL    HW157460   9.768  10.856   6.851
19070SOL    HW257461   9.819  10.764   6.961
19071SOL     OW57462   3.465  10.346   0.791
19071SOL    HW157463   3.432  10.401   0.863
19071SOL    HW257464   3.485  10.409   0.721
19072SOL     OW57465  15.123   5.504   6.239
19072SOL    HW157466  15.073   5.448   6.298
19072SOL    HW257467   4.412   5.445   6.199
19073SOL     OW57468  10.874  10.638   3.070
19073SOL    HW157469  10.841  10.549   3.056
19073SOL    HW257470  10.938  10.651   3.001
19074SOL     OW57471   2.993  11.006   3.513
19074SOL    HW157472   2.964  11.073   3.574
19074SOL    HW257473   3.031  10.938   3.568
19075SOL     OW57474   5.850   8.489   1.554
19075SOL    HW157475   5.836   8.395   1.547
19075SOL    HW257476   5.893   8.500   1.639
19076SOL     OW57477   2.511  10.696   0.101
19076SOL    HW157478   2.430  10.741   0.124
19076SOL    HW257479   2.581  10.749   0.140
19077SOL     OW57480  14.309   5.708   5.227
19077SOL    HW157481  14.400   5.681   5.231
19077SOL    HW257482  14.304   5.786   5.283
19078SOL     OW57483  11.064   2.282   1.682
19078SOL    HW157484  11.143   2.320   1.645
19078SOL    HW257485  11.063   2.192   1.648
19079SOL     OW57486   2.354   5.557   2.561
19079SOL    HW157487   2.382   5.472   2.597
19079SOL    HW257488   2.393   5.560   2.474
19080SOL     OW57489   9.276  10.330   7.074
19080SOL    HW157490   9.321  10.317   7.158
19080SOL    HW257491   9.276  10.243   7.033
19081SOL     OW57492   1.779   8.337   1.156
19081SOL    HW157493   1.828   8.342   1.074
19081SOL    HW257494   1.760   8.428   1.178
19082SOL     OW57495   4.837  14.613   6.640
19082SOL    HW157496   4.882  14.549   6.694
19082SOL    HW257497   4.901  14.639   6.574
19083SOL     OW57498   7.761   9.794   6.757
19083SOL    HW157499   7.789   9.880   6.788
19083SOL    HW257500   7.842   9.749   6.733
19084SOL     OW57501   6.614   5.402   5.851
19084SOL    HW157502   6.697   5.356   5.862
19084SOL    HW257503   6.569   5.354   5.781
19085SOL     OW57504  11.913  12.445   4.271
19085SOL    HW157505  11.841  12.382   4.271
19085SOL    HW257506  11.941  12.449   4.179
19086SOL     OW57507  10.814   6.132   3.232
19086SOL    HW157508  10.834   6.041   3.251
19086SOL    HW257509  10.729   6.129   3.187
19087SOL     OW57510  13.071  14.557   6.357
19087SOL    HW157511  13.017  14.618   6.408
19087SOL    HW257512  13.014  14.482   6.342
19088SOL     OW57513   8.560   8.125   3.054
19088SOL    HW157514   8.517   8.065   2.993
19088SOL    HW257515   8.596   8.194   2.998
19089SOL     OW57516   6.731   9.065   1.345
19089SOL    HW157517   6.751   9.047   1.253
19089SOL    HW257518   6.803   9.026   1.394
19090SOL     OW57519   9.972   6.695   4.997
19090SOL    HW157520   9.927   6.767   5.042
19090SOL    HW257521  10.036   6.663   5.061
19091SOL     OW57522   4.184   6.887   2.626
19091SOL    HW157523   4.200   6.833   2.549
19091SOL    HW257524   4.152   6.970   2.590
19092SOL     OW57525   7.555   4.637   1.428
19092SOL    HW157526   7.604   4.719   1.431
19092SOL    HW257527   7.588   4.592   1.350
19093SOL     OW57528   9.497  13.246   6.298
19093SOL    HW157529   9.525  13.168   6.347
19093SOL    HW257530   9.489  13.216   6.208
19094SOL     OW57531   4.455   2.681   1.546
19094SOL    HW157532   4.390   2.614   1.566
19094SOL    HW257533   4.494   2.652   1.464
19095SOL     OW57534   2.299   1.606   0.648
19095SOL    HW157535   2.269   1.531   0.699
19095SOL    HW257536   2.385   1.627   0.686
19096SOL     OW57537   9.439   4.217   2.177
19096SOL    HW157538   9.368   4.251   2.231
19096SOL    HW257539   9.400   4.143   2.130
19097SOL     OW57540  11.518   2.830   3.560
19097SOL    HW157541  11.463   2.789   3.627
19097SOL    HW257542  11.481   2.917   3.548
19098SOL     OW57543   9.204   5.639   6.669
19098SOL    HW157544   9.285   5.649   6.620
19098SOL    HW257545   9.137   5.625   6.602
19099SOL     OW57546   3.606   9.375   0.230
19099SOL    HW157547   3.700   9.371   0.250
19099SOL    HW257548   3.598   9.443   0.163
19100SOL     OW57549   7.247  12.205   6.162
19100SOL    HW157550   7.195  12.127   6.142
19100SOL    HW257551   7.286  12.186   6.247
19101SOL     OW57552   3.426  10.525   2.682
19101SOL    HW157553   3.376  10.595   2.639
19101SOL    HW257554   3.478  10.570   2.749
19102SOL     OW57555   9.653   6.746   1.345
19102SOL    HW157556   9.707   6.707   1.275
19102SOL    HW257557   9.563   6.723   1.321
19103SOL     OW57558   3.116   9.037   3.665
19103SOL    HW157559   3.180   9.106   3.682
19103SOL    HW257560   3.150   8.960   3.712
19104SOL     OW57561  12.226   8.271   4.667
19104SOL    HW157562  12.159   8.229   4.613
19104SOL    HW257563  12.275   8.326   4.605
19105SOL     OW57564  13.795   5.507   6.726
19105SOL    HW157565  13.727   5.538   6.666
19105SOL    HW257566  13.748   5.457   6.792
19106SOL     OW57567   9.457  12.691   4.128
19106SOL    HW157568   9.542  12.682   4.172
19106SOL    HW257569   9.400  12.628   4.172
19107SOL     OW57570   3.851   7.917   3.195
19107SOL    HW157571   3.836   7.942   3.104
19107SOL    HW257572   3.848   7.821   3.194
19108SOL     OW57573   5.137  13.160   3.764
19108SOL    HW157574   5.145  13.243   3.812
19108SOL    HW257575   5.149  13.185   3.672
19109SOL     OW57576   5.349  15.499   6.836
19109SOL    HW157577   5.329  15.556   6.910
19109SOL    HW257578   5.412  15.548   6.784
19110SOL     OW57579   9.338  13.532   7.173
19110SOL    HW157580   9.310  13.558   7.086
19110SOL    HW257581   9.258  13.532   7.225
19111SOL     OW57582  11.348   1.758   1.785
19111SOL    HW157583  11.369   1.737   1.876
19111SOL    HW257584  11.286   1.831   1.791
19112SOL     OW57585  10.484   5.336   6.775
19112SOL    HW157586  10.556   5.394   6.748
19112SOL    HW257587  10.456   5.370   6.860
19113SOL     OW57588   2.840  10.058   1.188
19113SOL    HW157589   2.830  10.093   1.099
19113SOL    HW257590   2.921  10.097   1.220
19114SOL     OW57591   9.944   6.946   0.435
19114SOL    HW157592  10.018   6.891   0.461
19114SOL    HW257593   9.947   7.019   0.497
19115SOL     OW57594   6.438  12.316   6.309
19115SOL    HW157595   6.421  12.399   6.265
19115SOL    HW257596   6.366  12.259   6.281
19116SOL     OW57597  13.661  14.216   5.707
19116SOL    HW157598  13.696  14.164   5.635
19116SOL    HW257599  13.628  14.296   5.665
19117SOL     OW57600   5.081   9.693   3.757
19117SOL    HW157601   5.173   9.682   3.779
19117SOL    HW257602   5.054   9.771   3.806
19118SOL     OW57603   5.275  15.564   7.101
19118SOL    HW157604   5.300  15.479   7.136
19118SOL    HW257605   5.345  15.623   7.129
19119SOL     OW57606   4.330   8.468   0.527
19119SOL    HW157607   4.420   8.496   0.509
19119SOL    HW257608   4.311   8.504   0.614
19120SOL     OW57609   4.714   6.067   6.321
19120SOL    HW157610   4.652   6.115   6.376
19120SOL    HW257611   4.788   6.049   6.379
19121SOL     OW57612   3.853  10.469   4.849
19121SOL    HW157613   3.912  10.540   4.873
19121SOL    HW257614   3.860  10.463   4.754
19122SOL     OW57615   9.786   8.297   2.445
19122SOL    HW157616   9.810   8.387   2.467
19122SOL    HW257617   9.730   8.306   2.368
19123SOL     OW57618  11.333   8.792   3.698
19123SOL    HW157619  11.316   8.825   3.610
19123SOL    HW257620  11.421   8.753   3.692
19124SOL     OW57621   9.527  10.352   2.583
19124SOL    HW157622   9.594  10.311   2.638
19124SOL    HW257623   9.553  10.444   2.579
19125SOL     OW57624  12.477  13.806   7.348
19125SOL    HW157625  12.562  13.822   7.306
19125SOL    HW257626  12.486  13.719   7.388
19126SOL     OW57627   3.801   9.600   5.029
19126SOL    HW157628   3.717   9.591   4.984
19126SOL    HW257629   3.792   9.679   5.083
19127SOL     OW57630   6.658  11.519   5.332
19127SOL    HW157631   6.590  11.525   5.265
19127SOL    HW257632   6.609  11.524   5.415
19128SOL     OW57633   8.940  12.547   6.186
19128SOL    HW157634   8.935  12.633   6.227
19128SOL    HW257635   8.860  12.502   6.212
19129SOL     OW57636   5.325  11.034   1.167
19129SOL    HW157637   5.311  11.056   1.075
19129SOL    HW257638   5.373  11.108   1.203
19130SOL     OW57639   2.384  11.924   3.359
19130SOL    HW157640   2.447  11.946   3.427
19130SOL    HW257641   2.425  11.953   3.278
19131SOL     OW57642   9.156   7.169   2.627
19131SOL    HW157643   9.063   7.186   2.643
19131SOL    HW257644   9.173   7.211   2.543
19132SOL     OW57645   8.564  11.215   2.745
19132SOL    HW157646   8.497  11.171   2.693
19132SOL    HW257647   8.623  11.145   2.772
19133SOL     OW57648   8.966   9.447   0.787
19133SOL    HW157649   8.916   9.499   0.724
19133SOL    HW257650   8.922   9.461   0.871
19134SOL     OW57651   9.881  10.023   2.390
19134SOL    HW157652   9.943  10.023   2.316
19134SOL    HW257653   9.855  10.115   2.399
19135SOL     OW57654   7.770   3.375   2.880
19135SOL    HW157655   7.815   3.327   2.950
19135SOL    HW257656   7.832   3.444   2.855
19136SOL     OW57657   2.876  11.248   3.365
19136SOL    HW157658   2.965  11.222   3.339
19136SOL    HW257659   2.890  11.302   3.443
19137SOL     OW57660   6.247   2.686   1.930
19137SOL    HW157661   6.178   2.730   1.980
19137SOL    HW257662   6.238   2.720   1.841
19138SOL     OW57663   9.490   4.304   5.291
19138SOL    HW157664   9.515   4.334   5.203
19138SOL    HW257665   9.554   4.345   5.349
19139SOL     OW57666   2.297   7.751   2.888
19139SOL    HW157667   2.323   7.668   2.927
19139SOL    HW257668   2.376   7.782   2.843
19140SOL     OW57669   7.910   6.657   1.777
19140SOL    HW157670   7.826   6.667   1.732
19140SOL    HW257671   7.934   6.746   1.802
19141SOL     OW57672   6.002  12.711   4.322
19141SOL    HW157673   6.082  12.731   4.370
19141SOL    HW257674   5.958  12.643   4.374
19142SOL     OW57675   1.546   4.128   0.039
19142SOL    HW157676   1.639   4.124   0.018
19142SOL    HW257677   1.543   4.142   0.134
19143SOL     OW57678   7.986  10.486   4.025
19143SOL    HW157679   7.920  10.494   4.094
19143SOL    HW257680   8.063  10.531   4.060
19144SOL     OW57681  11.197   1.961   1.360
19144SOL    HW157682  11.144   2.032   1.324
19144SOL    HW257683  11.221   1.908   1.284
19145SOL     OW57684   5.827  14.192   7.521
19145SOL    HW157685   5.761  14.125   7.538
19145SOL    HW257686   5.794  14.270   7.566
19146SOL     OW57687   1.572   9.113   0.739
19146SOL    HW157688   1.485   9.151   0.753
19146SOL    HW257689   1.633   9.176   0.777
19147SOL     OW57690   1.922   4.355   1.436
19147SOL    HW157691   1.978   4.284   1.466
19147SOL    HW257692   1.884   4.322   1.354
19148SOL     OW57693  11.855  13.361   5.149
19148SOL    HW157694  11.912  13.302   5.101
19148SOL    HW257695  11.811  13.413   5.081
19149SOL     OW57696   9.658   5.790   7.163
19149SOL    HW157697   9.671   5.796   7.258
19149SOL    HW257698   9.570   5.825   7.148
19150SOL     OW57699  10.344   4.498   1.997
19150SOL    HW157700  10.393   4.454   1.928
19150SOL    HW257701  10.254   4.503   1.963
19151SOL     OW57702   8.520  13.881   6.098
19151SOL    HW157703   8.446  13.822   6.091
19151SOL    HW257704   8.591  13.827   6.132
19152SOL     OW57705   5.763   6.914   6.973
19152SOL    HW157706   5.800   6.901   7.060
19152SOL    HW257707   5.817   6.982   6.933
19153SOL     OW57708   5.121   6.167   3.429
19153SOL    HW157709   5.075   6.138   3.508
19153SOL    HW257710   5.213   6.169   3.455
19154SOL     OW57711   3.739   6.970   1.834
19154SOL    HW157712   3.709   7.055   1.802
19154SOL    HW257713   3.717   6.909   1.763
19155SOL     OW57714  11.619   5.623   2.222
19155SOL    HW157715  11.535   5.581   2.242
19155SOL    HW257716  11.680   5.550   2.211
19156SOL     OW57717   5.020  14.413   5.910
19156SOL    HW157718   4.973  14.335   5.882
19156SOL    HW257719   5.082  14.431   5.839
19157SOL     OW57720   6.240   2.311   2.333
19157SOL    HW157721   6.209   2.392   2.292
19157SOL    HW257722   6.266   2.337   2.422
19158SOL     OW57723   6.482   5.998   2.083
19158SOL    HW157724   6.494   6.045   2.000
19158SOL    HW257725   6.406   6.041   2.123
19159SOL     OW57726   6.417   3.010   2.634
19159SOL    HW157727   6.378   3.013   2.547
19159SOL    HW257728   6.505   2.977   2.620
19160SOL     OW57729  12.226  13.031   3.449
19160SOL    HW157730  12.234  13.015   3.355
19160SOL    HW257731  12.148  12.983   3.476
19161SOL     OW57732  15.949   8.804   7.392
19161SOL    HW157733   5.261   8.772   7.368
19161SOL    HW257734  15.960   8.898   7.404
19162SOL     OW57735  13.185   5.010   5.006
19162SOL    HW157736  13.251   4.981   5.069
19162SOL    HW257737  13.157   5.095   5.038
19163SOL     OW57738  11.842   5.562   5.972
19163SOL    HW157739  11.794   5.623   5.915
19163SOL    HW257740  11.777   5.529   6.033
19164SOL     OW57741  11.859   7.439   5.546
19164SOL    HW157742  11.953   7.441   5.531
19164SOL    HW257743  11.850   7.429   5.641
19165SOL     OW57744  12.499  11.609   5.870
19165SOL    HW157745  12.556  11.600   5.946
19165SOL    HW257746  12.555  11.648   5.803
19166SOL     OW57747  13.771   6.242   7.349
19166SOL    HW157748  13.749   6.297   7.424
19166SOL    HW257749  13.710   6.268   7.281
19167SOL     OW57750  11.585  12.335   4.642
19167SOL    HW157751  11.653  12.387   4.683
19167SOL    HW257752  11.569  12.264   4.704
19168SOL     OW57753  10.368  10.256   5.505
19168SOL    HW157754  10.319  10.337   5.517
19168SOL    HW257755  10.301  10.188   5.493
19169SOL     OW57756   5.719   8.186   2.182
19169SOL    HW157757   5.788   8.189   2.116
19169SOL    HW257758   5.731   8.265   2.234
19170SOL     OW57759   4.148   5.915   0.774
19170SOL    HW157760   4.118   6.006   0.762
19170SOL    HW257761   4.070   5.862   0.759
19171SOL     OW57762   8.576   4.518   4.940
19171SOL    HW157763   8.585   4.612   4.958
19171SOL    HW257764   8.583   4.476   5.025
19172SOL     OW57765   3.161   1.252   1.372
19172SOL    HW157766   3.105   1.224   1.444
19172SOL    HW257767   3.246   1.267   1.412
19173SOL     OW57768   8.177   4.597   6.196
19173SOL    HW157769   8.269   4.571   6.192
19173SOL    HW257770   8.144   4.557   6.277
19174SOL     OW57771  12.777   8.917   4.628
19174SOL    HW157772  12.767   8.823   4.639
19174SOL    HW257773  12.700   8.944   4.578
19175SOL     OW57774   4.509   5.346   2.089
19175SOL    HW157775   4.464   5.418   2.132
19175SOL    HW257776   4.552   5.299   2.160
19176SOL     OW57777  13.095   2.998   3.971
19176SOL    HW157778  13.019   3.004   3.913
19176SOL    HW257779  13.103   3.086   4.008
19177SOL     OW57780  10.098  10.300   4.924
19177SOL    HW157781  10.174  10.319   4.870
19177SOL    HW257782  10.133  10.292   5.013
19178SOL     OW57783   6.305   3.985   4.010
19178SOL    HW157784   6.378   3.970   3.951
19178SOL    HW257785   6.346   4.023   4.089
19179SOL     OW57786   9.695   9.779   0.784
19179SOL    HW157787   9.675   9.797   0.876
19179SOL    HW257788   9.622   9.818   0.736
19180SOL     OW57789   9.667   7.997   0.635
19180SOL    HW157790   9.593   7.956   0.679
19180SOL    HW257791   9.680   8.079   0.681
19181SOL     OW57792   5.900  11.479   6.379
19181SOL    HW157793   5.815  11.489   6.335
19181SOL    HW257794   5.963  11.470   6.307
19182SOL     OW57795  11.314  14.401   5.177
19182SOL    HW157796  11.286  14.311   5.167
19182SOL    HW257797  11.372  14.399   5.254
19183SOL     OW57798   3.883   3.511   1.180
19183SOL    HW157799   3.877   3.599   1.217
19183SOL    HW257800   3.959   3.472   1.224
19184SOL     OW57801   5.210   5.045   4.892
19184SOL    HW157802   5.230   5.000   4.810
19184SOL    HW257803   5.116   5.032   4.905
19185SOL     OW57804   7.635   8.248   1.072
19185SOL    HW157805   7.686   8.326   1.094
19185SOL    HW257806   7.627   8.200   1.154
19186SOL     OW57807   4.462   8.734   2.187
19186SOL    HW157808   4.482   8.817   2.231
19186SOL    HW257809   4.487   8.667   2.251
19187SOL     OW57810  10.055   3.093   3.547
19187SOL    HW157811  10.028   3.019   3.492
19187SOL    HW257812   9.973   3.140   3.565
19188SOL     OW57813   7.404   6.075   0.828
19188SOL    HW157814   7.341   6.112   0.766
19188SOL    HW257815   7.423   5.988   0.794
19189SOL     OW57816   5.168   2.804   1.937
19189SOL    HW157817   5.216   2.732   1.897
19189SOL    HW257818   5.092   2.816   1.881
19190SOL     OW57819   6.425  11.023   5.423
19190SOL    HW157820   6.499  10.962   5.418
19190SOL    HW257821   6.448  11.093   5.363
19191SOL     OW57822   5.601   8.473   1.738
19191SOL    HW157823   5.622   8.396   1.792
19191SOL    HW257824   5.548   8.438   1.667
19192SOL     OW57825   7.393  10.964   4.560
19192SOL    HW157826   7.457  10.925   4.500
19192SOL    HW257827   7.443  11.030   4.608
19193SOL     OW57828   8.130  12.523   4.585
19193SOL    HW157829   8.130  12.569   4.501
19193SOL    HW257830   8.213  12.475   4.586
19194SOL     OW57831   6.324   2.782   3.817
19194SOL    HW157832   6.285  13.493   3.876
19194SOL    HW257833   6.416   2.788   3.843
19195SOL     OW57834   5.433   1.201   0.812
19195SOL    HW157835   5.493   1.127   0.814
19195SOL    HW257836   5.449   1.248   0.893
19196SOL     OW57837   5.856   5.980   0.691
19196SOL    HW157838   5.897   5.923   0.755
19196SOL    HW257839   5.879   6.069   0.719
19197SOL     OW57840   6.122   8.187   4.334
19197SOL    HW157841   6.176   8.173   4.411
19197SOL    HW257842   6.071   8.265   4.354
19198SOL     OW57843  10.066   4.512   1.922
19198SOL    HW157844   9.994   4.548   1.869
19198SOL    HW257845  10.065   4.563   2.002
19199SOL     OW57846   9.875   7.356   0.124
19199SOL    HW157847   9.956   7.308   0.144
19199SOL    HW257848   9.904   7.435   0.079
19200SOL     OW57849   7.211   9.111   3.017
19200SOL    HW157850   7.134   9.164   2.993
19200SOL    HW257851   7.260   9.104   2.935
19201SOL     OW57852   6.775   4.225   3.203
19201SOL    HW157853   6.839   4.243   3.135
19201SOL    HW257854   6.718   4.302   3.202
19202SOL     OW57855  13.781  12.843   4.718
19202SOL    HW157856  13.759  12.752   4.738
19202SOL    HW257857  13.725  12.865   4.643
19203SOL     OW57858   7.952   6.830   1.455
19203SOL    HW157859   8.046   6.845   1.441
19203SOL    HW257860   7.926   6.774   1.383
19204SOL     OW57861  10.976   8.838   6.686
19204SOL    HW157862  10.980   8.750   6.648
19204SOL    HW257863  11.025   8.830   6.768
19205SOL     OW57864   7.888  11.515   1.294
19205SOL    HW157865   7.915  11.477   1.378
19205SOL    HW257866   7.951  11.585   1.278
19206SOL     OW57867   6.125   4.281   5.922
19206SOL    HW157868   6.146   4.277   6.016
19206SOL    HW257869   6.171   4.358   5.891
19207SOL     OW57870   7.102   5.946   4.699
19207SOL    HW157871   7.062   5.902   4.624
19207SOL    HW257872   7.031   5.996   4.739
19208SOL     OW57873  10.125   4.120   0.278
19208SOL    HW157874  10.203   4.132   0.224
19208SOL    HW257875  10.155   4.136   0.368
19209SOL     OW57876   6.753   9.394   4.249
19209SOL    HW157877   6.811   9.408   4.175
19209SOL    HW257878   6.761   9.474   4.301
19210SOL     OW57879  10.004   2.749   1.769
19210SOL    HW157880  10.012   2.697   1.849
19210SOL    HW257881   9.944   2.699   1.714
19211SOL     OW57882   3.094   6.758   3.272
19211SOL    HW157883   3.042   6.745   3.193
19211SOL    HW257884   3.043   6.716   3.342
19212SOL     OW57885  11.267  11.159   4.381
19212SOL    HW157886  11.177  11.166   4.349
19212SOL    HW257887  11.312  11.106   4.316
19213SOL     OW57888  14.653  12.435   6.801
19213SOL    HW157889  14.733  12.391   6.772
19213SOL    HW257890  14.650  12.516   6.749
19214SOL     OW57891  12.321   7.980   6.067
19214SOL    HW157892  12.277   7.989   5.982
19214SOL    HW257893  12.336   8.070   6.096
19215SOL     OW57894   8.025   7.879   2.854
19215SOL    HW157895   8.075   7.813   2.806
19215SOL    HW257896   7.976   7.925   2.787
19216SOL     OW57897  11.717   5.545   4.769
19216SOL    HW157898  11.706   5.513   4.859
19216SOL    HW257899  11.644   5.605   4.756
19217SOL     OW57900   9.908  11.627   3.283
19217SOL    HW157901   9.935  11.647   3.373
19217SOL    HW257902   9.813  11.632   3.285
19218SOL     OW57903  10.549   6.683   0.612
19218SOL    HW157904  10.495   6.680   0.533
19218SOL    HW257905  10.617   6.748   0.592
19219SOL     OW57906   6.501   8.171   6.410
19219SOL    HW157907   6.570   8.170   6.343
19219SOL    HW257908   6.428   8.216   6.369
19220SOL     OW57909  10.640   3.995   4.978
19220SOL    HW157910  10.672   3.924   4.922
19220SOL    HW257911  10.581   4.044   4.921
19221SOL     OW57912   2.215   8.740   2.518
19221SOL    HW157913   2.250   8.752   2.429
19221SOL    HW257914   2.289   8.761   2.575
19222SOL     OW57915   7.292  12.142   7.329
19222SOL    HW157916   7.334  12.207   7.385
19222SOL    HW257917   7.308  12.174   7.240
19223SOL     OW57918   4.774   6.430   1.121
19223SOL    HW157919   4.701   6.457   1.177
19223SOL    HW257920   4.832   6.507   1.120
19224SOL     OW57921  10.583  11.126   7.563
19224SOL    HW157922  10.610  11.216   7.577
19224SOL    HW257923  10.664  11.075   7.571
19225SOL     OW57924   7.289   7.169   1.526
19225SOL    HW157925   7.265   7.238   1.465
19225SOL    HW257926   7.257   7.088   1.484
19226SOL     OW57927   2.632   3.703   1.845
19226SOL    HW157928   2.592   3.789   1.859
19226SOL    HW257929   2.695   3.694   1.917
19227SOL     OW57930   8.962   5.174   5.958
19227SOL    HW157931   9.035   5.222   5.919
19227SOL    HW257932   8.909   5.241   6.000
19228SOL     OW57933  14.941   6.133   7.547
19228SOL    HW157934  14.927   6.136   7.452
19228SOL    HW257935  14.928   6.223   7.576
19229SOL     OW57936  14.118  14.166   7.283
19229SOL    HW157937  14.203  14.128   7.307
19229SOL    HW257938  14.059  14.091   7.278
19230SOL     OW57939   2.964   5.329   2.076
19230SOL    HW157940   2.989   5.416   2.044
19230SOL    HW257941   3.024   5.269   2.033
19231SOL     OW57942  11.222   2.314   2.890
19231SOL    HW157943  11.275   2.394   2.887
19231SOL    HW257944  11.262   2.262   2.959
19232SOL     OW57945   1.576   3.254   1.907
19232SOL    HW157946   1.600   3.242   1.815
19232SOL    HW257947   1.569   3.165   1.941
19233SOL     OW57948  10.678   1.041   1.445
19233SOL    HW157949  10.682  11.734   1.395
19233SOL    HW257950  10.588   1.072   1.433
19234SOL     OW57951   5.295   5.605   7.259
19234SOL    HW157952   5.371   5.660   7.244
19234SOL    HW257953   5.220   5.664   7.253
19235SOL     OW57954  12.050  14.104   4.919
19235SOL    HW157955  11.969  14.123   4.966
19235SOL    HW257956  12.072  14.187   4.875
19236SOL     OW57957   6.522  14.638   7.003
19236SOL    HW157958   6.455  14.572   7.020
19236SOL    HW257959   6.473  14.717   6.981
19237SOL     OW57960   7.500   8.080   6.691
19237SOL    HW157961   7.429   8.017   6.704
19237SOL    HW257962   7.562   8.035   6.634
19238SOL     OW57963   5.258   6.952   2.265
19238SOL    HW157964   5.317   7.028   2.267
19238SOL    HW257965   5.201   6.968   2.190
19239SOL     OW57966   8.296   6.573   3.910
19239SOL    HW157967   8.285   6.567   3.815
19239SOL    HW257968   8.351   6.650   3.923
19240SOL     OW57969  11.278   6.054   3.884
19240SOL    HW157970  11.365   6.093   3.886
19240SOL    HW257971  11.226   6.108   3.944
19241SOL     OW57972   3.715   6.999   0.933
19241SOL    HW157973   3.805   7.022   0.908
19241SOL    HW257974   3.692   6.927   0.875
19242SOL     OW57975   5.007   9.739   0.948
19242SOL    HW157976   5.008   9.700   1.035
19242SOL    HW257977   4.947   9.685   0.897
19243SOL     OW57978   9.496   8.164   7.156
19243SOL    HW157979   9.535   8.184   7.071
19243SOL    HW257980   9.402   8.176   7.142
19244SOL     OW57981   8.690   8.140   6.225
19244SOL    HW157982   8.771   8.148   6.173
19244SOL    HW257983   8.642   8.069   6.182
19245SOL     OW57984   7.984   3.945   2.794
19245SOL    HW157985   7.996   4.033   2.829
19245SOL    HW257986   8.038   3.944   2.715
19246SOL     OW57987   4.427   6.810   0.718
19246SOL    HW157988   4.492   6.817   0.788
19246SOL    HW257989   4.463   6.862   0.647
19247SOL     OW57990   1.849  10.259   0.697
19247SOL    HW157991   1.795  10.249   0.618
19247SOL    HW257992   1.786  10.268   0.768
19248SOL     OW57993  12.427  10.528   5.452
19248SOL    HW157994  12.359  10.568   5.397
19248SOL    HW257995  12.395  10.539   5.541
19249SOL     OW57996  11.619   5.639   2.606
19249SOL    HW157997  11.663   5.692   2.541
19249SOL    HW257998  11.658   5.552   2.598
19250SOL     OW57999   5.166   2.446   3.438
19250SOL    HW158000   5.088   2.461   3.384
19250SOL    HW258001   5.236   2.494   3.394
19251SOL     OW58002   5.073   8.308   5.007
19251SOL    HW158003   5.151   8.303   5.061
19251SOL    HW258004   5.019   8.234   5.035
19252SOL     OW58005   9.718   2.295   1.160
19252SOL    HW158006   9.725   2.201   1.143
19252SOL    HW258007   9.803   2.319   1.196
19253SOL     OW58008   5.815   6.191   3.924
19253SOL    HW158009   5.873   6.250   3.876
19253SOL    HW258010   5.728   6.228   3.912
19254SOL     OW58011   9.679   5.151   2.148
19254SOL    HW158012   9.611   5.096   2.188
19254SOL    HW258013   9.752   5.091   2.134
19255SOL     OW58014   7.338  10.124   3.582
19255SOL    HW158015   7.259  10.171   3.608
19255SOL    HW258016   7.325  10.035   3.614
19256SOL     OW58017   8.232   5.580   1.177
19256SOL    HW158018   8.205   5.588   1.268
19256SOL    HW258019   8.195   5.656   1.134
19257SOL     OW58020  10.740   7.821   6.673
19257SOL    HW158021  10.799   7.808   6.747
19257SOL    HW258022  10.752   7.743   6.619
19258SOL     OW58023  11.547   6.440   3.463
19258SOL    HW158024  11.604   6.393   3.403
19258SOL    HW258025  11.601   6.457   3.540
19259SOL     OW58026  11.896   9.356   2.038
19259SOL    HW158027  11.862   9.444   2.023
19259SOL    HW258028  11.886   9.343   2.133
19260SOL     OW58029  14.158  12.338   6.943
19260SOL    HW158030  14.189  12.362   7.030
19260SOL    HW258031  14.223  12.376   6.883
19261SOL     OW58032   9.266   4.177   0.927
19261SOL    HW158033   9.277   4.092   0.970
19261SOL    HW258034   9.263   4.157   0.834
19262SOL     OW58035  11.117   9.886   2.937
19262SOL    HW158036  11.102   9.823   2.866
19262SOL    HW258037  11.201   9.926   2.917
19263SOL     OW58038   5.178   9.396   2.484
19263SOL    HW158039   5.158   9.306   2.511
19263SOL    HW258040   5.176   9.446   2.565
19264SOL     OW58041   6.295   8.857   6.189
19264SOL    HW158042   6.241   8.928   6.224
19264SOL    HW258043   6.342   8.896   6.116
19265SOL     OW58044   8.877  10.561   0.010
19265SOL    HW158045  14.316  15.872   7.603
19265SOL    HW258046   8.834  10.535   0.091
19266SOL     OW58047   6.783   5.105   0.206
19266SOL    HW158048   6.855   5.100   0.143
19266SOL    HW258049   6.705   5.120   0.153
19267SOL     OW58050   4.853   6.295   1.835
19267SOL    HW158051   4.889   6.280   1.747
19267SOL    HW258052   4.890   6.225   1.889
19268SOL     OW58053  13.627   8.445   6.904
19268SOL    HW158054  13.613   8.363   6.951
19268SOL    HW258055  13.713   8.476   6.934
19269SOL     OW58056  12.611  12.021   5.466
19269SOL    HW158057  12.704  12.003   5.452
19269SOL    HW258058  12.588  12.082   5.396
19270SOL     OW58059   9.785   9.341   2.370
19270SOL    HW158060   9.759   9.306   2.285
19270SOL    HW258061   9.816   9.429   2.351
19271SOL     OW58062  11.503  11.441   4.829
19271SOL    HW158063  11.536  11.351   4.831
19271SOL    HW258064  11.415  11.434   4.792
19272SOL     OW58065   3.840   4.432   4.182
19272SOL    HW158066   3.900   4.446   4.255
19272SOL    HW258067   3.788   4.356   4.208
19273SOL     OW58068  12.172   8.355   2.555
19273SOL    HW158069  12.175   8.416   2.481
19273SOL    HW258070  12.246   8.296   2.541
19274SOL     OW58071   6.494   8.552   7.204
19274SOL    HW158072   6.502   8.471   7.154
19274SOL    HW258073   6.565   8.549   7.267
19275SOL     OW58074   5.824   9.698   0.517
19275SOL    HW158075   5.818   9.698   0.422
19275SOL    HW258076   5.767   9.626   0.544
19276SOL     OW58077   2.168   4.308   2.342
19276SOL    HW158078   2.242   4.266   2.387
19276SOL    HW258079   2.091   4.258   2.370
19277SOL     OW58080   6.698   9.601   7.337
19277SOL    HW158081   6.778   9.645   7.307
19277SOL    HW258082   6.628   9.662   7.315
19278SOL     OW58083  12.765   7.727   5.437
19278SOL    HW158084  12.824   7.799   5.462
19278SOL    HW258085  12.790   7.706   5.347
19279SOL     OW58086  11.271  13.228   5.105
19279SOL    HW158087  11.235  13.142   5.130
19279SOL    HW258088  11.336  13.247   5.172
19280SOL     OW58089  10.759   5.372   4.513
19280SOL    HW158090  10.751   5.286   4.553
19280SOL    HW258091  10.837   5.410   4.553
19281SOL     OW58092  13.421   9.126   5.610
19281SOL    HW158093  13.428   9.036   5.579
19281SOL    HW258094  13.509   9.147   5.642
19282SOL     OW58095   9.328  14.589   6.250
19282SOL    HW158096   9.391  14.630   6.308
19282SOL    HW258097   9.243  14.601   6.294
19283SOL     OW58098   2.323   6.326   0.967
19283SOL    HW158099   2.361   6.390   1.028
19283SOL    HW258100   2.368   6.244   0.988
19284SOL     OW58101   1.638   8.432   0.575
19284SOL    HW158102   1.551   8.466   0.555
19284SOL    HW258103   1.622   8.352   0.624
19285SOL     OW58104  11.398  12.107   2.796
19285SOL    HW158105  11.334  12.096   2.725
19285SOL    HW258106  11.350  12.083   2.875
19286SOL     OW58107   4.469   8.953   6.179
19286SOL    HW158108   4.546   9.002   6.150
19286SOL    HW258109   4.412   9.019   6.219
19287SOL     OW58110  14.724  11.282   5.935
19287SOL    HW158111  14.660  11.354   5.940
19287SOL    HW258112  14.780  11.294   6.011
19288SOL     OW58113   6.896  10.056   4.832
19288SOL    HW158114   6.812  10.073   4.790
19288SOL    HW258115   6.926   9.973   4.794
19289SOL     OW58116   3.347   2.321   0.326
19289SOL    HW158117   3.325   2.412   0.344
19289SOL    HW258118   3.348   2.314   0.230
19290SOL     OW58119  10.056   8.585   0.560
19290SOL    HW158120  10.049   8.678   0.537
19290SOL    HW258121  10.120   8.583   0.631
19291SOL     OW58122  12.924   5.343   6.844
19291SOL    HW158123  12.868   5.322   6.769
19291SOL    HW258124  12.941   5.436   6.835
19292SOL     OW58125   3.618   3.124   0.897
19292SOL    HW158126   3.621   3.048   0.839
19292SOL    HW258127   3.525   3.134   0.919
19293SOL     OW58128  15.310  14.568   6.859
19293SOL    HW158129  15.402  14.595   6.849
19293SOL    HW258130  15.263  14.621   6.795
19294SOL     OW58131   7.730   9.864   3.562
19294SOL    HW158132   7.793   9.896   3.627
19294SOL    HW258133   7.783   9.847   3.483
19295SOL     OW58134   9.277   5.934   7.354
19295SOL    HW158135   9.288   5.905   7.264
19295SOL    HW258136   9.365   5.962   7.381
19296SOL     OW58137   9.361   6.680   7.526
19296SOL    HW158138   9.335   6.748   7.589
19296SOL    HW258139   9.449   6.705   7.499
19297SOL     OW58140  11.873   8.812   7.217
19297SOL    HW158141  11.867   8.895   7.265
19297SOL    HW258142  11.848   8.745   7.280
19298SOL     OW58143  12.376  10.971   4.810
19298SOL    HW158144  12.388  10.922   4.892
19298SOL    HW258145  12.311  10.920   4.761
19299SOL     OW58146   4.324  10.346   1.719
19299SOL    HW158147   4.358  10.435   1.718
19299SOL    HW258148   4.386  10.297   1.774
19300SOL     OW58149   4.842   6.279   6.149
19300SOL    HW158150   4.819   6.364   6.186
19300SOL    HW258151   4.824   6.216   6.218
19301SOL     OW58152   0.949  11.023   1.071
19301SOL    HW158153   0.867  11.069   1.055
19301SOL    HW258154   0.952  10.954   1.004
19302SOL     OW58155   7.815   6.689   3.580
19302SOL    HW158156   7.883   6.705   3.516
19302SOL    HW258157   7.752   6.760   3.567
19303SOL     OW58158   5.462  13.612   4.384
19303SOL    HW158159   5.486  13.609   4.476
19303SOL    HW258160   5.525  13.671   4.344
19304SOL     OW58161   9.159  13.017   4.437
19304SOL    HW158162   9.087  13.056   4.387
19304SOL    HW258163   9.151  13.054   4.525
19305SOL     OW58164   4.034   5.010   1.870
19305SOL    HW158165   4.093   5.021   1.945
19305SOL    HW258166   4.027   4.915   1.859
19306SOL     OW58167  12.743  14.346   5.425
19306SOL    HW158168  12.816  14.365   5.366
19306SOL    HW258169  12.782  14.299   5.498
19307SOL     OW58170   4.796   5.245   1.659
19307SOL    HW158171   4.796   5.170   1.719
19307SOL    HW258172   4.747   5.312   1.705
19308SOL     OW58173   9.536   9.046   2.646
19308SOL    HW158174   9.476   9.003   2.707
19308SOL    HW258175   9.530   8.994   2.566
19309SOL     OW58176   8.143  11.333   4.095
19309SOL    HW158177   8.123  11.403   4.157
19309SOL    HW258178   8.177  11.377   4.018
19310SOL     OW58179   9.577  12.999   5.450
19310SOL    HW158180   9.592  12.905   5.441
19310SOL    HW258181   9.482  13.007   5.459
19311SOL     OW58182  15.270   6.663   7.060
19311SOL    HW158183  15.291   6.646   7.152
19311SOL    HW258184  15.207   6.595   7.036
19312SOL     OW58185   6.216   4.083   3.079
19312SOL    HW158186   6.121   4.073   3.091
19312SOL    HW258187   6.253   4.073   3.166
19313SOL     OW58188  10.095   7.798   7.101
19313SOL    HW158189  10.034   7.725   7.109
19313SOL    HW258190  10.168   7.775   7.158
19314SOL     OW58191  10.079   3.979   3.780
19314SOL    HW158192  10.048   3.899   3.822
19314SOL    HW258193  10.106   4.035   3.852
19315SOL     OW58194  10.769   7.768   4.226
19315SOL    HW158195  10.807   7.842   4.178
19315SOL    HW258196  10.681   7.797   4.250
19316SOL     OW58197   2.529   4.746   0.068
19316SOL    HW158198   2.478   4.681   0.117
19316SOL    HW258199   2.580   4.792   0.136
19317SOL     OW58200  11.580  11.349   5.825
19317SOL    HW158201  11.592  11.340   5.730
19317SOL    HW258202  11.632  11.277   5.862
19318SOL     OW58203   7.957   5.658   4.368
19318SOL    HW158204   7.974   5.740   4.321
19318SOL    HW258205   7.883   5.678   4.425
19319SOL     OW58206   2.797   8.575   3.135
19319SOL    HW158207   2.788   8.614   3.049
19319SOL    HW258208   2.718   8.522   3.147
19320SOL     OW58209   6.227   1.424   0.122
19320SOL    HW158210   6.303   1.450   0.069
19320SOL    HW258211   6.257   1.348   0.172
19321SOL     OW58212   6.541   2.855   0.517
19321SOL    HW158213   6.593   2.864   0.597
19321SOL    HW258214   6.522   2.945   0.490
19322SOL     OW58215   3.231  10.485   2.251
19322SOL    HW158216   3.206  10.495   2.159
19322SOL    HW258217   3.284  10.563   2.270
19323SOL     OW58218   7.458   8.518   6.793
19323SOL    HW158219   7.538   8.547   6.749
19323SOL    HW258220   7.480   8.433   6.830
19324SOL     OW58221   8.246  14.375   5.095
19324SOL    HW158222   8.335   3.582   5.064
19324SOL    HW258223   8.257  14.389   5.190
19325SOL     OW58224  11.064  11.678   2.561
19325SOL    HW158225  11.088  11.706   2.649
19325SOL    HW258226  10.998  11.741   2.533
19326SOL     OW58227   6.472   4.914   0.129
19326SOL    HW158228   6.380   4.927   0.152
19326SOL    HW258229   6.471   4.853   0.056
19327SOL     OW58230   9.163   9.697   0.539
19327SOL    HW158231   9.072   9.676   0.520
19327SOL    HW258232   9.190   9.752   0.465
19328SOL     OW58233   3.128  12.650   4.388
19328SOL    HW158234  13.807  12.661   4.385
19328SOL    HW258235   3.141  12.556   4.377
19329SOL     OW58236  13.719   6.976   6.370
19329SOL    HW158237  13.696   7.036   6.441
19329SOL    HW258238  13.680   7.015   6.292
19330SOL     OW58239   2.886   6.749   3.485
19330SOL    HW158240   2.957   6.776   3.543
19330SOL    HW258241   2.873   6.656   3.504
19331SOL     OW58242  11.747   6.433   1.380
19331SOL    HW158243  11.678   6.366   1.379
19331SOL    HW258244  11.776   6.437   1.471
19332SOL     OW58245   7.336   2.515   2.379
19332SOL    HW158246   7.348   2.427   2.414
19332SOL    HW258247   7.269   2.554   2.436
19333SOL     OW58248   3.578   3.915   3.056
19333SOL    HW158249   3.645   3.881   2.997
19333SOL    HW258250   3.590   4.010   3.054
19334SOL     OW58251  10.203   8.224   6.926
19334SOL    HW158252  10.248   8.151   6.968
19334SOL    HW258253  10.113   8.193   6.912
19335SOL     OW58254   4.669   2.961   0.761
19335SOL    HW158255   4.577   2.938   0.763
19335SOL    HW258256   4.710   2.891   0.711
19336SOL     OW58257   3.819  12.822   4.476
19336SOL    HW158258   3.760  12.747   4.486
19336SOL    HW258259   3.904  12.782   4.457
19337SOL     OW58260   3.866   4.682   2.871
19337SOL    HW158261   3.813   4.762   2.873
19337SOL    HW258262   3.856   4.650   2.781
19338SOL     OW58263   8.322   6.076   6.718
19338SOL    HW158264   8.337   6.031   6.801
19338SOL    HW258265   8.230   6.100   6.720
19339SOL     OW58266   7.186  10.403   3.719
19339SOL    HW158267   7.200  10.458   3.796
19339SOL    HW258268   7.108  10.351   3.739
19340SOL     OW58269   5.037  10.367   4.937
19340SOL    HW158270   5.064  10.419   5.013
19340SOL    HW258271   4.980  10.425   4.887
19341SOL     OW58272   3.986  10.045   0.989
19341SOL    HW158273   4.080  10.051   1.005
19341SOL    HW258274   3.976  10.069   0.897
19342SOL     OW58275   9.239  10.619   0.039
19342SOL    HW158276   9.243  10.629   0.134
19342SOL    HW258277   9.327  10.644   0.009
19343SOL     OW58278  12.686   9.630   3.344
19343SOL    HW158279  12.638   9.547   3.335
19343SOL    HW258280  12.693   9.662   3.254
19344SOL     OW58281  10.258  10.041   4.610
19344SOL    HW158282  10.170  10.006   4.618
19344SOL    HW258283  10.311   9.967   4.582
19345SOL     OW58284   4.823  10.817   0.973
19345SOL    HW158285   4.805  10.750   1.039
19345SOL    HW258286   4.740  10.828   0.927
19346SOL     OW58287  15.832   5.673   7.513
19346SOL    HW158288  15.854   5.591   7.470
19346SOL    HW258289  15.915   5.721   7.518
19347SOL     OW58290   8.102   8.303   4.596
19347SOL    HW158291   8.008   8.315   4.612
19347SOL    HW258292   8.115   8.334   4.506
19348SOL     OW58293  14.201  13.354   5.153
19348SOL    HW158294  14.221  13.281   5.095
19348SOL    HW258295  14.170  13.423   5.094
19349SOL     OW58296  10.157   8.235   0.943
19349SOL    HW158297  10.217   8.161   0.950
19349SOL    HW258298  10.070   8.194   0.937
19350SOL     OW58299  11.838  12.720   5.266
19350SOL    HW158300  11.901  12.749   5.332
19350SOL    HW258301  11.753  12.727   5.309
19351SOL     OW58302   9.691  11.666   5.555
19351SOL    HW158303   9.727  11.654   5.643
19351SOL    HW258304   9.600  11.636   5.561
19352SOL     OW58305   6.130  12.188   4.545
19352SOL    HW158306   6.152  12.131   4.619
19352SOL    HW258307   6.059  12.141   4.501
19353SOL     OW58308   6.668  12.958   7.348
19353SOL    HW158309   6.698  13.021   7.282
19353SOL    HW258310   6.667  12.874   7.302
19354SOL     OW58311   7.702   5.990   5.862
19354SOL    HW158312   7.615   5.959   5.841
19354SOL    HW258313   7.710   5.977   5.957
19355SOL     OW58314   8.218   8.539   2.165
19355SOL    HW158315   8.284   8.482   2.206
19355SOL    HW258316   8.244   8.542   2.073
19356SOL     OW58317  11.568   5.962   5.850
19356SOL    HW158318  11.572   6.054   5.875
19356SOL    HW258319  11.495   5.957   5.788
19357SOL     OW58320   9.114   7.795   5.835
19357SOL    HW158321   9.059   7.773   5.910
19357SOL    HW258322   9.124   7.890   5.839
19358SOL     OW58323   5.589  10.393   6.571
19358SOL    HW158324   5.638  10.355   6.644
19358SOL    HW258325   5.555  10.317   6.523
19359SOL     OW58326  10.386  11.777   1.540
19359SOL    HW158327  10.366  11.745   1.453
19359SOL    HW258328  10.309  11.754   1.593
19360SOL     OW58329   7.381   9.160   7.020
19360SOL    HW158330   7.401   9.071   7.049
19360SOL    HW258331   7.379   9.212   7.100
19361SOL     OW58332   2.284  10.493   0.440
19361SOL    HW158333   2.232  10.516   0.517
19361SOL    HW258334   2.244  10.413   0.407
19362SOL     OW58335  12.206   5.819   6.642
19362SOL    HW158336  12.216   5.798   6.549
19362SOL    HW258337  12.115   5.797   6.662
19363SOL     OW58338  10.728   4.652   1.879
19363SOL    HW158339  10.672   4.612   1.945
19363SOL    HW258340  10.678   4.727   1.846
19364SOL     OW58341   1.720   9.044   0.008
19364SOL    HW158342   1.683   9.123   0.047
19364SOL    HW258343   7.041  14.404   7.563
19365SOL     OW58344  12.178   3.840   4.670
19365SOL    HW158345  12.235   3.907   4.709
19365SOL    HW258346  12.090   3.874   4.683
19366SOL     OW58347   4.752   7.537   5.202
19366SOL    HW158348   4.660   7.525   5.178
19366SOL    HW258349   4.751   7.608   5.266
19367SOL     OW58350   7.521   2.048   0.218
19367SOL    HW158351   7.505   2.132   0.261
19367SOL    HW258352   7.510   1.983   0.288
19368SOL     OW58353   5.598   5.093   1.236
19368SOL    HW158354   5.531   5.141   1.284
19368SOL    HW258355   5.670   5.156   1.226
19369SOL     OW58356  13.746   4.363   5.255
19369SOL    HW158357  13.761   4.440   5.199
19369SOL    HW258358  13.699   4.398   5.331
19370SOL     OW58359   1.880  10.480   0.105
19370SOL    HW158360   1.964  10.503   0.146
19370SOL    HW258361   1.814  10.504   0.170
19371SOL     OW58362   4.189   6.459   4.069
19371SOL    HW158363   4.105   6.428   4.104
19371SOL    HW258364   4.178   6.553   4.060
19372SOL     OW58365   9.260   6.009   4.100
19372SOL    HW158366   9.193   5.958   4.145
19372SOL    HW258367   9.322   6.034   4.168
19373SOL     OW58368  10.594  13.891   6.848
19373SOL    HW158369  10.649  13.821   6.814
19373SOL    HW258370  10.599  13.960   6.782
19374SOL     OW58371   3.572   1.694   1.830
19374SOL    HW158372   3.533   1.664   1.912
19374SOL    HW258373   3.525   1.776   1.810
19375SOL     OW58374   0.745   2.121   0.730
19375SOL    HW158375   0.713   2.135   0.641
19375SOL    HW258376   0.830   2.166   0.732
19376SOL     OW58377   5.732  11.129   6.814
19376SOL    HW158378   5.751  11.197   6.749
19376SOL    HW258379   5.804  11.135   6.877
19377SOL     OW58380  12.003   6.988   5.489
19377SOL    HW158381  12.045   6.908   5.520
19377SOL    HW258382  11.913   6.964   5.470
19378SOL     OW58383   3.817  10.950   2.363
19378SOL    HW158384   3.829  10.987   2.450
19378SOL    HW258385   3.807  10.856   2.378
19379SOL     OW58386   6.086   9.899   4.680
19379SOL    HW158387   6.007   9.954   4.680
19379SOL    HW258388   6.145   9.942   4.619
19380SOL     OW58389   3.218  10.126   4.147
19380SOL    HW158390   3.244  10.129   4.239
19380SOL    HW258391   3.145  10.063   4.144
19381SOL     OW58392   7.969   5.582   5.953
19381SOL    HW158393   7.893   5.525   5.940
19381SOL    HW258394   7.932   5.670   5.953
19382SOL     OW58395   9.695  10.278   5.523
19382SOL    HW158396   9.764  10.255   5.585
19382SOL    HW258397   9.661  10.361   5.555
19383SOL     OW58398  10.793   8.163   4.412
19383SOL    HW158399  10.791   8.131   4.502
19383SOL    HW258400  10.743   8.099   4.362
19384SOL     OW58401  11.041   6.705   3.733
19384SOL    HW158402  11.094   6.764   3.679
19384SOL    HW258403  11.090   6.623   3.734
19385SOL     OW58404   4.544   2.484   0.572
19385SOL    HW158405   4.624   2.529   0.598
19385SOL    HW258406   4.479   2.554   0.565
19386SOL     OW58407  13.637  13.183   5.577
19386SOL    HW158408  13.689  13.104   5.564
19386SOL    HW258409  13.596  13.171   5.663
19387SOL     OW58410   4.233   5.179   4.984
19387SOL    HW158411   4.304   5.168   4.922
19387SOL    HW258412   4.239   5.103   5.042
19388SOL     OW58413   0.403   5.976   0.276
19388SOL    HW158414   0.439   6.027   0.204
19388SOL    HW258415   0.312   5.959   0.250
19389SOL     OW58416  14.095  12.377   5.612
19389SOL    HW158417  14.074  12.463   5.575
19389SOL    HW258418  14.114  12.395   5.704
19390SOL     OW58419   8.863  11.954   5.719
19390SOL    HW158420   8.895  11.998   5.640
19390SOL    HW258421   8.852  12.025   5.783
19391SOL     OW58422  10.245   3.857   1.733
19391SOL    HW158423  10.329   3.880   1.774
19391SOL    HW258424  10.257   3.878   1.641
19392SOL     OW58425  13.228  11.750   5.909
19392SOL    HW158426  13.287  11.819   5.937
19392SOL    HW258427  13.150  11.796   5.878
19393SOL     OW58428   3.998   5.506   2.952
19393SOL    HW158429   4.023   5.507   2.859
19393SOL    HW258430   3.905   5.482   2.951
19394SOL     OW58431   0.060   0.977   0.082
19394SOL    HW158432  10.768   1.040   0.054
19394SOL    HW258433  10.793   0.930   0.155
19395SOL     OW58434   7.698   5.111   7.033
19395SOL    HW158435   7.717   5.193   6.988
19395SOL    HW258436   7.782   5.067   7.040
19396SOL     OW58437  11.894  13.211   3.699
19396SOL    HW158438  11.936  13.206   3.613
19396SOL    HW258439  11.961  13.249   3.756
19397SOL     OW58440   5.748   7.042   0.127
19397SOL    HW158441   5.786   6.977   0.068
19397SOL    HW258442   5.798   7.122   0.111
19398SOL     OW58443  11.732  11.646   6.424
19398SOL    HW158444  11.748  11.571   6.482
19398SOL    HW258445  11.641  11.670   6.440
19399SOL     OW58446   6.423   4.588   3.470
19399SOL    HW158447   6.412   4.495   3.454
19399SOL    HW258448   6.421   4.597   3.565
19400SOL     OW58449  13.743  11.249   6.503
19400SOL    HW158450  13.709  11.180   6.560
19400SOL    HW258451  13.762  11.206   6.420
19401SOL     OW58452   3.030   9.108   2.710
19401SOL    HW158453   3.071   9.137   2.628
19401SOL    HW258454   3.104   9.092   2.768
19402SOL     OW58455   5.313  14.401   6.133
19402SOL    HW158456   5.295  14.307   6.123
19402SOL    HW258457   5.333  14.412   6.225
19403SOL     OW58458   1.950   7.695   0.535
19403SOL    HW158459   1.928   7.715   0.444
19403SOL    HW258460   1.865   7.679   0.577
19404SOL     OW58461   1.784   2.420   1.365
19404SOL    HW158462   1.735   2.400   1.445
19404SOL    HW258463   1.869   2.449   1.396
19405SOL     OW58464  11.534  11.951   5.898
19405SOL    HW158465  11.497  12.022   5.847
19405SOL    HW258466  11.473  11.878   5.885
19406SOL     OW58467  13.168   7.907   5.893
19406SOL    HW158468  13.084   7.880   5.931
19406SOL    HW258469  13.213   7.953   5.964
19407SOL     OW58470  11.712  13.876   5.903
19407SOL    HW158471  11.745  13.868   5.993
19407SOL    HW258472  11.617  13.888   5.913
19408SOL     OW58473   4.194   1.775   0.572
19408SOL    HW158474   4.233   1.811   0.652
19408SOL    HW258475   4.184   1.850   0.514
19409SOL     OW58476  10.447  13.589   4.886
19409SOL    HW158477  10.393  13.512   4.870
19409SOL    HW258478  10.530  13.569   4.842
19410SOL     OW58479  15.099   8.469   6.799
19410SOL    HW158480  15.168   8.415   6.761
19410SOL    HW258481  15.090   8.542   6.739
19411SOL     OW58482  11.552   8.299   7.501
19411SOL    HW158483  11.601   8.335   7.427
19411SOL    HW258484  11.551   8.370   7.566
19412SOL     OW58485   4.231  13.169   4.319
19412SOL    HW158486   4.151  13.169   4.372
19412SOL    HW258487   4.241  13.260   4.291
19413SOL     OW58488   5.584  10.063   0.630
19413SOL    HW158489   5.506  10.117   0.644
19413SOL    HW258490   5.625  10.099   0.552
19414SOL     OW58491   4.894   1.551   1.559
19414SOL    HW158492   4.924   1.611   1.490
19414SOL    HW258493   4.900   1.464   1.520
19415SOL     OW58494   6.710   1.885   1.878
19415SOL    HW158495   6.693   1.977   1.858
19415SOL    HW258496   6.770   1.887   1.952
19416SOL     OW58497   4.998   7.706   0.777
19416SOL    HW158498   5.086   7.678   0.802
19416SOL    HW258499   5.008   7.797   0.750
19417SOL     OW58500  10.136  12.156   3.767
19417SOL    HW158501  10.058  12.196   3.806
19417SOL    HW258502  10.207  12.215   3.792
19418SOL     OW58503   9.082   6.232   5.702
19418SOL    HW158504   9.093   6.166   5.634
19418SOL    HW258505   9.081   6.315   5.655
19419SOL     OW58506  14.659   6.074   7.591
19419SOL    HW158507  14.727   6.045   7.529
19419SOL    HW258508   9.274   0.621   0.042
19420SOL     OW58509   2.209   3.925   2.546
19420SOL    HW158510   2.238   3.949   2.634
19420SOL    HW258511   2.123   3.967   2.537
19421SOL     OW58512   1.865   3.697   1.423
19421SOL    HW158513   1.954   3.686   1.457
19421SOL    HW258514   1.810   3.650   1.486
19422SOL     OW58515   7.328  11.591   2.415
19422SOL    HW158516   7.253  11.561   2.364
19422SOL    HW258517   7.347  11.520   2.475
19423SOL     OW58518   2.408   9.987   2.692
19423SOL    HW158519   2.417   9.954   2.602
19423SOL    HW258520   2.438   9.915   2.747
19424SOL     OW58521  13.417  14.755   7.304
19424SOL    HW158522  13.338  14.784   7.349
19424SOL    HW258523  13.388  14.734   7.215
19425SOL     OW58524   7.112  14.197   6.951
19425SOL    HW158525   7.161  14.146   6.886
19425SOL    HW258526   7.023  14.162   6.948
19426SOL     OW58527   9.265  11.058   7.412
19426SOL    HW158528   9.248  11.123   7.480
19426SOL    HW258529   9.324  10.995   7.454
19427SOL     OW58530   3.632   8.340   0.252
19427SOL    HW158531   3.676   8.356   0.335
19427SOL    HW258532   3.704   8.330   0.189
19428SOL     OW58533  12.100  13.306   5.927
19428SOL    HW158534  12.066  13.224   5.962
19428SOL    HW258535  12.075  13.304   5.834
19429SOL     OW58536   4.069   6.535   1.700
19429SOL    HW158537   4.137   6.545   1.633
19429SOL    HW258538   4.057   6.624   1.734
19430SOL     OW58539  14.272  14.172   5.788
19430SOL    HW158540  14.305  14.111   5.854
19430SOL    HW258541  14.197  14.215   5.830
19431SOL     OW58542  13.565   6.279   6.586
19431SOL    HW158543  13.639   6.220   6.596
19431SOL    HW258544  13.564   6.330   6.667
19432SOL     OW58545   5.853   3.082   1.098
19432SOL    HW158546   5.814   3.067   1.184
19432SOL    HW258547   5.824   3.169   1.073
19433SOL     OW58548   9.055   4.312   3.747
19433SOL    HW158549   9.027   4.396   3.785
19433SOL    HW258550   9.118   4.337   3.679
19434SOL     OW58551  13.213  15.242   7.094
19434SOL    HW158552  13.233  15.299   7.019
19434SOL    HW258553  13.144  15.290   7.141
19435SOL     OW58554   5.876   7.343   6.593
19435SOL    HW158555   5.851   7.272   6.652
19435SOL    HW258556   5.968   7.359   6.612
19436SOL     OW58557   9.104  11.745   4.027
19436SOL    HW158558   9.015  11.764   3.995
19436SOL    HW258559   9.090  11.705   4.113
19437SOL     OW58560   4.564   5.619   5.231
19437SOL    HW158561   4.503   5.622   5.157
19437SOL    HW258562   4.529   5.682   5.293
19438SOL     OW58563   6.714   9.104   5.054
19438SOL    HW158564   6.710   9.199   5.042
19438SOL    HW258565   6.748   9.093   5.143
19439SOL     OW58566  12.109  10.425   7.199
19439SOL    HW158567  12.146  10.353   7.250
19439SOL    HW258568  12.163  10.431   7.121
19440SOL     OW58569   3.235   5.441   4.342
19440SOL    HW158570   3.246   5.358   4.388
19440SOL    HW258571   3.146   5.468   4.365
19441SOL     OW58572   3.101  10.011   1.018
19441SOL    HW158573   3.098  10.021   1.114
19441SOL    HW258574   3.194  10.007   0.997
19442SOL     OW58575   2.328   5.777   0.482
19442SOL    HW158576   2.340   5.703   0.542
19442SOL    HW258577   2.239   5.808   0.500
19443SOL     OW58578   7.373  10.248   1.374
19443SOL    HW158579   7.354  10.245   1.280
19443SOL    HW258580   7.404  10.160   1.394
19444SOL     OW58581   9.535   2.877   1.370
19444SOL    HW158582   9.443   2.900   1.377
19444SOL    HW258583   9.581   2.960   1.381
19445SOL     OW58584   5.391   9.576   7.416
19445SOL    HW158585   5.335   9.575   7.338
19445SOL    HW258586   5.480   9.582   7.381
19446SOL     OW58587   9.957   6.264   0.410
19446SOL    HW158588  10.030   6.212   0.443
19446SOL    HW258589   9.987   6.355   0.414
19447SOL     OW58590   8.582   1.496   0.585
19447SOL    HW158591   8.625   1.412   0.591
19447SOL    HW258592   8.640   1.557   0.631
19448SOL     OW58593   8.770   7.368   1.276
19448SOL    HW158594   8.736   7.434   1.337
19448SOL    HW258595   8.770   7.287   1.327
19449SOL     OW58596  10.312  11.232   5.998
19449SOL    HW158597  10.315  11.240   6.093
19449SOL    HW258598  10.219  11.233   5.977
19450SOL     OW58599   5.183  10.177   0.171
19450SOL    HW158600   5.157  10.188   0.262
19450SOL    HW258601   5.208  10.265   0.142
19451SOL     OW58602  10.052   4.360   5.429
19451SOL    HW158603   9.997   4.302   5.481
19451SOL    HW258604  10.095   4.416   5.494
19452SOL     OW58605   6.808  10.269   2.504
19452SOL    HW158606   6.794  10.292   2.596
19452SOL    HW258607   6.844  10.180   2.507
19453SOL     OW58608   4.841   9.714   6.818
19453SOL    HW158609   4.936   9.702   6.810
19453SOL    HW258610   4.804   9.666   6.744
19454SOL     OW58611   4.631   7.889   3.927
19454SOL    HW158612   4.670   7.892   3.839
19454SOL    HW258613   4.642   7.978   3.960
19455SOL     OW58614   6.398   9.565   6.509
19455SOL    HW158615   6.360   9.534   6.592
19455SOL    HW258616   6.484   9.598   6.534
19456SOL     OW58617   3.848   8.480   3.070
19456SOL    HW158618   3.800   8.543   3.016
19456SOL    HW258619   3.879   8.531   3.145
19457SOL     OW58620  12.195   4.599   3.944
19457SOL    HW158621  12.120   4.542   3.930
19457SOL    HW258622  12.208   4.599   4.039
19458SOL     OW58623   9.622   9.145   0.464
19458SOL    HW158624   9.534   9.167   0.494
19458SOL    HW258625   9.680   9.193   0.523
19459SOL     OW58626   3.489   7.552   2.341
19459SOL    HW158627   3.581   7.560   2.365
19459SOL    HW258628   3.477   7.459   2.320
19460SOL     OW58629   7.630   4.875   3.729
19460SOL    HW158630   7.596   4.942   3.789
19460SOL    HW258631   7.698   4.920   3.679
19461SOL     OW58632   8.749   4.666   5.428
19461SOL    HW158633   8.720   4.731   5.492
19461SOL    HW258634   8.779   4.717   5.353
19462SOL     OW58635   2.908  10.147   2.721
19462SOL    HW158636   2.960  10.170   2.798
19462SOL    HW258637   2.885  10.232   2.682
19463SOL     OW58638  11.974  11.290   6.768
19463SOL    HW158639  12.029  11.277   6.691
19463SOL    HW258640  11.959  11.202   6.802
19464SOL     OW58641  13.682  12.454   5.679
19464SOL    HW158642  13.741  12.457   5.755
19464SOL    HW258643  13.606  12.405   5.710
19465SOL     OW58644   9.909   7.534   3.538
19465SOL    HW158645   9.941   7.554   3.626
19465SOL    HW258646   9.985   7.498   3.492
19466SOL     OW58647  12.700  13.841   7.176
19466SOL    HW158648  12.753  13.813   7.101
19466SOL    HW258649  12.680  13.933   7.158
19467SOL     OW58650   2.383   5.423   2.032
19467SOL    HW158651   2.403   5.428   1.938
19467SOL    HW258652   2.430   5.346   2.063
19468SOL     OW58653  10.329  10.250   0.984
19468SOL    HW158654  10.417  10.280   0.960
19468SOL    HW258655  10.282  10.242   0.901
19469SOL     OW58656  12.026  13.344   6.896
19469SOL    HW158657  12.079  13.415   6.932
19469SOL    HW258658  12.069  13.264   6.924
19470SOL     OW58659  11.670   7.536   6.507
19470SOL    HW158660  11.696   7.566   6.594
19470SOL    HW258661  11.693   7.443   6.505
19471SOL     OW58662  13.663   4.636   6.501
19471SOL    HW158663  13.702  15.331   6.540
19471SOL    HW258664  13.643   4.611   6.411
19472SOL     OW58665  11.903  11.793   6.316
19472SOL    HW158666  11.843  11.866   6.306
19472SOL    HW258667  11.854  11.727   6.364
19473SOL     OW58668  11.065   5.298   4.981
19473SOL    HW158669  11.035   5.252   5.059
19473SOL    HW258670  11.082   5.388   5.011
19474SOL     OW58671   8.132   2.872   3.371
19474SOL    HW158672   8.222   2.864   3.403
19474SOL    HW258673   8.109   2.783   3.343
19475SOL     OW58674   7.045   5.747   5.113
19475SOL    HW158675   7.120   5.794   5.150
19475SOL    HW258676   6.969   5.800   5.135
19476SOL     OW58677  12.577  13.857   5.145
19476SOL    HW158678  12.657  13.867   5.094
19476SOL    HW258679  12.506  13.870   5.081
19477SOL     OW58680   4.502   7.028   3.065
19477SOL    HW158681   4.462   7.114   3.055
19477SOL    HW258682   4.565   7.022   2.994
19478SOL     OW58683   3.514   3.433   3.198
19478SOL    HW158684   3.507   3.338   3.194
19478SOL    HW258685   3.509   3.462   3.107
19479SOL     OW58686   6.844   4.715   4.839
19479SOL    HW158687   6.910   4.649   4.861
19479SOL    HW258688   6.871   4.793   4.887
19480SOL     OW58689   7.770  13.918   6.771
19480SOL    HW158690   7.749  13.993   6.715
19480SOL    HW258691   7.838  13.871   6.723
19481SOL     OW58692  10.652   5.487   0.789
19481SOL    HW158693  10.714   5.524   0.727
19481SOL    HW258694  10.597   5.428   0.737
19482SOL     OW58695  12.205   4.324   3.102
19482SOL    HW158696  12.288   4.277   3.090
19482SOL    HW258697  12.166   4.326   3.015
19483SOL     OW58698   5.321   7.505   2.589
19483SOL    HW158699   5.387   7.570   2.611
19483SOL    HW258700   5.282   7.482   2.673
19484SOL     OW58701   7.760  15.339   6.648
19484SOL    HW158702   7.751  15.309   6.739
19484SOL    HW258703   7.793  15.429   6.656
19485SOL     OW58704   6.794   7.032   4.043
19485SOL    HW158705   6.845   7.027   4.124
19485SOL    HW258706   6.777   7.125   4.030
19486SOL     OW58707   4.739   5.266   1.297
19486SOL    HW158708   4.773   5.176   1.292
19486SOL    HW258709   4.686   5.267   1.376
19487SOL     OW58710   4.762   6.892   0.102
19487SOL    HW158711   4.705   6.816   0.087
19487SOL    HW258712   4.795   6.914   0.015
19488SOL     OW58713   5.425   8.360   3.260
19488SOL    HW158714   5.512   8.332   3.285
19488SOL    HW258715   5.369   8.284   3.277
19489SOL     OW58716   6.979  13.527   4.468
19489SOL    HW158717   6.884  13.543   4.464
19489SOL    HW258718   7.011  13.555   4.382
19490SOL     OW58719   8.519  12.136   5.572
19490SOL    HW158720   8.512  12.075   5.646
19490SOL    HW258721   8.473  12.092   5.500
19491SOL     OW58722   6.879   6.681   0.265
19491SOL    HW158723   6.949   6.622   0.290
19491SOL    HW258724   6.917   6.737   0.198
19492SOL     OW58725   4.624  10.156   2.736
19492SOL    HW158726   4.698  10.217   2.734
19492SOL    HW258727   4.551  10.207   2.772
19493SOL     OW58728   2.114   5.346   0.386
19493SOL    HW158729   2.022   5.361   0.409
19493SOL    HW258730   2.146   5.286   0.453
19494SOL     OW58731  11.624   7.277   7.458
19494SOL    HW158732  11.605   7.293   7.366
19494SOL    HW258733  11.567   7.205   7.482
19495SOL     OW58734   6.063  10.834   2.861
19495SOL    HW158735   6.100  10.919   2.885
19495SOL    HW258736   6.118  10.803   2.789
19496SOL     OW58737  12.787  12.419   7.278
19496SOL    HW158738  12.753  12.391   7.362
19496SOL    HW258739  12.783  12.341   7.222
19497SOL     OW58740  10.185  11.667   4.126
19497SOL    HW158741  10.240  11.609   4.073
19497SOL    HW258742  10.182  11.749   4.077
19498SOL     OW58743  12.739  14.441   6.363
19498SOL    HW158744  12.705  14.507   6.302
19498SOL    HW258745  12.783  14.378   6.306
19499SOL     OW58746   8.878   8.635   5.351
19499SOL    HW158747   8.840   8.593   5.428
19499SOL    HW258748   8.815   8.618   5.281
19500SOL     OW58749   8.088   4.360   1.655
19500SOL    HW158750   8.161   4.303   1.633
19500SOL    HW258751   8.127   4.447   1.666
19501SOL     OW58752   9.303   8.489   2.774
19501SOL    HW158753   9.211   8.513   2.765
19501SOL    HW258754   9.338   8.493   2.686
19502SOL     OW58755   6.402   9.562   7.420
19502SOL    HW158756   6.490   9.531   7.402
19502SOL    HW258757   6.395   9.560   7.516
19503SOL     OW58758   7.089  12.028   3.601
19503SOL    HW158759   7.150  12.036   3.675
19503SOL    HW258760   7.117  12.095   3.539
19504SOL     OW58761   7.958  11.792   6.235
19504SOL    HW158762   7.981  11.845   6.311
19504SOL    HW258763   8.033  11.801   6.176
19505SOL     OW58764   5.396   3.859   0.262
19505SOL    HW158765   5.304   3.850   0.288
19505SOL    HW258766   5.441   3.790   0.309
19506SOL     OW58767  11.721   1.107   1.367
19506SOL    HW158768  11.681   1.076   1.286
19506SOL    HW258769  11.652   1.157   1.411
19507SOL     OW58770  13.215  14.687   5.856
19507SOL    HW158771  13.197  14.637   5.936
19507SOL    HW258772  13.309  14.707   5.861
19508SOL     OW58773   5.961   5.771   2.241
19508SOL    HW158774   6.030   5.837   2.244
19508SOL    HW258775   5.923   5.779   2.154
19509SOL     OW58776   8.670   7.233   3.682
19509SOL    HW158777   8.676   7.170   3.610
19509SOL    HW258778   8.579   7.226   3.711
19510SOL     OW58779   8.422   7.979   2.886
19510SOL    HW158780   8.416   7.884   2.897
19510SOL    HW258781   8.359   8.000   2.818
19511SOL     OW58782  11.523   3.802   3.672
19511SOL    HW158783  11.515   3.707   3.681
19511SOL    HW258784  11.514   3.818   3.578
19512SOL     OW58785   6.315   5.810   6.478
19512SOL    HW158786   6.353   5.862   6.406
19512SOL    HW258787   6.368   5.832   6.554
19513SOL     OW58788  13.319  10.063   7.324
19513SOL    HW158789  13.239  10.010   7.320
19513SOL    HW258790  13.324  10.092   7.415
19514SOL     OW58791  10.509  12.448   6.945
19514SOL    HW158792  10.586  12.392   6.931
19514SOL    HW258793  10.454  12.398   7.006
19515SOL     OW58794  11.809  10.165   2.830
19515SOL    HW158795  11.743  10.129   2.888
19515SOL    HW258796  11.821  10.098   2.763
19516SOL     OW58797  10.260   6.809   5.061
19516SOL    HW158798  10.209   6.866   5.003
19516SOL    HW258799  10.351   6.833   5.045
19517SOL     OW58800  11.035   2.244   2.087
19517SOL    HW158801  11.090   2.291   2.150
19517SOL    HW258802  10.948   2.283   2.097
19518SOL     OW58803  11.652  15.645   6.896
19518SOL    HW158804  11.742  15.613   6.902
19518SOL    HW258805  11.622   4.839   6.811
19519SOL     OW58806  14.113   6.162   6.772
19519SOL    HW158807  14.120   6.249   6.732
19519SOL    HW258808  14.136   6.101   6.702
19520SOL     OW58809   8.322   7.871   5.752
19520SOL    HW158810   8.359   7.894   5.837
19520SOL    HW258811   8.397   7.876   5.692
19521SOL     OW58812   9.125   2.124   0.707
19521SOL    HW158813   9.138   2.218   0.714
19521SOL    HW258814   9.212   2.089   0.686
19522SOL     OW58815  10.667   7.748   3.156
19522SOL    HW158816  10.598   7.808   3.181
19522SOL    HW258817  10.718   7.734   3.236
19523SOL     OW58818   7.827  10.966   1.205
19523SOL    HW158819   7.893  10.896   1.209
19523SOL    HW258820   7.753  10.926   1.160
19524SOL     OW58821   7.704   3.342   4.207
19524SOL    HW158822   7.726   3.303   4.123
19524SOL    HW258823   7.729   3.277   4.272
19525SOL     OW58824  10.195   9.926   7.193
19525SOL    HW158825  10.182   9.962   7.281
19525SOL    HW258826  10.111   9.940   7.149
19526SOL     OW58827   5.376  13.483   6.645
19526SOL    HW158828   5.356  13.525   6.728
19526SOL    HW258829   5.444  13.538   6.606
19527SOL     OW58830  12.825  13.350   3.911
19527SOL    HW158831  12.901  13.371   3.966
19527SOL    HW258832  12.765  13.423   3.924
19528SOL     OW58833  10.196   7.912   7.346
19528SOL    HW158834  10.276   7.949   7.309
19528SOL    HW258835  10.219   7.823   7.371
19529SOL     OW58836   7.009   2.095   1.940
19529SOL    HW158837   7.019   2.072   2.033
19529SOL    HW258838   6.987   2.012   1.897
19530SOL     OW58839  11.212   3.090   3.051
19530SOL    HW158840  11.263   3.168   3.027
19530SOL    HW258841  11.203   3.095   3.146
19531SOL     OW58842   6.045   9.053   1.077
19531SOL    HW158843   6.037   9.062   0.982
19531SOL    HW258844   6.072   9.139   1.108
19532SOL     OW58845   8.613   8.692   0.720
19532SOL    HW158846   8.661   8.700   0.638
19532SOL    HW258847   8.564   8.610   0.713
19533SOL     OW58848   2.094   5.293   1.236
19533SOL    HW158849   2.117   5.331   1.151
19533SOL    HW258850   2.017   5.239   1.217
19534SOL     OW58851   7.702  12.675   5.311
19534SOL    HW158852   7.653  12.594   5.322
19534SOL    HW258853   7.782  12.649   5.265
19535SOL     OW58854   7.321  13.388   5.691
19535SOL    HW158855   7.401  13.414   5.735
19535SOL    HW258856   7.292  13.467   5.644
19536SOL     OW58857   7.877   4.443   1.165
19536SOL    HW158858   7.880   4.348   1.174
19536SOL    HW258859   7.912   4.477   1.247
19537SOL     OW58860   9.762   7.708   3.975
19537SOL    HW158861   9.740   7.656   3.898
19537SOL    HW258862   9.739   7.651   4.049
19538SOL     OW58863   5.112  10.521   4.487
19538SOL    HW158864   5.117  10.456   4.417
19538SOL    HW258865   5.189  10.504   4.541
19539SOL     OW58866   7.058  10.994   2.517
19539SOL    HW158867   6.988  10.960   2.574
19539SOL    HW258868   7.039  11.088   2.511
19540SOL     OW58869   8.959   5.993   7.411
19540SOL    HW158870   8.928   6.047   7.339
19540SOL    HW258871   9.040   5.954   7.379
19541SOL     OW58872   6.575  13.714   6.065
19541SOL    HW158873   6.634  13.715   5.990
19541SOL    HW258874   6.493  13.752   6.033
19542SOL     OW58875   5.422  10.798   3.587
19542SOL    HW158876   5.389  10.821   3.501
19542SOL    HW258877   5.501  10.852   3.598
19543SOL     OW58878   7.346  11.399   3.200
19543SOL    HW158879   7.384  11.443   3.277
19543SOL    HW258880   7.416  11.402   3.134
19544SOL     OW58881   5.479   9.529   1.291
19544SOL    HW158882   5.401   9.545   1.238
19544SOL    HW258883   5.509   9.616   1.317
19545SOL     OW58884   6.885  14.265   7.480
19545SOL    HW158885   6.845  14.270   7.393
19545SOL    HW258886   6.831  14.203   7.528
19546SOL     OW58887   7.686  10.952   5.118
19546SOL    HW158888   7.670  11.035   5.162
19546SOL    HW258889   7.780  10.937   5.127
19547SOL     OW58890   3.118   6.890   1.058
19547SOL    HW158891   3.162   6.830   1.118
19547SOL    HW258892   3.149   6.977   1.084
19548SOL     OW58893   6.605   9.702   6.193
19548SOL    HW158894   6.573   9.749   6.116
19548SOL    HW258895   6.684   9.748   6.219
19549SOL     OW58896   6.491   8.435   5.351
19549SOL    HW158897   6.439   8.360   5.381
19549SOL    HW258898   6.582   8.409   5.366
19550SOL     OW58899   1.446  10.257   0.328
19550SOL    HW158900   1.503  10.298   0.264
19550SOL    HW258901   1.463  10.163   0.319
19551SOL     OW58902   8.235  14.966   7.228
19551SOL    HW158903   8.296  14.896   7.203
19551SOL    HW258904   8.282  15.047   7.211
19552SOL     OW58905   6.867   4.006   1.990
19552SOL    HW158906   6.876   3.993   1.895
19552SOL    HW258907   6.947   4.053   2.015
19553SOL     OW58908  15.026  12.191   6.838
19553SOL    HW158909  15.094  12.128   6.813
19553SOL    HW258910  14.944  12.146   6.816
19554SOL     OW58911   9.771   5.190   3.648
19554SOL    HW158912   9.797   5.119   3.706
19554SOL    HW258913   9.681   5.210   3.673
19555SOL     OW58914  12.327  12.215   5.945
19555SOL    HW158915  12.386  12.185   6.014
19555SOL    HW258916  12.240  12.189   5.975
19556SOL     OW58917   8.556   7.088   1.864
19556SOL    HW158918   8.552   7.033   1.786
19556SOL    HW258919   8.649   7.089   1.888
19557SOL     OW58920   1.444   6.738   1.270
19557SOL    HW158921   1.382   6.798   1.312
19557SOL    HW258922   1.397   6.656   1.261
19558SOL     OW58923   9.945   6.959   2.123
19558SOL    HW158924   9.903   6.881   2.159
19558SOL    HW258925   9.885   7.030   2.144
19559SOL     OW58926   9.670   3.920   1.395
19559SOL    HW158927   9.590   3.969   1.415
19559SOL    HW258928   9.655   3.884   1.308
19560SOL     OW58929   6.068  13.765   5.421
19560SOL    HW158930   6.070  13.684   5.371
19560SOL    HW258931   5.986  13.762   5.470
19561SOL     OW58932  10.562   8.027   4.307
19561SOL    HW158933  10.587   8.024   4.214
19561SOL    HW258934  10.571   7.936   4.337
19562SOL     OW58935   8.140   4.394   1.060
19562SOL    HW158936   8.059   4.431   1.096
19562SOL    HW258937   8.136   4.415   0.966
19563SOL     OW58938   3.000  10.177   3.198
19563SOL    HW158939   2.957  10.249   3.244
19563SOL    HW258940   3.064  10.144   3.261
19564SOL     OW58941   6.624   6.493   7.285
19564SOL    HW158942   6.635   6.501   7.190
19564SOL    HW258943   6.546   6.438   7.296
19565SOL     OW58944   4.222   3.564   4.845
19565SOL    HW158945   4.196   3.650   4.878
19565SOL    HW258946   4.158   3.544   4.777
19566SOL     OW58947  11.805  11.097   7.267
19566SOL    HW158948  11.855  11.022   7.300
19566SOL    HW258949  11.834  11.170   7.322
19567SOL     OW58950  14.658  12.000   6.192
19567SOL    HW158951  14.636  11.910   6.216
19567SOL    HW258952  14.584  12.030   6.140
19568SOL     OW58953   6.044  14.441   5.523
19568SOL    HW158954   6.064  14.530   5.496
19568SOL    HW258955   5.967  14.417   5.472
19569SOL     OW58956  12.068  11.402   3.614
19569SOL    HW158957  11.982  11.436   3.640
19569SOL    HW258958  12.049  11.317   3.575
19570SOL     OW58959   6.847   7.243   3.483
19570SOL    HW158960   6.778   7.239   3.416
19570SOL    HW258961   6.820   7.181   3.550
19571SOL     OW58962   5.262  10.048   7.054
19571SOL    HW158963   5.297  10.004   7.132
19571SOL    HW258964   5.171  10.066   7.076
19572SOL     OW58965  12.211   8.615   4.645
19572SOL    HW158966  12.229   8.707   4.663
19572SOL    HW258967  12.206   8.574   4.731
19573SOL     OW58968   7.225  10.501   1.246
19573SOL    HW158969   7.139  10.537   1.222
19573SOL    HW258970   7.279  10.578   1.264
19574SOL     OW58971   2.954  10.442   1.130
19574SOL    HW158972   2.965  10.495   1.052
19574SOL    HW258973   3.043  10.427   1.162
19575SOL     OW58974   4.617   4.306   2.838
19575SOL    HW158975   4.669   4.266   2.908
19575SOL    HW258976   4.678   4.365   2.794
19576SOL     OW58977   4.423   6.081   0.686
19576SOL    HW158978   4.375   6.143   0.741
19576SOL    HW258979   4.484   6.038   0.746
19577SOL     OW58980  11.675   9.906   2.768
19577SOL    HW158981  11.735   9.832   2.771
19577SOL    HW258982  11.713   9.966   2.704
19578SOL     OW58983   8.798  13.521   7.257
19578SOL    HW158984   8.787  13.461   7.332
19578SOL    HW258985   8.804  13.463   7.181
19579SOL     OW58986   7.715   8.240   6.993
19579SOL    HW158987   7.631   8.261   7.034
19579SOL    HW258988   7.778   8.243   7.065
19580SOL     OW58989  10.493   4.876   1.997
19580SOL    HW158990  10.461   4.786   2.010
19580SOL    HW258991  10.415   4.930   2.002
19581SOL     OW58992   6.492   4.936   1.609
19581SOL    HW158993   6.466   4.912   1.698
19581SOL    HW258994   6.414   4.977   1.571
19582SOL     OW58995   5.404  10.220   4.402
19582SOL    HW158996   5.359  10.249   4.481
19582SOL    HW258997   5.487  10.184   4.433
19583SOL     OW58998   6.370  13.296   3.953
19583SOL    HW158999   6.314  13.240   3.899
19583SOL    HW259000   6.443  13.240   3.977
19584SOL     OW59001   9.827   9.953   3.915
19584SOL    HW159002   9.818  10.002   3.833
19584SOL    HW259003   9.738   9.949   3.950
19585SOL     OW59004   3.345   2.638   1.697
19585SOL    HW159005   3.287   2.570   1.731
19585SOL    HW259006   3.307   2.661   1.612
19586SOL     OW59007   6.846   3.065   0.403
19586SOL    HW159008   6.821   3.011   0.478
19586SOL    HW259009   6.871   3.002   0.335
19587SOL     OW59010  12.854  11.564   6.655
19587SOL    HW159011  12.867  11.634   6.591
19587SOL    HW259012  12.806  11.605   6.727
19588SOL     OW59013  10.646   4.972   5.997
19588SOL    HW159014  10.653   5.012   5.910
19588SOL    HW259015  10.713   4.903   5.997
19589SOL     OW59016  10.670   9.921   6.141
19589SOL    HW159017  10.730   9.994   6.151
19589SOL    HW259018  10.647   9.921   6.048
19590SOL     OW59019   4.284   0.983   1.284
19590SOL    HW159020   4.343   1.024   1.221
19590SOL    HW259021   4.214   1.047   1.297
19591SOL     OW59022   4.266  14.648   5.536
19591SOL    HW159023   4.246   3.908   5.449
19591SOL    HW259024   4.182  14.648   5.582
19592SOL     OW59025   2.727   4.906   1.517
19592SOL    HW159026   2.789   4.867   1.580
19592SOL    HW259027   2.764   4.992   1.497
19593SOL     OW59028   9.658  10.530   1.495
19593SOL    HW159029   9.614  10.614   1.481
19593SOL    HW259030   9.650  10.485   1.410
19594SOL     OW59031  11.395  11.103   2.570
19594SOL    HW159032  11.488  11.093   2.550
19594SOL    HW259033  11.358  11.142   2.491
19595SOL     OW59034   3.222   8.394   1.588
19595SOL    HW159035   3.211   8.487   1.565
19595SOL    HW259036   3.234   8.350   1.504
19596SOL     OW59037   5.999  13.294   5.405
19596SOL    HW159038   6.033  13.207   5.426
19596SOL    HW259039   5.904  13.286   5.414
19597SOL     OW59040   1.118   0.664   0.299
19597SOL    HW159041   1.061   0.720   0.246
19597SOL    HW259042   1.108   0.697   0.388
19598SOL     OW59043   4.797   7.476   2.367
19598SOL    HW159044   4.846   7.545   2.323
19598SOL    HW259045   4.797   7.501   2.459
19599SOL     OW59046   4.810  10.237   6.784
19599SOL    HW159047   4.901  10.247   6.812
19599SOL    HW259048  15.548  10.171   6.843
19600SOL     OW59049   6.716  11.343   6.139
19600SOL    HW159050   6.717  11.289   6.218
19600SOL    HW259051   6.640  11.314   6.090
19601SOL     OW59052   8.809  13.587   6.700
19601SOL    HW159053   8.722  13.606   6.734
19601SOL    HW259054   8.869  13.628   6.763
19602SOL     OW59055  10.235  11.700   4.792
19602SOL    HW159056  10.142  11.721   4.806
19602SOL    HW259057  10.246  11.615   4.835
19603SOL     OW59058   7.645   7.065   3.075
19603SOL    HW159059   7.711   7.052   3.007
19603SOL    HW259060   7.597   6.982   3.079
19604SOL     OW59061   4.254   4.189   1.511
19604SOL    HW159062   4.314   4.132   1.463
19604SOL    HW259063   4.284   4.185   1.602
19605SOL     OW59064   4.659  10.203   4.052
19605SOL    HW159065   4.659  10.299   4.056
19605SOL    HW259066   4.682  10.183   3.961
19606SOL     OW59067   9.291   9.920   6.487
19606SOL    HW159068   9.350   9.867   6.541
19606SOL    HW259069   9.275   9.867   6.410
19607SOL     OW59070   6.610  10.795   1.788
19607SOL    HW159071   6.684  10.777   1.731
19607SOL    HW259072   6.533  10.786   1.732
19608SOL     OW59073   8.532   7.893   6.684
19608SOL    HW159074   8.449   7.921   6.722
19608SOL    HW259075   8.599   7.932   6.741
19609SOL     OW59076   2.113   8.571   1.767
19609SOL    HW159077   2.149   8.482   1.773
19609SOL    HW259078   2.030   8.567   1.814
19610SOL     OW59079  11.584   9.025   4.868
19610SOL    HW159080  11.552   8.941   4.837
19610SOL    HW259081  11.540   9.089   4.811
19611SOL     OW59082   8.654   8.404   3.973
19611SOL    HW159083   8.696   8.433   4.053
19611SOL    HW259084   8.703   8.448   3.903
19612SOL     OW59085   6.221   9.805   0.897
19612SOL    HW159086   6.154   9.764   0.842
19612SOL    HW259087   6.250   9.881   0.847
19613SOL     OW59088   6.997   5.420   4.867
19613SOL    HW159089   6.993   5.470   4.948
19613SOL    HW259090   6.907   5.418   4.834
19614SOL     OW59091  10.370  10.093   5.814
19614SOL    HW159092  10.317  10.093   5.734
19614SOL    HW259093  10.453  10.132   5.788
19615SOL     OW59094   0.818   5.886   0.033
19615SOL    HW159095   6.273  11.249   7.589
19615SOL    HW259096   0.866   5.921   0.108
19616SOL     OW59097   5.859   8.892   3.826
19616SOL    HW159098   5.933   8.939   3.867
19616SOL    HW259099   5.842   8.818   3.884
19617SOL     OW59100   7.516   8.765   6.206
19617SOL    HW159101   7.611   8.754   6.202
19617SOL    HW259102   7.482   8.675   6.207
19618SOL     OW59103   2.027   4.888   2.768
19618SOL    HW159104  12.715   4.847   2.769
19618SOL    HW259105   2.029   4.939   2.687
19619SOL     OW59106  10.097   5.481   5.106
19619SOL    HW159107  10.071   5.567   5.073
19619SOL    HW259108  10.027   5.422   5.077
19620SOL     OW59109  13.349  13.704   5.993
19620SOL    HW159110  13.413  13.666   6.053
19620SOL    HW259111  13.401  13.750   5.928
19621SOL     OW59112   6.019   8.452   6.670
19621SOL    HW159113   6.072   8.479   6.744
19621SOL    HW259114   5.934   8.494   6.686
19622SOL     OW59115   8.287  10.599   7.009
19622SOL    HW159116   8.358  10.658   7.034
19622SOL    HW259117   8.257  10.561   7.092
19623SOL     OW59118   5.866  12.706   7.582
19623SOL    HW159119   5.952  12.665   7.590
19623SOL    HW259120   5.819  12.653   7.518
19624SOL     OW59121   6.073   6.795   5.087
19624SOL    HW159122   6.159   6.819   5.053
19624SOL    HW259123   6.087   6.779   5.180
19625SOL     OW59124   7.595   8.883   6.461
19625SOL    HW159125   7.546   8.822   6.406
19625SOL    HW259126   7.673   8.905   6.410
19626SOL     OW59127   6.688   9.992   6.877
19626SOL    HW159128   6.667   9.900   6.862
19626SOL    HW259129   6.740  10.018   6.800
19627SOL     OW59130   2.794   9.845   2.010
19627SOL    HW159131   2.786   9.776   2.076
19627SOL    HW259132   2.816   9.798   1.930
19628SOL     OW59133   5.336  11.047   1.896
19628SOL    HW159134   5.264  11.044   1.958
19628SOL    HW259135   5.353  10.956   1.874
19629SOL     OW59136   5.847   3.226   0.272
19629SOL    HW159137   5.783   3.167   0.311
19629SOL    HW259138   5.797   3.277   0.208
19630SOL     OW59139   5.998  13.330   6.407
19630SOL    HW159140   5.953  13.377   6.337
19630SOL    HW259141   6.084  13.373   6.414
19631SOL     OW59142  12.959  13.510   6.213
19631SOL    HW159143  12.894  13.441   6.201
19631SOL    HW259144  12.908  13.590   6.225
19632SOL     OW59145   8.266   5.403   0.904
19632SOL    HW159146   8.324   5.479   0.898
19632SOL    HW259147   8.324   5.328   0.894
19633SOL     OW59148   5.099   5.120   6.226
19633SOL    HW159149   5.189   5.089   6.230
19633SOL    HW259150   5.092   5.183   6.298
19634SOL     OW59151  14.406   7.593   6.991
19634SOL    HW159152  14.340   7.530   7.023
19634SOL    HW259153  14.471   7.539   6.947
19635SOL     OW59154  13.413   9.916   5.073
19635SOL    HW159155  13.487   9.976   5.056
19635SOL    HW259156  13.455   9.832   5.092
19636SOL     OW59157   1.708   8.987   0.547
19636SOL    HW159158   1.695   9.049   0.476
19636SOL    HW259159   1.661   9.025   0.621
19637SOL     OW59160   3.554   2.499   3.024
19637SOL    HW159161   3.581   2.500   2.932
19637SOL    HW259162   3.627   2.537   3.071
19638SOL     OW59163   8.744   7.618   6.230
19638SOL    HW159164   8.763   7.616   6.136
19638SOL    HW259165   8.822   7.579   6.271
19639SOL     OW59166   6.207   7.503   4.741
19639SOL    HW159167   6.292   7.485   4.780
19639SOL    HW259168   6.224   7.574   4.678
19640SOL     OW59169   5.795   9.498   5.108
19640SOL    HW159170   5.829   9.435   5.172
19640SOL    HW259171   5.754   9.566   5.161
19641SOL     OW59172  12.076  10.190   5.168
19641SOL    HW159173  11.983  10.185   5.186
19641SOL    HW259174  12.107  10.265   5.219
19642SOL     OW59175   1.643   1.573   0.173
19642SOL    HW159176   1.710   1.532   0.228
19642SOL    HW259177   1.597   1.499   0.133
19643SOL     OW59178   5.629  13.211   3.966
19643SOL    HW159179   5.670  13.128   3.940
19643SOL    HW259180   5.687  13.247   4.033
19644SOL     OW59181   7.152   5.054   0.371
19644SOL    HW159182   7.178   5.089   0.456
19644SOL    HW259183   7.062   5.025   0.384
19645SOL     OW59184   3.924   7.764   4.298
19645SOL    HW159185   3.869   7.719   4.234
19645SOL    HW259186   3.870   7.836   4.330
19646SOL     OW59187   8.559   7.934   4.709
19646SOL    HW159188   8.626   7.953   4.774
19646SOL    HW259189   8.530   7.845   4.731
19647SOL     OW59190  12.349   8.561   6.282
19647SOL    HW159191  12.383   8.595   6.200
19647SOL    HW259192  12.271   8.613   6.299
19648SOL     OW59193   5.664  11.442   6.248
19648SOL    HW159194   5.636  11.505   6.182
19648SOL    HW259195   5.671  11.359   6.201
19649SOL     OW59196  12.540   9.024   4.495
19649SOL    HW159197  12.471   9.089   4.505
19649SOL    HW259198  12.532   8.993   4.405
19650SOL     OW59199  11.571   3.378   1.890
19650SOL    HW159200  11.488   3.358   1.847
19650SOL    HW259201  11.569   3.472   1.905
19651SOL     OW59202  11.202   6.021   6.370
19651SOL    HW159203  11.144   6.071   6.313
19651SOL    HW259204  11.169   6.039   6.458
19652SOL     OW59205   6.185   4.135   0.477
19652SOL    HW159206   6.269   4.140   0.523
19652SOL    HW259207   6.119   4.152   0.545
19653SOL     OW59208   4.595   7.053   4.663
19653SOL    HW159209   4.548   7.031   4.583
19653SOL    HW259210   4.585   7.148   4.673
19654SOL     OW59211   5.862   7.059   4.376
19654SOL    HW159212   5.917   7.052   4.454
19654SOL    HW259213   5.776   7.029   4.404
19655SOL     OW59214   4.211  12.639   5.046
19655SOL    HW159215   4.174  12.551   5.060
19655SOL    HW259216   4.149  12.698   5.090
19656SOL     OW59217   8.638  10.426   3.526
19656SOL    HW159218   8.677  10.464   3.448
19656SOL    HW259219   8.683  10.342   3.538
19657SOL     OW59220   6.910  14.094   7.130
19657SOL    HW159221   6.950  14.033   7.192
19657SOL    HW259222   6.855  14.150   7.184
19658SOL     OW59223   4.464   6.413   2.441
19658SOL    HW159224   4.374   6.431   2.415
19658SOL    HW259225   4.505   6.375   2.363
19659SOL     OW59226   5.197  12.225   3.659
19659SOL    HW159227   5.237  12.142   3.632
19659SOL    HW259228   5.214  12.231   3.753
19660SOL     OW59229   2.938   8.292   3.580
19660SOL    HW159230   2.966   8.234   3.509
19660SOL    HW259231   2.908   8.232   3.649
19661SOL     OW59232   4.956  12.335   3.299
19661SOL    HW159233   5.012  12.403   3.337
19661SOL    HW259234   4.930  12.280   3.373
19662SOL     OW59235   5.609   3.349   4.257
19662SOL    HW159236   5.516   3.363   4.236
19662SOL    HW259237   5.621   3.388   4.343
19663SOL     OW59238   7.630   5.047   3.110
19663SOL    HW159239   7.686   5.125   3.112
19663SOL    HW259240   7.572   5.061   3.035
19664SOL     OW59241  11.590  12.749   5.387
19664SOL    HW159242  11.540  12.829   5.378
19664SOL    HW259243  11.574  12.719   5.476
19665SOL     OW59244   7.162   9.682   4.588
19665SOL    HW159245   7.204   9.651   4.508
19665SOL    HW259246   7.234   9.704   4.647
19666SOL     OW59247   9.367   8.334   1.199
19666SOL    HW159248   9.309   8.259   1.207
19666SOL    HW259249   9.356   8.364   1.108
19667SOL     OW59250  12.134  11.493   6.044
19667SOL    HW159251  12.143  11.421   6.107
19667SOL    HW259252  12.189  11.467   5.970
19668SOL     OW59253   9.574   3.995   1.921
19668SOL    HW159254   9.570   3.910   1.965
19668SOL    HW259255   9.668   4.012   1.909
19669SOL     OW59256   5.016  15.048   7.077
19669SOL    HW159257   5.100  15.019   7.112
19669SOL    HW259258  15.784  15.140   7.102
19670SOL     OW59259   8.941  12.151   3.560
19670SOL    HW159260   8.929  12.062   3.593
19670SOL    HW259261   8.972  12.139   3.470
19671SOL     OW59262  10.394  12.612   5.567
19671SOL    HW159263  10.460  12.561   5.614
19671SOL    HW259264  10.325  12.628   5.633
19672SOL     OW59265   8.357   6.859   6.593
19672SOL    HW159266   8.296   6.793   6.626
19672SOL    HW259267   8.308   6.942   6.597
19673SOL     OW59268   3.265   6.680   3.897
19673SOL    HW159269   3.196   6.741   3.923
19673SOL    HW259270   3.276   6.623   3.973
19674SOL     OW59271   6.037   6.819   7.462
19674SOL    HW159272   6.118   6.863   7.438
19674SOL    HW259273   5.975   6.890   7.479
19675SOL     OW59274   6.690  11.130   6.285
19675SOL    HW159275   6.597  11.107   6.284
19675SOL    HW259276   6.735  11.049   6.307
19676SOL     OW59277  10.510   9.042   0.300
19676SOL    HW159278  10.417   9.044   0.281
19676SOL    HW259279  10.546   8.978   0.238
19677SOL     OW59280   1.525   5.378   0.229
19677SOL    HW159281   1.607   5.331   0.212
19677SOL    HW259282   1.550   5.470   0.229
19678SOL     OW59283  14.125  13.287   7.504
19678SOL    HW159284  14.152  13.331   7.423
19678SOL    HW259285  14.037  13.255   7.485
19679SOL     OW59286   7.670  13.107   4.566
19679SOL    HW159287   7.613  13.130   4.492
19679SOL    HW259288   7.758  13.132   4.537
19680SOL     OW59289   5.923   4.044   3.130
19680SOL    HW159290   5.939   3.952   3.151
19680SOL    HW259291   5.828   4.052   3.128
19681SOL     OW59292   2.236   9.569   1.942
19681SOL    HW159293   2.194   9.546   1.860
19681SOL    HW259294   2.167   9.557   2.008
19682SOL     OW59295   8.709   8.131   5.428
19682SOL    HW159296   8.769   8.159   5.359
19682SOL    HW259297   8.690   8.039   5.407
19683SOL     OW59298   7.229   3.261   4.452
19683SOL    HW159299   7.240  13.948   4.490
19683SOL    HW259300   7.194   3.245   4.365
19684SOL     OW59301   8.186  12.044   3.209
19684SOL    HW159302   8.276  12.076   3.219
19684SOL    HW259303   8.194  11.950   3.200
19685SOL     OW59304  11.107   2.004   2.231
19685SOL    HW159305  11.119   2.038   2.142
19685SOL    HW259306  11.061   2.074   2.277
19686SOL     OW59307  11.529  10.274   5.855
19686SOL    HW159308  11.618  10.252   5.880
19686SOL    HW259309  11.528  10.370   5.852
19687SOL     OW59310  11.031   2.786   3.595
19687SOL    HW159311  11.096   2.856   3.605
19687SOL    HW259312  10.962   2.824   3.541
19688SOL     OW59313   4.901  12.555   4.188
19688SOL    HW159314   4.859  12.491   4.245
19688SOL    HW259315   4.844  12.632   4.193
19689SOL     OW59316   2.570  12.480   2.518
19689SOL    HW159317   2.623  12.401   2.509
19689SOL    HW259318   2.501  12.456   2.579
19690SOL     OW59319  12.310  11.202   2.841
19690SOL    HW159320  12.293  11.220   2.933
19690SOL    HW259321  12.398  11.235   2.825
19691SOL     OW59322   9.368  14.692   5.764
19691SOL    HW159323   9.331  14.626   5.822
19691SOL    HW259324   9.318  14.684   5.683
19692SOL     OW59325  14.731   6.382   6.761
19692SOL    HW159326  14.672   6.437   6.813
19692SOL    HW259327  14.763   6.439   6.692
19693SOL     OW59328  13.524  11.801   6.285
19693SOL    HW159329  13.452  11.751   6.322
19693SOL    HW259330  13.504  11.892   6.306
19694SOL     OW59331   4.693  10.180   5.800
19694SOL    HW159332   4.751  10.123   5.850
19694SOL    HW259333   4.678  10.255   5.858
19695SOL     OW59334  11.648   5.872   4.122
19695SOL    HW159335  11.600   5.794   4.097
19695SOL    HW259336  11.704   5.844   4.195
19696SOL     OW59337  12.333  11.539   2.964
19696SOL    HW159338  12.310  11.446   2.966
19696SOL    HW259339  12.418  11.541   2.919
19697SOL     OW59340  12.755   7.722   6.612
19697SOL    HW159341  12.666   7.688   6.621
19697SOL    HW259342  12.795   7.710   6.698
19698SOL     OW59343   5.937  15.423   6.875
19698SOL    HW159344   5.946  15.442   6.782
19698SOL    HW259345   5.842  15.415   6.889
19699SOL     OW59346  11.191   6.400   4.529
19699SOL    HW159347  11.136   6.387   4.607
19699SOL    HW259348  11.226   6.488   4.538
19700SOL     OW59349   9.154  14.495   6.717
19700SOL    HW159350   9.228  14.485   6.657
19700SOL    HW259351   9.081  14.450   6.675
19701SOL     OW59352  12.055  11.947   4.983
19701SOL    HW159353  12.038  11.961   4.890
19701SOL    HW259354  11.997  12.008   5.028
19702SOL     OW59355   4.598  11.235   0.890
19702SOL    HW159356   4.575  11.324   0.863
19702SOL    HW259357   4.521  11.204   0.938
19703SOL     OW59358   3.784   7.096   3.391
19703SOL    HW159359   3.788   7.003   3.366
19703SOL    HW259360   3.780   7.143   3.308
19704SOL     OW59361   4.478   3.685   2.143
19704SOL    HW159362   4.405   3.724   2.191
19704SOL    HW259363   4.437   3.642   2.068
19705SOL     OW59364   6.310   8.965   2.741
19705SOL    HW159365   6.351   8.945   2.825
19705SOL    HW259366   6.237   8.903   2.735
19706SOL     OW59367   7.794  11.142   3.495
19706SOL    HW159368   7.852  11.065   3.498
19706SOL    HW259369   7.705  11.105   3.502
19707SOL     OW59370   9.192   4.256   1.507
19707SOL    HW159371   9.177   4.281   1.416
19707SOL    HW259372   9.164   4.332   1.558
19708SOL     OW59373  13.153   7.024   5.623
19708SOL    HW159374  13.208   7.037   5.546
19708SOL    HW259375  13.073   6.984   5.589
19709SOL     OW59376  11.090   7.587   6.529
19709SOL    HW159377  11.043   7.631   6.459
19709SOL    HW259378  11.168   7.641   6.543
19710SOL     OW59379  13.675   8.591   7.458
19710SOL    HW159380  13.765   8.562   7.473
19710SOL    HW259381  13.654   8.557   7.371
19711SOL     OW59382  11.266  11.092   5.154
19711SOL    HW159383  11.225  11.161   5.206
19711SOL    HW259384  11.215  11.014   5.173
19712SOL     OW59385   8.055   5.127   3.773
19712SOL    HW159386   8.080   5.129   3.866
19712SOL    HW259387   8.133   5.157   3.727
19713SOL     OW59388   2.564   5.012   0.028
19713SOL    HW159389   2.473   5.040   0.018
19713SOL    HW259390   2.562   4.917   0.015
19714SOL     OW59391   5.655   6.811   4.898
19714SOL    HW159392   5.710   6.760   4.958
19714SOL    HW259393   5.715   6.844   4.831
19715SOL     OW59394   9.867   5.948   4.207
19715SOL    HW159395   9.946   5.978   4.251
19715SOL    HW259396   9.835   6.025   4.160
19716SOL     OW59397   2.319  11.015   2.628
19716SOL    HW159398   2.330  10.924   2.658
19716SOL    HW259399   2.384  11.025   2.559
19717SOL     OW59400   0.888   7.593   1.187
19717SOL    HW159401   0.967   7.569   1.235
19717SOL    HW259402   0.906   7.680   1.151
19718SOL     OW59403   2.986   3.856   3.863
19718SOL    HW159404   3.024   3.788   3.918
19718SOL    HW259405   3.047   3.864   3.789
19719SOL     OW59406   5.225  13.497   3.886
19719SOL    HW159407   5.208   2.738   3.793
19719SOL    HW259408   5.319  13.515   3.895
19720SOL     OW59409   8.296  10.445   5.034
19720SOL    HW159410   8.328  10.521   4.986
19720SOL    HW259411   8.266  10.481   5.117
19721SOL     OW59412   4.190  14.100   5.759
19721SOL    HW159413   4.230  14.187   5.761
19721SOL    HW259414   4.219  14.063   5.676
19722SOL     OW59415  13.370  12.977   4.211
19722SOL    HW159416  13.307  12.921   4.256
19722SOL    HW259417  13.425  12.916   4.162
19723SOL     OW59418  10.987   4.021   5.200
19723SOL    HW159419  11.037   4.042   5.121
19723SOL    HW259420  10.953   3.932   5.184
19724SOL     OW59421   9.786   8.691   5.606
19724SOL    HW159422   9.731   8.613   5.606
19724SOL    HW259423   9.752   8.745   5.678
19725SOL     OW59424   7.067   8.293   7.257
19725SOL    HW159425   7.123   8.215   7.260
19725SOL    HW259426   6.985   8.264   7.297
19726SOL     OW59427  12.342  10.209   7.261
19726SOL    HW159428  12.372  10.150   7.331
19726SOL    HW259429  12.421  10.225   7.209
19727SOL     OW59430   5.490   8.427   4.804
19727SOL    HW159431   5.458   8.476   4.729
19727SOL    HW259432   5.446   8.467   4.879
19728SOL     OW59433  11.454   5.266   1.753
19728SOL    HW159434  11.405   5.349   1.751
19728SOL    HW259435  11.545   5.293   1.767
19729SOL     OW59436  10.865  10.380   5.726
19729SOL    HW159437  10.811  10.404   5.802
19729SOL    HW259438  10.833  10.435   5.655
19730SOL     OW59439   6.954   6.691   1.341
19730SOL    HW159440   6.933   6.730   1.256
19730SOL    HW259441   6.872   6.694   1.390
19731SOL     OW59442  13.210  10.455   3.508
19731SOL    HW159443  13.188  10.542   3.539
19731SOL    HW259444  13.288  10.431   3.559
19732SOL     OW59445   6.528   8.347   6.973
19732SOL    HW159446   6.605   8.328   7.025
19732SOL    HW259447   6.548   8.312   6.886
19733SOL     OW59448  10.427   3.304   0.145
19733SOL    HW159449  10.472   3.226   0.179
19733SOL    HW259450  10.394   3.277   0.059
19734SOL     OW59451   6.838   9.498   3.147
19734SOL    HW159452   6.883   9.538   3.222
19734SOL    HW259453   6.748   9.529   3.153
19735SOL     OW59454  12.211  10.229   7.600
19735SOL    HW159455  12.123  10.266   7.609
19735SOL    HW259456   6.847   4.812   0.069
19736SOL     OW59457   1.951   3.109   0.964
19736SOL    HW159458   2.026   3.060   0.999
19736SOL    HW259459   1.878   3.084   1.020
19737SOL     OW59460   6.965   7.674   1.415
19737SOL    HW159461   6.889   7.658   1.360
19737SOL    HW259462   6.980   7.590   1.459
19738SOL     OW59463   2.691  11.588   3.387
19738SOL    HW159464   2.768  11.583   3.444
19738SOL    HW259465   2.640  11.511   3.409
19739SOL     OW59466  11.104  12.524   3.773
19739SOL    HW159467  11.040  12.459   3.743
19739SOL    HW259468  11.189  12.481   3.760
19740SOL     OW59469   6.397   7.251   3.118
19740SOL    HW159470   6.454   7.297   3.180
19740SOL    HW259471   6.316   7.236   3.167
19741SOL     OW59472   7.148  12.606   6.045
19741SOL    HW159473   7.153  12.533   5.983
19741SOL    HW259474   7.236  12.644   6.045
19742SOL     OW59475   2.054   5.581   2.468
19742SOL    HW159476   2.145   5.603   2.451
19742SOL    HW259477   2.023   5.647   2.529
19743SOL     OW59478   4.762  11.530   3.576
19743SOL    HW159479   4.765  11.579   3.658
19743SOL    HW259480   4.701  11.459   3.593
19744SOL     OW59481   9.470  13.786   6.262
19744SOL    HW159482   9.451  13.875   6.292
19744SOL    HW259483   9.397  13.763   6.206
19745SOL     OW59484   2.124   9.605   2.376
19745SOL    HW159485   2.106   9.679   2.318
19745SOL    HW259486   2.216   9.585   2.361
19746SOL     OW59487   9.392  10.859   3.484
19746SOL    HW159488   9.486  10.842   3.492
19746SOL    HW259489   9.352  10.797   3.545
19747SOL     OW59490  11.428   6.416   1.203
19747SOL    HW159491  11.358   6.354   1.183
19747SOL    HW259492  11.437   6.411   1.298
19748SOL     OW59493   8.199  11.957   7.542
19748SOL    HW159494   8.153  12.019   7.598
19748SOL    HW259495   8.130  11.901   7.507
19749SOL     OW59496   4.623  11.509   2.540
19749SOL    HW159497   4.542  11.527   2.493
19749SOL    HW259498   4.598  11.512   2.633
19750SOL     OW59499  12.547   7.706   6.845
19750SOL    HW159500  12.511   7.623   6.877
19750SOL    HW259501  12.629   7.717   6.894
19751SOL     OW59502   9.138  10.620   4.834
19751SOL    HW159503   9.224  10.656   4.813
19751SOL    HW259504   9.153  10.559   4.905
19752SOL     OW59505   2.091   8.605   0.153
19752SOL    HW159506   2.150   8.636   0.223
19752SOL    HW259507   2.043   8.684   0.127
19753SOL     OW59508   4.901   7.609   5.472
19753SOL    HW159509   4.877   7.628   5.562
19753SOL    HW259510   4.838   7.543   5.443
19754SOL     OW59511   8.135  13.061   7.289
19754SOL    HW159512   8.128  13.006   7.211
19754SOL    HW259513   8.044  13.078   7.315
19755SOL     OW59514   8.756   7.220   1.655
19755SOL    HW159515   8.677   7.172   1.682
19755SOL    HW259516   8.797   7.247   1.738
19756SOL     OW59517   8.726   5.829   5.117
19756SOL    HW159518   8.726   5.840   5.212
19756SOL    HW259519   8.803   5.879   5.087
19757SOL     OW59520   1.393   7.365   0.595
19757SOL    HW159521   1.388   7.390   0.503
19757SOL    HW259522   1.322   7.412   0.637
19758SOL     OW59523   8.905   5.409   0.126
19758SOL    HW159524   8.836   5.459   0.169
19758SOL    HW259525   8.956   5.474   0.078
19759SOL     OW59526   2.800   0.850   0.340
19759SOL    HW159527   2.764   0.889   0.260
19759SOL    HW259528   2.858   0.780   0.308
19760SOL     OW59529   3.889   8.745   2.995
19760SOL    HW159530   3.982   8.722   2.990
19760SOL    HW259531   3.885   8.814   3.061
19761SOL     OW59532   8.329   6.793   6.272
19761SOL    HW159533   8.269   6.719   6.269
19761SOL    HW259534   8.381   6.784   6.192
19762SOL     OW59535   8.486   3.636   0.493
19762SOL    HW159536   8.518   3.685   0.569
19762SOL    HW259537   8.491   3.698   0.420
19763SOL     OW59538  12.055   4.016   2.352
19763SOL    HW159539  11.982   4.024   2.414
19763SOL    HW259540  12.045   3.928   2.314
19764SOL     OW59541  11.615  12.102   4.506
19764SOL    HW159542  11.626  12.192   4.538
19764SOL    HW259543  11.659  12.102   4.421
19765SOL     OW59544  12.502   6.194   6.816
19765SOL    HW159545  12.539   6.261   6.758
19765SOL    HW259546  12.416   6.228   6.841
19766SOL     OW59547   9.068   9.766   2.625
19766SOL    HW159548   9.072   9.721   2.710
19766SOL    HW259549   8.979   9.750   2.594
19767SOL     OW59550   5.311   5.717   1.282
19767SOL    HW159551   5.345   5.728   1.193
19767SOL    HW259552   5.221   5.747   1.277
19768SOL     OW59553  13.331   6.214   3.989
19768SOL    HW159554  13.270   6.252   4.052
19768SOL    HW259555  13.301   6.123   3.979
19769SOL     OW59556   1.751   6.245   0.141
19769SOL    HW159557   1.679   6.278   0.195
19769SOL    HW259558   1.824   6.305   0.157
19770SOL     OW59559   6.816   4.961   6.229
19770SOL    HW159560   6.827   4.908   6.150
19770SOL    HW259561   6.788   5.046   6.197
19771SOL     OW59562  11.378   5.211   3.416
19771SOL    HW159563  11.413   5.288   3.371
19771SOL    HW259564  11.403   5.223   3.508
19772SOL     OW59565   4.078   4.719   0.930
19772SOL    HW159566   4.052   4.629   0.948
19772SOL    HW259567   4.152   4.735   0.989
19773SOL     OW59568   0.928   0.725   0.794
19773SOL    HW159569   0.937   0.630   0.779
19773SOL    HW259570   0.834   0.741   0.795
19774SOL     OW59571   9.755   7.636   0.447
19774SOL    HW159572   9.702   7.581   0.389
19774SOL    HW259573   9.764   7.719   0.399
19775SOL     OW59574  12.279  10.555   4.757
19775SOL    HW159575  12.331  10.479   4.730
19775SOL    HW259576  12.268  10.607   4.677
19776SOL     OW59577   7.877  10.640   3.677
19776SOL    HW159578   7.965  10.662   3.648
19776SOL    HW259579   7.821  10.663   3.603
19777SOL     OW59580   3.269   7.295   3.937
19777SOL    HW159581   3.223   7.214   3.960
19777SOL    HW259582   3.333   7.308   4.007
19778SOL     OW59583  11.489   4.651   3.018
19778SOL    HW159584  11.444   4.577   2.977
19778SOL    HW259585  11.524   4.616   3.099
19779SOL     OW59586   6.503  10.563   3.813
19779SOL    HW159587   6.569  10.595   3.875
19779SOL    HW259588   6.458  10.642   3.784
19780SOL     OW59589   8.274   3.362   3.679
19780SOL    HW159590   8.251   3.353   3.587
19780SOL    HW259591   8.360   3.320   3.687
19781SOL     OW59592  10.238  15.413   7.517
19781SOL    HW159593  10.186  15.372   7.585
19781SOL    HW259594  10.322  15.367   7.519
19782SOL     OW59595  14.153  13.203   6.654
19782SOL    HW159596  14.249  13.202   6.656
19782SOL    HW259597  14.130  13.204   6.561
19783SOL     OW59598   3.910   9.969   2.872
19783SOL    HW159599   3.981   9.914   2.905
19783SOL    HW259600   3.935   9.988   2.781
19784SOL     OW59601   8.608   5.079   3.209
19784SOL    HW159602   8.696   5.057   3.237
19784SOL    HW259603   8.610   5.174   3.197
19785SOL     OW59604   8.715  11.717   6.672
19785SOL    HW159605   8.744  11.772   6.599
19785SOL    HW259606   8.668  11.644   6.629
19786SOL     OW59607   7.037  13.966   4.663
19786SOL    HW159608   6.946  13.952   4.688
19786SOL    HW259609   7.032  14.007   4.576
19787SOL     OW59610   5.388   9.369   0.843
19787SOL    HW159611   5.334   9.431   0.891
19787SOL    HW259612   5.377   9.286   0.891
19788SOL     OW59613   3.017  10.895   0.216
19788SOL    HW159614   3.038  10.811   0.257
19788SOL    HW259615   3.042  10.960   0.281
19789SOL     OW59616   5.532   2.844   3.511
19789SOL    HW159617   5.477   2.770   3.539
19789SOL    HW259618   5.519   2.848   3.416
19790SOL     OW59619   4.878  13.517   6.355
19790SOL    HW159620   4.874  13.602   6.312
19790SOL    HW259621   4.966  13.512   6.391
19791SOL     OW59622   4.224  10.150   2.304
19791SOL    HW159623   4.238  10.136   2.211
19791SOL    HW259624   4.270  10.077   2.347
19792SOL     OW59625  14.202   5.250   6.621
19792SOL    HW159626  14.199   5.211   6.534
19792SOL    HW259627  14.204   5.344   6.604
19793SOL     OW59628   5.439  11.685   4.651
19793SOL    HW159629   5.382  11.616   4.687
19793SOL    HW259630   5.522  11.641   4.635
19794SOL     OW59631   4.051   9.538   3.471
19794SOL    HW159632   4.081   9.463   3.524
19794SOL    HW259633   4.070   9.614   3.525
19795SOL     OW59634   9.281   3.516   0.360
19795SOL    HW159635   9.321   3.469   0.287
19795SOL    HW259636   9.236   3.448   0.411
19796SOL     OW59637   7.310   8.980   6.342
19796SOL    HW159638   7.401   9.009   6.337
19796SOL    HW259639   7.267   9.024   6.269
19797SOL     OW59640   9.419  12.336   2.516
19797SOL    HW159641   9.451  12.318   2.428
19797SOL    HW259642   9.375  12.256   2.543
19798SOL     OW59643   4.546   8.735   4.039
19798SOL    HW159644   4.521   8.643   4.027
19798SOL    HW259645   4.516   8.778   3.960
19799SOL     OW59646   3.681   6.389   0.054
19799SOL    HW159647   3.654   6.332   0.126
19799SOL    HW259648   9.114  11.718   7.612
19800SOL     OW59649  11.029  13.338   4.944
19800SOL    HW159650  11.121  13.322   4.966
19800SOL    HW259651  11.031  13.414   4.886
19801SOL     OW59652   9.825   3.873   4.675
19801SOL    HW159653   9.757   3.930   4.709
19801SOL    HW259654   9.904   3.926   4.675
19802SOL     OW59655   4.948  11.020   2.907
19802SOL    HW159656   4.926  10.977   2.990
19802SOL    HW259657   4.934  11.113   2.925
19803SOL     OW59658   5.447   8.266   0.281
19803SOL    HW159659   5.530   8.225   0.302
19803SOL    HW259660   5.470   8.349   0.241
19804SOL     OW59661   9.668   7.063   5.889
19804SOL    HW159662   9.701   7.097   5.972
19804SOL    HW259663   9.691   7.132   5.825
19805SOL     OW59664   3.503   2.959   0.217
19805SOL    HW159665   3.583   2.991   0.175
19805SOL    HW259666   3.471   3.034   0.268
19806SOL     OW59667  12.823  12.015   3.403
19806SOL    HW159668  12.778  11.952   3.346
19806SOL    HW259669  12.812  12.100   3.358
19807SOL     OW59670  14.713  14.440   6.517
19807SOL    HW159671  14.745  14.402   6.435
19807SOL    HW259672  14.791  14.442   6.573
19808SOL     OW59673   3.172   8.207   2.960
19808SOL    HW159674   3.210   8.147   2.895
19808SOL    HW259675   3.111   8.261   2.909
19809SOL     OW59676  13.950  12.398   4.537
19809SOL    HW159677  13.958  12.378   4.630
19809SOL    HW259678   3.266  12.413   4.508
19810SOL     OW59679   9.324   3.097   3.272
19810SOL    HW159680   9.280   3.076   3.189
19810SOL    HW259681   9.298   3.027   3.332
19811SOL     OW59682   4.355   5.590   3.100
19811SOL    HW159683   4.310   5.513   3.134
19811SOL    HW259684   4.415   5.556   3.035
19812SOL     OW59685  11.247   4.669   6.149
19812SOL    HW159686  11.334   4.687   6.183
19812SOL    HW259687  11.187   4.713   6.210
19813SOL     OW59688   4.862  10.469   0.900
19813SOL    HW159689   4.777  10.484   0.943
19813SOL    HW259690   4.926  10.506   0.961
19814SOL     OW59691  12.974   9.563   4.380
19814SOL    HW159692  12.890   9.516   4.389
19814SOL    HW259693  12.977   9.587   4.287
19815SOL     OW59694   2.494   3.322   1.661
19815SOL    HW159695   2.437   3.372   1.720
19815SOL    HW259696   2.529   3.388   1.600
19816SOL     OW59697   0.437   3.162   0.367
19816SOL    HW159698   0.467   3.239   0.414
19816SOL    HW259699   0.490   3.090   0.402
19817SOL     OW59700  10.529   8.252   5.573
19817SOL    HW159701  10.457   8.284   5.628
19817SOL    HW259702  10.584   8.329   5.559
19818SOL     OW59703   9.874  11.748   6.287
19818SOL    HW159704   9.899  11.792   6.368
19818SOL    HW259705   9.803  11.689   6.312
19819SOL     OW59706   8.214   3.645   0.642
19819SOL    HW159707   8.296   3.652   0.593
19819SOL    HW259708   8.180   3.734   0.645
19820SOL     OW59709  14.771   8.834   7.015
19820SOL    HW159710  14.827   8.904   7.046
19820SOL    HW259711  14.786   8.762   7.076
19821SOL     OW59712  10.169   6.082   4.878
19821SOL    HW159713  10.213   5.997   4.876
19821SOL    HW259714  10.083   6.064   4.916
19822SOL     OW59715  13.397  10.176   4.293
19822SOL    HW159716  13.424  10.267   4.301
19822SOL    HW259717  13.431  10.134   4.372
19823SOL     OW59718  12.443   8.993   6.303
19823SOL    HW159719  12.459   8.989   6.209
19823SOL    HW259720  12.530   9.008   6.341
19824SOL     OW59721   6.186  10.090   6.507
19824SOL    HW159722   6.207  10.052   6.593
19824SOL    HW259723   6.267  10.078   6.456
19825SOL     OW59724   4.702   4.442   0.510
19825SOL    HW159725   4.792   4.469   0.492
19825SOL    HW259726   4.655   4.522   0.532
19826SOL     OW59727   6.458   3.918   5.097
19826SOL    HW159728   6.379   3.911   5.044
19826SOL    HW259729   6.438   3.870   5.177
19827SOL     OW59730  10.573   5.208   3.335
19827SOL    HW159731  10.546   5.281   3.391
19827SOL    HW259732  10.641   5.245   3.279
19828SOL     OW59733  12.226   3.896   4.069
19828SOL    HW159734  12.157   3.926   4.129
19828SOL    HW259735  12.178   3.859   3.995
19829SOL     OW59736  11.234  14.787   7.537
19829SOL    HW159737  11.210  14.871   7.576
19829SOL    HW259738  11.152  14.754   7.500
19830SOL     OW59739   5.080   1.207   0.848
19830SOL    HW159740   5.174   1.223   0.849
19830SOL    HW259741   5.047   1.262   0.776
19831SOL     OW59742   7.573   7.260   7.136
19831SOL    HW159743   7.599   7.180   7.090
19831SOL    HW259744   7.547   7.320   7.066
19832SOL     OW59745  11.204   7.989   7.331
19832SOL    HW159746  11.282   7.953   7.375
19832SOL    HW259747  11.239   8.061   7.278
19833SOL     OW59748   1.948   4.174   2.462
19833SOL    HW159749   1.877   4.127   2.417
19833SOL    HW259750   1.912   4.261   2.479
19834SOL     OW59751  15.006  13.022   5.986
19834SOL    HW159752   4.296  13.093   5.984
19834SOL    HW259753  14.921  13.066   5.982
19835SOL     OW59754  10.154   3.588   1.950
19835SOL    HW159755  10.108   3.582   2.033
19835SOL    HW259756  10.247   3.593   1.974
19836SOL     OW59757  10.536   4.441   4.382
19836SOL    HW159758  10.481   4.401   4.450
19836SOL    HW259759  10.567   4.523   4.421
19837SOL     OW59760   9.768   4.543   4.465
19837SOL    HW159761   9.711   4.590   4.526
19837SOL    HW259762   9.747   4.451   4.478
19838SOL     OW59763   2.147   8.481   2.462
19838SOL    HW159764   2.227   8.435   2.489
19838SOL    HW259765   2.175   8.571   2.447
19839SOL     OW59766   5.642  10.068   0.297
19839SOL    HW159767   5.623  10.076   0.204
19839SOL    HW259768   5.601   9.986   0.323
19840SOL     OW59769   5.932   1.282   0.650
19840SOL    HW159770   5.961   1.285   0.559
19840SOL    HW259771   5.988   1.217   0.691
19841SOL     OW59772  11.106   6.762   7.115
19841SOL    HW159773  11.093   6.715   7.198
19841SOL    HW259774  11.181   6.719   7.075
19842SOL     OW59775  15.787  10.726   7.386
19842SOL    HW159776  15.796  10.678   7.304
19842SOL    HW259777  15.763  10.815   7.359
19843SOL     OW59778   7.449   9.270   1.848
19843SOL    HW159779   7.399   9.194   1.876
19843SOL    HW259780   7.540   9.248   1.867
19844SOL     OW59781  12.009  10.802   6.597
19844SOL    HW159782  12.102  10.804   6.575
19844SOL    HW259783  11.998  10.876   6.658
19845SOL     OW59784   8.279  14.344   5.587
19845SOL    HW159785   8.299  14.279   5.655
19845SOL    HW259786   8.244  14.419   5.635
19846SOL     OW59787   9.888   4.188   0.877
19846SOL    HW159788   9.815   4.185   0.938
19846SOL    HW259789   9.918   4.279   0.878
19847SOL     OW59790   9.579   7.666   6.371
19847SOL    HW159791   9.656   7.715   6.342
19847SOL    HW259792   9.614   7.584   6.406
19848SOL     OW59793   3.701   8.543   5.152
19848SOL    HW159794   3.792   8.542   5.124
19848SOL    HW259795   3.659   8.474   5.101
19849SOL     OW59796   6.798   5.637   3.953
19849SOL    HW159797   6.796   5.606   4.043
19849SOL    HW259798   6.878   5.600   3.916
19850SOL     OW59799  10.885   9.659   1.565
19850SOL    HW159800  10.895   9.707   1.482
19850SOL    HW259801  10.834   9.717   1.620
19851SOL     OW59802   1.582  10.423   1.220
19851SOL    HW159803   1.544  10.376   1.295
19851SOL    HW259804   1.674  10.436   1.244
19852SOL     OW59805  10.800   4.208   2.318
19852SOL    HW159806  10.728   4.200   2.381
19852SOL    HW259807  10.810   4.303   2.307
19853SOL     OW59808  13.943   8.826   5.416
19853SOL    HW159809  13.882   8.851   5.485
19853SOL    HW259810  13.892   8.827   5.335
19854SOL     OW59811   6.901  10.527   3.818
19854SOL    HW159812   6.834  10.584   3.856
19854SOL    HW259813   6.896  10.447   3.870
19855SOL     OW59814   8.846   8.255   3.320
19855SOL    HW159815   8.936   8.220   3.314
19855SOL    HW259816   8.847   8.310   3.398
19856SOL     OW59817  11.000  11.602   3.556
19856SOL    HW159818  11.073  11.541   3.557
19856SOL    HW259819  10.927  11.553   3.594
19857SOL     OW59820  10.001   9.282   5.883
19857SOL    HW159821   9.984   9.375   5.899
19857SOL    HW259822  10.096   9.274   5.890
19858SOL     OW59823  10.220   3.550   1.082
19858SOL    HW159824  10.255   3.522   1.167
19858SOL    HW259825  10.145   3.492   1.067
19859SOL     OW59826  11.769  15.336   6.795
19859SOL    HW159827  11.740  15.355   6.705
19859SOL    HW259828  11.864  15.327   6.787
19860SOL     OW59829   1.984   4.803   1.441
19860SOL    HW159830   2.022   4.719   1.467
19860SOL    HW259831   1.897   4.781   1.409
19861SOL     OW59832   6.646   2.951   0.182
19861SOL    HW159833   6.719   3.006   0.154
19861SOL    HW259834   6.569   2.992   0.142
19862SOL     OW59835   7.915  13.899   5.967
19862SOL    HW159836   7.876  13.828   5.916
19862SOL    HW259837   7.850  13.919   6.034
19863SOL     OW59838  12.078   8.113   4.474
19863SOL    HW159839  12.027   8.032   4.479
19863SOL    HW259840  12.079   8.134   4.381
19864SOL     OW59841  12.601   6.220   4.825
19864SOL    HW159842  12.624   6.305   4.788
19864SOL    HW259843  12.546   6.241   4.901
19865SOL     OW59844   0.261   4.668   0.193
19865SOL    HW159845   0.169   4.658   0.168
19865SOL    HW259846   0.261   4.660   0.289
19866SOL     OW59847   9.587   4.756   3.014
19866SOL    HW159848   9.635   4.676   2.992
19866SOL    HW259849   9.650   4.826   3.001
19867SOL     OW59850  14.244  12.801   5.382
19867SOL    HW159851  14.212  12.881   5.340
19867SOL    HW259852  14.177  12.736   5.364
19868SOL     OW59853  10.647   3.464   1.803
19868SOL    HW159854  10.670   3.533   1.742
19868SOL    HW259855  10.686   3.385   1.765
19869SOL     OW59856   4.665   7.728   1.804
19869SOL    HW159857   4.747   7.703   1.761
19869SOL    HW259858   4.648   7.658   1.866
19870SOL     OW59859  10.122   2.863   1.447
19870SOL    HW159860  10.062   2.880   1.374
19870SOL    HW259861  10.159   2.777   1.429
19871SOL     OW59862   9.608  10.209   4.482
19871SOL    HW159863   9.658  10.131   4.458
19871SOL    HW259864   9.651  10.242   4.561
19872SOL     OW59865  12.862   6.597   6.377
19872SOL    HW159866  12.957   6.584   6.374
19872SOL    HW259867  12.846   6.668   6.315
19873SOL     OW59868   8.844  10.868   5.296
19873SOL    HW159869   8.826  10.874   5.202
19873SOL    HW259870   8.823  10.955   5.330
19874SOL     OW59871   5.608   2.826   0.160
19874SOL    HW159872   5.690   2.868   0.136
19874SOL    HW259873   5.569   2.885   0.224
19875SOL     OW59874   9.648  11.010   5.682
19875SOL    HW159875   9.656  10.968   5.768
19875SOL    HW259876   9.737  11.004   5.645
19876SOL     OW59877   3.699  13.235   4.342
19876SOL    HW159878   3.653  13.304   4.390
19876SOL    HW259879   3.736  13.280   4.266
19877SOL     OW59880   5.686  12.468   5.407
19877SOL    HW159881   5.660  12.550   5.364
19877SOL    HW259882   5.652  12.476   5.496
19878SOL     OW59883   5.893   9.192   2.323
19878SOL    HW159884   5.893   9.164   2.232
19878SOL    HW259885   5.985   9.195   2.348
19879SOL     OW59886   2.084   5.366   1.824
19879SOL    HW159887   2.017   5.367   1.756
19879SOL    HW259888   2.068   5.284   1.872
19880SOL     OW59889   9.357   6.354   5.556
19880SOL    HW159890   9.428   6.410   5.524
19880SOL    HW259891   9.401   6.274   5.586
19881SOL     OW59892   4.240   6.310   1.424
19881SOL    HW159893   4.152   6.291   1.458
19881SOL    HW259894   4.273   6.378   1.483
19882SOL     OW59895   7.484   7.963   1.831
19882SOL    HW159896   7.565   7.961   1.882
19882SOL    HW259897   7.503   8.022   1.758
19883SOL     OW59898  10.765   7.579   4.625
19883SOL    HW159899  10.854   7.611   4.637
19883SOL    HW259900  10.709   7.651   4.654
19884SOL     OW59901   4.621   8.217   1.109
19884SOL    HW159902   4.615   8.253   1.020
19884SOL    HW259903   4.578   8.283   1.164
19885SOL     OW59904   3.837   0.662   0.539
19885SOL    HW159905   3.892   0.652   0.617
19885SOL    HW259906   3.750   0.636   0.568
19886SOL     OW59907   5.285   9.054   2.352
19886SOL    HW159908   5.257   9.049   2.261
19886SOL    HW259909   5.212   9.096   2.398
19887SOL     OW59910   2.425   8.580   2.728
19887SOL    HW159911   2.496   8.517   2.740
19887SOL    HW259912   2.439   8.615   2.640
19888SOL     OW59913  11.414  12.703   3.232
19888SOL    HW159914  11.465  12.690   3.152
19888SOL    HW259915  11.434  12.793   3.259
19889SOL     OW59916   4.021  12.256   3.583
19889SOL    HW159917   4.072  12.327   3.623
19889SOL    HW259918   3.989  12.293   3.501
19890SOL     OW59919   6.206   5.121   4.698
19890SOL    HW159920   6.206   5.125   4.793
19890SOL    HW259921   6.297   5.139   4.673
19891SOL     OW59922   8.086  10.167   7.424
19891SOL    HW159923   8.135  10.159   7.506
19891SOL    HW259924   8.011  10.108   7.434
19892SOL     OW59925  11.225   6.010   5.434
19892SOL    HW159926  11.158   6.076   5.451
19892SOL    HW259927  11.308   6.057   5.447
19893SOL     OW59928  14.069  15.743   7.468
19893SOL    HW159929  14.066  15.682   7.394
19893SOL    HW259930  14.159  15.775   7.469
19894SOL     OW59931   7.431   3.572   2.283
19894SOL    HW159932   7.353   3.627   2.291
19894SOL    HW259933   7.491   3.608   2.348
19895SOL     OW59934  13.764   7.410   4.789
19895SOL    HW159935  13.825   7.477   4.758
19895SOL    HW259936  13.699   7.458   4.841
19896SOL     OW59937   4.418   4.753   5.182
19896SOL    HW159938   4.500   4.740   5.228
19896SOL    HW259939   4.432   4.713   5.096
19897SOL     OW59940   6.542  10.302   5.043
19897SOL    HW159941   6.617  10.314   4.986
19897SOL    HW259942   6.515  10.211   5.028
19898SOL     OW59943   4.204   8.600   1.998
19898SOL    HW159944   4.272   8.571   1.938
19898SOL    HW259945   4.139   8.643   1.942
19899SOL     OW59946   6.341   7.358   6.345
19899SOL    HW159947   6.432   7.343   6.318
19899SOL    HW259948   6.292   7.359   6.263
19900SOL     OW59949   6.541   5.295   3.321
19900SOL    HW159950   6.450   5.327   3.319
19900SOL    HW259951   6.594   5.375   3.317
19901SOL     OW59952   7.060   5.674   4.170
19901SOL    HW159953   7.017   5.714   4.245
19901SOL    HW259954   7.072   5.582   4.195
19902SOL     OW59955   5.808  10.983   0.477
19902SOL    HW159956   5.813  10.999   0.571
19902SOL    HW259957   5.844  10.895   0.465
19903SOL     OW59958  11.080  10.932   1.777
19903SOL    HW159959  11.169  10.905   1.753
19903SOL    HW259960  11.093  11.002   1.841
19904SOL     OW59961   4.171  12.828   4.237
19904SOL    HW159962   4.204  12.848   4.324
19904SOL    HW259963   4.225  12.755   4.207
19905SOL     OW59964   2.612  12.138   2.330
19905SOL    HW159965   2.532  12.122   2.379
19905SOL    HW259966   2.675  12.074   2.363
19906SOL     OW59967   8.675   8.405   3.016
19906SOL    HW159968   8.750   8.463   3.006
19906SOL    HW259969   8.631   8.435   3.096
19907SOL     OW59970   7.422   6.393   4.268
19907SOL    HW159971   7.342   6.346   4.287
19907SOL    HW259972   7.417   6.472   4.321
19908SOL     OW59973   5.021   4.190   4.518
19908SOL    HW159974   5.090   4.150   4.466
19908SOL    HW259975   4.950   4.126   4.518
19909SOL     OW59976   8.826   5.261   6.694
19909SOL    HW159977   8.799   5.305   6.775
19909SOL    HW259978   8.870   5.181   6.723
19910SOL     OW59979  10.731   6.868   5.321
19910SOL    HW159980  10.763   6.856   5.411
19910SOL    HW259981  10.756   6.958   5.300
19911SOL     OW59982  13.431   9.629   4.935
19911SOL    HW159983  13.340   9.605   4.918
19911SOL    HW259984  13.464   9.662   4.851
19912SOL     OW59985   5.304  13.828   5.417
19912SOL    HW159986   5.351  13.753   5.451
19912SOL    HW259987   5.326  13.830   5.324
19913SOL     OW59988  13.004  12.288   4.612
19913SOL    HW159989  13.011  12.212   4.554
19913SOL    HW259990  13.090  12.296   4.652
19914SOL     OW59991   7.369  12.923   5.339
19914SOL    HW159992   7.321  12.841   5.350
19914SOL    HW259993   7.321  12.970   5.271
19915SOL     OW59994  11.836   3.991   2.592
19915SOL    HW159995  11.778   4.064   2.568
19915SOL    HW259996  11.860   4.009   2.683
19916SOL     OW59997   5.491   4.446   3.267
19916SOL    HW159998   5.469   4.387   3.195
19916SOL    HW259999   5.550   4.395   3.323
19917SOL     OW60000  11.801   6.068   4.711
19917SOL    HW160001  11.863   6.009   4.668
19917SOL    HW260002  11.837   6.155   4.697
19918SOL     OW60003   3.118   5.317   1.644
19918SOL    HW160004   3.073   5.380   1.589
19918SOL    HW260005   3.201   5.360   1.667
19919SOL     OW60006   2.016   9.187   2.312
19919SOL    HW160007   1.921   9.189   2.298
19919SOL    HW260008   2.029   9.120   2.379
19920SOL     OW60009   1.787   7.868   0.764
19920SOL    HW160010   1.725   7.848   0.694
19920SOL    HW260011   1.737   7.856   0.844
19921SOL     OW60012   4.749   2.731   1.553
19921SOL    HW160013   4.696   2.670   1.605
19921SOL    HW260014   4.698   2.745   1.473
19922SOL     OW60015  13.844   3.276   4.534
19922SOL    HW160016  13.842  13.955   4.537
19922SOL    HW260017  13.783   3.300   4.465
19923SOL     OW60018   8.328   0.843   0.950
19923SOL    HW160019   8.284   0.833   1.034
19923SOL    HW260020   8.418   0.867   0.972
19924SOL     OW60021   4.825   1.200   1.076
19924SOL    HW160022   4.814   1.108   1.101
19924SOL    HW260023   4.853   1.197   0.984
19925SOL     OW60024   8.271   7.346   6.825
19925SOL    HW160025   8.328   7.282   6.782
19925SOL    HW260026   8.202   7.364   6.761
19926SOL     OW60027   7.116   8.874   5.009
19926SOL    HW160028   7.110   8.804   5.074
19926SOL    HW260029   7.049   8.853   4.944
19927SOL     OW60030  12.323   6.224   4.509
19927SOL    HW160031  12.347   6.176   4.429
19927SOL    HW260032  12.231   6.202   4.523
19928SOL     OW60033  13.659  10.782   6.954
19928SOL    HW160034  13.642  10.701   6.906
19928SOL    HW260035  13.592  10.842   6.923
19929SOL     OW60036   7.402   6.746   0.449
19929SOL    HW160037   7.433   6.656   0.460
19929SOL    HW260038   7.307   6.737   0.441
19930SOL     OW60039   5.351   7.792   5.031
19930SOL    HW160040   5.398   7.752   5.104
19930SOL    HW260041   5.390   7.753   4.953
19931SOL     OW60042   5.892   9.877   6.710
19931SOL    HW160043   5.982   9.849   6.728
19931SOL    HW260044   5.840   9.796   6.716
19932SOL     OW60045  10.844  13.314   4.607
19932SOL    HW160046  10.906  13.253   4.646
19932SOL    HW260047  10.838  13.287   4.515
19933SOL     OW60048  10.793   7.359   1.003
19933SOL    HW160049  10.840   7.292   1.053
19933SOL    HW260050  10.701   7.335   1.011
19934SOL     OW60051   6.614   8.929   0.629
19934SOL    HW160052   6.684   8.991   0.608
19934SOL    HW260053   6.534   8.972   0.600
19935SOL     OW60054   3.572   4.554   0.817
19935SOL    HW160055   3.533   4.469   0.840
19935SOL    HW260056   3.556   4.610   0.893
19936SOL     OW60057   0.873   6.305   1.057
19936SOL    HW160058   0.933   6.269   1.122
19936SOL    HW260059   0.786   6.290   1.092
19937SOL     OW60060  10.026   8.999   0.516
19937SOL    HW160061   9.951   9.032   0.565
19937SOL    HW260062  10.102   9.024   0.569
19938SOL     OW60063   5.217   4.110   2.542
19938SOL    HW160064   5.253   4.130   2.628
19938SOL    HW260065   5.125   4.137   2.548
19939SOL     OW60066  11.092   4.965   2.543
19939SOL    HW160067  11.138   4.912   2.607
19939SOL    HW260068  11.128   4.939   2.459
19940SOL     OW60069   8.135  14.537   5.352
19940SOL    HW160070   8.159  14.504   5.439
19940SOL    HW260071   8.048   3.798   5.364
19941SOL     OW60072   7.802   6.463   4.165
19941SOL    HW160073   7.826   6.551   4.137
19941SOL    HW260074   7.743   6.477   4.239
19942SOL     OW60075   3.795   5.605   5.245
19942SOL    HW160076   3.776   5.513   5.264
19942SOL    HW260077   3.881   5.602   5.201
19943SOL     OW60078  10.325   4.171   4.429
19943SOL    HW160079  10.352   4.132   4.346
19943SOL    HW260080  10.243   4.216   4.409
19944SOL     OW60081  11.589   3.408   1.210
19944SOL    HW160082   0.846   3.492   1.176
19944SOL    HW260083  11.516   3.430   1.267
19945SOL     OW60084  12.802  13.339   4.832
19945SOL    HW160085  12.777  13.252   4.802
19945SOL    HW260086  12.726  13.370   4.882
19946SOL     OW60087   7.177   6.351   6.941
19946SOL    HW160088   7.145   6.388   7.024
19946SOL    HW260089   7.097   6.327   6.894
19947SOL     OW60090  12.932  14.966   6.492
19947SOL    HW160091  12.958  15.030   6.426
19947SOL    HW260092  12.838  14.954   6.479
19948SOL     OW60093  10.616   4.047   2.167
19948SOL    HW160094  10.674   4.060   2.243
19948SOL    HW260095  10.580   4.134   2.150
19949SOL     OW60096  11.876   5.433   3.760
19949SOL    HW160097  11.908   5.515   3.722
19949SOL    HW260098  11.790   5.421   3.721
19950SOL     OW60099   9.244  12.296   3.447
19950SOL    HW160100   9.216  12.282   3.537
19950SOL    HW260101   9.199  12.376   3.420
19951SOL     OW60102   6.711   5.721   5.484
19951SOL    HW160103   6.695   5.786   5.552
19951SOL    HW260104   6.696   5.768   5.402
19952SOL     OW60105   5.732   8.480   4.094
19952SOL    HW160106   5.648   8.442   4.069
19952SOL    HW260107   5.770   8.416   4.154
19953SOL     OW60108   5.714  10.076   1.369
19953SOL    HW160109   5.790  10.124   1.337
19953SOL    HW260110   5.717  10.086   1.464
19954SOL     OW60111   8.745   7.636   4.058
19954SOL    HW160112   8.827   7.649   4.011
19954SOL    HW260113   8.682   7.694   4.014
19955SOL     OW60114   9.768   5.544   4.434
19955SOL    HW160115   9.681   5.579   4.415
19955SOL    HW260116   9.811   5.614   4.485
19956SOL     OW60117  10.648   4.336   0.616
19956SOL    HW160118  10.717   4.398   0.637
19956SOL    HW260119  10.580   4.390   0.575
19957SOL     OW60120   8.051  13.793   6.827
19957SOL    HW160121   8.111  13.745   6.886
19957SOL    HW260122   8.019  13.866   6.881
19958SOL     OW60123   6.859   6.165   3.344
19958SOL    HW160124   6.779   6.118   3.368
19958SOL    HW260125   6.868   6.233   3.411
19959SOL     OW60126  10.431   5.793   3.463
19959SOL    HW160127  10.466   5.877   3.435
19959SOL    HW260128  10.340   5.812   3.489
19960SOL     OW60129   9.109   6.612   4.983
19960SOL    HW160130   9.163   6.558   5.040
19960SOL    HW260131   9.049   6.551   4.941
19961SOL     OW60132   9.375   6.817   2.301
19961SOL    HW160133   9.401   6.810   2.209
19961SOL    HW260134   9.369   6.911   2.317
19962SOL     OW60135   7.667   5.626   2.415
19962SOL    HW160136   7.632   5.542   2.446
19962SOL    HW260137   7.760   5.623   2.436
19963SOL     OW60138   5.284   4.720   0.074
19963SOL    HW160139   5.378   4.708   0.082
19963SOL    HW260140   5.249   4.631   0.062
19964SOL     OW60141   0.766   7.409   0.817
19964SOL    HW160142   0.844   7.464   0.808
19964SOL    HW260143   0.720   7.418   0.734
19965SOL     OW60144  10.903  11.121   5.613
19965SOL    HW160145  10.836  11.097   5.677
19965SOL    HW260146  10.922  11.213   5.633
19966SOL     OW60147  12.470  10.439   6.644
19966SOL    HW160148  12.546  10.380   6.649
19966SOL    HW260149  12.488  10.507   6.708
19967SOL     OW60150   4.334   4.103   0.591
19967SOL    HW160151   4.323   4.056   0.509
19967SOL    HW260152   4.415   4.153   0.580
19968SOL     OW60153   6.736   1.947   0.392
19968SOL    HW160154   6.791   1.871   0.406
19968SOL    HW260155   6.797   2.021   0.395
19969SOL     OW60156  11.326   2.922   2.570
19969SOL    HW160157  11.289   3.008   2.589
19969SOL    HW260158  11.260   2.878   2.517
19970SOL     OW60159   5.900   7.304   6.105
19970SOL    HW160160   5.906   7.333   6.196
19970SOL    HW260161   5.987   7.319   6.070
19971SOL     OW60162   1.333   6.887   0.933
19971SOL    HW160163   1.404   6.948   0.915
19971SOL    HW260164   1.373   6.801   0.926
19972SOL     OW60165   6.111   7.936   5.948
19972SOL    HW160166   6.205   7.923   5.934
19972SOL    HW260167   6.070   7.911   5.866
19973SOL     OW60168   8.125   8.413   0.232
19973SOL    HW160169   8.221   8.411   0.240
19973SOL    HW260170   8.094   8.362   0.307
19974SOL     OW60171   8.112   9.035   2.724
19974SOL    HW160172   8.138   9.056   2.634
19974SOL    HW260173   8.062   8.954   2.717
19975SOL     OW60174   9.575   4.707   6.515
19975SOL    HW160175   9.508   4.669   6.457
19975SOL    HW260176   9.654   4.712   6.462
19976SOL     OW60177   2.368   8.925   1.888
19976SOL    HW160178   2.386   8.856   1.951
19976SOL    HW260179   2.291   8.894   1.840
19977SOL     OW60180  13.406   4.583   4.485
19977SOL    HW160181  13.360   4.644   4.427
19977SOL    HW260182  13.447   4.519   4.427
19978SOL     OW60183   2.351  10.682   2.295
19978SOL    HW160184   2.267  10.659   2.336
19978SOL    HW260185   2.407  10.606   2.310
19979SOL     OW60186   6.928   5.591   2.887
19979SOL    HW160187   7.002   5.574   2.946
19979SOL    HW260188   6.964   5.579   2.799
19980SOL     OW60189  13.164  13.740   5.036
19980SOL    HW160190  13.160  13.703   5.124
19980SOL    HW260191  13.097  13.691   4.987
19981SOL     OW60192   5.349   9.128   4.234
19981SOL    HW160193   5.368   9.103   4.325
19981SOL    HW260194   5.428   9.107   4.186
19982SOL     OW60195  11.582  15.125   6.316
19982SOL    HW160196  11.645  15.152   6.383
19982SOL    HW260197  11.596  15.185   6.243
19983SOL     OW60198  13.490  13.971   4.954
19983SOL    HW160199  13.500  14.035   4.884
19983SOL    HW260200  13.580  13.946   4.976
19984SOL     OW60201   6.879   6.156   3.677
19984SOL    HW160202   6.824   6.146   3.755
19984SOL    HW260203   6.965   6.179   3.711
19985SOL     OW60204   8.408   4.861   5.686
19985SOL    HW160205   8.498   4.892   5.682
19985SOL    HW260206   8.415   4.765   5.683
19986SOL     OW60207   7.075   4.210   3.311
19986SOL    HW160208   7.046   4.152   3.240
19986SOL    HW260209   7.136   4.271   3.269
19987SOL     OW60210   1.163   0.859   1.174
19987SOL    HW160211   1.167   0.852   1.078
19987SOL    HW260212   1.133  11.548   1.203
19988SOL     OW60213  13.741   8.384   6.197
19988SOL    HW160214  13.765   8.300   6.236
19988SOL    HW260215  13.765   8.375   6.105
19989SOL     OW60216   8.364   4.146   3.771
19989SOL    HW160217   8.332   4.098   3.695
19989SOL    HW260218   8.452   4.112   3.785
19990SOL     OW60219   2.159   2.427   2.929
19990SOL    HW160220   2.137   2.369   3.002
19990SOL    HW260221   2.195   2.369   2.863
19991SOL     OW60222   6.132  10.248   3.186
19991SOL    HW160223   6.046  10.220   3.217
19991SOL    HW260224   6.114  10.318   3.124
19992SOL     OW60225   7.236  14.339   7.176
19992SOL    HW160226   7.206  14.275   7.241
19992SOL    HW260227   7.182  14.323   7.099
19993SOL     OW60228  12.278   6.484   6.395
19993SOL    HW160229  12.332   6.447   6.325
19993SOL    HW260230  12.305   6.576   6.399
19994SOL     OW60231   9.262  11.062   6.875
19994SOL    HW160232   9.330  11.112   6.920
19994SOL    HW260233   9.291  10.971   6.881
19995SOL     OW60234   6.423  13.028   7.329
19995SOL    HW160235   6.444  13.121   7.339
19995SOL    HW260236   6.507  12.985   7.320
19996SOL     OW60237  12.634   6.569   4.189
19996SOL    HW160238  12.640   6.473   4.181
19996SOL    HW260239  12.549   6.584   4.230
19997SOL     OW60240   8.100   2.100   2.745
19997SOL    HW160241   8.051   2.094   2.827
19997SOL    HW260242   8.173   2.039   2.756
19998SOL     OW60243   6.824  10.989   1.423
19998SOL    HW160244   6.882  11.058   1.389
19998SOL    HW260245   6.768  10.966   1.349
19999SOL     OW60246   9.469  12.769   3.105
19999SOL    HW160247   9.546  12.823   3.120
19999SOL    HW260248   9.425  12.810   3.030
20000SOL     OW60249   2.521  12.001   3.134
20000SOL    HW160250   2.604  12.012   3.087
20000SOL    HW260251   2.461  12.061   3.090
20001SOL     OW60252   9.377  11.865   7.226
20001SOL    HW160253   9.284  11.877   7.209
20001SOL    HW260254   9.387  11.879   7.320
20002SOL     OW60255   2.862   6.513   2.791
20002SOL    HW160256   2.949   6.536   2.823
20002SOL    HW260257   2.872   6.507   2.696
20003SOL     OW60258   1.412   2.133   0.437
20003SOL    HW160259   1.322   2.105   0.416
20003SOL    HW260260   1.459   2.051   0.453
20004SOL     OW60261   6.254   7.266   2.771
20004SOL    HW160262   6.240   7.243   2.863
20004SOL    HW260263   6.265   7.182   2.727
20005SOL     OW60264   4.547   8.608   0.674
20005SOL    HW160265   4.605   8.616   0.598
20005SOL    HW260266   4.600   8.561   0.739
20006SOL     OW60267   4.658   6.041   0.837
20006SOL    HW160268   4.687   6.131   0.852
20006SOL    HW260269   4.739   5.989   0.843
20007SOL     OW60270   6.222   3.553   3.727
20007SOL    HW160271   6.277   3.593   3.795
20007SOL    HW260272   6.284   3.504   3.672
20008SOL     OW60273   6.178   7.537   1.157
20008SOL    HW160274   6.112   7.469   1.143
20008SOL    HW260275   6.196   7.572   1.070
20009SOL     OW60276   3.574   3.873   2.511
20009SOL    HW160277   3.593   3.950   2.565
20009SOL    HW260278   3.659   3.828   2.504
20010SOL     OW60279  10.837   1.834   2.392
20010SOL    HW160280  10.902   1.898   2.422
20010SOL    HW260281  10.774   1.886   2.341
20011SOL     OW60282  13.733  10.948   5.323
20011SOL    HW160283  13.722  11.035   5.361
20011SOL    HW260284  13.713  10.888   5.395
20012SOL     OW60285  13.287  12.776   4.499
20012SOL    HW160286  13.322  12.860   4.468
20012SOL    HW260287  13.349  12.749   4.567
20013SOL     OW60288   3.845   4.743   0.775
20013SOL    HW160289   3.885   4.663   0.742
20013SOL    HW260290   3.752   4.722   0.785
20014SOL     OW60291   5.997  11.365   4.128
20014SOL    HW160292   5.954  11.430   4.183
20014SOL    HW260293   5.962  11.381   4.040
20015SOL     OW60294   8.211   5.418   6.269
20015SOL    HW160295   8.261   5.499   6.272
20015SOL    HW260296   8.177   5.407   6.357
20016SOL     OW60297  11.982   5.565   4.670
20016SOL    HW160298  11.896   5.573   4.710
20016SOL    HW260299  11.992   5.647   4.620
20017SOL     OW60300   6.694  11.859   5.690
20017SOL    HW160301   6.768  11.809   5.655
20017SOL    HW260302   6.715  11.873   5.782
20018SOL     OW60303   9.778   1.210   0.183
20018SOL    HW160304   9.765   1.194   0.089
20018SOL    HW260305   9.779   1.123   0.222
20019SOL     OW60306   9.646   7.102   6.294
20019SOL    HW160307   9.710   7.063   6.235
20019SOL    HW260308   9.613   7.179   6.248
20020SOL     OW60309  10.446  10.022   0.044
20020SOL    HW160310  10.373  10.029   0.105
20020SOL    HW260311  10.497   9.947   0.076
20021SOL     OW60312   7.047   4.263   2.266
20021SOL    HW160313   6.968   4.237   2.219
20021SOL    HW260314   7.037   4.224   2.353
20022SOL     OW60315   8.513  15.237   7.113
20022SOL    HW160316   8.566  15.284   7.177
20022SOL    HW260317   8.573  15.174   7.074
20023SOL     OW60318   4.828   7.845   1.260
20023SOL    HW160319   4.879   7.806   1.189
20023SOL    HW260320   4.886   7.912   1.297
20024SOL     OW60321  13.251   6.684   5.375
20024SOL    HW160322  13.250   6.599   5.333
20024SOL    HW260323  13.195   6.674   5.452
20025SOL     OW60324  12.666   6.647   6.035
20025SOL    HW160325  12.642   6.564   5.992
20025SOL    HW260326  12.732   6.622   6.099
20026SOL     OW60327   5.520  12.319   3.218
20026SOL    HW160328   5.431  12.289   3.235
20026SOL    HW260329   5.575  12.266   3.276
20027SOL     OW60330   6.998  12.750   7.459
20027SOL    HW160331   7.078  12.803   7.462
20027SOL    HW260332   6.977  12.745   7.365
20028SOL     OW60333   1.775   5.606   1.892
20028SOL    HW160334   1.794   5.524   1.938
20028SOL    HW260335   1.682   5.599   1.869
20029SOL     OW60336   4.749   6.861   1.048
20029SOL    HW160337   4.833   6.820   1.071
20029SOL    HW260338   4.695   6.851   1.127
20030SOL     OW60339   3.434   3.547   4.279
20030SOL    HW160340   3.480   3.470   4.312
20030SOL    HW260341   3.429   3.606   4.355
20031SOL     OW60342   3.376   9.699   2.108
20031SOL    HW160343   3.327   9.658   2.037
20031SOL    HW260344   3.468   9.679   2.088
20032SOL     OW60345  12.883   7.281   6.819
20032SOL    HW160346  12.962   7.274   6.872
20032SOL    HW260347  12.888   7.369   6.781
20033SOL     OW60348   9.384   5.355   4.683
20033SOL    HW160349   9.434   5.436   4.682
20033SOL    HW260350   9.448   5.286   4.666
20034SOL     OW60351   6.974   9.443   2.009
20034SOL    HW160352   7.064   9.430   1.980
20034SOL    HW260353   6.982   9.476   2.098
20035SOL     OW60354   9.730   9.636   7.484
20035SOL    HW160355   9.788   9.570   7.523
20035SOL    HW260356   9.652   9.633   7.539
20036SOL     OW60357   9.676  11.164   2.322
20036SOL    HW160358   9.583  11.185   2.314
20036SOL    HW260359   9.718  11.249   2.336
20037SOL     OW60360  10.991   5.547   0.951
20037SOL    HW160361  11.084   5.546   0.931
20037SOL    HW260362  10.975   5.465   0.997
20038SOL     OW60363   6.946   4.511   5.494
20038SOL    HW160364   7.003   4.434   5.497
20038SOL    HW260365   6.859   4.476   5.513
20039SOL     OW60366  13.410   9.175   7.191
20039SOL    HW160367  13.503   9.174   7.211
20039SOL    HW260368  13.392   9.087   7.158
20040SOL     OW60369   4.125   6.481   5.007
20040SOL    HW160370   4.032   6.468   5.026
20040SOL    HW260371   4.126   6.549   4.939
20041SOL     OW60372   4.338   5.686   3.828
20041SOL    HW160373   4.280   5.636   3.771
20041SOL    HW260374   4.380   5.749   3.770
20042SOL     OW60375   5.017   7.264   6.447
20042SOL    HW160376   4.949   7.331   6.449
20042SOL    HW260377   4.974   7.186   6.413
20043SOL     OW60378   9.313   8.324   0.945
20043SOL    HW160379   9.260   8.389   0.897
20043SOL    HW260380   9.266   8.242   0.933
20044SOL     OW60381   4.787   7.408   1.448
20044SOL    HW160382   4.877   7.440   1.458
20044SOL    HW260383   4.767   7.423   1.356
20045SOL     OW60384   7.994   6.644   0.248
20045SOL    HW160385   8.032   6.629   0.162
20045SOL    HW260386   7.920   6.584   0.253
20046SOL     OW60387   2.732  10.436   0.793
20046SOL    HW160388   2.729  10.454   0.699
20046SOL    HW260389   2.644  10.404   0.814
20047SOL     OW60390  14.912   7.238   6.897
20047SOL    HW160391  14.871   7.240   6.983
20047SOL    HW260392  14.935   7.330   6.879
20048SOL     OW60393   8.857  10.662   1.118
20048SOL    HW160394   8.868  10.679   1.212
20048SOL    HW260395   8.931  10.706   1.077
20049SOL     OW60396  10.083   5.773   3.146
20049SOL    HW160397  10.053   5.845   3.201
20049SOL    HW260398  10.077   5.696   3.201
20050SOL     OW60399   4.595  12.685   4.215
20050SOL    HW160400   4.509  12.699   4.255
20050SOL    HW260401   4.576  12.637   4.134
20051SOL     OW60402   9.038   3.205   0.186
20051SOL    HW160403   9.111   3.246   0.140
20051SOL    HW260404   9.035   3.248   0.271
20052SOL     OW60405   8.548  11.413   4.210
20052SOL    HW160406   8.530  11.321   4.196
20052SOL    HW260407   8.542  11.424   4.305
20053SOL     OW60408   7.660   6.195   1.448
20053SOL    HW160409   7.575   6.178   1.408
20053SOL    HW260410   7.683   6.283   1.420
20054SOL     OW60411   5.840   9.111   3.649
20054SOL    HW160412   5.805   9.189   3.692
20054SOL    HW260413   5.814   9.038   3.706
20055SOL     OW60414   4.779  10.849   1.801
20055SOL    HW160415   4.752  10.760   1.824
20055SOL    HW260416   4.872  10.852   1.823
20056SOL     OW60417   7.358  11.841   7.268
20056SOL    HW160418   7.346  11.929   7.304
20056SOL    HW260419   7.414  11.855   7.191
20057SOL     OW60420   3.542   3.375   1.689
20057SOL    HW160421   3.544   3.288   1.650
20057SOL    HW260422   3.633   3.390   1.716
20058SOL     OW60423   9.072   9.690   4.590
20058SOL    HW160424   9.005   9.633   4.628
20058SOL    HW260425   9.050   9.777   4.623
20059SOL     OW60426   7.877   9.540   4.048
20059SOL    HW160427   7.868   9.486   4.126
20059SOL    HW260428   7.901   9.478   3.979
20060SOL     OW60429   4.932   5.645   3.623
20060SOL    HW160430   4.924   5.632   3.529
20060SOL    HW260431   5.008   5.592   3.648
20061SOL     OW60432   7.519   5.495   4.980
20061SOL    HW160433   7.473   5.528   5.058
20061SOL    HW260434   7.529   5.572   4.924
20062SOL     OW60435  10.632   5.980   6.356
20062SOL    HW160436  10.559   6.014   6.305
20062SOL    HW260437  10.655   6.052   6.416
20063SOL     OW60438   5.348   6.953   0.849
20063SOL    HW160439   5.303   7.031   0.880
20063SOL    HW260440   5.415   6.987   0.789
20064SOL     OW60441   8.111   8.687   3.419
20064SOL    HW160442   8.152   8.740   3.351
20064SOL    HW260443   8.183   8.665   3.479
20065SOL     OW60444  13.886  12.874   7.180
20065SOL    HW160445  13.916  12.783   7.178
20065SOL    HW260446  13.820  12.875   7.249
20066SOL     OW60447   7.656   4.888   1.397
20066SOL    HW160448   7.719   4.822   1.368
20066SOL    HW260449   7.691   4.971   1.364
20067SOL     OW60450   4.772  10.170   2.475
20067SOL    HW160451   4.710  10.134   2.538
20067SOL    HW260452   4.719  10.197   2.400
20068SOL     OW60453  12.507  11.173   2.623
20068SOL    HW160454  12.590  11.154   2.668
20068SOL    HW260455  12.525  11.253   2.574
20069SOL     OW60456   9.662   7.905   1.951
20069SOL    HW160457   9.573   7.923   1.982
20069SOL    HW260458   9.686   7.822   1.994
20070SOL     OW60459  12.238   2.963   3.429
20070SOL    HW160460  12.234   2.941   3.522
20070SOL    HW260461  12.224   3.058   3.426
20071SOL     OW60462   8.641   7.887   6.164
20071SOL    HW160463   8.717   7.830   6.164
20071SOL    HW260464   8.594   7.865   6.084
20072SOL     OW60465  11.448   8.114   5.798
20072SOL    HW160466  11.477   8.189   5.849
20072SOL    HW260467  11.379   8.149   5.741
20073SOL     OW60468  13.979   8.492   4.696
20073SOL    HW160469  13.921   8.552   4.743
20073SOL    HW260470  13.933   8.472   4.614
20074SOL     OW60471   5.077   8.775   4.815
20074SOL    HW160472   5.146   8.709   4.819
20074SOL    HW260473   4.996   8.725   4.804
20075SOL     OW60474   8.932   6.354   4.656
20075SOL    HW160475   8.930   6.258   4.660
20075SOL    HW260476   8.979   6.380   4.734
20076SOL     OW60477   6.530  10.904   2.666
20076SOL    HW160478   6.469  10.973   2.689
20076SOL    HW260479   6.610  10.925   2.715
20077SOL     OW60480   2.224   6.118   2.597
20077SOL    HW160481   2.197   6.150   2.511
20077SOL    HW260482   2.193   6.027   2.600
20078SOL     OW60483   7.591   2.817   0.296
20078SOL    HW160484   7.656   2.862   0.242
20078SOL    HW260485   7.607   2.849   0.384
20079SOL     OW60486  11.151  12.353   2.318
20079SOL    HW160487  11.111  12.359   2.405
20079SOL    HW260488  11.230  12.408   2.324
20080SOL     OW60489   7.217  11.449   1.140
20080SOL    HW160490   7.270  11.507   1.195
20080SOL    HW260491   7.229  11.362   1.178
20081SOL     OW60492  10.672   8.498   4.270
20081SOL    HW160493  10.746   8.439   4.286
20081SOL    HW260494  10.642   8.475   4.182
20082SOL     OW60495   9.592   5.514   5.490
20082SOL    HW160496   9.510   5.465   5.483
20082SOL    HW260497   9.571   5.587   5.549
20083SOL     OW60498  14.189   7.862   5.192
20083SOL    HW160499  14.196   7.884   5.099
20083SOL    HW260500  14.107   7.902   5.221
20084SOL     OW60501   4.752  11.584   5.446
20084SOL    HW160502   4.832  11.622   5.483
20084SOL    HW260503   4.689  11.656   5.444
20085SOL     OW60504   8.796  11.797   4.559
20085SOL    HW160505   8.783  11.860   4.488
20085SOL    HW260506   8.711  11.792   4.603
20086SOL     OW60507   2.906   4.646   2.276
20086SOL    HW160508   2.973   4.714   2.286
20086SOL    HW260509   2.940   4.572   2.327
20087SOL     OW60510   4.990  11.524   6.306
20087SOL    HW160511   5.057  11.456   6.317
20087SOL    HW260512   4.983  11.564   6.393
20088SOL     OW60513   4.561   4.551   2.022
20088SOL    HW160514   4.576   4.563   2.115
20088SOL    HW260515   4.640   4.582   1.980
20089SOL     OW60516   7.128   6.445   4.316
20089SOL    HW160517   7.060   6.389   4.351
20089SOL    HW260518   7.096   6.471   4.229
20090SOL     OW60519   9.623  10.280   0.052
20090SOL    HW160520   9.713  10.284   0.087
20090SOL    HW260521   9.567  10.283   0.130
20091SOL     OW60522  10.682   5.063   4.306
20091SOL    HW160523  10.623   5.100   4.240
20091SOL    HW260524  10.624   5.015   4.365
20092SOL     OW60525   5.757  10.203   2.447
20092SOL    HW160526   5.723  10.184   2.360
20092SOL    HW260527   5.851  10.215   2.434
20093SOL     OW60528   4.001   5.866   3.253
20093SOL    HW160529   3.966   5.905   3.332
20093SOL    HW260530   3.985   5.772   3.263
20094SOL     OW60531   8.594   4.325   5.116
20094SOL    HW160532   8.587   4.255   5.181
20094SOL    HW260533   8.548   4.290   5.039
20095SOL     OW60534   9.897   7.065   7.160
20095SOL    HW160535   9.932   7.120   7.090
20095SOL    HW260536   9.819   7.111   7.189
20096SOL     OW60537  15.517   8.221   7.132
20096SOL    HW160538  15.471   8.137   7.126
20096SOL    HW260539  15.530   8.247   7.041
20097SOL     OW60540   9.044  11.858   2.285
20097SOL    HW160541   9.017  11.789   2.224
20097SOL    HW260542   9.137  11.870   2.268
20098SOL     OW60543   8.864   9.766   3.213
20098SOL    HW160544   8.845   9.695   3.274
20098SOL    HW260545   8.955   9.789   3.230
20099SOL     OW60546   8.788   7.539   6.502
20099SOL    HW160547   8.864   7.489   6.530
20099SOL    HW260548   8.732   7.543   6.579
20100SOL     OW60549  10.987   3.302   0.778
20100SOL    HW160550  11.061   3.323   0.835
20100SOL    HW260551  10.910   3.310   0.835
20101SOL     OW60552   7.926  12.731   5.097
20101SOL    HW160553   7.930  12.673   5.021
20101SOL    HW260554   7.966  12.681   5.168
20102SOL     OW60555  13.086  10.753   5.357
20102SOL    HW160556  13.078  10.739   5.263
20102SOL    HW260557  13.163  10.809   5.366
20103SOL     OW60558  11.344   5.685   1.499
20103SOL    HW160559  11.330   5.656   1.589
20103SOL    HW260560  11.379   5.774   1.508
20104SOL     OW60561  12.500  11.941   3.862
20104SOL    HW160562  12.443  12.016   3.879
20104SOL    HW260563  12.453  11.867   3.901
20105SOL     OW60564  11.790   4.466   2.241
20105SOL    HW160565  11.738   4.395   2.204
20105SOL    HW260566  11.756   4.478   2.329
20106SOL     OW60567  12.445  10.715   3.817
20106SOL    HW160568  12.499  10.794   3.826
20106SOL    HW260569  12.407  10.721   3.730
20107SOL     OW60570  12.133   9.868   2.419
20107SOL    HW160571  12.097   9.786   2.384
20107SOL    HW260572  12.105   9.935   2.357
20108SOL     OW60573   1.283   8.781   1.640
20108SOL    HW160574   1.214   8.717   1.626
20108SOL    HW260575   1.248   8.863   1.606
20109SOL     OW60576   7.396   9.517   1.210
20109SOL    HW160577   7.457   9.488   1.142
20109SOL    HW260578   7.431   9.480   1.291
20110SOL     OW60579   4.023  11.809   1.985
20110SOL    HW160580   3.971  11.748   2.037
20110SOL    HW260581   4.094  11.755   1.950
20111SOL     OW60582   1.807   0.995   0.697
20111SOL    HW160583   1.719   1.015   0.729
20111SOL    HW260584   1.824   0.906   0.729
20112SOL     OW60585  11.911  10.192   3.497
20112SOL    HW160586  11.990  10.146   3.467
20112SOL    HW260587  11.909  10.272   3.444
20113SOL     OW60588   2.691   4.430   2.580
20113SOL    HW160589   2.606   4.473   2.585
20113SOL    HW260590   2.747   4.493   2.535
20114SOL     OW60591   8.753  12.330   6.130
20114SOL    HW160592   8.727  12.262   6.067
20114SOL    HW260593   8.689  12.322   6.201
20115SOL     OW60594   4.949  10.484   2.492
20115SOL    HW160595   4.992  10.547   2.549
20115SOL    HW260596   4.948  10.525   2.406
20116SOL     OW60597  10.225   6.578   1.745
20116SOL    HW160598  10.140   6.554   1.707
20116SOL    HW260599  10.277   6.605   1.670
20117SOL     OW60600   8.177  13.721   7.390
20117SOL    HW160601   8.102  13.772   7.357
20117SOL    HW260602   8.137  13.651   7.442
20118SOL     OW60603  10.574  11.317   2.752
20118SOL    HW160604  10.515  11.330   2.826
20118SOL    HW260605  10.652  11.369   2.772
20119SOL     OW60606   3.410   0.820   0.413
20119SOL    HW160607   3.446   0.776   0.490
20119SOL    HW260608   3.400   0.911   0.440
20120SOL     OW60609  11.422   7.499   6.413
20120SOL    HW160610  11.506   7.521   6.454
20120SOL    HW260611  11.444   7.431   6.350
20121SOL     OW60612  10.755  12.273   5.406
20121SOL    HW160613  10.779  12.208   5.473
20121SOL    HW260614  10.815  12.346   5.421
20122SOL     OW60615   4.220   3.730   2.872
20122SOL    HW160616   4.223   3.825   2.860
20122SOL    HW260617   4.155   3.716   2.940
20123SOL     OW60618   4.563  13.223   5.397
20123SOL    HW160619   4.521  13.309   5.390
20123SOL    HW260620   4.492  13.160   5.386
20124SOL     OW60621   9.823   4.019   0.665
20124SOL    HW160622   9.811   4.087   0.732
20124SOL    HW260623   9.757   3.953   0.685
20125SOL     OW60624  14.127   7.971   5.804
20125SOL    HW160625  14.138   7.944   5.713
20125SOL    HW260626  14.174   7.905   5.855
20126SOL     OW60627  11.047  12.056   4.943
20126SOL    HW160628  11.041  12.074   5.037
20126SOL    HW260629  10.985  11.985   4.929
20127SOL     OW60630   5.857  11.287   3.830
20127SOL    HW160631   5.812  11.206   3.856
20127SOL    HW260632   5.849  11.290   3.735
20128SOL     OW60633   8.232   5.464   2.901
20128SOL    HW160634   8.311   5.424   2.865
20128SOL    HW260635   8.174   5.474   2.826
20129SOL     OW60636  10.824   4.892   0.247
20129SOL    HW160637  10.911   4.903   0.286
20129SOL    HW260638  10.833   4.930   0.159
20130SOL     OW60639   4.527  12.065   2.040
20130SOL    HW160640   4.461  11.997   2.030
20130SOL    HW260641   4.567  12.048   2.125
20131SOL     OW60642   4.997   2.948   3.411
20131SOL    HW160643   4.971   3.026   3.461
20131SOL    HW260644   4.947   2.955   3.330
20132SOL     OW60645  12.902   5.937   3.107
20132SOL    HW160646   2.180   5.881   3.050
20132SOL    HW260647  12.853   5.993   3.047
20133SOL     OW60648   3.039   1.993   0.937
20133SOL    HW160649   3.099   2.058   0.900
20133SOL    HW260650   2.956   2.040   0.948
20134SOL     OW60651  10.724  10.155   3.930
20134SOL    HW160652  10.785  10.111   3.990
20134SOL    HW260653  10.645  10.170   3.982
20135SOL     OW60654   2.369   2.278   1.045
20135SOL    HW160655   2.438   2.326   1.089
20135SOL    HW260656   2.368   2.192   1.086
20136SOL     OW60657   9.207   6.996   5.282
20136SOL    HW160658   9.279   6.949   5.241
20136SOL    HW260659   9.129   6.945   5.261
20137SOL     OW60660  11.711  10.954   4.446
20137SOL    HW160661  11.805  10.967   4.435
20137SOL    HW260662  11.703  10.916   4.533
20138SOL     OW60663  12.836  11.391   3.333
20138SOL    HW160664  12.834  11.464   3.395
20138SOL    HW260665  12.918  11.404   3.284
20139SOL     OW60666   5.398   7.913   4.617
20139SOL    HW160667   5.326   7.926   4.679
20139SOL    HW260668   5.357   7.865   4.544
20140SOL     OW60669   8.344   7.491   6.532
20140SOL    HW160670   8.426   7.453   6.500
20140SOL    HW260671   8.343   7.581   6.498
20141SOL     OW60672   7.290   8.531   4.451
20141SOL    HW160673   7.233   8.537   4.374
20141SOL    HW260674   7.244   8.471   4.509
20142SOL     OW60675   9.974   8.078   0.259
20142SOL    HW160676   9.927   8.082   0.343
20142SOL    HW260677   9.934   8.003   0.214
20143SOL     OW60678   3.063  12.153   2.794
20143SOL    HW160679   3.031  12.119   2.878
20143SOL    HW260680   3.039  12.085   2.730
20144SOL     OW60681   8.937  13.867   6.631
20144SOL    HW160682   9.014  13.810   6.629
20144SOL    HW260683   8.952  13.925   6.706
20145SOL     OW60684  14.511  13.019   7.350
20145SOL    HW160685  14.509  13.077   7.274
20145SOL    HW260686  14.425  12.978   7.352
20146SOL     OW60687   6.775   3.467   2.447
20146SOL    HW160688   6.790   3.387   2.396
20146SOL    HW260689   6.860   3.485   2.487
20147SOL     OW60690   0.420   6.013   0.575
20147SOL    HW160691   0.447   6.043   0.488
20147SOL    HW260692   0.441   5.920   0.576
20148SOL     OW60693  10.813   5.263   6.773
20148SOL    HW160694  10.904   5.234   6.765
20148SOL    HW260695  10.799   5.321   6.698
20149SOL     OW60696   4.826  10.374   1.397
20149SOL    HW160697   4.867  10.329   1.323
20149SOL    HW260698   4.786  10.303   1.449
20150SOL     OW60699   5.598  11.304   1.063
20150SOL    HW160700   5.649  11.365   1.010
20150SOL    HW260701   5.507  11.333   1.051
20151SOL     OW60702   2.902   7.165   3.343
20151SOL    HW160703   2.987   7.174   3.299
20151SOL    HW260704   2.848   7.235   3.306
20152SOL     OW60705   7.823   5.093   1.791
20152SOL    HW160706   7.913   5.081   1.760
20152SOL    HW260707   7.825   5.177   1.838
20153SOL     OW60708   8.356   8.190   4.927
20153SOL    HW160709   8.290   8.258   4.926
20153SOL    HW260710   8.327   8.128   4.994
20154SOL     OW60711   8.364   7.586   2.880
20154SOL    HW160712   8.375   7.512   2.820
20154SOL    HW260713   8.270   7.596   2.888
20155SOL     OW60714  11.248  14.109   7.258
20155SOL    HW160715  11.279  14.061   7.335
20155SOL    HW260716  11.287  14.063   7.183
20156SOL     OW60717   8.891   8.465   1.307
20156SOL    HW160718   8.922   8.539   1.360
20156SOL    HW260719   8.936   8.474   1.224
20157SOL     OW60720   9.385   9.629   2.104
20157SOL    HW160721   9.297   9.597   2.082
20157SOL    HW260722   9.400   9.598   2.194
20158SOL     OW60723   5.077   9.323   6.974
20158SOL    HW160724   4.986   9.308   6.951
20158SOL    HW260725   5.120   9.238   6.962
20159SOL     OW60726  12.411  12.866   6.056
20159SOL    HW160727  12.462  12.942   6.030
20159SOL    HW260728  12.474  12.810   6.103
20160SOL     OW60729   7.758   2.616   1.107
20160SOL    HW160730   7.732   2.704   1.082
20160SOL    HW260731   7.853   2.620   1.115
20161SOL     OW60732   7.692   6.188   3.108
20161SOL    HW160733   7.649   6.140   3.038
20161SOL    HW260734   7.704   6.277   3.073
20162SOL     OW60735  10.831   2.952   3.476
20162SOL    HW160736  10.783   3.006   3.539
20162SOL    HW260737  10.786   2.966   3.393
20163SOL     OW60738   3.503   2.072   2.292
20163SOL    HW160739   3.577   2.044   2.347
20163SOL    HW260740   3.433   2.092   2.354
20164SOL     OW60741   9.411   9.766   1.611
20164SOL    HW160742   9.439   9.735   1.697
20164SOL    HW260743   9.332   9.818   1.629
20165SOL     OW60744   6.064  11.917   6.827
20165SOL    HW160745   6.016  11.964   6.895
20165SOL    HW260746   6.028  11.828   6.829
20166SOL     OW60747  14.353  13.897   6.694
20166SOL    HW160748  14.264  13.862   6.699
20166SOL    HW260749  14.359  13.938   6.608
20167SOL     OW60750   5.885   8.524   5.031
20167SOL    HW160751   5.930   8.530   4.947
20167SOL    HW260752   5.935   8.459   5.080
20168SOL     OW60753   4.155   9.439   2.441
20168SOL    HW160754   4.185   9.485   2.519
20168SOL    HW260755   4.105   9.365   2.474
20169SOL     OW60756   5.991  12.476   5.970
20169SOL    HW160757   5.962  12.534   6.040
20169SOL    HW260758   5.920  12.412   5.960
20170SOL     OW60759   7.745   5.294   5.835
20170SOL    HW160760   7.805   5.329   5.769
20170SOL    HW260761   7.701   5.222   5.790
20171SOL     OW60762   4.550   5.612   2.755
20171SOL    HW160763   4.625   5.649   2.801
20171SOL    HW260764   4.478   5.672   2.774
20172SOL     OW60765   6.759   8.737   6.434
20172SOL    HW160766   6.703   8.660   6.445
20172SOL    HW260767   6.837   8.719   6.485
20173SOL     OW60768   4.983   9.344   1.248
20173SOL    HW160769   4.948   9.255   1.244
20173SOL    HW260770   4.909   9.398   1.275
20174SOL     OW60771   8.362   8.581   4.460
20174SOL    HW160772   8.361   8.509   4.523
20174SOL    HW260773   8.363   8.660   4.514
20175SOL     OW60774  11.840   9.321   6.357
20175SOL    HW160775  11.747   9.328   6.338
20175SOL    HW260776  11.882   9.382   6.296
20176SOL     OW60777   8.398   3.963   4.634
20176SOL    HW160778   8.369   4.047   4.599
20176SOL    HW260779   8.492   3.974   4.650
20177SOL     OW60780   6.440   8.287   3.937
20177SOL    HW160781   6.422   8.255   4.026
20177SOL    HW260782   6.354   8.299   3.898
20178SOL     OW60783   4.646   6.260   3.827
20178SOL    HW160784   4.713   6.300   3.772
20178SOL    HW260785   4.573   6.243   3.766
20179SOL     OW60786   6.727  12.513   6.677
20179SOL    HW160787   6.742  12.547   6.590
20179SOL    HW260788   6.732  12.418   6.667
20180SOL     OW60789   3.509  11.751   2.052
20180SOL    HW160790   3.461  11.703   1.984
20180SOL    HW260791   3.447  11.817   2.083
20181SOL     OW60792   9.008  12.517   7.548
20181SOL    HW160793   8.933  12.477   7.592
20181SOL    HW260794   9.008  12.478   7.460
20182SOL     OW60795   8.857  13.079   6.084
20182SOL    HW160796   8.950  13.078   6.062
20182SOL    HW260797   8.843  12.995   6.129
20183SOL     OW60798  12.048  10.701   7.334
20183SOL    HW160799  12.013  10.629   7.282
20183SOL    HW260800  12.126  10.664   7.376
20184SOL     OW60801  10.424   7.070   5.227
20184SOL    HW160802  10.414   7.035   5.139
20184SOL    HW260803  10.359   7.023   5.279
20185SOL     OW60804   2.806   5.257   1.659
20185SOL    HW160805   2.813   5.198   1.584
20185SOL    HW260806   2.845   5.339   1.629
20186SOL     OW60807   7.564  12.798   4.902
20186SOL    HW160808   7.637  12.817   4.844
20186SOL    HW260809   7.532  12.883   4.931
20187SOL     OW60810  12.426   2.698   3.074
20187SOL    HW160811  12.454   2.705   2.983
20187SOL    HW260812  12.498   2.654   3.119
20188SOL     OW60813   8.406   6.265   7.529
20188SOL    HW160814   8.379   6.192   7.473
20188SOL    HW260815   8.486   6.234   7.571
20189SOL     OW60816   4.949   8.472   5.377
20189SOL    HW160817   4.997   8.552   5.356
20189SOL    HW260818   4.968   8.456   5.470
20190SOL     OW60819   9.194   6.528   3.321
20190SOL    HW160820   9.209   6.459   3.385
20190SOL    HW260821   9.249   6.601   3.349
20191SOL     OW60822   7.145  12.026   3.867
20191SOL    HW160823   7.098  12.109   3.875
20191SOL    HW260824   7.092  11.964   3.916
20192SOL     OW60825   7.850   6.035   6.865
20192SOL    HW160826   7.944   6.020   6.865
20192SOL    HW260827   7.820   5.998   6.947
20193SOL     OW60828   6.637  12.725   4.101
20193SOL    HW160829   6.551  12.682   4.104
20193SOL    HW260830   6.700  12.654   4.111
20194SOL     OW60831   7.352   9.074   3.505
20194SOL    HW160832   7.288   9.023   3.456
20194SOL    HW260833   7.330   9.165   3.487
20195SOL     OW60834   4.433  10.632   3.655
20195SOL    HW160835   4.499  10.701   3.662
20195SOL    HW260836   4.475  10.555   3.693
20196SOL     OW60837   6.702   9.864   5.647
20196SOL    HW160838   6.625   9.875   5.591
20196SOL    HW260839   6.719   9.951   5.682
20197SOL     OW60840  10.834   6.382   7.260
20197SOL    HW160841  10.898   6.432   7.311
20197SOL    HW260842  10.812   6.440   7.187
20198SOL     OW60843   0.508   0.692   0.586
20198SOL    HW160844   0.556   0.758   0.637
20198SOL    HW260845  11.204   0.674   0.639
20199SOL     OW60846   1.302  10.199   1.236
20199SOL    HW160847   1.266  10.124   1.283
20199SOL    HW260848   1.367  10.236   1.296
20200SOL     OW60849   3.532   8.919   1.008
20200SOL    HW160850   3.512   8.981   1.078
20200SOL    HW260851   3.617   8.882   1.033
20201SOL     OW60852   9.860  10.054   4.266
20201SOL    HW160853   9.782  10.001   4.279
20201SOL    HW260854   9.828  10.135   4.225
20202SOL     OW60855   5.101   5.644   0.584
20202SOL    HW160856   5.175   5.667   0.639
20202SOL    HW260857   5.053   5.726   0.571
20203SOL     OW60858   4.359   1.109   0.585
20203SOL    HW160859   4.437   1.105   0.641
20203SOL    HW260860   4.362   1.196   0.545
20204SOL     OW60861   9.377  11.434   1.650
20204SOL    HW160862   9.446  11.499   1.661
20204SOL    HW260863   9.322  11.469   1.580
20205SOL     OW60864  10.513   9.465   0.946
20205SOL    HW160865  10.512   9.544   0.999
20205SOL    HW260866  10.421   9.439   0.940
20206SOL     OW60867   5.721   9.005   3.340
20206SOL    HW160868   5.752   8.938   3.280
20206SOL    HW260869   5.790   9.072   3.338
20207SOL     OW60870  10.912   2.498   3.141
20207SOL    HW160871  10.969   2.531   3.071
20207SOL    HW260872  10.825   2.531   3.119
20208SOL     OW60873   5.168  12.443   4.149
20208SOL    HW160874   5.224  12.512   4.112
20208SOL    HW260875   5.083  12.486   4.162
20209SOL     OW60876   7.056  12.776   3.998
20209SOL    HW160877   6.988  12.761   4.063
20209SOL    HW260878   7.105  12.851   4.032
20210SOL     OW60879  10.972   4.063   0.993
20210SOL    HW160880  10.895   4.116   0.973
20210SOL    HW260881  11.040   4.096   0.935
20211SOL     OW60882   2.218   7.119   3.025
20211SOL    HW160883   2.304   7.095   2.989
20211SOL    HW260884   2.168   7.037   3.023
20212SOL     OW60885   7.788  12.118   4.958
20212SOL    HW160886   7.731  12.170   4.901
20212SOL    HW260887   7.858  12.087   4.901
20213SOL     OW60888  12.472   8.359   6.619
20213SOL    HW160889  12.486   8.443   6.661
20213SOL    HW260890  12.412   8.378   6.547
20214SOL     OW60891   6.532   5.562   6.571
20214SOL    HW160892   6.477   5.484   6.575
20214SOL    HW260893   6.580   5.554   6.488
20215SOL     OW60894   5.919   5.646   3.077
20215SOL    HW160895   5.923   5.736   3.109
20215SOL    HW260896   5.856   5.648   3.005
20216SOL     OW60897   7.476  13.673   7.551
20216SOL    HW160898   7.524  13.755   7.540
20216SOL    HW260899   7.393  13.699   7.593
20217SOL     OW60900  11.458   9.943   4.893
20217SOL    HW160901  11.514   9.944   4.816
20217SOL    HW260902  11.519   9.947   4.967
20218SOL     OW60903  11.617   9.296   2.502
20218SOL    HW160904  11.609   9.358   2.574
20218SOL    HW260905  11.532   9.251   2.500
20219SOL     OW60906  11.139   6.626   2.833
20219SOL    HW160907  11.201   6.555   2.848
20219SOL    HW260908  11.191   6.706   2.839
20220SOL     OW60909   1.804   3.270   0.378
20220SOL    HW160910   1.827   3.215   0.303
20220SOL    HW260911   1.731   3.224   0.420
20221SOL     OW60912   4.659  12.186   4.970
20221SOL    HW160913   4.677  12.205   5.062
20221SOL    HW260914   4.710  12.107   4.951
20222SOL     OW60915   7.014   1.615   2.032
20222SOL    HW160916   6.923   1.637   2.013
20222SOL    HW260917   7.023   1.626   2.127
20223SOL     OW60918   9.491   8.422   7.328
20223SOL    HW160919   9.418   8.365   7.308
20223SOL    HW260920   9.514   8.462   7.245
20224SOL     OW60921  14.407   5.779   5.583
20224SOL    HW160922  14.383   5.788   5.676
20224SOL    HW260923  14.400   5.868   5.548
20225SOL     OW60924  12.919  11.865   7.083
20225SOL    HW160925  12.958  11.828   7.162
20225SOL    HW260926  12.992  11.903   7.035
20226SOL     OW60927  13.838  10.091   5.228
20226SOL    HW160928  13.780  10.046   5.290
20226SOL    HW260929  13.813  10.183   5.235
20227SOL     OW60930   8.811  11.415   4.874
20227SOL    HW160931   8.801  11.389   4.966
20227SOL    HW260932   8.888  11.367   4.844
20228SOL     OW60933   1.397   7.226   1.300
20228SOL    HW160934   1.442   7.178   1.370
20228SOL    HW260935   1.352   7.158   1.250
20229SOL     OW60936   8.586   3.331   4.062
20229SOL    HW160937   8.627   3.406   4.105
20229SOL    HW260938   8.659   3.281   4.027
20230SOL     OW60939   6.910   8.541   1.928
20230SOL    HW160940   6.980   8.480   1.906
20230SOL    HW260941   6.928   8.567   2.018
20231SOL     OW60942  12.680  14.913   6.440
20231SOL    HW160943  12.644  14.965   6.368
20231SOL    HW260944  12.713  14.834   6.399
20232SOL     OW60945   2.997   7.791   0.867
20232SOL    HW160946   2.962   7.735   0.937
20232SOL    HW260947   2.943   7.770   0.791
20233SOL     OW60948   4.760  10.703   1.217
20233SOL    HW160949   4.850  10.721   1.244
20233SOL    HW260950   4.706  10.757   1.275
20234SOL     OW60951   4.548   6.591   4.517
20234SOL    HW160952   4.608   6.562   4.585
20234SOL    HW260953   4.482   6.522   4.511
20235SOL     OW60954   9.649   7.497   0.680
20235SOL    HW160955   9.719   7.537   0.627
20235SOL    HW260956   9.686   7.414   0.708
20236SOL     OW60957   5.203   4.962   3.773
20236SOL    HW160958   5.299   4.960   3.771
20236SOL    HW260959   5.176   4.873   3.749
20237SOL     OW60960  14.091  13.632   7.313
20237SOL    HW160961  14.180  13.610   7.285
20237SOL    HW260962  14.045  13.548   7.311
20238SOL     OW60963   6.010   2.925   2.894
20238SOL    HW160964   5.974   2.841   2.922
20238SOL    HW260965   6.100   2.924   2.927
20239SOL     OW60966   1.269   3.588   1.197
20239SOL    HW160967   1.223   3.660   1.154
20239SOL    HW260968   1.362   3.612   1.193
20240SOL     OW60969   9.695   5.516   7.099
20240SOL    HW160970   9.637   5.446   7.126
20240SOL    HW260971   9.637   5.587   7.071
20241SOL     OW60972   8.338  10.394   2.431
20241SOL    HW160973   8.289  10.313   2.415
20241SOL    HW260974   8.384  10.378   2.514
20242SOL     OW60975   6.126   7.844   3.347
20242SOL    HW160976   6.130   7.861   3.253
20242SOL    HW260977   6.203   7.888   3.383
20243SOL     OW60978   9.167   4.921   5.688
20243SOL    HW160979   9.188   4.878   5.771
20243SOL    HW260980   9.083   4.964   5.703
20244SOL     OW60981  10.984  10.519   6.782
20244SOL    HW160982  11.020  10.447   6.729
20244SOL    HW260983  10.988  10.486   6.872
20245SOL     OW60984  11.809   6.636   6.314
20245SOL    HW160985  11.789   6.615   6.223
20245SOL    HW260986  11.726   6.668   6.351
20246SOL     OW60987   7.114   6.842   1.663
20246SOL    HW160988   7.048   6.855   1.594
20246SOL    HW260989   7.184   6.793   1.621
20247SOL     OW60990  13.646  14.736   7.488
20247SOL    HW160991  13.625  14.827   7.465
20247SOL    HW260992  13.580  14.684   7.442
20248SOL     OW60993  12.333   9.192   4.498
20248SOL    HW160994  12.238   9.183   4.501
20248SOL    HW260995  12.352   9.262   4.561
20249SOL     OW60996   7.264  13.420   4.953
20249SOL    HW160997   7.210  13.494   4.982
20249SOL    HW260998   7.242  13.349   5.014
20250SOL     OW60999   6.968   7.574   3.365
20250SOL    HW161000   7.043   7.548   3.418
20250SOL    HW261001   6.909   7.617   3.427
20251SOL     OW61002   7.888   9.421   0.759
20251SOL    HW161003   7.969   9.472   0.761
20251SOL    HW261004   7.859   9.420   0.851
20252SOL     OW61005   4.566   5.974   2.080
20252SOL    HW161006   4.555   5.936   2.167
20252SOL    HW261007   4.594   5.901   2.025
20253SOL     OW61008   5.463   7.733   6.934
20253SOL    HW161009   5.505   7.693   7.010
20253SOL    HW261010   5.444   7.659   6.876
20254SOL     OW61011   9.345   4.523   0.519
20254SOL    HW161012   9.250   4.511   0.526
20254SOL    HW261013   9.355   4.605   0.470
20255SOL     OW61014  13.811  10.294   6.602
20255SOL    HW161015  13.772  10.381   6.594
20255SOL    HW261016  13.906  10.309   6.595
20256SOL     OW61017   8.050   6.287   6.793
20256SOL    HW161018   7.960   6.314   6.772
20256SOL    HW261019   8.105   6.343   6.738
20257SOL     OW61020  13.387  11.305   5.122
20257SOL    HW161021  13.422  11.248   5.191
20257SOL    HW261022  13.426  11.390   5.139
20258SOL     OW61023   9.868  10.102   1.652
20258SOL    HW161024   9.798  10.044   1.683
20258SOL    HW261025   9.912  10.132   1.731
20259SOL     OW61026  12.713   5.797   6.079
20259SOL    HW161027  12.679   5.708   6.086
20259SOL    HW261028  12.709   5.831   6.169
20260SOL     OW61029  11.055  10.695   4.786
20260SOL    HW161030  11.057  10.786   4.815
20260SOL    HW261031  11.009  10.649   4.856
20261SOL     OW61032   8.998  10.637   1.942
20261SOL    HW161033   8.923  10.661   1.888
20261SOL    HW261034   8.988  10.543   1.958
20262SOL     OW61035  12.553   8.979   3.015
20262SOL    HW161036  12.538   9.073   3.022
20262SOL    HW261037  12.481   8.946   2.961
20263SOL     OW61038   1.233   8.226   0.744
20263SOL    HW161039   1.296   8.241   0.674
20263SOL    HW261040   1.251   8.137   0.774
20264SOL     OW61041  11.040  12.077   2.302
20264SOL    HW161042  11.075  11.998   2.261
20264SOL    HW261043  11.104  12.145   2.282
20265SOL     OW61044  13.454  14.796   5.916
20265SOL    HW161045  13.533  14.755   5.952
20265SOL    HW261046  13.480  14.886   5.897
20266SOL     OW61047   4.498   9.371   2.488
20266SOL    HW161048   4.529   9.321   2.564
20266SOL    HW261049   4.405   9.384   2.504
20267SOL     OW61050  11.395   5.849   6.176
20267SOL    HW161051  11.458   5.779   6.157
20267SOL    HW261052  11.311   5.814   6.145
20268SOL     OW61053   8.613   8.759   2.751
20268SOL    HW161054   8.559   8.839   2.753
20268SOL    HW261055   8.573   8.702   2.817
20269SOL     OW61056  10.336  14.284   4.983
20269SOL    HW161057  10.260  14.309   5.035
20269SOL    HW261058  10.406   3.567   5.014
20270SOL     OW61059   5.622   5.459   4.776
20270SOL    HW161060   5.661   5.449   4.689
20270SOL    HW261061   5.594   5.370   4.800
20271SOL     OW61062  13.731  10.894   4.398
20271SOL    HW161063  13.809  10.842   4.418
20271SOL    HW261064  13.728  10.896   4.302
20272SOL     OW61065   7.790  15.888   7.387
20272SOL    HW161066   7.780  15.966   7.442
20272SOL    HW261067   7.715  15.891   7.328
20273SOL     OW61068   7.594   9.481   3.177
20273SOL    HW161069   7.604   9.573   3.152
20273SOL    HW261070   7.505   9.475   3.213
20274SOL     OW61071   5.289  14.639   5.990
20274SOL    HW161072   5.283  14.587   6.069
20274SOL    HW261073   5.364  14.603   5.942
20275SOL     OW61074   8.313   4.296   5.516
20275SOL    HW161075   8.231   4.262   5.478
20275SOL    HW261076   8.311   4.265   5.607
20276SOL     OW61077   8.941  10.849   6.591
20276SOL    HW161078   8.927  10.917   6.526
20276SOL    HW261079   9.004  10.888   6.653
20277SOL     OW61080   2.897   8.557   1.617
20277SOL    HW161081   2.865   8.638   1.576
20277SOL    HW261082   2.961   8.586   1.681
20278SOL     OW61083   5.527  12.403   7.236
20278SOL    HW161084   5.604  12.365   7.194
20278SOL    HW261085   5.497  12.335   7.297
20279SOL     OW61086  12.833   7.008   5.766
20279SOL    HW161087  12.880   6.941   5.817
20279SOL    HW261088  12.845   6.981   5.675
20280SOL     OW61089   5.847  10.764   2.002
20280SOL    HW161090   5.840  10.709   1.925
20280SOL    HW261091   5.938  10.756   2.029
20281SOL     OW61092   1.294   3.082   0.863
20281SOL    HW161093   1.266   3.121   0.780
20281SOL    HW261094   1.241   3.125   0.929
20282SOL     OW61095   5.341  10.389   0.443
20282SOL    HW161096   5.377  10.464   0.396
20282SOL    HW261097   5.410  10.362   0.503
20283SOL     OW61098   8.253  12.556   5.255
20283SOL    HW161099   8.313  12.502   5.306
20283SOL    HW261100   8.234  12.504   5.177
20284SOL     OW61101  10.577   1.998   1.941
20284SOL    HW161102  10.537   1.913   1.927
20284SOL    HW261103  10.613   2.022   1.855
20285SOL     OW61104  13.315   5.917   5.660
20285SOL    HW161105  13.366   5.992   5.689
20285SOL    HW261106  13.331   5.850   5.728
20286SOL     OW61107   5.577   7.201   0.905
20286SOL    HW161108   5.514   7.187   0.977
20286SOL    HW261109   5.644   7.257   0.943
20287SOL     OW61110   5.031   9.361   5.686
20287SOL    HW161111   5.111   9.312   5.706
20287SOL    HW261112   5.030   9.433   5.749
20288SOL     OW61113   6.095   4.775   3.681
20288SOL    HW161114   6.100   4.868   3.657
20288SOL    HW261115   6.087   4.729   3.597
20289SOL     OW61116   9.541   1.237   1.363
20289SOL    HW161117   9.496   1.165   1.406
20289SOL    HW261118   9.540   1.308   1.426
20290SOL     OW61119   4.267  13.377   4.166
20290SOL    HW161120   4.352  13.343   4.139
20290SOL    HW261121   4.221  13.395   4.084
20291SOL     OW61122   9.272   1.144   0.339
20291SOL    HW161123   9.346   1.205   0.346
20291SOL    HW261124   9.219   1.163   0.416
20292SOL     OW61125  11.131  12.367   6.569
20292SOL    HW161126  11.213  12.415   6.584
20292SOL    HW261127  11.142  12.285   6.615
20293SOL     OW61128   7.636   8.490   1.570
20293SOL    HW161129   7.651   8.452   1.484
20293SOL    HW261130   7.566   8.554   1.556
20294SOL     OW61131   9.071   6.156   1.386
20294SOL    HW161132   9.065   6.116   1.299
20294SOL    HW261133   9.010   6.106   1.440
20295SOL     OW61134   7.762   8.400   7.510
20295SOL    HW161135   7.831   8.449   7.466
20295SOL    HW261136   7.732   8.337   7.445
20296SOL     OW61137  14.719  11.797   5.700
20296SOL    HW161138  14.779  11.724   5.692
20296SOL    HW261139  14.773  11.875   5.686
20297SOL     OW61140  10.973   6.784   4.241
20297SOL    HW161141  10.896   6.762   4.293
20297SOL    HW261142  10.938   6.834   4.167
20298SOL     OW61143   6.110  13.193   4.725
20298SOL    HW161144   6.160  13.181   4.806
20298SOL    HW261145   6.141  13.124   4.667
20299SOL     OW61146   7.177   6.935   7.550
20299SOL    HW161147   1.730   1.578   0.000
20299SOL    HW261148   7.128   6.868   7.503
20300SOL     OW61149  10.463   6.112   6.921
20300SOL    HW161150  10.493   6.122   7.011
20300SOL    HW261151  10.465   6.201   6.885
20301SOL     OW61152   8.419  10.383   3.326
20301SOL    HW161153   8.358  10.309   3.320
20301SOL    HW261154   8.462  10.371   3.411
20302SOL     OW61155   6.922  14.622   5.720
20302SOL    HW161156   7.017  14.623   5.706
20302SOL    HW261157   6.886  14.665   5.642
20303SOL     OW61158   3.321  10.047   3.037
20303SOL    HW161159   3.353  10.127   2.994
20303SOL    HW261160   3.339   9.977   2.973
20304SOL     OW61161  10.655   5.393   3.118
20304SOL    HW161162  10.722   5.415   3.053
20304SOL    HW261163  10.686   5.435   3.199
20305SOL     OW61164  10.968   6.368   3.764
20305SOL    HW161165  11.059   6.338   3.753
20305SOL    HW261166  10.957   6.373   3.859
20306SOL     OW61167  14.842  10.656   7.618
20306SOL    HW161168  14.889  10.599   7.557
20306SOL    HW261169   9.370   5.225   0.012
20307SOL     OW61170   7.913   5.821   2.410
20307SOL    HW161171   7.845   5.782   2.356
20307SOL    HW261172   7.937   5.753   2.473
20308SOL     OW61173  13.348  15.630   7.555
20308SOL    HW161174   8.015  10.249   0.015
20308SOL    HW261175  13.260  15.655   7.585
20309SOL     OW61176   6.609  13.171   4.018
20309SOL    HW161177   6.625  13.168   3.923
20309SOL    HW261178   6.681  13.120   4.056
20310SOL     OW61179   8.614   1.969   2.259
20310SOL    HW161180   8.587   2.030   2.328
20310SOL    HW261181   8.707   1.987   2.246
20311SOL     OW61182   9.936   6.802   5.457
20311SOL    HW161183   9.856   6.762   5.423
20311SOL    HW261184  10.007   6.754   5.415
20312SOL     OW61185   7.680  10.314   6.226
20312SOL    HW161186   7.643  10.226   6.214
20312SOL    HW261187   7.619  10.357   6.287
20313SOL     OW61188  12.682   5.308   3.773
20313SOL    HW161189  12.599   5.342   3.739
20313SOL    HW261190  12.748   5.370   3.743
20314SOL     OW61191  13.871  10.009   6.510
20314SOL    HW161192  13.804  10.068   6.543
20314SOL    HW261193  13.939  10.008   6.577
20315SOL     OW61194   1.482   4.494   0.598
20315SOL    HW161195   1.490   4.582   0.634
20315SOL    HW261196   1.398   4.494   0.552
20316SOL     OW61197   6.992   6.185   0.401
20316SOL    HW161198   6.928   6.163   0.469
20316SOL    HW261199   7.046   6.106   0.393
20317SOL     OW61200   3.871   9.330   3.876
20317SOL    HW161201   3.818   9.251   3.860
20317SOL    HW261202   3.812   9.389   3.922
20318SOL     OW61203   4.192   4.219   3.175
20318SOL    HW161204   4.253   4.247   3.107
20318SOL    HW261205   4.107   4.254   3.148
20319SOL     OW61206   6.823  12.592   6.392
20319SOL    HW161207   6.874  12.512   6.378
20319SOL    HW261208   6.886  12.663   6.382
20320SOL     OW61209   6.879   5.967   4.987
20320SOL    HW161210   6.813   6.017   4.940
20320SOL    HW261211   6.893   5.889   4.934
20321SOL     OW61212  10.659  10.025   4.278
20321SOL    HW161213  10.659  10.069   4.363
20321SOL    HW261214  10.569   9.994   4.267
20322SOL     OW61215  13.154   7.613   5.073
20322SOL    HW161216  13.127   7.551   5.005
20322SOL    HW261217  13.162   7.559   5.152
20323SOL     OW61218   9.013   4.499   2.198
20323SOL    HW161219   9.087   4.466   2.147
20323SOL    HW261220   9.013   4.593   2.181
20324SOL     OW61221   7.432   3.189   2.534
20324SOL    HW161222   7.340   3.171   2.553
20324SOL    HW261223   7.476   3.105   2.546
20325SOL     OW61224   2.002   8.618   2.242
20325SOL    HW161225   2.072   8.555   2.224
20325SOL    HW261226   1.923   8.564   2.251
20326SOL     OW61227  13.214   5.771   3.523
20326SOL    HW161228  13.201   5.860   3.491
20326SOL    HW261229  13.289   5.778   3.583
20327SOL     OW61230   2.434   5.231   2.369
20327SOL    HW161231   2.492   5.157   2.385
20327SOL    HW261232   2.413   5.226   2.276
20328SOL     OW61233   8.951  10.894   5.688
20328SOL    HW161234   8.909  10.865   5.607
20328SOL    HW261235   8.933  10.823   5.750
20329SOL     OW61236  13.057   4.984   6.897
20329SOL    HW161237  13.078   5.056   6.838
20329SOL    HW261238  13.059   5.023   6.984
20330SOL     OW61239  11.296  11.210   6.955
20330SOL    HW161240  11.347  11.286   6.928
20330SOL    HW261241  11.212  11.246   6.984
20331SOL     OW61242   7.014   4.090   3.863
20331SOL    HW161243   7.046   4.176   3.889
20331SOL    HW261244   7.076   4.029   3.904
20332SOL     OW61245  12.995   8.155   6.072
20332SOL    HW161246  12.981   8.121   6.160
20332SOL    HW261247  12.983   8.250   6.081
20333SOL     OW61248  13.640  10.799   7.522
20333SOL    HW161249  13.633  10.890   7.492
20333SOL    HW261250  13.669  10.806   7.613
20334SOL     OW61251  11.247  12.953   5.619
20334SOL    HW161252  11.316  12.967   5.554
20334SOL    HW261253  11.184  13.023   5.602
20335SOL     OW61254   1.278   6.611   1.548
20335SOL    HW161255   1.213   6.673   1.515
20335SOL    HW261256   1.305   6.648   1.632
20336SOL     OW61257   3.635  10.920   3.872
20336SOL    HW161258   3.554  10.889   3.830
20336SOL    HW261259   3.613  11.008   3.903
20337SOL     OW61260   7.079   5.259   7.367
20337SOL    HW161261   7.168   5.226   7.359
20337SOL    HW261262   7.089   5.352   7.389
20338SOL     OW61263  10.940   7.502   6.766
20338SOL    HW161264  10.962   7.584   6.723
20338SOL    HW261265  10.982   7.508   6.852
20339SOL     OW61266  10.060   4.968   3.151
20339SOL    HW161267  10.132   4.932   3.202
20339SOL    HW261268  10.010   4.892   3.122
20340SOL     OW61269   2.370   8.731   0.604
20340SOL    HW161270   2.362   8.746   0.698
20340SOL    HW261271   2.425   8.653   0.597
20341SOL     OW61272   7.764   7.012   6.239
20341SOL    HW161273   7.794   7.099   6.263
20341SOL    HW261274   7.705   7.027   6.164
20342SOL     OW61275   1.493   8.777   0.366
20342SOL    HW161276   1.579   8.762   0.327
20342SOL    HW261277   1.484   8.872   0.370
20343SOL     OW61278  10.864  11.606   2.295
20343SOL    HW161279  10.951  11.645   2.287
20343SOL    HW261280  10.824  11.618   2.209
20344SOL     OW61281  14.941  12.475   7.025
20344SOL    HW161282  14.957  12.420   7.101
20344SOL    HW261283  14.933  12.413   6.952
20345SOL     OW61284   9.935   7.675   5.978
20345SOL    HW161285   9.935   7.718   5.892
20345SOL    HW261286  10.027   7.656   5.995
20346SOL     OW61287  10.631   9.436   4.151
20346SOL    HW161288  10.620   9.506   4.087
20346SOL    HW261289  10.552   9.383   4.143
20347SOL     OW61290  15.038   8.711   6.347
20347SOL    HW161291  15.044   8.704   6.442
20347SOL    HW261292  15.002   8.627   6.320
20348SOL     OW61293   8.708   7.736   2.903
20348SOL    HW161294   8.796   7.741   2.940
20348SOL    HW261295   8.650   7.752   2.977
20349SOL     OW61296   5.769  11.962   5.329
20349SOL    HW161297   5.723  11.971   5.413
20349SOL    HW261298   5.856  11.997   5.346
20350SOL     OW61299   8.369  10.368   4.435
20350SOL    HW161300   8.288  10.356   4.385
20350SOL    HW261301   8.365  10.459   4.465
20351SOL     OW61302  10.442   8.630   4.346
20351SOL    HW161303  10.517   8.601   4.294
20351SOL    HW261304  10.391   8.684   4.285
20352SOL     OW61305   9.351   7.363   3.775
20352SOL    HW161306   9.405   7.296   3.816
20352SOL    HW261307   9.274   7.317   3.743
20353SOL     OW61308   5.974  13.343   3.670
20353SOL    HW161309   6.040   2.602   3.608
20353SOL    HW261310   5.935   2.647   3.707
20354SOL     OW61311  13.783  12.420   5.393
20354SOL    HW161312  13.710  12.397   5.336
20354SOL    HW261313  13.745  12.423   5.481
20355SOL     OW61314  10.541   2.910   1.775
20355SOL    HW161315  10.578   2.908   1.863
20355SOL    HW261316  10.612   2.940   1.719
20356SOL     OW61317   1.618  11.306   1.908
20356SOL    HW161318   1.606  11.401   1.909
20356SOL    HW261319   1.529  11.270   1.909
20357SOL     OW61320  12.069   8.771   2.890
20357SOL    HW161321  12.135   8.712   2.927
20357SOL    HW261322  12.036   8.820   2.965
20358SOL     OW61323   6.429   5.050   5.024
20358SOL    HW161324   6.470   5.045   4.938
20358SOL    HW261325   6.491   5.005   5.082
20359SOL     OW61326   9.728   1.698   0.465
20359SOL    HW161327   9.789   1.700   0.392
20359SOL    HW261328   9.782   1.712   0.543
20360SOL     OW61329   9.312  10.723   3.942
20360SOL    HW161330   9.269  10.759   4.020
20360SOL    HW261331   9.264  10.642   3.924
20361SOL     OW61332  10.633   5.363   6.290
20361SOL    HW161333  10.588   5.406   6.217
20361SOL    HW261334  10.724   5.387   6.279
20362SOL     OW61335   7.214   3.357   3.788
20362SOL    HW161336   7.280   3.354   3.857
20362SOL    HW261337   7.197   3.450   3.775
20363SOL     OW61338   9.077   8.834   5.397
20363SOL    HW161339   8.989   8.815   5.430
20363SOL    HW261340   9.083   8.788   5.314
20364SOL     OW61341   8.036   4.429   3.845
20364SOL    HW161342   8.119   4.387   3.821
20364SOL    HW261343   7.974   4.357   3.854
20365SOL     OW61344  14.204   4.765   5.575
20365SOL    HW161345  14.171   4.843   5.620
20365SOL    HW261346  14.281   4.796   5.528
20366SOL     OW61347   6.412  11.291   7.457
20366SOL    HW161348   6.360  11.252   7.387
20366SOL    HW261349   6.502  11.266   7.438
20367SOL     OW61350  15.589  13.913   6.966
20367SOL    HW161351  15.642  13.860   7.025
20367SOL    HW261352  15.549  13.850   6.906
20368SOL     OW61353   7.553   6.241   4.969
20368SOL    HW161354   7.641   6.207   4.985
20368SOL    HW261355   7.567   6.317   4.912
20369SOL     OW61356   6.937   5.211   0.808
20369SOL    HW161357   6.911   5.277   0.744
20369SOL    HW261358   7.028   5.230   0.828
20370SOL     OW61359  12.704   3.715   4.155
20370SOL    HW161360  12.671   3.774   4.087
20370SOL    HW261361  12.628   3.701   4.212
20371SOL     OW61362   8.594   6.113   0.332
20371SOL    HW161363   8.669   6.156   0.290
20371SOL    HW261364   8.630   6.078   0.414
20372SOL     OW61365   4.379  10.039   2.723
20372SOL    HW161366   4.455  10.091   2.751
20372SOL    HW261367   4.305  10.079   2.769
20373SOL     OW61368  11.545   5.743   4.832
20373SOL    HW161369  11.496   5.722   4.911
20373SOL    HW261370  11.604   5.813   4.858
20374SOL     OW61371  10.509   7.431   7.081
20374SOL    HW161372  10.590   7.379   7.084
20374SOL    HW261373  10.517   7.484   7.002
20375SOL     OW61374   7.062   9.037   0.086
20375SOL    HW161375   7.055   9.105   0.153
20375SOL    HW261376   7.087   9.085   0.006
20376SOL     OW61377   6.172   4.825   4.699
20376SOL    HW161378   6.225   4.749   4.674
20376SOL    HW261379   6.226   4.901   4.676
20377SOL     OW61380   2.040   2.073   2.033
20377SOL    HW161381   2.069   2.093   1.944
20377SOL    HW261382   2.121   2.063   2.083
20378SOL     OW61383   5.497  10.700   2.586
20378SOL    HW161384   5.501  10.784   2.632
20378SOL    HW261385   5.577  10.655   2.611
20379SOL     OW61386  14.660   5.009   6.868
20379SOL    HW161387  14.634   4.921   6.843
20379SOL    HW261388  14.579   5.050   6.899
20380SOL     OW61389   3.996   2.343   2.092
20380SOL    HW161390   4.022   2.252   2.107
20380SOL    HW261391   3.942   2.365   2.168
20381SOL     OW61392   8.758  10.356   5.999
20381SOL    HW161393   8.768  10.394   6.087
20381SOL    HW261394   8.736  10.430   5.943
20382SOL     OW61395  11.479   7.913   6.083
20382SOL    HW161396  11.549   7.978   6.083
20382SOL    HW261397  11.401   7.961   6.056
20383SOL     OW61398   7.839  11.876   3.862
20383SOL    HW161399   7.906  11.944   3.858
20383SOL    HW261400   7.811  11.865   3.772
20384SOL     OW61401   7.007  13.083   4.036
20384SOL    HW161402   7.043  13.047   4.117
20384SOL    HW261403   6.912  13.076   4.047
20385SOL     OW61404  10.180  13.825   5.112
20385SOL    HW161405  10.259  13.827   5.165
20385SOL    HW261406  10.120  13.769   5.161
20386SOL     OW61407   3.041   7.799   1.914
20386SOL    HW161408   2.996   7.716   1.899
20386SOL    HW261409   3.129   7.786   1.877
20387SOL     OW61410   2.873   7.496   2.278
20387SOL    HW161411   2.955   7.532   2.247
20387SOL    HW261412   2.861   7.534   2.365
20388SOL     OW61413   4.155  11.843   2.585
20388SOL    HW161414   4.228  11.902   2.602
20388SOL    HW261415   4.119  11.825   2.672
20389SOL     OW61416  10.715   6.402   3.204
20389SOL    HW161417  10.683   6.334   3.264
20389SOL    HW261418  10.794   6.365   3.165
20390SOL     OW61419   6.477   9.641   4.903
20390SOL    HW161420   6.558   9.692   4.909
20390SOL    HW261421   6.491   9.584   4.828
20391SOL     OW61422  11.506   9.931   5.421
20391SOL    HW161423  11.528   9.838   5.419
20391SOL    HW261424  11.415   9.935   5.390
20392SOL     OW61425   4.721   2.037   1.841
20392SOL    HW161426   4.663   2.112   1.855
20392SOL    HW261427   4.662   1.962   1.831
20393SOL     OW61428   2.514   9.316   0.520
20393SOL    HW161429   2.441   9.360   0.476
20393SOL    HW261430   2.501   9.223   0.499
20394SOL     OW61431   0.652   6.457   0.827
20394SOL    HW161432   0.611   6.428   0.745
20394SOL    HW261433   0.719   6.392   0.845
20395SOL     OW61434  14.325   5.847   7.324
20395SOL    HW161435  14.359   5.784   7.388
20395SOL    HW261436  14.285   5.793   7.256
20396SOL     OW61437   2.578   5.831   2.610
20396SOL    HW161438   2.599   5.807   2.700
20396SOL    HW261439   2.485   5.852   2.611
20397SOL     OW61440   2.070  11.180   2.582
20397SOL    HW161441   2.128  11.122   2.532
20397SOL    HW261442   2.039  11.126   2.655
20398SOL     OW61443   7.479  11.802   2.098
20398SOL    HW161444   7.526  11.884   2.082
20398SOL    HW261445   7.453  11.807   2.190
20399SOL     OW61446   3.494   6.898   2.073
20399SOL    HW161447   3.544   6.976   2.049
20399SOL    HW261448   3.439   6.880   1.997
20400SOL     OW61449   8.532   6.048   0.011
20400SOL    HW161450  13.871  11.355   7.610
20400SOL    HW261451   8.516   6.064   0.104
20401SOL     OW61452   2.691   5.511   2.017
20401SOL    HW161453   2.626   5.521   2.087
20401SOL    HW261454   2.710   5.417   2.017
20402SOL     OW61455  13.656  13.681   5.121
20402SOL    HW161456  13.642  13.587   5.136
20402SOL    HW261457  13.571  13.720   5.139
20403SOL     OW61458   7.704  13.835   7.567
20403SOL    HW161459   7.691  13.928   7.586
20403SOL    HW261460   2.305   8.404   0.033
20404SOL     OW61461   6.180  12.622   3.712
20404SOL    HW161462   6.151  12.654   3.626
20404SOL    HW261463   6.233  12.544   3.692
20405SOL     OW61464   5.795  12.052   2.907
20405SOL    HW161465   5.726  12.117   2.924
20405SOL    HW261466   5.753  11.988   2.850
20406SOL     OW61467  13.296   9.216   5.007
20406SOL    HW161468  13.386   9.228   4.975
20406SOL    HW261469  13.293   9.265   5.089
20407SOL     OW61470  10.749   5.910   4.227
20407SOL    HW161471  10.721   5.899   4.318
20407SOL    HW261472  10.691   5.976   4.191
20408SOL     OW61473  14.530   4.389   5.371
20408SOL    HW161474   3.823   4.335   5.329
20408SOL    HW261475  14.517   4.347   5.456
20409SOL     OW61476  10.028  10.364   1.382
20409SOL    HW161477   9.990  10.286   1.340
20409SOL    HW261478   9.965  10.389   1.449
20410SOL     OW61479   8.323   6.663   0.148
20410SOL    HW161480   8.383   6.658   0.073
20410SOL    HW261481   8.340   6.583   0.197
20411SOL     OW61482  12.648  11.447   7.137
20411SOL    HW161483  12.579  11.422   7.075
20411SOL    HW261484  12.707  11.503   7.086
20412SOL     OW61485   7.274  10.477   7.443
20412SOL    HW161486   7.313  10.430   7.516
20412SOL    HW261487   7.200  10.423   7.416
20413SOL     OW61488   6.414   8.103   1.353
20413SOL    HW161489   6.383   8.190   1.380
20413SOL    HW261490   6.486   8.121   1.292
20414SOL     OW61491   4.094   9.013   0.823
20414SOL    HW161492   4.182   9.003   0.787
20414SOL    HW261493   4.106   9.074   0.896
20415SOL     OW61494   3.985   5.313   2.424
20415SOL    HW161495   3.989   5.230   2.377
20415SOL    HW261496   3.999   5.289   2.516
20416SOL     OW61497   9.517   5.003   5.080
20416SOL    HW161498   9.603   4.963   5.069
20416SOL    HW261499   9.519   5.080   5.023
20417SOL     OW61500   0.723   2.821   0.081
20417SOL    HW161501   0.629   2.837   0.079
20417SOL    HW261502   6.134   8.188   7.609
20418SOL     OW61503  14.102   5.460   6.267
20418SOL    HW161504  14.102   5.395   6.338
20418SOL    HW261505  14.151   5.534   6.302
20419SOL     OW61506   7.680  12.654   5.861
20419SOL    HW161507   7.731  12.607   5.795
20419SOL    HW261508   7.629  12.718   5.810
20420SOL     OW61509   9.782   5.895   5.262
20420SOL    HW161510   9.836   5.845   5.201
20420SOL    HW261511   9.753   5.972   5.213
20421SOL     OW61512   5.223   8.537   4.865
20421SOL    HW161513   5.189   8.456   4.904
20421SOL    HW261514   5.265   8.508   4.783
20422SOL     OW61515  10.673   7.366   6.258
20422SOL    HW161516  10.763   7.395   6.270
20422SOL    HW261517  10.662   7.294   6.320
20423SOL     OW61518   5.549   5.486   1.348
20423SOL    HW161519   5.602   5.517   1.275
20423SOL    HW261520   5.516   5.400   1.320
20424SOL     OW61521   6.120   8.577   6.330
20424SOL    HW161522   6.025   8.576   6.322
20424SOL    HW261523   6.146   8.661   6.291
20425SOL     OW61524   9.288   6.382   6.699
20425SOL    HW161525   9.371   6.429   6.706
20425SOL    HW261526   9.290   6.342   6.612
20426SOL     OW61527   8.289  12.981   6.356
20426SOL    HW161528   8.266  12.961   6.447
20426SOL    HW261529   8.318  12.898   6.319
20427SOL     OW61530   9.169   8.917   1.312
20427SOL    HW161531   9.221   8.839   1.332
20427SOL    HW261532   9.173   8.926   1.217
20428SOL     OW61533   6.196   3.306   2.358
20428SOL    HW161534   6.114   3.259   2.367
20428SOL    HW261535   6.174   3.384   2.307
20429SOL     OW61536  14.508   7.420   5.444
20429SOL    HW161537  14.563   7.390   5.516
20429SOL    HW261538  14.500   7.343   5.387
20430SOL     OW61539  13.988  11.199   7.099
20430SOL    HW161540  13.946  11.119   7.067
20430SOL    HW261541  13.963  11.204   7.191
20431SOL     OW61542  12.243   8.416   4.888
20431SOL    HW161543  12.337   8.425   4.871
20431SOL    HW261544  12.212   8.351   4.825
20432SOL     OW61545   5.806   2.465   1.461
20432SOL    HW161546   5.888   2.511   1.478
20432SOL    HW261547   5.738   2.524   1.497
20433SOL     OW61548   6.026   2.192   0.840
20433SOL    HW161549   5.974   2.227   0.912
20433SOL    HW261550   5.961   2.162   0.777
20434SOL     OW61551  13.662   6.189   5.427
20434SOL    HW161552  13.595   6.183   5.359
20434SOL    HW261553  13.637   6.267   5.478
20435SOL     OW61554  13.300   7.667   4.095
20435SOL    HW161555  13.273   7.575   4.090
20435SOL    HW261556  13.382   7.664   4.144
20436SOL     OW61557   3.555  13.842   4.893
20436SOL    HW161558   3.580  13.900   4.821
20436SOL    HW261559  14.258  13.888   4.937
20437SOL     OW61560  14.132   8.363   6.670
20437SOL    HW161561  14.226   8.380   6.678
20437SOL    HW261562  14.101   8.361   6.760
20438SOL     OW61563  11.270   5.056   6.978
20438SOL    HW161564  11.315   5.122   6.926
20438SOL    HW261565  11.330   5.036   7.050
20439SOL     OW61566   3.397  12.158   4.563
20439SOL    HW161567   3.406  12.251   4.544
20439SOL    HW261568   3.487  12.127   4.574
20440SOL     OW61569   9.695   5.509   1.365
20440SOL    HW161570   9.784   5.490   1.335
20440SOL    HW261571   9.666   5.583   1.311
20441SOL     OW61572   5.949   9.099   4.264
20441SOL    HW161573   5.924   9.181   4.308
20441SOL    HW261574   5.879   9.038   4.285
20442SOL     OW61575  10.921   4.246   4.798
20442SOL    HW161576  10.843   4.271   4.749
20442SOL    HW261577  10.991   4.248   4.733
20443SOL     OW61578   7.808   8.890   6.248
20443SOL    HW161579   7.835   8.802   6.221
20443SOL    HW261580   7.881   8.924   6.299
20444SOL     OW61581  10.795   9.226   7.180
20444SOL    HW161582  10.758   9.247   7.265
20444SOL    HW261583  10.884   9.259   7.183
20445SOL     OW61584   2.349   5.908   2.080
20445SOL    HW161585   2.281   5.922   2.014
20445SOL    HW261586   2.431   5.908   2.030
20446SOL     OW61587   9.668  11.081   4.365
20446SOL    HW161588   9.659  11.144   4.294
20446SOL    HW261589   9.605  11.012   4.343
20447SOL     OW61590   6.303  10.058   0.873
20447SOL    HW161591   6.262  10.137   0.838
20447SOL    HW261592   6.397  10.077   0.872
20448SOL     OW61593  13.321  10.904   4.727
20448SOL    HW161594  13.254  10.956   4.682
20448SOL    HW261595  13.321  10.937   4.817
20449SOL     OW61596  13.678   9.115   5.741
20449SOL    HW161597  13.766   9.153   5.751
20449SOL    HW261598  13.654   9.088   5.829
20450SOL     OW61599  10.421   8.439   7.593
20450SOL    HW161600  10.496   8.379   7.594
20450SOL    HW261601   4.961   2.998   0.003
20451SOL     OW61602   3.989   3.053   3.373
20451SOL    HW161603   4.013   3.025   3.461
20451SOL    HW261604   4.016   3.144   3.368
20452SOL     OW61605   2.593  11.498   1.386
20452SOL    HW161606   2.659  11.529   1.323
20452SOL    HW261607   2.548  11.578   1.413
20453SOL     OW61608  11.689  14.661   6.056
20453SOL    HW161609  11.686  14.719   6.132
20453SOL    HW261610  11.781  14.640   6.045
20454SOL     OW61611   8.871  11.862   3.750
20454SOL    HW161612   8.801  11.828   3.806
20454SOL    HW261613   8.840  11.845   3.661
20455SOL     OW61614   1.650   2.283   0.978
20455SOL    HW161615   1.578   2.257   0.921
20455SOL    HW261616   1.725   2.291   0.919
20456SOL     OW61617  11.506   9.396   5.446
20456SOL    HW161618  11.512   9.487   5.473
20456SOL    HW261619  11.495   9.347   5.528
20457SOL     OW61620   0.426   6.364   0.199
20457SOL    HW161621   0.515   6.371   0.164
20457SOL    HW261622   0.439   6.359   0.294
20458SOL     OW61623   6.009   9.067   2.854
20458SOL    HW161624   5.981   8.976   2.842
20458SOL    HW261625   5.931   9.118   2.834
20459SOL     OW61626  14.415   5.297   6.421
20459SOL    HW161627  14.343   5.354   6.393
20459SOL    HW261628  14.372   5.215   6.447
20460SOL     OW61629  11.166  12.172   6.748
20460SOL    HW161630  11.122  12.090   6.769
20460SOL    HW261631  11.252  12.164   6.790
20461SOL     OW61632  10.664   4.390   3.221
20461SOL    HW161633  10.684   4.456   3.287
20461SOL    HW261634  10.569   4.383   3.222
20462SOL     OW61635  11.584   9.833   1.424
20462SOL    HW161636  11.524   9.899   1.459
20462SOL    HW261637  11.596   9.858   1.333
20463SOL     OW61638   6.769  10.376   5.344
20463SOL    HW161639   6.815  10.306   5.298
20463SOL    HW261640   6.685  10.337   5.369
20464SOL     OW61641   2.193  10.136   2.768
20464SOL    HW161642   2.271  10.089   2.738
20464SOL    HW261643   2.227  10.217   2.805
20465SOL     OW61644  12.306   9.085   6.863
20465SOL    HW161645  12.279   9.174   6.843
20465SOL    HW261646  12.275   9.071   6.953
20466SOL     OW61647  12.813   8.840   5.674
20466SOL    HW161648  12.874   8.906   5.708
20466SOL    HW261649  12.867   8.760   5.667
20467SOL     OW61650   8.330   9.106   3.158
20467SOL    HW161651   8.239   9.130   3.176
20467SOL    HW261652   8.368   9.184   3.116
20468SOL     OW61653  11.598   2.924   2.812
20468SOL    HW161654  11.552   3.003   2.783
20468SOL    HW261655  11.679   2.923   2.761
20469SOL     OW61656   7.754   9.914   6.080
20469SOL    HW161657   7.765   9.862   6.001
20469SOL    HW261658   7.750  10.005   6.049
20470SOL     OW61659   3.168   3.616   0.424
20470SOL    HW161660   3.138   3.557   0.355
20470SOL    HW261661   3.216   3.559   0.484
20471SOL     OW61662   7.042   7.724   0.599
20471SOL    HW161663   7.080   7.637   0.604
20471SOL    HW261664   7.115   7.781   0.575
20472SOL     OW61665   9.389  11.713   4.076
20472SOL    HW161666   9.422  11.803   4.073
20472SOL    HW261667   9.297  11.721   4.050
20473SOL     OW61668  11.233   6.303   5.366
20473SOL    HW161669  11.266   6.223   5.325
20473SOL    HW261670  11.273   6.374   5.315
20474SOL     OW61671   7.503   3.324   1.232
20474SOL    HW161672   7.423   3.364   1.267
20474SOL    HW261673   7.510   3.359   1.143
20475SOL     OW61674  11.096   5.024   2.877
20475SOL    HW161675  11.013   5.067   2.899
20475SOL    HW261676  11.162   5.091   2.892
20476SOL     OW61677  14.149   4.613   4.876
20476SOL    HW161678  14.117   4.524   4.889
20476SOL    HW261679   3.469   4.604   4.867
20477SOL     OW61680  11.249  14.516   5.996
20477SOL    HW161681  11.275  14.589   6.052
20477SOL    HW261682  11.154  14.509   6.009
20478SOL     OW61683  11.351   8.145   7.192
20478SOL    HW161684  11.347   8.234   7.229
20478SOL    HW261685  11.434   8.143   7.145
20479SOL     OW61686   4.113   4.305   2.588
20479SOL    HW161687   4.083   4.247   2.658
20479SOL    HW261688   4.207   4.287   2.582
20480SOL     OW61689   8.031  11.723   5.397
20480SOL    HW161690   7.995  11.802   5.436
20480SOL    HW261691   7.970  11.701   5.326
20481SOL     OW61692   7.881   6.766   5.661
20481SOL    HW161693   7.891   6.793   5.569
20481SOL    HW261694   7.786   6.760   5.673
20482SOL     OW61695  11.803  14.779   6.274
20482SOL    HW161696  11.856  14.858   6.267
20482SOL    HW261697  11.861  14.709   6.244
20483SOL     OW61698  13.520   7.593   6.398
20483SOL    HW161699  13.540   7.501   6.418
20483SOL    HW261700  13.440   7.589   6.346
20484SOL     OW61701   8.418   3.237   4.290
20484SOL    HW161702   8.333   3.192   4.288
20484SOL    HW261703   8.428   3.273   4.202
20485SOL     OW61704   2.041   1.281   0.261
20485SOL    HW161705   1.949   1.254   0.256
20485SOL    HW261706   2.066   1.294   0.169
20486SOL     OW61707   7.956   5.781   3.027
20486SOL    HW161708   7.875   5.743   2.992
20486SOL    HW261709   7.926   5.839   3.096
20487SOL     OW61710   8.766   2.743   2.312
20487SOL    HW161711   8.700   2.699   2.366
20487SOL    HW261712   8.715   2.804   2.258
20488SOL     OW61713   5.212   3.408   1.798
20488SOL    HW161714   5.277   3.357   1.846
20488SOL    HW261715   5.208   3.367   1.712
20489SOL     OW61716  11.316   9.209   7.542
20489SOL    HW161717  11.378   9.263   7.493
20489SOL    HW261718  11.257   9.271   7.584
20490SOL     OW61719   3.741   4.003   4.195
20490SOL    HW161720   3.739   3.911   4.171
20490SOL    HW261721   3.723   4.049   4.113
20491SOL     OW61722  10.723   7.766   3.886
20491SOL    HW161723  10.814   7.740   3.901
20491SOL    HW261724  10.694   7.709   3.815
20492SOL     OW61725   8.803   5.798   1.447
20492SOL    HW161726   8.858   5.838   1.379
20492SOL    HW261727   8.738   5.747   1.398
20493SOL     OW61728   0.674   3.406   0.268
20493SOL    HW161729   0.648   3.383   0.357
20493SOL    HW261730   0.707   3.496   0.275
20494SOL     OW61731   6.230   2.708   0.704
20494SOL    HW161732   6.272   2.793   0.691
20494SOL    HW261733   6.301   2.649   0.728
20495SOL     OW61734   5.852   8.252   5.537
20495SOL    HW161735   5.793   8.255   5.612
20495SOL    HW261736   5.820   8.179   5.484
20496SOL     OW61737  11.963  11.663   5.503
20496SOL    HW161738  11.879  11.670   5.458
20496SOL    HW261739  11.940  11.645   5.595
20497SOL     OW61740   8.958  13.141   4.275
20497SOL    HW161741   8.935  13.089   4.198
20497SOL    HW261742   9.016  13.210   4.241
20498SOL     OW61743   5.815  10.029   1.640
20498SOL    HW161744   5.792   9.944   1.605
20498SOL    HW261745   5.904  10.046   1.608
20499SOL     OW61746   3.077   8.929   1.211
20499SOL    HW161747   3.121   8.882   1.140
20499SOL    HW261748   3.002   8.971   1.169
20500SOL     OW61749   5.592  15.509   7.263
20500SOL    HW161750   5.641  15.468   7.334
20500SOL    HW261751   5.655  15.570   7.222
20501SOL     OW61752  10.605   5.537   5.296
20501SOL    HW161753  10.534   5.551   5.358
20501SOL    HW261754  10.568   5.559   5.211
20502SOL     OW61755   3.809   4.596   2.204
20502SOL    HW161756   3.737   4.656   2.185
20502SOL    HW261757   3.776   4.510   2.175
20503SOL     OW61758   6.121   3.286   3.851
20503SOL    HW161759   6.175   3.349   3.803
20503SOL    HW261760   6.174   3.206   3.853
20504SOL     OW61761   9.929   5.812   5.674
20504SOL    HW161762   9.891   5.852   5.752
20504SOL    HW261763   9.869   5.834   5.604
20505SOL     OW61764  11.813   9.005   5.024
20505SOL    HW161765  11.820   9.086   5.073
20505SOL    HW261766  11.743   9.021   4.961
20506SOL     OW61767   6.780   8.884   1.532
20506SOL    HW161768   6.719   8.832   1.584
20506SOL    HW261769   6.814   8.822   1.467
20507SOL     OW61770   6.297  10.031   5.386
20507SOL    HW161771   6.276   9.965   5.320
20507SOL    HW261772   6.223  10.030   5.446
20508SOL     OW61773   4.988  10.907   6.524
20508SOL    HW161774   4.997  10.953   6.608
20508SOL    HW261775   4.903  10.934   6.490
20509SOL     OW61776   9.650   5.883   4.802
20509SOL    HW161777   9.564   5.842   4.807
20509SOL    HW261778   9.660   5.907   4.710
20510SOL     OW61779  10.021   8.960   0.053
20510SOL    HW161780  10.095   8.999   0.099
20510SOL    HW261781  15.440  14.334   7.582
20511SOL     OW61782   9.559   5.054   2.363
20511SOL    HW161783   9.589   5.145   2.369
20511SOL    HW261784   9.626   5.003   2.407
20512SOL     OW61785  10.685  10.985   4.631
20512SOL    HW161786  10.621  11.055   4.638
20512SOL    HW261787  10.735  10.990   4.713
20513SOL     OW61788  12.637  12.317   5.818
20513SOL    HW161789  12.622  12.302   5.911
20513SOL    HW261790  12.564  12.275   5.774
20514SOL     OW61791   4.424   8.517   4.743
20514SOL    HW161792   4.376   8.533   4.824
20514SOL    HW261793   4.511   8.489   4.772
20515SOL     OW61794  10.665   7.931   7.131
20515SOL    HW161795  10.618   7.881   7.064
20515SOL    HW261796  10.721   7.991   7.082
20516SOL     OW61797   4.060  10.182   3.279
20516SOL    HW161798   4.021  10.263   3.309
20516SOL    HW261799   4.018  10.114   3.331
20517SOL     OW61800  14.705  13.153   7.139
20517SOL    HW161801  14.763  13.160   7.063
20517SOL    HW261802  14.725  13.230   7.192
20518SOL     OW61803  12.819  10.709   5.973
20518SOL    HW161804  12.802  10.707   5.879
20518SOL    HW261805  12.826  10.802   5.995
20519SOL     OW61806   6.502   6.703   1.258
20519SOL    HW161807   6.568   6.733   1.321
20519SOL    HW261808   6.420   6.703   1.307
20520SOL     OW61809   4.979  12.636   3.660
20520SOL    HW161810   5.060  12.661   3.616
20520SOL    HW261811   4.978  12.540   3.656
20521SOL     OW61812  10.181   8.053   3.393
20521SOL    HW161813  10.169   7.959   3.395
20521SOL    HW261814  10.211   8.075   3.481
20522SOL     OW61815   9.636   7.769   5.488
20522SOL    HW161816   9.716   7.821   5.489
20522SOL    HW261817   9.574   7.822   5.437
20523SOL     OW61818   9.643   5.260   4.585
20523SOL    HW161819   9.730   5.223   4.574
20523SOL    HW261820   9.652   5.322   4.657
20524SOL     OW61821  12.429   6.238   3.717
20524SOL    HW161822  12.381   6.284   3.648
20524SOL    HW261823  12.376   6.252   3.796
20525SOL     OW61824   3.942   2.892   2.978
20525SOL    HW161825   4.001   2.848   3.040
20525SOL    HW261826   3.960   2.985   2.990
20526SOL     OW61827   8.863  13.142   7.255
20526SOL    HW161828   8.956  13.165   7.255
20526SOL    HW261829   8.861  13.051   7.227
20527SOL     OW61830   7.522   8.967   3.085
20527SOL    HW161831   7.615   8.989   3.091
20527SOL    HW261832   7.484   9.038   3.033
20528SOL     OW61833  10.080  12.515   5.590
20528SOL    HW161834  10.134  12.443   5.624
20528SOL    HW261835  10.034  12.548   5.668
20529SOL     OW61836   6.840   9.383   3.618
20529SOL    HW161837   6.921   9.393   3.669
20529SOL    HW261838   6.831   9.288   3.606
20530SOL     OW61839   9.197   3.062   2.285
20530SOL    HW161840   9.269   3.053   2.222
20530SOL    HW261841   9.175   2.971   2.308
20531SOL     OW61842   7.131  13.974   5.805
20531SOL    HW161843   7.070  13.904   5.827
20531SOL    HW261844   7.077  14.053   5.806
20532SOL     OW61845  12.104  12.430   5.353
20532SOL    HW161846  12.120  12.336   5.359
20532SOL    HW261847  12.023  12.444   5.401
20533SOL     OW61848   4.874   1.541   2.093
20533SOL    HW161849   4.843   1.630   2.072
20533SOL    HW261850   4.921   1.514   2.014
20534SOL     OW61851   9.720  15.129   6.480
20534SOL    HW161852   9.812  15.153   6.467
20534SOL    HW261853   9.671  15.197   6.434
20535SOL     OW61854   2.018   6.662   1.320
20535SOL    HW161855   2.025   6.653   1.225
20535SOL    HW261856   1.925   6.673   1.337
20536SOL     OW61857   5.557   4.657   0.193
20536SOL    HW161858   5.638   4.609   0.177
20536SOL    HW261859   5.586   4.742   0.227
20537SOL     OW61860   9.434   6.521   6.383
20537SOL    HW161861   9.345   6.553   6.373
20537SOL    HW261862   9.465   6.506   6.294
20538SOL     OW61863   9.805   2.937   3.692
20538SOL    HW161864   9.868   2.996   3.651
20538SOL    HW261865   9.831   2.850   3.664
20539SOL     OW61866   6.144   9.462   0.130
20539SOL    HW161867   6.067   9.454   0.185
20539SOL    HW261868   6.216   9.428   0.184
20540SOL     OW61869   9.047   0.784   0.795
20540SOL    HW161870   8.990   0.767   0.870
20540SOL    HW261871   9.092   0.701   0.780
20541SOL     OW61872  10.460   6.068   6.155
20541SOL    HW161873  10.445   6.160   6.135
20541SOL    HW261874  10.372   6.029   6.153
20542SOL     OW61875  12.814   8.809   4.303
20542SOL    HW161876  12.753   8.881   4.315
20542SOL    HW261877  12.896   8.852   4.278
20543SOL     OW61878  10.740   3.499   0.815
20543SOL    HW161879  10.784   3.493   0.900
20543SOL    HW261880  10.805   3.540   0.758
20544SOL     OW61881   8.387   1.406   1.673
20544SOL    HW161882   8.406   1.460   1.596
20544SOL    HW261883   8.344   1.328   1.637
20545SOL     OW61884   3.129   8.944   3.344
20545SOL    HW161885   3.220   8.971   3.352
20545SOL    HW261886   3.129   8.851   3.369
20546SOL     OW61887   1.673   5.710   0.362
20546SOL    HW161888   1.681   5.795   0.319
20546SOL    HW261889   1.602   5.722   0.426
20547SOL     OW61890   2.952   3.688   3.277
20547SOL    HW161891   2.885   3.715   3.213
20547SOL    HW261892   2.978   3.770   3.319
20548SOL     OW61893   5.639  13.403   6.833
20548SOL    HW161894   5.561  13.384   6.885
20548SOL    HW261895   5.628  13.494   6.806
20549SOL     OW61896   2.414   8.517   0.390
20549SOL    HW161897   2.325   8.543   0.365
20549SOL    HW261898   2.421   8.426   0.362
20550SOL     OW61899   8.041   5.498   3.230
20550SOL    HW161900   8.075   5.425   3.281
20550SOL    HW261901   8.062   5.576   3.282
20551SOL     OW61902  10.045  12.349   7.101
20551SOL    HW161903  10.007  12.437   7.105
20551SOL    HW261904  10.121  12.353   7.159
20552SOL     OW61905  11.029   9.470   4.511
20552SOL    HW161906  11.085   9.393   4.522
20552SOL    HW261907  11.087   9.536   4.473
20553SOL     OW61908   7.292   9.092   1.054
20553SOL    HW161909   7.336   9.007   1.058
20553SOL    HW261910   7.258   9.106   1.142
20554SOL     OW61911   4.699   7.838   2.078
20554SOL    HW161912   4.689   7.892   2.156
20554SOL    HW261913   4.610   7.812   2.055
20555SOL     OW61914   9.648  11.983   7.258
20555SOL    HW161915   9.572  12.000   7.201
20555SOL    HW261916   9.610  11.962   7.343
20556SOL     OW61917   1.520   1.068   1.111
20556SOL    HW161918   1.524   1.120   1.191
20556SOL    HW261919   1.549   0.981   1.138
20557SOL     OW61920   5.493  10.860   6.385
20557SOL    HW161921   5.410  10.843   6.339
20557SOL    HW261922   5.551  10.789   6.356
20558SOL     OW61923  13.471  12.598   6.344
20558SOL    HW161924  13.507  12.542   6.413
20558SOL    HW261925  13.376  12.585   6.350
20559SOL     OW61926   9.167   8.258   6.214
20559SOL    HW161927   9.238   8.304   6.168
20559SOL    HW261928   9.199   8.169   6.224
20560SOL     OW61929  13.155   7.287   5.927
20560SOL    HW161930  13.111   7.249   5.851
20560SOL    HW261931  13.230   7.334   5.891
20561SOL     OW61932   1.663   9.151   1.993
20561SOL    HW161933   1.756   9.152   2.019
20561SOL    HW261934   1.640   9.058   1.993
20562SOL     OW61935   7.414   9.658   5.887
20562SOL    HW161936   7.410   9.564   5.905
20562SOL    HW261937   7.430   9.664   5.793
20563SOL     OW61938  10.476   4.186   3.392
20563SOL    HW161939  10.460   4.148   3.306
20563SOL    HW261940  10.431   4.270   3.389
20564SOL     OW61941  13.287   9.173   6.082
20564SOL    HW161942  13.346   9.209   6.149
20564SOL    HW261943  13.341   9.166   6.004
20565SOL     OW61944  14.861   4.856   6.189
20565SOL    HW161945  14.853   4.869   6.094
20565SOL    HW261946  14.896   4.940   6.221
20566SOL     OW61947   3.425  12.369   2.747
20566SOL    HW161948   3.415  12.304   2.677
20566SOL    HW261949   3.480  12.325   2.812
20567SOL     OW61950   3.627   9.743   4.170
20567SOL    HW161951   3.602   9.684   4.099
20567SOL    HW261952   3.713   9.713   4.198
20568SOL     OW61953  10.664   6.631   3.320
20568SOL    HW161954  10.664   6.639   3.416
20568SOL    HW261955  10.663   6.537   3.304
20569SOL     OW61956  11.356  13.478   7.103
20569SOL    HW161957  11.360  13.564   7.144
20569SOL    HW261958  11.314  13.422   7.168
20570SOL     OW61959   7.075  15.211   6.995
20570SOL    HW161960   6.981  15.204   6.977
20570SOL    HW261961   7.111  15.127   6.965
20571SOL     OW61962   4.597   9.180   0.403
20571SOL    HW161963   4.502   9.188   0.391
20571SOL    HW261964   4.630   9.155   0.317
20572SOL     OW61965   4.824  10.449   3.937
20572SOL    HW161966   4.903  10.411   3.975
20572SOL    HW261967   4.827  10.541   3.962
20573SOL     OW61968   6.047   3.936   3.953
20573SOL    HW161969   6.024   3.924   4.045
20573SOL    HW261970   6.139   3.960   3.954
20574SOL     OW61971   5.646  11.643   6.056
20574SOL    HW161972   5.688  11.706   6.115
20574SOL    HW261973   5.689  11.657   5.972
20575SOL     OW61974   9.484  14.482   6.566
20575SOL    HW161975   9.469  14.569   6.605
20575SOL    HW261976   9.524  14.501   6.482
20576SOL     OW61977   8.564   2.058   2.850
20576SOL    HW161978   8.657   2.067   2.868
20576SOL    HW261979   8.556   2.069   2.755
20577SOL     OW61980  11.060  11.028   4.557
20577SOL    HW161981  11.011  11.108   4.538
20577SOL    HW261982  11.037  10.968   4.487
20578SOL     OW61983   5.101   6.670   0.695
20578SOL    HW161984   5.059   6.720   0.626
20578SOL    HW261985   5.114   6.583   0.658
20579SOL     OW61986  11.899  11.864   5.739
20579SOL    HW161987  11.984  11.906   5.749
20579SOL    HW261988  11.861  11.904   5.660
20580SOL     OW61989  10.931   4.462   0.974
20580SOL    HW161990  11.010   4.458   1.027
20580SOL    HW261991  10.897   4.550   0.986
20581SOL     OW61992   2.159   2.981   2.938
20581SOL    HW161993   2.087   3.038   2.912
20581SOL    HW261994   2.191   2.944   2.855
20582SOL     OW61995  12.165  10.754   2.274
20582SOL    HW161996  12.107  10.694   2.320
20582SOL    HW261997  12.106  10.819   2.235
20583SOL     OW61998  12.245   7.248   7.050
20583SOL    HW161999  12.276   7.339   7.049
20583SOL    HW262000  12.221   7.230   6.959
20584SOL     OW62001   6.171   7.861   0.161
20584SOL    HW162002   6.154   7.915   0.238
20584SOL    HW262003   6.104   7.887   0.098
20585SOL     OW62004   4.959   4.489   2.378
20585SOL    HW162005   4.903   4.506   2.454
20585SOL    HW262006   5.032   4.437   2.413
20586SOL     OW62007   6.740  13.001   3.388
20586SOL    HW162008   6.655  12.990   3.430
20586SOL    HW262009   6.726  13.065   3.319
20587SOL     OW62010   3.176   8.306   0.180
20587SOL    HW162011   3.241   8.278   0.244
20587SOL    HW262012   3.171   8.235   0.117
20588SOL     OW62013  13.771  13.985   6.443
20588SOL    HW162014  13.826  13.993   6.366
20588SOL    HW262015  13.824  13.936   6.506
20589SOL     OW62016   2.322   5.831   1.521
20589SOL    HW162017   2.264   5.907   1.517
20589SOL    HW262018   2.264   5.756   1.530
20590SOL     OW62019   2.646   9.212   0.749
20590SOL    HW162020   2.605   9.255   0.674
20590SOL    HW262021   2.572   9.185   0.804
20591SOL     OW62022   5.212   3.298   3.746
20591SOL    HW162023   5.275   3.234   3.714
20591SOL    HW262024   5.229   3.377   3.694
20592SOL     OW62025   9.846  14.959   6.257
20592SOL    HW162026   9.780  14.976   6.190
20592SOL    HW262027   9.929  14.957   6.209
20593SOL     OW62028   9.772  10.711   5.751
20593SOL    HW162029   9.795  10.791   5.703
20593SOL    HW262030   9.717  10.742   5.824
20594SOL     OW62031   5.519   6.779   0.359
20594SOL    HW162032   5.431   6.816   0.356
20594SOL    HW262033   5.544   6.783   0.451
20595SOL     OW62034  10.066   3.266   3.936
20595SOL    HW162035  10.034   3.196   3.993
20595SOL    HW262036  10.045   3.346   3.983
20596SOL     OW62037   8.132   6.293   2.246
20596SOL    HW162038   8.084   6.245   2.178
20596SOL    HW262039   8.065   6.337   2.297
20597SOL     OW62040   4.906   6.519   0.503
20597SOL    HW162041   4.957   6.452   0.549
20597SOL    HW262042   4.829   6.473   0.470
20598SOL     OW62043   8.785   3.429   4.312
20598SOL    HW162044   8.724   3.470   4.374
20598SOL    HW262045   8.743   3.346   4.290
20599SOL     OW62046   9.731   7.454   6.046
20599SOL    HW162047   9.776   7.431   5.965
20599SOL    HW262048   9.713   7.547   6.038
20600SOL     OW62049   5.940   9.491   0.306
20600SOL    HW162050   5.882   9.476   0.380
20600SOL    HW262051   5.892   9.552   0.250
20601SOL     OW62052   8.062   8.818   2.193
20601SOL    HW162053   8.024   8.736   2.162
20601SOL    HW262054   8.026   8.830   2.281
20602SOL     OW62055   9.598  14.689   6.397
20602SOL    HW162056   9.660  14.712   6.467
20602SOL    HW262057   9.632  14.733   6.320
20603SOL     OW62058   8.801  13.087   3.775
20603SOL    HW162059   8.865  13.061   3.708
20603SOL    HW262060   8.725  13.031   3.757
20604SOL     OW62061  15.014  13.379   7.111
20604SOL    HW162062  15.074  13.368   7.037
20604SOL    HW262063  15.069  13.415   7.181
20605SOL     OW62064   5.700   7.111   5.388
20605SOL    HW162065   5.702   7.058   5.468
20605SOL    HW262066   5.615   7.153   5.389
20606SOL     OW62067   6.585  11.724   2.770
20606SOL    HW162068   6.641  11.653   2.801
20606SOL    HW262069   6.634  11.804   2.789
20607SOL     OW62070   5.764  12.173   5.049
20607SOL    HW162071   5.836  12.118   5.018
20607SOL    HW262072   5.691  12.113   5.060
20608SOL     OW62073   9.826  11.497   4.795
20608SOL    HW162074   9.915  11.487   4.759
20608SOL    HW262075   9.768  11.470   4.724
20609SOL     OW62076   4.677   1.318   0.538
20609SOL    HW162077   4.681   1.402   0.492
20609SOL    HW262078   4.628   1.337   0.619
20610SOL     OW62079  11.726   5.287   5.592
20610SOL    HW162080  11.799   5.340   5.623
20610SOL    HW262081  11.702   5.327   5.508
20611SOL     OW62082   1.645   6.979   0.887
20611SOL    HW162083   1.656   6.997   0.980
20611SOL    HW262084   1.697   7.048   0.844
20612SOL     OW62085  10.791   5.672   6.395
20612SOL    HW162086  10.842   5.676   6.476
20612SOL    HW262087  10.715   5.728   6.411
20613SOL     OW62088   9.412   1.582   1.019
20613SOL    HW162089   9.486   1.556   1.075
20613SOL    HW262090   9.430   1.541   0.935
20614SOL     OW62091   2.806   7.367   1.493
20614SOL    HW162092   2.761   7.451   1.484
20614SOL    HW262093   2.873   7.370   1.424
20615SOL     OW62094  11.632   3.370   3.683
20615SOL    HW162095  11.667   3.341   3.599
20615SOL    HW262096  11.688   3.443   3.709
20616SOL     OW62097   8.956   5.523   2.317
20616SOL    HW162098   8.925   5.439   2.350
20616SOL    HW262099   8.948   5.582   2.392
20617SOL     OW62100  10.936   9.351   1.705
20617SOL    HW162101  10.949   9.442   1.680
20617SOL    HW262102  11.013   9.305   1.672
20618SOL     OW62103   9.488  12.702   4.573
20618SOL    HW162104   9.490  12.794   4.546
20618SOL    HW262105   9.578  12.672   4.565
20619SOL     OW62106   9.439   8.210   0.340
20619SOL    HW162107   9.509   8.145   0.350
20619SOL    HW262108   9.426   8.245   0.428
20620SOL     OW62109   5.889  12.019   2.154
20620SOL    HW162110   5.806  12.055   2.185
20620SOL    HW262111   5.907  11.946   2.214
20621SOL     OW62112  10.419   6.911   0.091
20621SOL    HW162113  10.514   6.922   0.091
20621SOL    HW262114  10.391   6.937   0.179
20622SOL     OW62115   6.071   5.175   4.217
20622SOL    HW162116   6.132   5.122   4.268
20622SOL    HW262117   6.017   5.112   4.170
20623SOL     OW62118   5.496   8.536   2.266
20623SOL    HW162119   5.513   8.628   2.251
20623SOL    HW262120   5.466   8.502   2.181
20624SOL     OW62121   3.624  13.221   3.981
20624SOL    HW162122   3.643  13.239   3.889
20624SOL    HW262123   3.564  13.146   3.979
20625SOL     OW62124   8.630   5.320   4.006
20625SOL    HW162125   8.686   5.247   3.980
20625SOL    HW262126   8.689   5.394   4.015
20626SOL     OW62127  10.517  12.056   4.587
20626SOL    HW162128  10.539  12.031   4.676
20626SOL    HW262129  10.569  11.996   4.532
20627SOL     OW62130   2.103   5.941   0.547
20627SOL    HW162131   2.157   5.987   0.612
20627SOL    HW262132   2.045   6.009   0.513
20628SOL     OW62133   8.071  13.181   4.041
20628SOL    HW162134   8.003  13.223   3.989
20628SOL    HW262135   8.154  13.209   4.002
20629SOL     OW62136   6.703   8.919   0.966
20629SOL    HW162137   6.717   9.010   0.990
20629SOL    HW262138   6.671   8.922   0.876
20630SOL     OW62139   9.769  11.477   2.787
20630SOL    HW162140   9.800  11.567   2.786
20630SOL    HW262141   9.733  11.465   2.875
20631SOL     OW62142   4.380  10.673   1.969
20631SOL    HW162143   4.337  10.675   1.884
20631SOL    HW262144   4.471  10.649   1.950
20632SOL     OW62145   8.832   4.749   4.644
20632SOL    HW162146   8.880   4.814   4.696
20632SOL    HW262147   8.824   4.674   4.702
20633SOL     OW62148   8.760   8.490   5.036
20633SOL    HW162149   8.771   8.396   5.045
20633SOL    HW262150   8.667   8.506   5.054
20634SOL     OW62151   7.509   6.334   2.422
20634SOL    HW162152   7.459   6.364   2.346
20634SOL    HW262153   7.454   6.356   2.497
20635SOL     OW62154  11.895   7.594   6.357
20635SOL    HW162155  11.818   7.586   6.413
20635SOL    HW262156  11.926   7.504   6.346
20636SOL     OW62157  12.447  11.395   3.615
20636SOL    HW162158  12.426  11.302   3.626
20636SOL    HW262159  12.493  11.400   3.531
20637SOL     OW62160   9.315   3.460   1.503
20637SOL    HW162161   9.228   3.431   1.531
20637SOL    HW262162   9.371   3.443   1.579
20638SOL     OW62163   5.929   7.322   3.375
20638SOL    HW162164   6.001   7.378   3.404
20638SOL    HW262165   5.895   7.366   3.297
20639SOL     OW62166   7.979   4.153   1.831
20639SOL    HW162167   8.000   4.105   1.751
20639SOL    HW262168   7.993   4.245   1.809
20640SOL     OW62169  13.832   7.440   6.317
20640SOL    HW162170  13.806   7.463   6.228
20640SOL    HW262171  13.921   7.474   6.326
20641SOL     OW62172   6.783  11.249   5.378
20641SOL    HW162173   6.728  11.207   5.311
20641SOL    HW262174   6.721  11.287   5.440
20642SOL     OW62175  10.988   6.798   5.078
20642SOL    HW162176  10.974   6.865   5.010
20642SOL    HW262177  10.941   6.721   5.046
20643SOL     OW62178   8.537  12.918   3.924
20643SOL    HW162179   8.513  12.937   4.014
20643SOL    HW262180   8.480  12.847   3.897
20644SOL     OW62181  11.726   5.643   6.408
20644SOL    HW162182  11.665   5.597   6.466
20644SOL    HW262183  11.780   5.574   6.371
20645SOL     OW62184   0.782   6.414   0.309
20645SOL    HW162185   0.789   6.509   0.311
20645SOL    HW262186   0.835   6.383   0.382
20646SOL     OW62187  11.586   7.186   3.844
20646SOL    HW162188  11.506   7.157   3.889
20646SOL    HW262189  11.619   7.108   3.800
20647SOL     OW62190   5.699   5.266   2.155
20647SOL    HW162191   5.731   5.313   2.078
20647SOL    HW262192   5.734   5.313   2.230
20648SOL     OW62193  10.126  12.862   6.203
20648SOL    HW162194  10.096  12.902   6.122
20648SOL    HW262195  10.062  12.889   6.269
20649SOL     OW62196  10.688  12.061   4.863
20649SOL    HW162197  10.742  12.140   4.868
20649SOL    HW262198  10.672  12.036   4.954
20650SOL     OW62199   7.680  13.689   4.577
20650SOL    HW162200   7.723  13.696   4.662
20650SOL    HW262201   7.715  13.762   4.526
20651SOL     OW62202   9.282   7.642   3.635
20651SOL    HW162203   9.299   7.567   3.693
20651SOL    HW262204   9.198   7.621   3.594
20652SOL     OW62205  11.568  11.888   3.023
20652SOL    HW162206  11.647  11.924   3.063
20652SOL    HW262207  11.599  11.844   2.944
20653SOL     OW62208   7.802   9.119   7.603
20653SOL    HW162209   7.809   9.032   7.563
20653SOL    HW262210   2.379   3.714   0.072
20654SOL     OW62211   5.523  12.268   5.250
20654SOL    HW162212   5.489  12.276   5.339
20654SOL    HW262213   5.458  12.214   5.204
20655SOL     OW62214   3.931   8.878   2.656
20655SOL    HW162215   3.989   8.830   2.716
20655SOL    HW262216   3.864   8.814   2.632
20656SOL     OW62217  13.759   9.260   7.561
20656SOL    HW162218  13.766   9.341   7.612
20656SOL    HW262219  13.837   9.211   7.584
20657SOL     OW62220   3.780   7.151   0.657
20657SOL    HW162221   3.837   7.220   0.691
20657SOL    HW262222   3.695   7.169   0.698
20658SOL     OW62223  11.843   8.974   6.546
20658SOL    HW162224  11.755   8.960   6.580
20658SOL    HW262225  11.830   9.016   6.460
20659SOL     OW62226   5.383   8.049   1.746
20659SOL    HW162227   5.289   8.039   1.761
20659SOL    HW262228   5.404   7.984   1.679
20660SOL     OW62229   4.233   5.348   2.677
20660SOL    HW162230   4.241   5.306   2.591
20660SOL    HW262231   4.205   5.278   2.736
20661SOL     OW62232   4.500   3.771   2.848
20661SOL    HW162233   4.525   3.785   2.939
20661SOL    HW262234   4.407   3.748   2.851
20662SOL     OW62235   8.388   8.909   7.306
20662SOL    HW162236   8.457   8.972   7.286
20662SOL    HW262237   8.354   8.883   7.220
20663SOL     OW62238   2.693   8.909   0.599
20663SOL    HW162239   2.739   8.941   0.676
20663SOL    HW262240   2.669   8.819   0.621
20664SOL     OW62241   7.850   4.873   4.929
20664SOL    HW162242   7.940   4.895   4.953
20664SOL    HW262243   7.856   4.845   4.837
20665SOL     OW62244   9.388   6.292   1.365
20665SOL    HW162245   9.401   6.269   1.273
20665SOL    HW262246   9.462   6.251   1.410
20666SOL     OW62247  10.706   9.837   7.426
20666SOL    HW162248  10.757   9.758   7.405
20666SOL    HW262249  10.624   9.826   7.378
20667SOL     OW62250   4.942   6.949   5.216
20667SOL    HW162251   4.875   7.018   5.214
20667SOL    HW262252   5.025   6.997   5.210
20668SOL     OW62253  13.636   4.447   4.846
20668SOL    HW162254  13.576   4.519   4.827
20668SOL    HW262255  13.702   4.485   4.904
20669SOL     OW62256  12.266  13.624   4.876
20669SOL    HW162257  12.218  13.706   4.883
20669SOL    HW262258  12.234  13.571   4.950
20670SOL     OW62259  10.535  11.720   5.189
20670SOL    HW162260  10.476  11.792   5.210
20670SOL    HW262261  10.622  11.760   5.190
20671SOL     OW62262   5.844   4.184   1.624
20671SOL    HW162263   5.934   4.215   1.620
20671SOL    HW262264   5.843   4.119   1.695
20672SOL     OW62265  14.198   5.654   7.170
20672SOL    HW162266  14.145   5.592   7.119
20672SOL    HW262267  14.280   5.661   7.122
20673SOL     OW62268   5.545  10.232   6.868
20673SOL    HW162269   5.599  10.208   6.793
20673SOL    HW262270   5.528  10.326   6.856
20674SOL     OW62271  13.143  13.558   6.465
20674SOL    HW162272  13.139  13.625   6.534
20674SOL    HW262273  13.052  13.547   6.438
20675SOL     OW62274   4.892   4.203   1.764
20675SOL    HW162275   4.824   4.231   1.827
20675SOL    HW262276   4.966   4.262   1.781
20676SOL     OW62277  10.766   5.414   7.197
20676SOL    HW162278  10.817   5.370   7.128
20676SOL    HW262279  10.675   5.392   7.177
20677SOL     OW62280   5.567  13.608   7.138
20677SOL    HW162281   5.624  13.540   7.175
20677SOL    HW262282   5.493  13.612   7.198
20678SOL     OW62283   6.256   6.895   3.394
20678SOL    HW162284   6.212   6.941   3.466
20678SOL    HW262285   6.190   6.837   3.359
20679SOL     OW62286   7.023   8.177   1.396
20679SOL    HW162287   7.052   8.264   1.421
20679SOL    HW262288   7.002   8.134   1.479
20680SOL     OW62289   0.472   7.743   0.230
20680SOL    HW162290   0.416   7.820   0.229
20680SOL    HW262291   0.491   7.728   0.322
20681SOL     OW62292   6.719   6.621   0.469
20681SOL    HW162293   6.788   6.610   0.403
20681SOL    HW262294   6.740   6.704   0.512
20682SOL     OW62295   6.943  13.575   4.194
20682SOL    HW162296   6.878  13.632   4.153
20682SOL    HW262297   7.008  13.559   4.126
20683SOL     OW62298   8.820   6.614   6.566
20683SOL    HW162299   8.780   6.527   6.570
20683SOL    HW262300   8.775   6.658   6.494
20684SOL     OW62301   3.103   2.089   0.207
20684SOL    HW162302   3.143   2.090   0.293
20684SOL    HW262303   3.170   2.125   0.149
20685SOL     OW62304   8.406   7.198   6.622
20685SOL    HW162305   8.494   7.218   6.588
20685SOL    HW262306   8.348   7.257   6.574
20686SOL     OW62307   0.872   9.171   1.225
20686SOL    HW162308  11.563   9.211   1.250
20686SOL    HW262309  11.625   9.080   1.206
20687SOL     OW62310   7.255  15.645   7.559
20687SOL    HW162311   7.259  15.740   7.560
20687SOL    HW262312   7.320  15.618   7.494
20688SOL     OW62313   8.365   8.173   6.218
20688SOL    HW162314   8.355   8.105   6.285
20688SOL    HW262315   8.279   8.213   6.211
20689SOL     OW62316  13.856   5.712   4.372
20689SOL    HW162317  13.853   5.718   4.467
20689SOL    HW262318   3.173   5.729   4.350
20690SOL     OW62319   7.852   9.637   0.210
20690SOL    HW162320   7.920   9.675   0.154
20690SOL    HW262321   7.898   9.572   0.263
20691SOL     OW62322   7.130   8.965   7.181
20691SOL    HW162323   7.077   8.968   7.101
20691SOL    HW262324   7.097   9.039   7.233
20692SOL     OW62325  14.300  12.396   7.513
20692SOL    HW162326  14.291  12.357   7.600
20692SOL    HW262327  14.215  12.436   7.496
20693SOL     OW62328  11.641   3.852   2.809
20693SOL    HW162329  11.571   3.828   2.870
20693SOL    HW262330  11.598   3.907   2.744
20694SOL     OW62331   8.191   8.368   5.591
20694SOL    HW162332   8.274   8.328   5.565
20694SOL    HW262333   8.136   8.363   5.512
20695SOL     OW62334  10.184  11.599   6.066
20695SOL    HW162335  10.112  11.563   6.016
20695SOL    HW262336  10.254  11.535   6.057
20696SOL     OW62337   4.179   8.349   5.622
20696SOL    HW162338   4.128   8.278   5.661
20696SOL    HW262339   4.269   8.333   5.652
20697SOL     OW62340  10.112   1.310   0.207
20697SOL    HW162341  10.084   1.221   0.229
20697SOL    HW262342  10.090   1.362   0.285
20698SOL     OW62343   7.209   6.007   3.898
20698SOL    HW162344   7.285   5.991   3.842
20698SOL    HW262345   7.239   6.073   3.961
20699SOL     OW62346   2.349   9.543   0.622
20699SOL    HW162347   2.291   9.530   0.547
20699SOL    HW262348   2.381   9.455   0.642
20700SOL     OW62349   8.840  14.439   5.990
20700SOL    HW162350   8.767  14.487   6.030
20700SOL    HW262351   8.802  14.356   5.962
20701SOL     OW62352  10.728   3.162   0.273
20701SOL    HW162353  10.796   3.104   0.240
20701SOL    HW262354  10.668   3.174   0.199
20702SOL     OW62355   9.989   9.394   2.657
20702SOL    HW162356  10.031   9.348   2.585
20702SOL    HW262357   9.953   9.474   2.617
20703SOL     OW62358   4.691   8.493   4.876
20703SOL    HW162359   4.770   8.498   4.931
20703SOL    HW262360   4.621   8.472   4.938
20704SOL     OW62361  12.837   4.436   4.473
20704SOL    HW162362  12.827   4.492   4.396
20704SOL    HW262363  12.846   4.497   4.546
20705SOL     OW62364   7.944  13.321   5.558
20705SOL    HW162365   7.980  13.367   5.483
20705SOL    HW262366   7.873  13.267   5.522
20706SOL     OW62367   9.750   7.589   4.303
20706SOL    HW162368   9.722   7.667   4.353
20706SOL    HW262369   9.839   7.573   4.331
20707SOL     OW62370   4.759   8.832   1.146
20707SOL    HW162371   4.816   8.774   1.096
20707SOL    HW262372   4.797   8.919   1.135
20708SOL     OW62373   4.269   3.221   4.317
20708SOL    HW162374   4.254   3.250   4.227
20708SOL    HW262375   4.359   3.187   4.317
20709SOL     OW62376   9.867   6.114   4.475
20709SOL    HW162377   9.802   6.161   4.527
20709SOL    HW262378   9.947   6.166   4.484
20710SOL     OW62379  11.135   9.670   6.423
20710SOL    HW162380  11.190   9.646   6.348
20710SOL    HW262381  11.111   9.761   6.406
20711SOL     OW62382   8.747  10.770   6.391
20711SOL    HW162383   8.835  10.808   6.387
20711SOL    HW262384   8.703  10.803   6.313
20712SOL     OW62385   2.986   3.451   2.570
20712SOL    HW162386   2.934   3.375   2.546
20712SOL    HW262387   2.959   3.519   2.507
20713SOL     OW62388   5.641   5.886   0.958
20713SOL    HW162389   5.591   5.916   0.881
20713SOL    HW262390   5.701   5.821   0.923
20714SOL     OW62391  14.652   7.349   6.415
20714SOL    HW162392  14.699   7.327   6.335
20714SOL    HW262393  14.596   7.273   6.432
20715SOL     OW62394   5.253  10.082   2.536
20715SOL    HW162395   5.280   9.998   2.574
20715SOL    HW262396   5.330  10.138   2.544
20716SOL     OW62397   4.816  11.254   4.455
20716SOL    HW162398   4.893  11.280   4.505
20716SOL    HW262399   4.849  11.235   4.367
20717SOL     OW62400   8.993  12.535   4.639
20717SOL    HW162401   8.980  12.593   4.714
20717SOL    HW262402   9.052  12.582   4.581
20718SOL     OW62403   1.295   6.498   1.224
20718SOL    HW162404   1.206   6.464   1.221
20718SOL    HW262405   1.350   6.420   1.229
20719SOL     OW62406  11.973   2.563   2.972
20719SOL    HW162407  11.932   2.614   3.041
20719SOL    HW262408  12.011   2.628   2.913
20720SOL     OW62409  10.888   3.563   3.187
20720SOL    HW162410  10.884   3.635   3.249
20720SOL    HW262411  10.866   3.603   3.103
20721SOL     OW62412   9.579   0.059   0.025
20721SOL    HW162413   9.635  10.804   0.097
20721SOL    HW262414  15.011   5.415   7.565
20722SOL     OW62415  13.632  11.456   5.122
20722SOL    HW162416  13.711  11.412   5.090
20722SOL    HW262417  13.636  11.543   5.082
20723SOL     OW62418   9.008  13.352   4.672
20723SOL    HW162419   9.101  13.341   4.653
20723SOL    HW262420   8.973  13.397   4.595
20724SOL     OW62421   3.669   3.611   2.157
20724SOL    HW162422   3.577   3.605   2.184
20724SOL    HW262423   3.695   3.521   2.140
20725SOL     OW62424  12.319  10.688   6.533
20725SOL    HW162425  12.408  10.721   6.540
20725SOL    HW262426  12.329  10.593   6.529
20726SOL     OW62427   9.776  14.457   6.707
20726SOL    HW162428   9.784  14.411   6.791
20726SOL    HW262429   9.698  14.512   6.718
20727SOL     OW62430   7.320   8.160   7.462
20727SOL    HW162431   7.413   8.157   7.485
20727SOL    HW262432   7.285   8.076   7.492
20728SOL     OW62433   9.051   8.857   2.694
20728SOL    HW162434   8.993   8.781   2.692
20728SOL    HW262435   9.120   8.832   2.756
20729SOL     OW62436   7.382   8.964   6.050
20729SOL    HW162437   7.414   8.888   6.099
20729SOL    HW262438   7.339   8.927   5.973
20730SOL     OW62439   9.633   9.964   4.922
20730SOL    HW162440   9.704  10.025   4.943
20730SOL    HW262441   9.642   9.894   4.987
20731SOL     OW62442  13.893   6.205   6.956
20731SOL    HW162443  13.955   6.161   6.898
20731SOL    HW262444  13.947   6.265   7.008
20732SOL     OW62445   9.706   8.780   4.506
20732SOL    HW162446   9.741   8.716   4.568
20732SOL    HW262447   9.688   8.730   4.426
20733SOL     OW62448  10.449  10.962   5.591
20733SOL    HW162449  10.536  10.941   5.625
20733SOL    HW262450  10.430  11.049   5.625
20734SOL     OW62451   4.882   7.389   6.258
20734SOL    HW162452   4.798   7.374   6.301
20734SOL    HW262453   4.920   7.463   6.307
20735SOL     OW62454   8.684  12.381   6.670
20735SOL    HW162455   8.705  12.391   6.763
20735SOL    HW262456   8.728  12.301   6.643
20736SOL     OW62457   8.882   8.286   4.677
20736SOL    HW162458   8.949   8.314   4.615
20736SOL    HW262459   8.805   8.340   4.656
20737SOL     OW62460   8.320   1.423   0.636
20737SOL    HW162461   8.355   1.456   0.719
20737SOL    HW262462   8.393   1.432   0.574
20738SOL     OW62463   5.130   7.875   6.284
20738SOL    HW162464   5.131   7.885   6.379
20738SOL    HW262465   5.145   7.963   6.250
20739SOL     OW62466   9.893   4.108   2.332
20739SOL    HW162467   9.799   4.118   2.345
20739SOL    HW262468   9.932   4.136   2.414
20740SOL     OW62469   7.887  10.459   2.142
20740SOL    HW162470   7.852  10.541   2.176
20740SOL    HW262471   7.966  10.484   2.095
20741SOL     OW62472   5.649   1.083   1.251
20741SOL    HW162473   5.560   1.085   1.218
20741SOL    HW262474   5.704   1.096   1.173
20742SOL     OW62475   5.935  12.157   6.434
20742SOL    HW162476   5.936  12.067   6.403
20742SOL    HW262477   6.000  12.202   6.381
20743SOL     OW62478   5.837   9.447   3.673
20743SOL    HW162479   5.773   9.407   3.615
20743SOL    HW262480   5.922   9.421   3.637
20744SOL     OW62481  10.256   9.918   2.081
20744SOL    HW162482  10.338   9.878   2.112
20744SOL    HW262483  10.244   9.882   1.993
20745SOL     OW62484   3.421  11.395   4.792
20745SOL    HW162485  14.146  11.313   4.801
20745SOL    HW262486   3.477  11.397   4.870
20746SOL     OW62487  11.872   9.054   2.613
20746SOL    HW162488  11.939   9.102   2.661
20746SOL    HW262489  11.838   8.990   2.676
20747SOL     OW62490   8.331  10.762   4.248
20747SOL    HW162491   8.352  10.669   4.242
20747SOL    HW262492   8.416  10.806   4.241
20748SOL     OW62493   9.702   6.475   6.467
20748SOL    HW162494   9.751   6.439   6.541
20748SOL    HW262495   9.634   6.410   6.450
20749SOL     OW62496   4.349  13.809   5.741
20749SOL    HW162497   4.260  13.828   5.710
20749SOL    HW262498   4.385  13.894   5.765
20750SOL     OW62499  10.585   5.610   4.417
20750SOL    HW162500  10.625   5.672   4.478
20750SOL    HW262501  10.653   5.544   4.402
20751SOL     OW62502  10.034   3.539   0.574
20751SOL    HW162503   9.970   3.591   0.525
20751SOL    HW262504  10.025   3.451   0.539
20752SOL     OW62505  10.359   4.452   2.447
20752SOL    HW162506  10.285   4.492   2.493
20752SOL    HW262507  10.422   4.523   2.435
20753SOL     OW62508   4.612  10.453   1.205
20753SOL    HW162509   4.635  10.528   1.150
20753SOL    HW262510   4.693  10.432   1.252
20754SOL     OW62511   7.980   4.299   4.122
20754SOL    HW162512   8.027   4.252   4.053
20754SOL    HW262513   7.933   4.232   4.170
20755SOL     OW62514   6.674   7.573   0.007
20755SOL    HW162515   6.673   7.560   0.102
20755SOL    HW262516  12.018  12.883   7.590
20756SOL     OW62517   9.666   4.611   2.220
20756SOL    HW162518   9.625   4.603   2.134
20756SOL    HW262519   9.702   4.524   2.237
20757SOL     OW62520   8.098   4.480   1.337
20757SOL    HW162521   8.162   4.408   1.330
20757SOL    HW262522   8.103   4.507   1.429
20758SOL     OW62523   5.926  11.667   6.861
20758SOL    HW162524   5.899  11.696   6.948
20758SOL    HW262525   6.001  11.609   6.877
20759SOL     OW62526   6.083   4.795   4.057
20759SOL    HW162527   6.030   4.801   3.977
20759SOL    HW262528   6.022   4.763   4.123
20760SOL     OW62529  11.089   8.173   3.981
20760SOL    HW162530  11.117   8.085   3.952
20760SOL    HW262531  11.049   8.211   3.903
20761SOL     OW62532   0.980   4.148   1.359
20761SOL    HW162533   1.038   4.221   1.383
20761SOL    HW262534  11.738   4.103   1.442
20762SOL     OW62535  13.101  11.922   6.821
20762SOL    HW162536  13.065  11.881   6.742
20762SOL    HW262537  13.190  11.888   6.826
20763SOL     OW62538  14.331  13.767   7.197
20763SOL    HW162539  14.300  13.840   7.251
20763SOL    HW262540  14.426  13.768   7.207
20764SOL     OW62541  13.156   6.729   6.265
20764SOL    HW162542  13.121   6.814   6.238
20764SOL    HW262543  13.236   6.751   6.313
20765SOL     OW62544  11.217   2.034   0.784
20765SOL    HW162545  11.182   1.990   0.861
20765SOL    HW262546  11.305   2.061   0.809
20766SOL     OW62547   9.778   8.252   6.366
20766SOL    HW162548   9.749   8.208   6.446
20766SOL    HW262549   9.868   8.277   6.384
20767SOL     OW62550   6.475  12.633   5.353
20767SOL    HW162551   6.438  12.656   5.267
20767SOL    HW262552   6.530  12.557   5.336
20768SOL     OW62553   2.726   2.850   2.069
20768SOL    HW162554   2.642   2.870   2.028
20768SOL    HW262555   2.722   2.891   2.156
20769SOL     OW62556   2.835  10.186   2.386
20769SOL    HW162557   2.790  10.143   2.314
20769SOL    HW262558   2.911  10.131   2.404
20770SOL     OW62559   2.545   8.454   3.110
20770SOL    HW162560   2.501   8.385   3.159
20770SOL    HW262561   2.496   8.462   3.028
20771SOL     OW62562  11.640   5.359   3.082
20771SOL    HW162563  11.585   5.291   3.045
20771SOL    HW262564  11.628   5.434   3.025
20772SOL     OW62565   7.576   9.748   1.437
20772SOL    HW162566   7.596   9.662   1.400
20772SOL    HW262567   7.600   9.741   1.530
20773SOL     OW62568   4.352   8.131   0.813
20773SOL    HW162569   4.381   8.114   0.902
20773SOL    HW262570   4.262   8.098   0.811
20774SOL     OW62571   4.277   7.226   2.372
20774SOL    HW162572   4.223   7.199   2.446
20774SOL    HW262573   4.229   7.196   2.295
20775SOL     OW62574  12.283   8.616   3.555
20775SOL    HW162575  12.274   8.523   3.538
20775SOL    HW262576  12.299   8.655   3.469
20776SOL     OW62577   5.771   4.248   4.037
20776SOL    HW162578   5.857   4.221   4.005
20776SOL    HW262579   5.782   4.341   4.058
20777SOL     OW62580  10.585   7.784   2.515
20777SOL    HW162581  10.579   7.689   2.507
20777SOL    HW262582  10.564   7.802   2.607
20778SOL     OW62583   4.797   9.423   5.468
20778SOL    HW162584   4.729   9.414   5.534
20778SOL    HW262585   4.879   9.411   5.517
20779SOL     OW62586   7.345   7.261   3.191
20779SOL    HW162587   7.403   7.310   3.132
20779SOL    HW262588   7.269   7.238   3.137
20780SOL     OW62589   6.370   6.447   2.447
20780SOL    HW162590   6.430   6.405   2.509
20780SOL    HW262591   6.427   6.492   2.385
20781SOL     OW62592  15.914  12.253   7.372
20781SOL    HW162593  15.927  12.192   7.444
20781SOL    HW262594  15.875  12.330   7.413
20782SOL     OW62595  11.424  14.967   7.042
20782SOL    HW162596  11.496  14.976   6.979
20782SOL    HW262597  11.458  14.908   7.108
20783SOL     OW62598   7.282  10.626   0.662
20783SOL    HW162599   7.363  10.638   0.613
20783SOL    HW262600   7.218  10.679   0.616
20784SOL     OW62601  13.154   8.675   7.565
20784SOL    HW162602   7.808   3.235   0.014
20784SOL    HW262603  13.227   8.711   7.515
20785SOL     OW62604  11.569   7.874   7.555
20785SOL    HW162605   6.180   2.426   0.011
20785SOL    HW262606  11.661   7.897   7.545
20786SOL     OW62607  11.302  13.923   4.581
20786SOL    HW162608  11.297  13.835   4.618
20786SOL    HW262609  11.213  13.959   4.592
20787SOL     OW62610   3.444   9.651   2.609
20787SOL    HW162611   3.427   9.638   2.516
20787SOL    HW262612   3.357   9.653   2.649
20788SOL     OW62613   3.293  10.161   4.413
20788SOL    HW162614   3.342  10.243   4.407
20788SOL    HW262615   3.357  10.098   4.446
20789SOL     OW62616   7.051   6.503   2.868
20789SOL    HW162617   7.102   6.556   2.928
20789SOL    HW262618   7.009   6.437   2.923
20790SOL     OW62619   5.283   6.479   2.336
20790SOL    HW162620   5.197   6.490   2.296
20790SOL    HW262621   5.308   6.389   2.316
20791SOL     OW62622   5.960   7.995   2.863
20791SOL    HW162623   5.949   8.035   2.950
20791SOL    HW262624   6.028   7.929   2.876
20792SOL     OW62625   3.336   6.943   3.844
20792SOL    HW162626   3.241   6.942   3.831
20792SOL    HW262627   3.360   6.851   3.853
20793SOL     OW62628   4.302  11.391   1.685
20793SOL    HW162629   4.354  11.422   1.611
20793SOL    HW262630   4.358  11.407   1.762
20794SOL     OW62631   9.853  11.789   2.309
20794SOL    HW162632   9.921  11.749   2.365
20794SOL    HW262633   9.816  11.859   2.363
20795SOL     OW62634   3.827   3.838   3.952
20795SOL    HW162635   3.856   3.750   3.978
20795SOL    HW262636   3.877   3.897   4.008
20796SOL     OW62637   3.482   4.101   3.646
20796SOL    HW162638   3.406   4.075   3.593
20796SOL    HW262639   3.446   4.161   3.711
20797SOL     OW62640   6.685   9.719   6.869
20797SOL    HW162641   6.632   9.719   6.789
20797SOL    HW262642   6.663   9.638   6.913
20798SOL     OW62643   8.808  11.802   2.575
20798SOL    HW162644   8.797  11.864   2.502
20798SOL    HW262645   8.741  11.828   2.638
20799SOL     OW62646   7.047  12.013   7.335
20799SOL    HW162647   7.125  12.063   7.357
20799SOL    HW262648   7.051  12.003   7.240
20800SOL     OW62649  13.127  10.972   3.357
20800SOL    HW162650  13.038  10.939   3.357
20800SOL    HW262651   2.406  10.898   3.325
20801SOL     OW62652  13.340  11.598   6.401
20801SOL    HW162653  13.251  11.626   6.378
20801SOL    HW262654  13.371  11.552   6.323
20802SOL     OW62655  11.381   3.727   2.393
20802SOL    HW162656  11.335   3.775   2.325
20802SOL    HW262657  11.320   3.724   2.467
20803SOL     OW62658  12.691  11.000   5.377
20803SOL    HW162659  12.602  11.016   5.408
20803SOL    HW262660  12.706  10.907   5.393
20804SOL     OW62661   5.914   8.782   0.586
20804SOL    HW162662   5.826   8.744   0.580
20804SOL    HW262663   5.907   8.867   0.542
20805SOL     OW62664  11.792   6.661   4.003
20805SOL    HW162665  11.697   6.671   4.015
20805SOL    HW262666  11.816   6.588   4.061
20806SOL     OW62667   6.397  15.100   6.655
20806SOL    HW162668   6.316  15.125   6.611
20806SOL    HW262669   6.376  15.105   6.748
20807SOL     OW62670   4.189   8.055   2.255
20807SOL    HW162671   4.198   8.128   2.316
20807SOL    HW262672   4.096   8.033   2.258
20808SOL     OW62673  10.568  13.933   7.293
20808SOL    HW162674  10.647  13.955   7.243
20808SOL    HW262675  10.510  13.892   7.229
20809SOL     OW62676  13.394  11.501   7.518
20809SOL    HW162677  13.479  11.500   7.562
20809SOL    HW262678  13.357  11.586   7.542
20810SOL     OW62679   4.305   5.170   4.362
20810SOL    HW162680   4.388   5.130   4.388
20810SOL    HW262681   4.315   5.188   4.268
20811SOL     OW62682   4.305   7.717   1.867
20811SOL    HW162683   4.380   7.776   1.879
20811SOL    HW262684   4.320   7.678   1.780
20812SOL     OW62685   6.841   6.994   4.304
20812SOL    HW162686   6.831   7.028   4.393
20812SOL    HW262687   6.770   6.930   4.294
20813SOL     OW62688   5.965   3.902   2.354
20813SOL    HW162689   5.893   3.917   2.415
20813SOL    HW262690   6.023   3.841   2.399
20814SOL     OW62691   7.418   7.109   5.675
20814SOL    HW162692   7.440   7.202   5.688
20814SOL    HW262693   7.436   7.093   5.582
20815SOL     OW62694  15.284   7.795   7.353
20815SOL    HW162695  15.194   7.778   7.323
20815SOL    HW262696  15.314   7.711   7.387
20816SOL     OW62697  10.322  15.047   6.472
20816SOL    HW162698  10.253  14.994   6.434
20816SOL    HW262699  10.330  15.017   6.562
20817SOL     OW62700   7.705   8.195   2.728
20817SOL    HW162701   7.666   8.277   2.757
20817SOL    HW262702   7.695   8.196   2.633
20818SOL     OW62703   8.034  10.390   1.831
20818SOL    HW162704   7.974  10.412   1.760
20818SOL    HW262705   7.984  10.331   1.888
20819SOL     OW62706   5.788   6.376   5.126
20819SOL    HW162707   5.871   6.387   5.172
20819SOL    HW262708   5.760   6.465   5.103
20820SOL     OW62709  12.046  10.299   4.903
20820SOL    HW162710  11.993  10.231   4.861
20820SOL    HW262711  12.135  10.282   4.873
20821SOL     OW62712   6.529   8.268   3.405
20821SOL    HW162713   6.599   8.280   3.469
20821SOL    HW262714   6.553   8.189   3.357
20822SOL     OW62715   8.190  12.088   3.567
20822SOL    HW162716   8.264  12.052   3.517
20822SOL    HW262717   8.230  12.149   3.628
20823SOL     OW62718   7.558  11.434   6.698
20823SOL    HW162719   7.538  11.413   6.607
20823SOL    HW262720   7.643  11.479   6.694
20824SOL     OW62721  10.898   9.638   7.373
20824SOL    HW162722  10.919   9.554   7.332
20824SOL    HW262723  10.937   9.633   7.460
20825SOL     OW62724   8.889   7.896   3.318
20825SOL    HW162725   8.893   7.802   3.299
20825SOL    HW262726   8.936   7.937   3.246
20826SOL     OW62727   5.319   6.215   5.728
20826SOL    HW162728   5.407   6.178   5.722
20826SOL    HW262729   5.302   6.220   5.822
20827SOL     OW62730  11.141   9.785   5.882
20827SOL    HW162731  11.145   9.775   5.787
20827SOL    HW262732  11.099   9.870   5.896
20828SOL     OW62733   6.501   0.808   0.972
20828SOL    HW162734   6.522   0.781   1.061
20828SOL    HW262735   6.440   0.743   0.940
20829SOL     OW62736   3.627  10.484   3.814
20829SOL    HW162737   3.703  10.504   3.760
20829SOL    HW262738   3.662  10.436   3.888
20830SOL     OW62739  11.214   2.403   2.510
20830SOL    HW162740  11.145   2.368   2.566
20830SOL    HW262741  11.293   2.399   2.564
20831SOL     OW62742   4.625   5.311   2.333
20831SOL    HW162743   4.647   5.254   2.406
20831SOL    HW262744   4.634   5.400   2.367
20832SOL     OW62745   5.604   4.683   3.540
20832SOL    HW162746   5.562   4.631   3.471
20832SOL    HW262747   5.682   4.632   3.564
20833SOL     OW62748   5.349   3.684   0.891
20833SOL    HW162749   5.427   3.726   0.927
20833SOL    HW262750   5.377   3.648   0.807
20834SOL     OW62751   3.694   6.689   0.706
20834SOL    HW162752   3.747   6.647   0.638
20834SOL    HW262753   3.685   6.622   0.774
20835SOL     OW62754  12.625   8.769   5.889
20835SOL    HW162755  12.594   8.857   5.867
20835SOL    HW262756  12.718   8.771   5.868
20836SOL     OW62757   3.701   1.895   1.255
20836SOL    HW162758   3.735   1.817   1.297
20836SOL    HW262759   3.674   1.952   1.327
20837SOL     OW62760   5.309   8.823   1.395
20837SOL    HW162761   5.321   8.871   1.477
20837SOL    HW262762   5.232   8.769   1.410
20838SOL     OW62763  13.152  13.237   7.158
20838SOL    HW162764  13.229  13.259   7.211
20838SOL    HW262765  13.086  13.209   7.222
20839SOL     OW62766   4.344   7.819   3.880
20839SOL    HW162767   4.431   7.839   3.914
20839SOL    HW262768   4.287   7.824   3.956
20840SOL     OW62769   9.741   9.282   7.134
20840SOL    HW162770   9.701   9.304   7.050
20840SOL    HW262771   9.835   9.283   7.117
20841SOL     OW62772   5.075   5.885   5.313
20841SOL    HW162773   5.090   5.821   5.383
20841SOL    HW262774   5.137   5.861   5.245
20842SOL     OW62775  11.176   4.005   4.707
20842SOL    HW162776  11.224   3.948   4.648
20842SOL    HW262777  11.098   4.031   4.657
20843SOL     OW62778  11.489   9.983   7.038
20843SOL    HW162779  11.581   9.962   7.057
20843SOL    HW262780  11.472   9.940   6.954
20844SOL     OW62781   4.623  10.862   3.454
20844SOL    HW162782   4.573  10.934   3.493
20844SOL    HW262783   4.602  10.868   3.360
20845SOL     OW62784   5.547   9.783   2.947
20845SOL    HW162785   5.518   9.712   2.891
20845SOL    HW262786   5.488   9.781   3.022
20846SOL     OW62787  12.821  12.195   4.822
20846SOL    HW162788  12.828  12.277   4.771
20846SOL    HW262789  12.883  12.207   4.894
20847SOL     OW62790   8.388   2.236   2.293
20847SOL    HW162791   8.411   2.204   2.380
20847SOL    HW262792   8.292   2.233   2.291
20848SOL     OW62793   8.061   2.486   2.571
20848SOL    HW162794   8.052   2.456   2.481
20848SOL    HW262795   8.120   2.423   2.612
20849SOL     OW62796   9.721  13.261   6.588
20849SOL    HW162797   9.816  13.269   6.577
20849SOL    HW262798   9.697  13.185   6.535
20850SOL     OW62799   5.946   4.835   5.548
20850SOL    HW162800   5.906   4.829   5.461
20850SOL    HW262801   5.892   4.898   5.596
20851SOL     OW62802   4.994   6.293   4.559
20851SOL    HW162803   4.969   6.343   4.482
20851SOL    HW262804   5.082   6.261   4.540
20852SOL     OW62805  11.756   9.288   1.812
20852SOL    HW162806  11.790   9.296   1.901
20852SOL    HW262807  11.820   9.233   1.766
20853SOL     OW62808   6.329   9.270   2.522
20853SOL    HW162809   6.298   9.268   2.612
20853SOL    HW262810   6.402   9.332   2.523
20854SOL     OW62811   4.002  10.095   0.429
20854SOL    HW162812   3.942  10.168   0.444
20854SOL    HW262813   3.949  10.029   0.385
20855SOL     OW62814  15.464  11.922   7.406
20855SOL    HW162815  15.399  11.937   7.475
20855SOL    HW262816  15.445  11.834   7.374
20856SOL     OW62817   3.497   8.746   3.831
20856SOL    HW162818   3.538   8.814   3.778
20856SOL    HW262819   3.556   8.671   3.824
20857SOL     OW62820  11.500   5.844   3.766
20857SOL    HW162821  11.566   5.822   3.700
20857SOL    HW262822  11.511   5.938   3.780
20858SOL     OW62823  11.269   5.587   3.302
20858SOL    HW162824  11.248   5.606   3.393
20858SOL    HW262825  11.219   5.508   3.281
20859SOL     OW62826   4.648   8.440   2.308
20859SOL    HW162827   4.671   8.350   2.284
20859SOL    HW262828   4.663   8.444   2.403
20860SOL     OW62829   9.352   5.203   0.550
20860SOL    HW162830   9.303   5.162   0.620
20860SOL    HW262831   9.378   5.288   0.585
20861SOL     OW62832  11.346   4.959   1.525
20861SOL    HW162833  11.325   4.873   1.489
20861SOL    HW262834  11.358   4.943   1.619
20862SOL     OW62835   8.141   2.689   1.447
20862SOL    HW162836   8.178   2.731   1.370
20862SOL    HW262837   8.138   2.757   1.514
20863SOL     OW62838  10.624   1.468   0.793
20863SOL    HW162839  10.715   1.498   0.795
20863SOL    HW262840  10.629   1.375   0.773
20864SOL     OW62841   5.263   8.954   2.881
20864SOL    HW162842   5.307   9.039   2.890
20864SOL    HW262843   5.334   8.892   2.863
20865SOL     OW62844  12.852  12.527   7.575
20865SOL    HW162845  12.780  12.569   7.529
20865SOL    HW262846  12.930  12.554   7.526
20866SOL     OW62847  12.491  14.299   6.992
20866SOL    HW162848  12.512  14.223   6.938
20866SOL    HW262849  12.545  14.369   6.956
20867SOL     OW62850   6.066  13.850   4.842
20867SOL    HW162851   6.112  13.776   4.882
20867SOL    HW262852   6.063  13.829   4.749
20868SOL     OW62853   4.740  10.638   4.984
20868SOL    HW162854   4.720  10.604   5.072
20868SOL    HW262855   4.666  10.695   4.964
20869SOL     OW62856   3.969  12.762   3.167
20869SOL    HW162857   3.898  12.702   3.186
20869SOL    HW262858   3.979  12.761   3.072
20870SOL     OW62859  12.324   2.282   2.235
20870SOL    HW162860   1.536   2.227   2.158
20870SOL    HW262861  12.240   2.281   2.281
20871SOL     OW62862   5.551  14.566   5.893
20871SOL    HW162863   5.586  14.592   5.978
20871SOL    HW262864   5.618  14.592   5.830
20872SOL     OW62865  11.258   4.527   5.313
20872SOL    HW162866  11.280   4.593   5.379
20872SOL    HW262867  11.194   4.570   5.256
20873SOL     OW62868   1.257   2.432   1.477
20873SOL    HW162869   1.297   2.426   1.390
20873SOL    HW262870   1.227   2.522   1.484
20874SOL     OW62871   9.391  11.614   6.779
20874SOL    HW162872   9.440  11.566   6.845
20874SOL    HW262873   9.302  11.620   6.816
20875SOL     OW62874  13.012   7.600   4.348
20875SOL    HW162875  13.000   7.689   4.381
20875SOL    HW262876  12.996   7.608   4.254
20876SOL     OW62877   7.678   5.736   5.456
20876SOL    HW162878   7.774   5.734   5.457
20876SOL    HW262879   7.652   5.644   5.462
20877SOL     OW62880   9.318   8.219   1.755
20877SOL    HW162881   9.259   8.176   1.816
20877SOL    HW262882   9.281   8.307   1.742
20878SOL     OW62883   1.509   9.468   1.248
20878SOL    HW162884   1.539   9.445   1.160
20878SOL    HW262885   1.415   9.487   1.237
20879SOL     OW62886   5.455   3.656   2.831
20879SOL    HW162887   5.473   3.717   2.903
20879SOL    HW262888   5.368   3.621   2.851
20880SOL     OW62889  10.891   7.596   1.086
20880SOL    HW162890  10.845   7.607   1.169
20880SOL    HW262891  10.832   7.542   1.033
20881SOL     OW62892   1.825   5.729   2.303
20881SOL    HW162893   1.850   5.706   2.214
20881SOL    HW262894   1.908   5.724   2.352
20882SOL     OW62895   9.563  13.618   6.993
20882SOL    HW162896   9.523  13.610   7.079
20882SOL    HW262897   9.551  13.533   6.952
20883SOL     OW62898  13.151   9.648   4.611
20883SOL    HW162899  13.202   9.728   4.597
20883SOL    HW262900  13.081   9.653   4.546
20884SOL     OW62901  10.300   5.034   2.112
20884SOL    HW162902  10.359   5.046   2.186
20884SOL    HW262903  10.235   5.105   2.121
20885SOL     OW62904   1.966   9.911   0.973
20885SOL    HW162905   2.024   9.879   1.042
20885SOL    HW262906   2.007   9.992   0.942
20886SOL     OW62907  10.505   9.393   0.089
20886SOL    HW162908  10.577   9.332   0.072
20886SOL    HW262909  10.538   9.450   0.158
20887SOL     OW62910   7.368   9.552   3.330
20887SOL    HW162911   7.399   9.486   3.393
20887SOL    HW262912   7.407   9.634   3.360
20888SOL     OW62913  12.844  13.997   6.403
20888SOL    HW162914  12.819  14.027   6.316
20888SOL    HW262915  12.763  13.995   6.453
20889SOL     OW62916   7.672   6.657   0.159
20889SOL    HW162917   7.690   6.598   0.086
20889SOL    HW262918   7.634   6.735   0.118
20890SOL     OW62919   8.955   5.245   1.531
20890SOL    HW162920   8.893   5.317   1.516
20890SOL    HW262921   9.020   5.255   1.461
20891SOL     OW62922   6.086  12.311   3.159
20891SOL    HW162923   6.061  12.272   3.075
20891SOL    HW262924   6.046  12.254   3.224
20892SOL     OW62925   4.230   1.777   2.095
20892SOL    HW162926   4.223   1.863   2.137
20892SOL    HW262927   4.146   1.736   2.110
20893SOL     OW62928  12.730  10.013   5.607
20893SOL    HW162929  12.746  10.107   5.607
20893SOL    HW262930  12.815   9.974   5.630
20894SOL     OW62931   5.743  10.691   6.140
20894SOL    HW162932   5.756  10.688   6.235
20894SOL    HW262933   5.647  10.693   6.129
20895SOL     OW62934   7.355   5.824   4.517
20895SOL    HW162935   7.397   5.900   4.558
20895SOL    HW262936   7.355   5.757   4.585
20896SOL     OW62937   0.673   3.744   0.251
20896SOL    HW162938   0.715   3.775   0.331
20896SOL    HW262939   0.580   3.736   0.274
20897SOL     OW62940  12.800  11.992   3.000
20897SOL    HW162941  12.733  11.943   3.050
20897SOL    HW262942  12.804  11.947   2.916
20898SOL     OW62943  11.560   3.640   1.907
20898SOL    HW162944  11.497   3.707   1.881
20898SOL    HW262945  11.578   3.660   1.999
20899SOL     OW62946   9.035   9.372   7.309
20899SOL    HW162947   9.105   9.408   7.363
20899SOL    HW262948   9.080   9.332   7.235
20900SOL     OW62949   3.344   2.224   1.219
20900SOL    HW162950   3.374   2.139   1.185
20900SOL    HW262951   3.369   2.223   1.311
20901SOL     OW62952  10.001   4.619   4.321
20901SOL    HW162953   9.926   4.624   4.380
20901SOL    HW262954   9.967   4.648   4.236
20902SOL     OW62955   5.894  10.627   3.080
20902SOL    HW162956   5.833  10.651   3.011
20902SOL    HW262957   5.938  10.709   3.103
20903SOL     OW62958  12.568   8.173   5.095
20903SOL    HW162959  12.586   8.248   5.151
20903SOL    HW262960  12.602   8.097   5.142
20904SOL     OW62961  13.437  13.039   7.336
20904SOL    HW162962  13.486  13.098   7.392
20904SOL    HW262963  13.350  13.078   7.329
20905SOL     OW62964  11.734   5.015   5.493
20905SOL    HW162965  11.772   5.011   5.406
20905SOL    HW262966  11.706   5.106   5.504
20906SOL     OW62967   6.704   9.996   5.960
20906SOL    HW162968   6.779  10.054   5.946
20906SOL    HW262969   6.710   9.970   6.052
20907SOL     OW62970  11.646   9.878   7.492
20907SOL    HW162971  11.585   9.828   7.547
20907SOL    HW262972  11.670   9.817   7.422
20908SOL     OW62973   2.766   3.972   3.649
20908SOL    HW162974   2.735   3.931   3.568
20908SOL    HW262975   2.861   3.983   3.635
20909SOL     OW62976   4.434   8.470   3.018
20909SOL    HW162977   4.438   8.456   3.112
20909SOL    HW262978   4.349   8.433   2.992
20910SOL     OW62979  11.018   4.294   1.213
20910SOL    HW162980  11.004   4.243   1.134
20910SOL    HW262981  11.113   4.296   1.223
20911SOL     OW62982  14.029   9.807   7.249
20911SOL    HW162983  14.019   9.831   7.157
20911SOL    HW262984  14.113   9.845   7.275
20912SOL     OW62985  15.376   4.868   6.883
20912SOL    HW162986  15.374  15.664   6.976
20912SOL    HW262987  15.331   4.941   6.841
20913SOL     OW62988   1.070   3.435   1.082
20913SOL    HW162989   1.150   3.451   1.132
20913SOL    HW262990   1.035   3.354   1.119
20914SOL     OW62991   9.083   3.382   1.318
20914SOL    HW162992   9.097   3.384   1.413
20914SOL    HW262993   9.072   3.290   1.297
20915SOL     OW62994   8.823   2.831   1.210
20915SOL    HW162995   8.778   2.868   1.135
20915SOL    HW262996   8.793   2.740   1.213
20916SOL     OW62997   4.717   2.775   3.742
20916SOL    HW162998   4.731   2.690   3.784
20916SOL    HW262999   4.779   2.776   3.670
20917SOL     OW63000  14.171  14.698   6.124
20917SOL    HW163001  14.251  14.701   6.071
20917SOL    HW263002  14.114  14.764   6.084
20918SOL     OW63003   8.180  12.327   3.136
20918SOL    HW163004   8.256  12.271   3.122
20918SOL    HW263005   8.115  12.296   3.072
20919SOL     OW63006  14.257   4.116   5.321
20919SOL    HW163007  14.313   4.091   5.394
20919SOL    HW263008  14.178   4.062   5.330
20920SOL     OW63009   4.755  12.357   5.642
20920SOL    HW163010   4.731  12.446   5.619
20920SOL    HW263011   4.704  12.337   5.721
20921SOL     OW63012   7.446   9.071   4.738
20921SOL    HW163013   7.476   9.051   4.649
20921SOL    HW263014   7.356   9.041   4.741
20922SOL     OW63015   6.798   9.483   6.233
20922SOL    HW163016   6.783   9.577   6.224
20922SOL    HW263017   6.821   9.472   6.325
20923SOL     OW63018  11.376  10.957   6.245
20923SOL    HW163019  11.381  10.968   6.339
20923SOL    HW263020  11.301  10.899   6.231
20924SOL     OW63021   3.063   6.721   0.755
20924SOL    HW163022   3.149   6.754   0.779
20924SOL    HW263023   3.007   6.798   0.750
20925SOL     OW63024   5.393  13.219   6.597
20925SOL    HW163025   5.316  13.172   6.564
20925SOL    HW263026   5.363  13.309   6.609
20926SOL     OW63027   2.779   7.899   1.858
20926SOL    HW163028   2.792   7.980   1.809
20926SOL    HW263029   2.865   7.880   1.897
20927SOL     OW63030   8.015  11.583   1.519
20927SOL    HW163031   7.996  11.669   1.557
20927SOL    HW263032   8.108  11.587   1.497
20928SOL     OW63033   9.704   9.414   6.746
20928SOL    HW163034   9.788   9.405   6.701
20928SOL    HW263035   9.720   9.480   6.813
20929SOL     OW63036  10.675   6.244   4.293
20929SOL    HW163037  10.760   6.287   4.298
20929SOL    HW263038  10.665   6.222   4.200
20930SOL     OW63039  12.279  10.187   3.098
20930SOL    HW163040  12.332  10.236   3.161
20930SOL    HW263041  12.313  10.098   3.102
20931SOL     OW63042   7.939  11.006   0.738
20931SOL    HW163043   7.934  11.065   0.814
20931SOL    HW263044   7.888  10.929   0.764
20932SOL     OW63045   2.328   3.311   0.825
20932SOL    HW163046   2.244   3.319   0.870
20932SOL    HW263047   2.393   3.304   0.895
20933SOL     OW63048   7.485  10.446   4.996
20933SOL    HW163049   7.500  10.492   4.914
20933SOL    HW263050   7.533  10.497   5.061
20934SOL     OW63051   0.872   3.851   0.500
20934SOL    HW163052   0.813   3.912   0.455
20934SOL    HW263053   0.954   3.857   0.451
20935SOL     OW63054   3.036   7.864   3.328
20935SOL    HW163055   3.063   7.782   3.369
20935SOL    HW263056   3.114   7.919   3.329
20936SOL     OW63057   4.857   5.221   2.008
20936SOL    HW163058   4.939   5.209   1.960
20936SOL    HW263059   4.824   5.305   1.978
20937SOL     OW63060   9.027   2.833   1.754
20937SOL    HW163061   8.962   2.839   1.685
20937SOL    HW263062   9.111   2.850   1.710
20938SOL     OW63063   4.463   9.019   2.927
20938SOL    HW163064   4.371   8.991   2.923
20938SOL    HW263065   4.512   8.944   2.894
20939SOL     OW63066   8.186   6.190   0.081
20939SOL    HW163067   8.248   6.258   0.053
20939SOL    HW263068   8.234   6.140   0.147
20940SOL     OW63069   6.528  11.698   1.997
20940SOL    HW163070   6.475  11.778   1.998
20940SOL    HW263071   6.464  11.627   1.996
20941SOL     OW63072   3.602   7.605   4.295
20941SOL    HW163073   3.609   7.701   4.287
20941SOL    HW263074   3.587   7.590   4.388
20942SOL     OW63075   4.794  12.869   4.781
20942SOL    HW163076   4.730  12.887   4.712
20942SOL    HW263077   4.779  12.777   4.804
20943SOL     OW63078   6.929  11.871   2.252
20943SOL    HW163079   6.972  11.828   2.178
20943SOL    HW263080   6.859  11.811   2.278
20944SOL     OW63081   9.398   7.097   2.345
20944SOL    HW163082   9.362   7.185   2.337
20944SOL    HW263083   9.438   7.095   2.432
20945SOL     OW63084   8.692  10.084   5.467
20945SOL    HW163085   8.660  10.133   5.543
20945SOL    HW263086   8.755  10.021   5.504
20946SOL     OW63087  11.857   4.112   5.181
20946SOL    HW163088  11.917   4.039   5.197
20946SOL    HW263089  11.772   4.080   5.212
20947SOL     OW63090   4.790   3.896   1.981
20947SOL    HW163091   4.819   3.831   1.917
20947SOL    HW263092   4.695   3.897   1.973
20948SOL     OW63093   8.617   8.692   0.194
20948SOL    HW163094   8.645   8.600   0.201
20948SOL    HW263095   8.637   8.716   0.104
20949SOL     OW63096  11.947   7.672   3.528
20949SOL    HW163097  11.856   7.691   3.554
20949SOL    HW263098  11.958   7.579   3.547
20950SOL     OW63099   0.999   6.561   1.029
20950SOL    HW163100   0.960   6.474   1.031
20950SOL    HW263101   0.933   6.618   1.068
20951SOL     OW63102   3.129   4.078   0.292
20951SOL    HW163103   3.208   4.128   0.272
20951SOL    HW263104   3.138   4.055   0.385
20952SOL     OW63105  12.933  12.694   3.630
20952SOL    HW163106  12.893  12.608   3.642
20952SOL    HW263107  12.878  12.737   3.564
20953SOL     OW63108   3.293  10.287   2.768
20953SOL    HW163109   3.360  10.354   2.753
20953SOL    HW263110   3.260  10.304   2.856
20954SOL     OW63111   3.607   5.043   2.265
20954SOL    HW163112   3.689   5.088   2.248
20954SOL    HW263113   3.541   5.112   2.264
20955SOL     OW63114  11.841   8.864   2.783
20955SOL    HW163115  11.782   8.832   2.851
20955SOL    HW263116  11.919   8.809   2.791
20956SOL     OW63117   6.378   9.897   2.422
20956SOL    HW163118   6.358   9.942   2.339
20956SOL    HW263119   6.292   9.873   2.457
20957SOL     OW63120  12.461   3.770   3.817
20957SOL    HW163121  12.548   3.793   3.850
20957SOL    HW263122  12.401   3.795   3.888
20958SOL     OW63123   2.353   8.307   2.474
20958SOL    HW163124   2.315   8.219   2.470
20958SOL    HW263125   2.391   8.321   2.388
20959SOL     OW63126   4.751   8.685   2.229
20959SOL    HW163127   4.693   8.611   2.245
20959SOL    HW263128   4.699   8.747   2.178
20960SOL     OW63129   8.123   6.867   0.932
20960SOL    HW163130   8.041   6.895   0.892
20960SOL    HW263131   8.160   6.947   0.969
20961SOL     OW63132  11.733  13.043   5.412
20961SOL    HW163133  11.717  12.963   5.462
20961SOL    HW263134  11.763  13.106   5.477
20962SOL     OW63135   9.554  10.064   0.431
20962SOL    HW163136   9.591  10.103   0.510
20962SOL    HW263137   9.461  10.089   0.432
20963SOL     OW63138   4.485  11.343   4.693
20963SOL    HW163139   4.468  11.285   4.620
20963SOL    HW263140   4.426  11.418   4.679
20964SOL     OW63141   8.550  11.986   3.688
20964SOL    HW163142   8.520  11.930   3.759
20964SOL    HW263143   8.573  12.069   3.730
20965SOL     OW63144   9.478  11.110   3.387
20965SOL    HW163145   9.451  11.029   3.430
20965SOL    HW263146   9.401  11.166   3.388
20966SOL     OW63147   4.630   9.805   1.058
20966SOL    HW163148   4.635   9.780   0.966
20966SOL    HW263149   4.651   9.726   1.107
20967SOL     OW63150  10.153  13.499   7.575
20967SOL    HW163151   4.726   8.049   0.017
20967SOL    HW263152   4.767   8.195   0.004
20968SOL     OW63153   7.314   5.036   3.590
20968SOL    HW163154   7.339   4.998   3.506
20968SOL    HW263155   7.231   4.994   3.612
20969SOL     OW63156   8.582   7.417   7.074
20969SOL    HW163157   8.667   7.413   7.118
20969SOL    HW263158   8.574   7.333   7.029
20970SOL     OW63159   4.747  10.748   0.111
20970SOL    HW163160   4.704  10.666   0.137
20970SOL    HW263161   4.677  10.801   0.073
20971SOL     OW63162   2.263   1.469   1.696
20971SOL    HW163163   2.335   1.520   1.658
20971SOL    HW263164   2.194   1.533   1.711
20972SOL     OW63165  10.434   5.865   6.831
20972SOL    HW163166  10.471   5.838   6.747
20972SOL    HW263167  10.442   5.960   6.832
20973SOL     OW63168   7.642   8.114   4.673
20973SOL    HW163169   7.550   8.114   4.647
20973SOL    HW263170   7.647   8.181   4.741
20974SOL     OW63171  13.867  13.374   4.971
20974SOL    HW163172  13.787  13.336   5.006
20974SOL    HW263173  13.905  13.422   5.044
20975SOL     OW63174   6.636   6.727   0.753
20975SOL    HW163175   6.669   6.694   0.837
20975SOL    HW263176   6.563   6.785   0.777
20976SOL     OW63177   6.422   2.747   0.000
20976SOL    HW163178  11.763   8.157   7.538
20976SOL    HW263179   6.385   2.806   0.066
20977SOL     OW63180  10.755  12.315   6.861
20977SOL    HW163181  10.791  12.392   6.905
20977SOL    HW263182  10.831  12.261   6.839
20978SOL     OW63183   6.848   5.799   0.555
20978SOL    HW163184   6.916   5.749   0.600
20978SOL    HW263185   6.882   5.809   0.465
20979SOL     OW63186   9.503  11.262   1.482
20979SOL    HW163187   9.524  11.314   1.405
20979SOL    HW263188   9.457  11.322   1.540
20980SOL     OW63189   4.703   6.589   6.293
20980SOL    HW163190   4.733   6.615   6.380
20980SOL    HW263191   4.781   6.596   6.238
20981SOL     OW63192   3.428   8.260   3.980
20981SOL    HW163193   3.439   8.319   3.906
20981SOL    HW263194   3.432   8.317   4.057
20982SOL     OW63195   7.536   8.814   6.959
20982SOL    HW163196   7.491   8.882   6.909
20982SOL    HW263197   7.491   8.733   6.936
20983SOL     OW63198  11.879   9.261   7.468
20983SOL    HW163199  11.835   9.299   7.545
20983SOL    HW263200  11.914   9.337   7.421
20984SOL     OW63201   9.457   7.290   3.484
20984SOL    HW163202   9.541   7.260   3.517
20984SOL    HW263203   9.393   7.258   3.547
20985SOL     OW63204  10.838  15.562   7.027
20985SOL    HW163205  10.833  15.525   7.116
20985SOL    HW263206  10.813  15.654   7.038
20986SOL     OW63207  10.595   8.005   2.176
20986SOL    HW163208  10.584   8.095   2.146
20986SOL    HW263209  10.602   8.011   2.271
20987SOL     OW63210  10.350   8.960   2.417
20987SOL    HW163211  10.351   9.046   2.375
20987SOL    HW263212  10.430   8.958   2.468
20988SOL     OW63213  11.469   4.909   3.459
20988SOL    HW163214  11.394   4.969   3.459
20988SOL    HW263215  11.544   4.964   3.481
20989SOL     OW63216   9.132   4.769   4.017
20989SOL    HW163217   9.138   4.864   4.011
20989SOL    HW263218   9.128   4.750   4.111
20990SOL     OW63219   4.329   9.662   6.007
20990SOL    HW163220  15.059   9.599   6.063
20990SOL    HW263221   4.401   9.612   5.968
20991SOL     OW63222   8.537   9.696   3.906
20991SOL    HW163223   8.616   9.744   3.932
20991SOL    HW263224   8.529   9.627   3.972
20992SOL     OW63225  10.774   3.048   2.355
20992SOL    HW163226  10.693   3.095   2.377
20992SOL    HW263227  10.816   3.032   2.440
20993SOL     OW63228   8.997   7.665   4.457
20993SOL    HW163229   8.978   7.694   4.367
20993SOL    HW263230   8.933   7.711   4.511
20994SOL     OW63231   8.035   8.145   1.582
20994SOL    HW163232   8.034   8.236   1.553
20994SOL    HW263233   7.959   8.136   1.638
20995SOL     OW63234  11.359   7.080   3.958
20995SOL    HW163235  11.337   7.125   4.040
20995SOL    HW263236  11.401   6.998   3.986
20996SOL     OW63237  10.580  10.780   1.665
20996SOL    HW163238  10.596  10.835   1.588
20996SOL    HW263239  10.643  10.811   1.730
20997SOL     OW63240   9.592   4.598   5.188
20997SOL    HW163241   9.674   4.588   5.235
20997SOL    HW263242   9.528   4.623   5.255
20998SOL     OW63243  13.769  11.380   7.279
20998SOL    HW163244  13.694  11.431   7.248
20998SOL    HW263245  13.744  11.289   7.266
20999SOL     OW63246   8.408  13.629   6.073
20999SOL    HW163247   8.427  13.546   6.116
20999SOL    HW263248   8.313  13.629   6.062
21000SOL     OW63249   2.506   3.273   0.456
21000SOL    HW163250   2.569   3.213   0.418
21000SOL    HW263251   2.425   3.223   0.462
21001SOL     OW63252   6.651   8.297   7.353
21001SOL    HW163253   6.717   8.241   7.394
21001SOL    HW263254   6.700   8.375   7.325
21002SOL     OW63255  14.856   4.462   6.144
21002SOL    HW163256  14.779   4.467   6.088
21002SOL    HW263257  14.834   4.396   6.209
21003SOL     OW63258   7.872  11.797   1.985
21003SOL    HW163259   7.885  11.880   2.031
21003SOL    HW263260   7.834  11.738   2.051
21004SOL     OW63261   6.532   6.861   5.678
21004SOL    HW163262   6.483   6.784   5.649
21004SOL    HW263263   6.576   6.892   5.599
21005SOL     OW63264   9.374   4.597   5.937
21005SOL    HW163265   9.304   4.590   5.873
21005SOL    HW263266   9.358   4.525   5.998
21006SOL     OW63267   1.986   4.693   0.037
21006SOL    HW163268   1.892   4.674   0.030
21006SOL    HW263269   1.992   4.787   0.026
21007SOL     OW63270  11.868   8.704   6.078
21007SOL    HW163271  11.873   8.677   6.170
21007SOL    HW263272  11.775   8.697   6.056
21008SOL     OW63273  10.384  14.191   5.716
21008SOL    HW163274  10.357  14.183   5.808
21008SOL    HW263275  10.302  14.188   5.667
21009SOL     OW63276  14.404   9.468   7.011
21009SOL    HW163277  14.380   9.547   6.963
21009SOL    HW263278  14.498   9.458   6.994
21010SOL     OW63279   7.525  10.178   5.704
21010SOL    HW163280   7.517  10.177   5.608
21010SOL    HW263281   7.550  10.269   5.724
21011SOL     OW63282  12.727   2.734   3.542
21011SOL    HW163283  12.672   2.811   3.528
21011SOL    HW263284  12.666   2.663   3.561
21012SOL     OW63285  11.148   3.989   1.568
21012SOL    HW163286  11.233   3.961   1.534
21012SOL    HW263287  11.163   4.078   1.600
21013SOL     OW63288   9.470   6.717   0.216
21013SOL    HW163289   9.384   6.757   0.219
21013SOL    HW263290   9.531   6.787   0.239
21014SOL     OW63291   9.350   5.192   3.120
21014SOL    HW163292   9.383   5.281   3.118
21014SOL    HW263293   9.326   5.173   3.029
21015SOL     OW63294   9.826  14.562   5.978
21015SOL    HW163295   9.765  14.587   5.909
21015SOL    HW263296   9.787  14.596   6.058
21016SOL     OW63297  12.058  10.783   2.699
21016SOL    HW163298  12.058  10.818   2.610
21016SOL    HW263299  12.118  10.840   2.748
21017SOL     OW63300   9.625   9.508   6.431
21017SOL    HW163301   9.703   9.474   6.475
21017SOL    HW263302   9.553   9.487   6.490
21018SOL     OW63303  10.843   9.598   0.658
21018SOL    HW163304  10.828   9.564   0.570
21018SOL    HW263305  10.898   9.675   0.645
21019SOL     OW63306  14.801  14.661   6.318
21019SOL    HW163307  14.793  14.578   6.270
21019SOL    HW263308  14.807  14.635   6.410
21020SOL     OW63309   7.140   2.507   2.737
21020SOL    HW163310   7.078   2.546   2.675
21020SOL    HW263311   7.165   2.424   2.696
21021SOL     OW63312   8.809  12.148   3.241
21021SOL    HW163313   8.800  12.055   3.261
21021SOL    HW263314   8.802  12.152   3.145
21022SOL     OW63315   7.396   6.820   2.952
21022SOL    HW163316   7.385   6.876   3.029
21022SOL    HW263317   7.462   6.755   2.979
21023SOL     OW63318   3.218   6.095   0.134
21023SOL    HW163319   3.198   6.026   0.198
21023SOL    HW263320   3.156   6.165   0.153
21024SOL     OW63321   5.817   3.306   3.866
21024SOL    HW163322   5.744   3.314   3.805
21024SOL    HW263323   5.843   3.214   3.859
21025SOL     OW63324   6.329   4.146   5.279
21025SOL    HW163325   6.326   4.128   5.184
21025SOL    HW263326   6.264   4.086   5.316
21026SOL     OW63327   4.469   4.638   0.288
21026SOL    HW163328   4.402   4.627   0.355
21026SOL    HW263329   4.551   4.645   0.337
21027SOL     OW63330   8.540   9.251   0.163
21027SOL    HW163331   8.556   9.191   0.235
21027SOL    HW263332   8.571   9.336   0.195
21028SOL     OW63333   9.707  10.919   7.238
21028SOL    HW163334   9.764  10.990   7.209
21028SOL    HW263335   9.756  10.876   7.308
21029SOL     OW63336   8.406   2.635   1.652
21029SOL    HW163337   8.357   2.573   1.598
21029SOL    HW263338   8.353   2.647   1.730
21030SOL     OW63339  13.284   7.792   3.626
21030SOL    HW163340   2.593   7.769   3.585
21030SOL    HW263341  13.261   7.877   3.589
21031SOL     OW63342  11.114  10.015   0.492
21031SOL    HW163343   0.317  10.065   0.414
21031SOL    HW263344  11.056   9.939   0.489
21032SOL     OW63345   3.779   1.766   0.178
21032SOL    HW163346   3.836   1.835   0.144
21032SOL    HW263347   3.826   1.732   0.254
21033SOL     OW63348  11.742  13.086   4.094
21033SOL    HW163349  11.656  13.043   4.096
21033SOL    HW263350  11.787  13.046   4.019
21034SOL     OW63351   3.178   4.073   0.569
21034SOL    HW163352   3.093   4.100   0.605
21034SOL    HW263353   3.234   4.062   0.645
21035SOL     OW63354   5.352   1.818   0.536
21035SOL    HW163355   5.356   1.909   0.506
21035SOL    HW263356   5.340   1.825   0.631
21036SOL     OW63357  14.984  14.788   7.010
21036SOL    HW163358  15.020  14.741   7.085
21036SOL    HW263359  14.901  14.744   6.992
21037SOL     OW63360  11.909  12.309   4.921
21037SOL    HW163361  11.912  12.385   4.979
21037SOL    HW263362  11.859  12.338   4.845
21038SOL     OW63363  12.442   7.200   6.866
21038SOL    HW163364  12.406   7.202   6.955
21038SOL    HW263365  12.483   7.114   6.859
21039SOL     OW63366   8.720   3.490   1.964
21039SOL    HW163367   8.692   3.408   1.923
21039SOL    HW263368   8.655   3.555   1.936
21040SOL     OW63369   5.771   6.957   4.086
21040SOL    HW163370   5.815   7.019   4.143
21040SOL    HW263371   5.748   7.008   4.008
21041SOL     OW63372   5.211   4.433   2.964
21041SOL    HW163373   5.161   4.511   2.938
21041SOL    HW263374   5.147   4.379   3.011
21042SOL     OW63375  10.993   5.147   0.909
21042SOL    HW163376  10.927   5.193   0.857
21042SOL    HW263377  11.076   5.175   0.872
21043SOL     OW63378   3.546   6.191   3.968
21043SOL    HW163379   3.567   6.180   4.060
21043SOL    HW263380   3.534   6.286   3.957
21044SOL     OW63381   5.052   4.601   6.391
21044SOL    HW163382   5.100   4.548   6.327
21044SOL    HW263383   4.969   4.554   6.403
21045SOL     OW63384  10.816   8.035   1.572
21045SOL    HW163385  10.796   7.998   1.486
21045SOL    HW263386  10.790   8.127   1.565
21046SOL     OW63387   3.793   3.185   4.501
21046SOL    HW163388   3.786   3.134   4.420
21046SOL    HW263389   3.887   3.204   4.508
21047SOL     OW63390   7.436   3.020   1.286
21047SOL    HW163391   7.467   2.969   1.212
21047SOL    HW263392   7.469   3.108   1.270
21048SOL     OW63393  10.672   6.953   3.351
21048SOL    HW163394  10.748   6.932   3.297
21048SOL    HW263395  10.598   6.916   3.304
21049SOL     OW63396   4.402   8.073   0.554
21049SOL    HW163397   4.442   7.988   0.570
21049SOL    HW263398   4.364   8.098   0.638
21050SOL     OW63399   8.984   6.495   2.610
21050SOL    HW163400   8.905   6.459   2.651
21050SOL    HW263401   9.004   6.573   2.661
21051SOL     OW63402   1.526  11.834   2.041
21051SOL    HW163403   1.600  11.881   2.079
21051SOL    HW263404  12.225  11.889   2.061
21052SOL     OW63405   5.193   8.978   5.930
21052SOL    HW163406   5.193   9.071   5.953
21052SOL    HW263407   5.283   8.960   5.904
21053SOL     OW63408   7.753   3.836   2.926
21053SOL    HW163409   7.787   3.753   2.960
21053SOL    HW263410   7.830   3.880   2.891
21054SOL     OW63411   9.859  15.509   6.970
21054SOL    HW163412   9.765  15.506   6.987
21054SOL    HW263413   9.883  15.601   6.981
21055SOL     OW63414   6.717   7.725   3.404
21055SOL    HW163415   6.651   7.666   3.438
21055SOL    HW263416   6.721   7.706   3.310
21056SOL     OW63417   4.561   9.961   1.366
21056SOL    HW163418   4.535  10.047   1.398
21056SOL    HW263419   4.506   9.946   1.290
21057SOL     OW63420  11.071   6.296   2.335
21057SOL    HW163421  11.008   6.231   2.304
21057SOL    HW263422  11.132   6.307   2.262
21058SOL     OW63423   8.934   4.207   4.058
21058SOL    HW163424   8.925   4.204   3.963
21058SOL    HW263425   8.920   4.299   4.081
21059SOL     OW63426  10.742  11.032   6.710
21059SOL    HW163427  10.773  11.116   6.674
21059SOL    HW263428  10.685  10.996   6.642
21060SOL     OW63429   5.311   9.560   1.891
21060SOL    HW163430   5.334   9.517   1.974
21060SOL    HW263431   5.393   9.562   1.842
21061SOL     OW63432  12.371  11.334   5.233
21061SOL    HW163433  12.408  11.282   5.162
21061SOL    HW263434  12.438  11.399   5.253
21062SOL     OW63435   8.744   4.810   1.669
21062SOL    HW163436   8.705   4.763   1.742
21062SOL    HW263437   8.813   4.752   1.637
21063SOL     OW63438   7.032   3.558   2.157
21063SOL    HW163439   7.039   3.572   2.252
21063SOL    HW263440   6.938   3.559   2.139
21064SOL     OW63441  12.784  13.278   6.081
21064SOL    HW163442  12.783  13.190   6.043
21064SOL    HW263443  12.706  13.281   6.137
21065SOL     OW63444   6.758   4.537   3.154
21065SOL    HW163445   6.732   4.514   3.243
21065SOL    HW263446   6.708   4.617   3.135
21066SOL     OW63447   1.186   3.106   0.121
21066SOL    HW163448   1.139   3.072   0.045
21066SOL    HW263449   1.271   3.061   0.119
21067SOL     OW63450  10.382   8.920   4.252
21067SOL    HW163451  10.473   8.948   4.253
21067SOL    HW263452  10.342   8.972   4.183
21068SOL     OW63453   4.378   6.822   5.120
21068SOL    HW163454   4.363   6.743   5.172
21068SOL    HW263455   4.446   6.797   5.057
21069SOL     OW63456  11.526   4.998   1.791
21069SOL    HW163457  11.504   5.074   1.737
21069SOL    HW263458  11.603   5.025   1.841
21070SOL     OW63459   5.731   7.371   0.480
21070SOL    HW163460   5.822   7.389   0.502
21070SOL    HW263461   5.728   7.277   0.464
21071SOL     OW63462  10.113   1.420   1.852
21071SOL    HW163463  10.106   1.348   1.789
21071SOL    HW263464  10.101   1.499   1.799
21072SOL     OW63465   8.741  10.190   2.708
21072SOL    HW163466   8.720  10.192   2.615
21072SOL    HW263467   8.821  10.242   2.716
21073SOL     OW63468   2.939   3.755   0.327
21073SOL    HW163469   2.848   3.775   0.350
21073SOL    HW263470   2.988   3.773   0.408
21074SOL     OW63471   7.816   5.831   6.303
21074SOL    HW163472   7.773   5.764   6.251
21074SOL    HW263473   7.822   5.906   6.244
21075SOL     OW63474   7.211   6.305   2.519
21075SOL    HW163475   7.218   6.260   2.603
21075SOL    HW263476   7.175   6.391   2.541
21076SOL     OW63477   4.624  10.702   5.578
21076SOL    HW163478   4.702  10.649   5.595
21076SOL    HW263479   4.602  10.683   5.487
21077SOL     OW63480  13.793   9.418   4.518
21077SOL    HW163481  13.817   9.458   4.435
21077SOL    HW263482  13.809   9.487   4.583
21078SOL     OW63483  13.388   4.283   5.037
21078SOL    HW163484  13.440   4.233   4.974
21078SOL    HW263485  13.430   4.368   5.042
21079SOL     OW63486   4.703   0.954   0.534
21079SOL    HW163487   4.702   1.049   0.531
21079SOL    HW263488   4.776   0.932   0.592
21080SOL     OW63489   7.189   2.647   0.220
21080SOL    HW163490   7.281   2.674   0.222
21080SOL    HW263491   7.157   2.679   0.136
21081SOL     OW63492   5.224   9.955   0.456
21081SOL    HW163493   5.198   9.945   0.548
21081SOL    HW263494   5.204  10.046   0.436
21082SOL     OW63495  13.255   5.539   3.877
21082SOL    HW163496  13.275   5.572   3.790
21082SOL    HW263497  13.320   5.580   3.934
21083SOL     OW63498   4.609   4.839   2.827
21083SOL    HW163499   4.670   4.849   2.901
21083SOL    HW263500   4.626   4.750   2.794
21084SOL     OW63501   3.630   2.338   2.609
21084SOL    HW163502   3.565   2.377   2.668
21084SOL    HW263503   3.652   2.409   2.548
21085SOL     OW63504  11.247   6.403   2.154
21085SOL    HW163505  11.204   6.459   2.219
21085SOL    HW263506  11.340   6.413   2.171
21086SOL     OW63507   6.703   8.096   2.235
21086SOL    HW163508   6.747   8.168   2.280
21086SOL    HW263509   6.631   8.138   2.186
21087SOL     OW63510  10.345   4.419   3.508
21087SOL    HW163511  10.415   4.483   3.520
21087SOL    HW263512  10.333   4.381   3.595
21088SOL     OW63513   7.906  12.444   4.076
21088SOL    HW163514   7.823  12.490   4.064
21088SOL    HW263515   7.903  12.411   4.166
21089SOL     OW63516   4.437   3.674   1.626
21089SOL    HW163517   4.529   3.672   1.600
21089SOL    HW263518   4.439   3.691   1.720
21090SOL     OW63519   4.219   3.044   1.954
21090SOL    HW163520   4.135   3.005   1.976
21090SOL    HW263521   4.259   2.982   1.893
21091SOL     OW63522   4.182   8.712   3.994
21091SOL    HW163523   4.233   8.725   4.073
21091SOL    HW263524   4.099   8.674   4.024
21092SOL     OW63525   5.936   3.186   2.747
21092SOL    HW163526   5.964   3.111   2.800
21092SOL    HW263527   6.004   3.194   2.680
21093SOL     OW63528   6.493  11.993   5.567
21093SOL    HW163529   6.571  11.941   5.587
21093SOL    HW263530   6.479  12.047   5.645
21094SOL     OW63531   4.173   4.923   2.471
21094SOL    HW163532   4.088   4.880   2.459
21094SOL    HW263533   4.231   4.879   2.409
21095SOL     OW63534  13.402   7.044   4.113
21095SOL    HW163535  13.319   7.044   4.064
21095SOL    HW263536  13.463   7.092   4.057
21096SOL     OW63537   2.686   8.089   2.117
21096SOL    HW163538   2.732   8.006   2.125
21096SOL    HW263539   2.680   8.104   2.022
21097SOL     OW63540   7.474   9.723   2.096
21097SOL    HW163541   7.419   9.800   2.085
21097SOL    HW263542   7.559   9.750   2.061
21098SOL     OW63543   4.750  10.998   6.118
21098SOL    HW163544   4.800  10.931   6.073
21098SOL    HW263545   4.748  11.072   6.058
21099SOL     OW63546   9.976   6.377   5.266
21099SOL    HW163547  10.033   6.444   5.305
21099SOL    HW263548  10.033   6.331   5.204
21100SOL     OW63549   6.140  13.629   4.058
21100SOL    HW163550   6.130  13.536   4.036
21100SOL    HW263551   6.188  13.630   4.140
21101SOL     OW63552   2.179   0.712   0.635
21101SOL    HW163553   2.239   0.707   0.709
21101SOL    HW263554   2.220   0.774   0.574
21102SOL     OW63555   3.055   7.287   1.380
21102SOL    HW163556   3.018   7.213   1.428
21102SOL    HW263557   3.079   7.351   1.447
21103SOL     OW63558  15.030  13.298   6.558
21103SOL    HW163559  15.075  13.382   6.552
21103SOL    HW263560  15.089  13.237   6.513
21104SOL     OW63561  11.553  13.389   4.507
21104SOL    HW163562  11.595  13.436   4.579
21104SOL    HW263563  11.467  13.365   4.541
21105SOL     OW63564   2.686  12.727   3.366
21105SOL    HW163565   2.646  12.813   3.382
21105SOL    HW263566   2.761  12.725   3.427
21106SOL     OW63567   5.854   8.514   0.302
21106SOL    HW163568   5.830   8.606   0.293
21106SOL    HW263569   5.819   8.487   0.387
21107SOL     OW63570  11.217   4.561   4.154
21107SOL    HW163571  11.167   4.564   4.236
21107SOL    HW263572  11.154   4.584   4.086
21108SOL     OW63573  14.533  10.466   6.521
21108SOL    HW163574  14.618  10.422   6.520
21108SOL    HW263575  14.538  10.526   6.595
21109SOL     OW63576  10.270  11.869   1.787
21109SOL    HW163577  10.201  11.935   1.774
21109SOL    HW263578  10.334  11.912   1.844
21110SOL     OW63579  13.642   8.693   5.974
21110SOL    HW163580  13.564   8.696   5.918
21110SOL    HW263581  13.690   8.773   5.954
21111SOL     OW63582   7.941  15.494   6.999
21111SOL    HW163583   7.873  15.460   6.942
21111SOL    HW263584   7.956  15.583   6.968
21112SOL     OW63585  10.613   7.390   3.484
21112SOL    HW163586  10.527   7.414   3.449
21112SOL    HW263587  10.598   7.306   3.527
21113SOL     OW63588  10.722   5.336   7.480
21113SOL    HW163589  10.685   5.378   7.402
21113SOL    HW263590  10.814   5.362   7.479
21114SOL     OW63591   4.470  13.074   4.297
21114SOL    HW163592   4.471  12.982   4.271
21114SOL    HW263593   4.379  13.101   4.285
21115SOL     OW63594   3.471   4.991   3.897
21115SOL    HW163595   3.471   5.072   3.946
21115SOL    HW263596   3.560   4.982   3.864
21116SOL     OW63597   2.606   6.926   1.985
21116SOL    HW163598   2.615   6.870   2.062
21116SOL    HW263599   2.606   7.015   2.019
21117SOL     OW63600  10.941   5.278   5.585
21117SOL    HW163601  10.939   5.221   5.662
21117SOL    HW263602  10.969   5.363   5.619
21118SOL     OW63603   9.379   8.077   1.512
21118SOL    HW163604   9.391   8.139   1.584
21118SOL    HW263605   9.431   8.112   1.440
21119SOL     OW63606  10.283   9.259   3.754
21119SOL    HW163607  10.242   9.236   3.671
21119SOL    HW263608  10.220   9.316   3.798
21120SOL     OW63609   8.228   8.750   0.278
21120SOL    HW163610   8.299   8.761   0.214
21120SOL    HW263611   8.155   8.797   0.240
21121SOL     OW63612   5.207  13.064   5.257
21121SOL    HW163613   5.229  13.065   5.164
21121SOL    HW263614   5.114  13.086   5.259
21122SOL     OW63615   9.107   8.752   7.132
21122SOL    HW163616   9.086   8.686   7.198
21122SOL    HW263617   9.022   8.791   7.110
21123SOL     OW63618   8.922   1.598   0.553
21123SOL    HW163619   8.895   1.677   0.507
21123SOL    HW263620   8.911   1.528   0.489
21124SOL     OW63621  10.676   4.904   3.305
21124SOL    HW163622  10.695   4.866   3.219
21124SOL    HW263623  10.607   4.968   3.289
21125SOL     OW63624   9.731  10.914   2.699
21125SOL    HW163625   9.768  10.865   2.772
21125SOL    HW263626   9.804  10.924   2.638
21126SOL     OW63627  10.453   8.255   3.463
21126SOL    HW163628  10.446   8.244   3.368
21126SOL    HW263629  10.540   8.291   3.476
21127SOL     OW63630   8.454   5.603   5.821
21127SOL    HW163631   8.359   5.610   5.819
21127SOL    HW263632   8.471   5.522   5.868
21128SOL     OW63633   9.807   9.826   1.386
21128SOL    HW163634   9.901   9.841   1.384
21128SOL    HW263635   9.797   9.732   1.398
21129SOL     OW63636   6.604   6.841   4.542
21129SOL    HW163637   6.588   6.935   4.542
21129SOL    HW263638   6.692   6.831   4.577
21130SOL     OW63639   1.285   6.906   1.501
21130SOL    HW163640   1.245   6.954   1.574
21130SOL    HW263641   1.379   6.910   1.518
21131SOL     OW63642   6.010   3.239   3.572
21131SOL    HW163643   6.056   3.302   3.515
21131SOL    HW263644   6.054   3.246   3.656
21132SOL     OW63645   7.032   2.742   0.869
21132SOL    HW163646   7.118   2.726   0.906
21132SOL    HW263647   6.984   2.788   0.938
21133SOL     OW63648  11.047  13.070   7.574
21133SOL    HW163649  11.064  13.094   7.483
21133SOL    HW263650  11.133  13.050   7.610
21134SOL     OW63651   6.898   6.561   6.994
21134SOL    HW163652   6.939   6.481   7.027
21134SOL    HW263653   6.903   6.622   7.068
21135SOL     OW63654   8.388  11.456   7.238
21135SOL    HW163655   8.371  11.384   7.299
21135SOL    HW263656   8.344  11.430   7.157
21136SOL     OW63657   8.963   8.407   6.996
21136SOL    HW163658   8.997   8.412   6.906
21136SOL    HW263659   8.935   8.496   7.016
21137SOL     OW63660   5.669  11.185   3.969
21137SOL    HW163661   5.736  11.168   4.035
21137SOL    HW263662   5.640  11.098   3.942
21138SOL     OW63663  10.089  11.917   2.795
21138SOL    HW163664  10.052  12.006   2.798
21138SOL    HW263665  10.175  11.929   2.755
21139SOL     OW63666   8.653   7.878   4.442
21139SOL    HW163667   8.633   7.785   4.448
21139SOL    HW263668   8.634   7.913   4.529
21140SOL     OW63669   6.898  11.377   7.004
21140SOL    HW163670   6.883  11.393   6.911
21140SOL    HW263671   6.905  11.464   7.043
21141SOL     OW63672   7.079   8.133   3.563
21141SOL    HW163673   7.046   8.053   3.605
21141SOL    HW263674   7.094   8.108   3.472
21142SOL     OW63675   6.800   7.831   2.597
21142SOL    HW163676   6.741   7.881   2.654
21142SOL    HW263677   6.873   7.808   2.653
21143SOL     OW63678   3.664   9.490   4.574
21143SOL    HW163679   3.659   9.400   4.605
21143SOL    HW263680   3.656   9.543   4.654
21144SOL     OW63681   6.660   6.462   4.172
21144SOL    HW163682   6.733   6.402   4.160
21144SOL    HW263683   6.604   6.419   4.237
21145SOL     OW63684   5.013   3.837   3.834
21145SOL    HW163685   4.938   3.777   3.832
21145SOL    HW263686   4.976   3.921   3.807
21146SOL     OW63687  12.189   7.416   3.396
21146SOL    HW163688  12.177   7.508   3.421
21146SOL    HW263689  12.265   7.417   3.338
21147SOL     OW63690   5.221  10.045   5.203
21147SOL    HW163691   5.288  10.080   5.144
21147SOL    HW263692   5.140  10.049   5.152
21148SOL     OW63693  12.903   6.212   3.599
21148SOL    HW163694  12.946   6.225   3.683
21148SOL    HW263695  12.952   6.142   3.557
21149SOL     OW63696   4.994  11.971   4.446
21149SOL    HW163697   4.903  12.000   4.442
21149SOL    HW263698   4.988  11.878   4.467
21150SOL     OW63699   8.936  10.031   3.017
21150SOL    HW163700   8.940  10.126   3.028
21150SOL    HW263701   8.914  10.018   2.925
21151SOL     OW63702   7.295   7.063   3.429
21151SOL    HW163703   7.227   7.014   3.383
21151SOL    HW263704   7.344   7.108   3.359
21152SOL     OW63705  10.272  13.235   6.323
21152SOL    HW163706  10.190  13.273   6.354
21152SOL    HW263707  10.340  13.288   6.364
21153SOL     OW63708   8.266   9.864   2.292
21153SOL    HW163709   8.329   9.936   2.300
21153SOL    HW263710   8.216   9.884   2.213
21154SOL     OW63711   5.700  10.254   1.909
21154SOL    HW163712   5.668  10.167   1.885
21154SOL    HW263713   5.695  10.255   2.005
21155SOL     OW63714  13.835  12.125   6.057
21155SOL    HW163715  13.803  12.124   6.148
21155SOL    HW263716  13.828  12.217   6.031
21156SOL     OW63717   4.651   5.075   2.144
21156SOL    HW163718   4.693   5.120   2.216
21156SOL    HW263719   4.706   5.094   2.068
21157SOL     OW63720   3.720  11.754   4.173
21157SOL    HW163721   3.658  11.799   4.231
21157SOL    HW263722   3.664  11.704   4.113
21158SOL     OW63723   7.562   6.824   2.025
21158SOL    HW163724   7.515   6.745   2.050
21158SOL    HW263725   7.508   6.896   2.058
21159SOL     OW63726  13.811   6.403   6.766
21159SOL    HW163727  13.881   6.422   6.829
21159SOL    HW263728  13.784   6.488   6.733
21160SOL     OW63729   9.586  12.347   3.347
21160SOL    HW163730   9.591  12.287   3.421
21160SOL    HW263731   9.494  12.370   3.342
21161SOL     OW63732   6.482   4.270   3.694
21161SOL    HW163733   6.566   4.277   3.649
21161SOL    HW263734   6.443   4.357   3.685
21162SOL     OW63735   9.232   7.847   7.551
21162SOL    HW163736   9.235   7.928   7.603
21162SOL    HW263737   9.142   7.842   7.519
21163SOL     OW63738   5.540   4.214   0.637
21163SOL    HW163739   5.569   4.135   0.683
21163SOL    HW263740   5.490   4.182   0.562
21164SOL     OW63741   3.252   8.990   0.679
21164SOL    HW163742   3.346   8.987   0.698
21164SOL    HW263743   3.246   8.980   0.584
21165SOL     OW63744   6.821   8.250   2.803
21165SOL    HW163745   6.728   8.246   2.825
21165SOL    HW263746   6.865   8.255   2.887
21166SOL     OW63747  10.924  11.498   6.451
21166SOL    HW163748  10.973  11.534   6.525
21166SOL    HW263749  10.991  11.460   6.394
21167SOL     OW63750  14.133   6.359   7.019
21167SOL    HW163751  14.086   6.418   6.960
21167SOL    HW263752  14.225   6.380   7.006
21168SOL     OW63753   2.867   6.008   0.424
21168SOL    HW163754   2.863   5.989   0.517
21168SOL    HW263755   2.904   5.929   0.384
21169SOL     OW63756   5.037   9.631   5.750
21169SOL    HW163757   5.059   9.717   5.786
21169SOL    HW263758   5.103   9.616   5.682
21170SOL     OW63759  12.497   4.136   2.648
21170SOL    HW163760  12.411   4.173   2.671
21170SOL    HW263761  12.514   4.170   2.560
21171SOL     OW63762  13.753   5.965   7.377
21171SOL    HW163763  13.786   6.051   7.405
21171SOL    HW263764  13.698   5.984   7.302
21172SOL     OW63765  12.554   8.929   2.586
21172SOL    HW163766  12.613   9.001   2.606
21172SOL    HW263767  12.601   8.850   2.612
21173SOL     OW63768   9.132  14.150   7.407
21173SOL    HW163769   9.146  14.153   7.312
21173SOL    HW263770   9.159  14.062   7.432
21174SOL     OW63771  12.739  10.337   6.489
21174SOL    HW163772  12.709  10.390   6.415
21174SOL    HW263773  12.764  10.253   6.449
21175SOL     OW63774   8.307   8.966   7.560
21175SOL    HW163775   8.310   9.049   7.608
21175SOL    HW263776   8.282   8.991   7.471
21176SOL     OW63777   5.652   4.300   0.022
21176SOL    HW163778   5.612   4.297   0.109
21176SOL    HW263779   5.705   4.220   0.017
21177SOL     OW63780   8.748   9.815   6.149
21177SOL    HW163781   8.812   9.805   6.219
21177SOL    HW263782   8.721   9.907   6.155
21178SOL     OW63783   6.738   7.422   7.616
21178SOL    HW163784   1.309   1.983   0.066
21178SOL    HW263785   1.395   2.105   0.044
21179SOL     OW63786   7.522  11.722   3.708
21179SOL    HW163787   7.527  11.815   3.727
21179SOL    HW263788   7.465  11.686   3.776
21180SOL     OW63789   2.124   3.018   1.893
21180SOL    HW163790   2.159   3.043   1.808
21180SOL    HW263791   2.197   3.033   1.954
21181SOL     OW63792  14.109  10.428   7.284
21181SOL    HW163793  14.163  10.407   7.360
21181SOL    HW263794  14.170  10.466   7.221
21182SOL     OW63795   2.926  10.185   4.086
21182SOL    HW163796  13.718  10.144   4.170
21182SOL    HW263797   2.998  10.246   4.073
21183SOL     OW63798   7.677   8.700   1.762
21183SOL    HW163799   7.755   8.727   1.713
21183SOL    HW263800   7.637   8.631   1.708
21184SOL     OW63801  11.451   9.727   1.065
21184SOL    HW163802  11.421   9.647   1.109
21184SOL    HW263803   0.750   9.698   1.012
21185SOL     OW63804   6.193  11.804   3.897
21185SOL    HW163805   6.164  11.802   3.988
21185SOL    HW263806   6.139  11.738   3.853
21186SOL     OW63807   9.779  10.442   4.633
21186SOL    HW163808   9.776  10.534   4.660
21186SOL    HW263809   9.855  10.437   4.574
21187SOL     OW63810   9.855   5.446   2.887
21187SOL    HW163811   9.822   5.530   2.857
21187SOL    HW263812   9.946   5.444   2.858
21188SOL     OW63813   4.374  10.449   5.649
21188SOL    HW163814   4.455  10.401   5.668
21188SOL    HW263815   4.404  10.535   5.622
21189SOL     OW63816  14.511   6.448   7.481
21189SOL    HW163817  14.427   6.413   7.509
21189SOL    HW263818  14.531   6.516   7.546
21190SOL     OW63819   9.799   5.639   4.975
21190SOL    HW163820   9.891   5.651   4.996
21190SOL    HW263821   9.754   5.640   5.060
21191SOL     OW63822   2.754   1.759   0.783
21191SOL    HW163823   2.717   1.831   0.835
21191SOL    HW263824   2.678   1.708   0.755
21192SOL     OW63825   7.781   5.344   3.090
21192SOL    HW163826   7.845   5.300   3.148
21192SOL    HW263827   7.824   5.346   3.005
21193SOL     OW63828   8.949  15.203   7.151
21193SOL    HW163829   8.990  15.233   7.233
21193SOL    HW263830   8.991  15.119   7.133
21194SOL     OW63831   5.310   8.684   4.316
21194SOL    HW163832   5.244   8.728   4.263
21194SOL    HW263833   5.369   8.644   4.252
21195SOL     OW63834   3.491   8.393   1.699
21195SOL    HW163835   3.480   8.466   1.760
21195SOL    HW263836   3.584   8.395   1.676
21196SOL     OW63837   9.606   4.185   0.360
21196SOL    HW163838   9.612   4.205   0.453
21196SOL    HW263839   9.688   4.139   0.340
21197SOL     OW63840   7.298   9.117   2.114
21197SOL    HW163841   7.307   9.171   2.193
21197SOL    HW263842   7.224   9.155   2.067
21198SOL     OW63843   6.165   5.909   1.988
21198SOL    HW163844   6.150   5.962   2.066
21198SOL    HW263845   6.184   5.973   1.919
21199SOL     OW63846   2.955   5.487   1.522
21199SOL    HW163847   3.009   5.563   1.501
21199SOL    HW263848   2.955   5.435   1.441
21200SOL     OW63849   7.641   8.582   5.861
21200SOL    HW163850   7.638   8.677   5.849
21200SOL    HW263851   7.653   8.547   5.773
21201SOL     OW63852  12.509  12.817   6.552
21201SOL    HW163853  12.538  12.728   6.573
21201SOL    HW263854  12.414  12.814   6.559
21202SOL     OW63855   3.315   5.340   1.859
21202SOL    HW163856   3.410   5.351   1.851
21202SOL    HW263857   3.305   5.268   1.922
21203SOL     OW63858   5.903   7.277   5.739
21203SOL    HW163859   5.827   7.226   5.710
21203SOL    HW263860   5.872   7.368   5.740
21204SOL     OW63861   6.171   1.554   1.770
21204SOL    HW163862   6.095   1.516   1.726
21204SOL    HW263863   6.188   1.494   1.843
21205SOL     OW63864   6.885   6.024   6.183
21205SOL    HW163865   6.856   5.986   6.267
21205SOL    HW263866   6.820   5.994   6.120
21206SOL     OW63867   8.012   7.432   6.897
21206SOL    HW163868   8.025   7.431   6.803
21206SOL    HW263869   8.073   7.366   6.931
21207SOL     OW63870   6.876   2.919   1.052
21207SOL    HW163871   6.788   2.956   1.046
21207SOL    HW263872   6.891   2.907   1.146
21208SOL     OW63873  13.494  10.867   6.053
21208SOL    HW163874  13.494  10.773   6.036
21208SOL    HW263875  13.576  10.884   6.099
21209SOL     OW63876  14.960   5.673   6.714
21209SOL    HW163877  14.949   5.765   6.691
21209SOL    HW263878  14.937   5.668   6.806
21210SOL     OW63879   1.205   6.348   0.545
21210SOL    HW163880   1.173   6.363   0.456
21210SOL    HW263881   1.289   6.394   0.548
21211SOL     OW63882   2.669   3.364   1.377
21211SOL    HW163883   2.702   3.437   1.324
21211SOL    HW263884   2.723   3.366   1.456
21212SOL     OW63885  10.687   7.440   2.151
21212SOL    HW163886  10.700   7.345   2.150
21212SOL    HW263887  10.718   7.469   2.066
21213SOL     OW63888   5.168   4.868   2.617
21213SOL    HW163889   5.216   4.951   2.613
21213SOL    HW263890   5.192   4.823   2.535
21214SOL     OW63891   8.462   5.978   5.231
21214SOL    HW163892   8.493   5.906   5.176
21214SOL    HW263893   8.517   6.052   5.206
21215SOL     OW63894   5.581   5.327   7.224
21215SOL    HW163895   5.488   5.348   7.226
21215SOL    HW263896   5.623   5.397   7.273
21216SOL     OW63897  13.537   8.476   4.517
21216SOL    HW163898  13.528   8.385   4.544
21216SOL    HW263899  13.448   8.512   4.523
21217SOL     OW63900   7.716   3.936   1.676
21217SOL    HW163901   7.699   3.910   1.585
21217SOL    HW263902   7.690   4.028   1.679
21218SOL     OW63903  10.407   9.635   1.455
21218SOL    HW163904  10.494   9.594   1.462
21218SOL    HW263905  10.426   9.728   1.442
21219SOL     OW63906  13.612  13.581   6.650
21219SOL    HW163907  13.516  13.575   6.649
21219SOL    HW263908  13.631  13.674   6.642
21220SOL     OW63909   9.748   4.089   4.422
21220SOL    HW163910   9.724   4.024   4.356
21220SOL    HW263911   9.694   4.067   4.498
21221SOL     OW63912   8.453  11.229   7.376
21221SOL    HW163913   8.538  11.273   7.374
21221SOL    HW263914   8.472  11.137   7.357
21222SOL     OW63915  10.125   3.632   0.183
21222SOL    HW163916  10.143   3.571   0.112
21222SOL    HW263917  10.161   3.715   0.153
21223SOL     OW63918   4.306  12.756   4.750
21223SOL    HW163919   4.325  12.689   4.816
21223SOL    HW263920   4.216  12.783   4.770
21224SOL     OW63921   3.292  11.648   3.779
21224SOL    HW163922   3.273  11.555   3.767
21224SOL    HW263923   3.376  11.661   3.737
21225SOL     OW63924   6.619   7.739   4.916
21225SOL    HW163925   6.627   7.822   4.869
21225SOL    HW263926   6.547   7.752   4.977
21226SOL     OW63927   3.437   8.274   0.694
21226SOL    HW163928   3.411   8.190   0.657
21226SOL    HW263929   3.384   8.284   0.772
21227SOL     OW63930  10.047  10.007   6.754
21227SOL    HW163931   9.975  10.035   6.811
21227SOL    HW263932  10.007  10.001   6.667
21228SOL     OW63933  12.396   9.976   6.441
21228SOL    HW163934  12.396  10.058   6.392
21228SOL    HW263935  12.478   9.933   6.416
21229SOL     OW63936  10.253   6.674   1.432
21229SOL    HW163937  10.332   6.678   1.485
21229SOL    HW263938  10.274   6.612   1.362
21230SOL     OW63939  12.798  12.786   6.595
21230SOL    HW163940  12.792  12.698   6.560
21230SOL    HW263941  12.727  12.835   6.553
21231SOL     OW63942   4.458   5.043   5.013
21231SOL    HW163943   4.546   5.042   5.051
21231SOL    HW263944   4.423   4.956   5.032
21232SOL     OW63945  13.237   8.057   4.776
21232SOL    HW163946  13.234   8.143   4.818
21232SOL    HW263947  13.232   7.995   4.849
21233SOL     OW63948   8.084   7.549   6.009
21233SOL    HW163949   7.999   7.587   5.986
21233SOL    HW263950   8.138   7.560   5.930
21234SOL     OW63951  10.222  10.530   4.724
21234SOL    HW163952  10.301  10.569   4.762
21234SOL    HW263953  10.238  10.435   4.730
21235SOL     OW63954   9.139  12.217   2.277
21235SOL    HW163955   9.159  12.133   2.237
21235SOL    HW263956   9.163  12.282   2.211
21236SOL     OW63957   5.525  13.314   4.663
21236SOL    HW163958   5.448  13.369   4.674
21236SOL    HW263959   5.555  13.333   4.574
21237SOL     OW63960  10.086  11.473   5.781
21237SOL    HW163961  10.069  11.477   5.687
21237SOL    HW263962  10.086  11.380   5.802
21238SOL     OW63963   2.795   8.935   1.038
21238SOL    HW163964   2.809   9.029   1.031
21238SOL    HW263965   2.735   8.915   0.966
21239SOL     OW63966   3.589   7.678   1.009
21239SOL    HW163967   3.679   7.649   1.025
21239SOL    HW263968   3.537   7.627   1.071
21240SOL     OW63969  11.471  14.776   6.788
21240SOL    HW163970  11.424  14.726   6.722
21240SOL    HW263971  11.535  14.714   6.824
21241SOL     OW63972   9.526   7.629   7.025
21241SOL    HW163973   9.610   7.599   6.990
21241SOL    HW263974   9.460   7.590   6.967
21242SOL     OW63975  12.126  14.705   7.493
21242SOL    HW163976  12.116  14.612   7.473
21242SOL    HW263977  12.059  14.724   7.558
21243SOL     OW63978  10.358   9.342   1.402
21243SOL    HW163979  10.392   9.431   1.409
21243SOL    HW263980  10.433   9.290   1.373
21244SOL     OW63981   8.211  10.845   2.740
21244SOL    HW163982   8.252  10.764   2.709
21244SOL    HW263983   8.231  10.848   2.833
21245SOL     OW63984   7.882  10.578   4.294
21245SOL    HW163985   7.954  10.636   4.316
21245SOL    HW263986   7.804  10.634   4.296
21246SOL     OW63987   6.417   1.603   2.265
21246SOL    HW163988   6.412  12.293   2.219
21246SOL    HW263989   6.351  12.370   2.334
21247SOL     OW63990  13.498  11.152   5.831
21247SOL    HW163991  13.475  11.082   5.892
21247SOL    HW263992  13.452  11.229   5.863
21248SOL     OW63993   6.366   9.040   6.580
21248SOL    HW163994   6.420   8.996   6.515
21248SOL    HW263995   6.412   9.122   6.598
21249SOL     OW63996   1.327   6.231   1.170
21249SOL    HW163997   1.354   6.171   1.239
21249SOL    HW263998   1.410   6.259   1.129
21250SOL     OW63999   7.265   3.656   2.048
21250SOL    HW164000   7.183   3.624   2.086
21250SOL    HW264001   7.333   3.611   2.098
21251SOL     OW64002   8.368   9.853   0.641
21251SOL    HW164003   8.434   9.875   0.574
21251SOL    HW264004   8.373   9.758   0.648
21252SOL     OW64005   4.520   5.712   6.230
21252SOL    HW164006   4.547   5.685   6.317
21252SOL    HW264007   4.474   5.636   6.194
21253SOL     OW64008   3.656   3.679   3.328
21253SOL    HW164009   3.669   3.773   3.314
21253SOL    HW264010   3.597   3.674   3.403
21254SOL     OW64011   4.389   8.422   1.559
21254SOL    HW164012   4.439   8.499   1.534
21254SOL    HW264013   4.308   8.428   1.508
21255SOL     OW64014   9.611  11.027   3.929
21255SOL    HW164015   9.564  11.093   3.877
21255SOL    HW264016   9.630  11.071   4.012
21256SOL     OW64017  13.189   4.098   5.544
21256SOL    HW164018  13.205   4.027   5.606
21256SOL    HW264019  13.266   4.154   5.551
21257SOL     OW64020  13.181  11.778   6.232
21257SOL    HW164021  13.131  11.737   6.162
21257SOL    HW264022  13.215  11.859   6.194
21258SOL     OW64023   8.284  11.439   5.974
21258SOL    HW164024   8.294  11.352   6.014
21258SOL    HW264025   8.192  11.461   5.988
21259SOL     OW64026   8.784  13.203   6.733
21259SOL    HW164027   8.776  13.246   6.648
21259SOL    HW264028   8.851  13.136   6.720
21260SOL     OW64029   8.096   1.872   1.120
21260SOL    HW164030   8.089   1.784   1.083
21260SOL    HW264031   8.015   1.884   1.169
21261SOL     OW64032  10.983   7.337   5.810
21261SOL    HW164033  10.979   7.414   5.753
21261SOL    HW264034  10.940   7.364   5.891
21262SOL     OW64035  10.745  11.329   3.033
21262SOL    HW164036  10.821  11.362   2.984
21262SOL    HW264037  10.740  11.237   3.010
21263SOL     OW64038   5.843   9.552   3.247
21263SOL    HW164039   5.825   9.502   3.327
21263SOL    HW264040   5.763   9.547   3.196
21264SOL     OW64041   7.822   5.387   3.680
21264SOL    HW164042   7.766   5.465   3.682
21264SOL    HW264043   7.799   5.343   3.598
21265SOL     OW64044   9.379  12.302   3.937
21265SOL    HW164045   9.321  12.364   3.893
21265SOL    HW264046   9.321  12.244   3.986
21266SOL     OW64047  11.711   5.730   5.797
21266SOL    HW164048  11.621   5.704   5.779
21266SOL    HW264049  11.708   5.826   5.796
21267SOL     OW64050   7.561  10.897   1.031
21267SOL    HW164051   7.536  10.823   0.975
21267SOL    HW264052   7.479  10.943   1.049
21268SOL     OW64053   3.901  11.192   4.792
21268SOL    HW164054   3.908  11.097   4.798
21268SOL    HW264055   3.810  11.211   4.815
21269SOL     OW64056  11.796   5.924   5.973
21269SOL    HW164057  11.709   5.940   5.937
21269SOL    HW264058  11.856   5.975   5.918
21270SOL     OW64059  10.248   5.995   1.924
21270SOL    HW164060  10.189   5.984   1.849
21270SOL    HW264061  10.257   6.090   1.933
21271SOL     OW64062   3.436  10.724   2.218
21271SOL    HW164063   3.465  10.674   2.294
21271SOL    HW264064   3.516  10.765   2.184
21272SOL     OW64065   9.151  12.244   4.805
21272SOL    HW164066   9.151  12.299   4.727
21272SOL    HW264067   9.098  12.292   4.869
21273SOL     OW64068  11.262  12.466   4.447
21273SOL    HW164069  11.190  12.494   4.391
21273SOL    HW264070  11.338  12.514   4.414
21274SOL     OW64071  12.350   3.628   3.323
21274SOL    HW164072  12.294   3.611   3.399
21274SOL    HW264073  12.413   3.556   3.323
21275SOL     OW64074   6.549   7.842   7.548
21275SOL    HW164075   6.637   7.877   7.563
21275SOL    HW264076   1.135   2.421   0.015
21276SOL     OW64077  13.345   4.336   4.651
21276SOL    HW164078  13.431   4.374   4.633
21276SOL    HW264079  13.351   4.301   4.740
21277SOL     OW64080  13.333   8.024   6.592
21277SOL    HW164081  13.290   8.039   6.676
21277SOL    HW264082  13.390   7.948   6.607
21278SOL     OW64083   8.975   6.082   6.611
21278SOL    HW164084   8.995   6.031   6.532
21278SOL    HW264085   9.058   6.120   6.637
21279SOL     OW64086   4.041   1.389   1.535
21279SOL    HW164087   4.092   1.449   1.590
21279SOL    HW264088   3.974   1.445   1.495
21280SOL     OW64089  12.989   4.213   4.506
21280SOL    HW164090  12.952   4.301   4.515
21280SOL    HW264091  13.025   4.193   4.592
21281SOL     OW64092   5.930  14.213   6.851
21281SOL    HW164093   5.871  14.142   6.877
21281SOL    HW264094   5.903  14.287   6.905
21282SOL     OW64095   9.434   8.512   1.973
21282SOL    HW164096   9.419   8.470   1.889
21282SOL    HW264097   9.363   8.577   1.981
21283SOL     OW64098   4.094  12.771   5.627
21283SOL    HW164099   4.095  12.854   5.578
21283SOL    HW264100   4.071  12.797   5.716
21284SOL     OW64101   7.060   1.743   0.743
21284SOL    HW164102   7.095   1.799   0.812
21284SOL    HW264103   6.976   1.782   0.720
21285SOL     OW64104  12.108   6.689   3.173
21285SOL    HW164105  12.106   6.747   3.249
21285SOL    HW264106  12.149   6.609   3.206
21286SOL     OW64107  10.918   9.365   5.126
21286SOL    HW164108  10.892   9.274   5.116
21286SOL    HW264109  10.948   9.371   5.217
21287SOL     OW64110   9.705   7.322   5.753
21287SOL    HW164111   9.732   7.270   5.677
21287SOL    HW264112   9.689   7.410   5.719
21288SOL     OW64113   8.925   7.057   1.040
21288SOL    HW164114   8.939   7.151   1.029
21288SOL    HW264115   8.868   7.050   1.117
21289SOL     OW64116   4.321   7.369   0.091
21289SOL    HW164117   4.369   7.291   0.061
21289SOL    HW264118   4.383   7.441   0.078
21290SOL     OW64119   6.056   9.801   5.894
21290SOL    HW164120   6.073   9.815   5.801
21290SOL    HW264121   5.967   9.834   5.907
21291SOL     OW64122   7.898   3.343   3.145
21291SOL    HW164123   7.986   3.321   3.112
21291SOL    HW264124   7.854   3.258   3.152
21292SOL     OW64125  10.536  13.657   4.168
21292SOL    HW164126  10.457  13.708   4.180
21292SOL    HW264127  10.529  13.622   4.079
21293SOL     OW64128   9.222   5.757   1.417
21293SOL    HW164129   9.216   5.702   1.495
21293SOL    HW264130   9.132   5.762   1.384
21294SOL     OW64131  10.167   8.876   5.316
21294SOL    HW164132  10.241   8.833   5.359
21294SOL    HW264133  10.090   8.828   5.347
21295SOL     OW64134   4.780   2.954   3.203
21295SOL    HW164135   4.742   3.023   3.148
21295SOL    HW264136   4.711   2.889   3.211
21296SOL     OW64137   2.574  11.139   0.980
21296SOL    HW164138   2.511  11.139   0.908
21296SOL    HW264139   2.636  11.208   0.957
21297SOL     OW64140   5.557  11.957   3.324
21297SOL    HW164141   5.561  11.900   3.247
21297SOL    HW264142   5.546  11.898   3.398
21298SOL     OW64143   4.676   5.264   0.924
21298SOL    HW164144   4.648   5.176   0.946
21298SOL    HW264145   4.738   5.252   0.852
21299SOL     OW64146   8.966   7.912   3.826
21299SOL    HW164147   8.935   7.967   3.753
21299SOL    HW264148   8.960   7.823   3.792
21300SOL     OW64149  15.469   8.160   7.603
21300SOL    HW164150  15.394   8.219   7.608
21300SOL    HW264151  10.140   2.803   0.054
21301SOL     OW64152  13.618   8.613   5.079
21301SOL    HW164153  13.545   8.550   5.078
21301SOL    HW264154  13.592   8.680   5.017
21302SOL     OW64155   7.885   8.614   2.089
21302SOL    HW164156   7.807   8.636   2.140
21302SOL    HW264157   7.920   8.535   2.131
21303SOL     OW64158   8.525   9.688   1.397
21303SOL    HW164159   8.556   9.631   1.467
21303SOL    HW264160   8.566   9.653   1.318
21304SOL     OW64161  12.229   5.415   7.166
21304SOL    HW164162  12.307   5.362   7.181
21304SOL    HW264163  12.171   5.394   7.239
21305SOL     OW64164  11.447   6.137   7.072
21305SOL    HW164165  11.445   6.094   7.158
21305SOL    HW264166  11.361   6.118   7.034
21306SOL     OW64167   2.946   5.397   1.255
21306SOL    HW164168   2.982   5.407   1.167
21306SOL    HW264169   2.889   5.320   1.249
21307SOL     OW64170   4.964   9.842   0.596
21307SOL    HW164171   4.929   9.787   0.527
21307SOL    HW264172   4.912   9.923   0.591
21308SOL     OW64173   3.723   8.164   1.158
21308SOL    HW164174   3.706   8.162   1.253
21308SOL    HW264175   3.651   8.113   1.120
21309SOL     OW64176   4.695   6.389   5.133
21309SOL    HW164177   4.762   6.443   5.175
21309SOL    HW264178   4.640   6.359   5.206
21310SOL     OW64179   5.634   3.841   4.394
21310SOL    HW164180   5.548   3.873   4.367
21310SOL    HW264181   5.684   3.834   4.313
21311SOL     OW64182  10.622  12.238   4.332
21311SOL    HW164183  10.628  12.266   4.423
21311SOL    HW264184  10.607  12.144   4.337
21312SOL     OW64185   8.073   5.860   6.176
21312SOL    HW164186   8.146   5.812   6.215
21312SOL    HW264187   7.998   5.839   6.231
21313SOL     OW64188   7.786  12.844   4.330
21313SOL    HW164189   7.703  12.852   4.377
21313SOL    HW264190   7.845  12.903   4.377
21314SOL     OW64191   5.639  11.449   1.883
21314SOL    HW164192   5.671  11.399   1.959
21314SOL    HW264193   5.602  11.382   1.825
21315SOL     OW64194   7.179   5.926   7.615
21315SOL    HW164195   7.177   5.848   7.560
21315SOL    HW264196   1.879   0.538   0.035
21316SOL     OW64197   6.595   3.747   2.549
21316SOL    HW164198   6.575   3.732   2.456
21316SOL    HW264199   6.555   3.673   2.594
21317SOL     OW64200   3.545  10.093   1.267
21317SOL    HW164201   3.638  10.075   1.253
21317SOL    HW264202   3.540  10.127   1.356
21318SOL     OW64203  13.606  14.930   6.473
21318SOL    HW164204  13.685  14.941   6.420
21318SOL    HW264205  13.560  15.013   6.466
21319SOL     OW64206   8.694  11.228   7.172
21319SOL    HW164207   8.785  11.242   7.197
21319SOL    HW264208   8.664  11.158   7.230
21320SOL     OW64209   3.283   9.248   4.582
21320SOL    HW164210   3.311   9.194   4.508
21320SOL    HW264211   3.323   9.333   4.568
21321SOL     OW64212   9.830   5.036   4.857
21321SOL    HW164213   9.826   4.941   4.845
21321SOL    HW264214   9.852   5.070   4.770
21322SOL     OW64215   8.016  12.461   3.829
21322SOL    HW164216   7.960  12.466   3.751
21322SOL    HW264217   7.958  12.433   3.899
21323SOL     OW64218   8.421   4.842   2.619
21323SOL    HW164219   8.401   4.753   2.649
21323SOL    HW264220   8.337   4.888   2.625
21324SOL     OW64221   6.445   8.803   2.512
21324SOL    HW164222   6.409   8.782   2.598
21324SOL    HW264223   6.504   8.730   2.492
21325SOL     OW64224   4.926   5.988   6.470
21325SOL    HW164225   4.907   5.933   6.546
21325SOL    HW264226   5.011   5.955   6.438
21326SOL     OW64227  11.667   5.220   1.472
21326SOL    HW164228  11.679   5.226   1.567
21326SOL    HW264229  11.755   5.229   1.436
21327SOL     OW64230  10.505  11.899   3.594
21327SOL    HW164231  10.417  11.865   3.576
21327SOL    HW264232  10.510  11.980   3.543
21328SOL     OW64233   8.538   4.774   3.231
21328SOL    HW164234   8.568   4.863   3.211
21328SOL    HW264235   8.605   4.739   3.289
21329SOL     OW64236   9.052   9.020   3.130
21329SOL    HW164237   9.017   9.102   3.097
21329SOL    HW264238   9.042   9.025   3.225
21330SOL     OW64239   4.196   2.856   1.142
21330SOL    HW164240   4.152   2.804   1.076
21330SOL    HW264241   4.240   2.792   1.198
21331SOL     OW64242   9.176  14.076   6.722
21331SOL    HW164243   9.191  14.096   6.630
21331SOL    HW264244   9.088  14.108   6.741
21332SOL     OW64245  10.865  11.288   2.354
21332SOL    HW164246  10.872  11.374   2.312
21332SOL    HW264247  10.781  11.290   2.400
21333SOL     OW64248  13.418   8.735   4.524
21333SOL    HW164249  13.350   8.801   4.530
21333SOL    HW264250  13.489   8.768   4.580
21334SOL     OW64251   7.716   8.646   0.549
21334SOL    HW164252   7.753   8.612   0.467
21334SOL    HW264253   7.791   8.652   0.608
21335SOL     OW64254   8.601   2.770   0.550
21335SOL    HW164255   8.566   2.836   0.609
21335SOL    HW264256   8.646   2.708   0.607
21336SOL     OW64257   6.034   5.700   4.321
21336SOL    HW164258   6.061   5.614   4.290
21336SOL    HW264259   6.087   5.762   4.269
21337SOL     OW64260  12.571   5.718   4.296
21337SOL    HW164261  12.666   5.713   4.286
21337SOL    HW264262  12.548   5.645   4.353
21338SOL     OW64263  11.023   7.831   3.032
21338SOL    HW164264  11.076   7.908   3.052
21338SOL    HW264265  11.085   7.766   3.000
21339SOL     OW64266   7.182  14.077   6.695
21339SOL    HW164267   7.090  14.056   6.682
21339SOL    HW264268   7.229  14.013   6.643
21340SOL     OW64269   9.755   7.126   0.051
21340SOL    HW164270   9.798   7.207   0.024
21340SOL    HW264271   9.724   7.144   0.140
21341SOL     OW64272  10.130   8.676   2.047
21341SOL    HW164273  10.113   8.706   2.136
21341SOL    HW264274  10.054   8.707   1.997
21342SOL     OW64275   2.973   9.382   2.809
21342SOL    HW164276   2.983   9.294   2.844
21342SOL    HW264277   3.042   9.389   2.743
21343SOL     OW64278   8.337  12.559   6.919
21343SOL    HW164279   8.406  12.614   6.955
21343SOL    HW264280   8.301  12.513   6.995
21344SOL     OW64281  13.158   6.156   5.192
21344SOL    HW164282  13.171   6.062   5.176
21344SOL    HW264283  13.195   6.198   5.114
21345SOL     OW64284  11.414  12.399   7.398
21345SOL    HW164285  11.488  12.337   7.393
21345SOL    HW264286  11.358  12.373   7.325
21346SOL     OW64287   4.449   3.800   2.579
21346SOL    HW164288   4.540   3.787   2.553
21346SOL    HW264289   4.453   3.821   2.672
21347SOL     OW64290   7.337   7.825   3.287
21347SOL    HW164291   7.343   7.763   3.214
21347SOL    HW264292   7.421   7.871   3.286
21348SOL     OW64293   2.523   5.182   2.075
21348SOL    HW164294   2.616   5.176   2.096
21348SOL    HW264295   2.512   5.126   1.998
21349SOL     OW64296   5.962   9.281   6.957
21349SOL    HW164297   5.996   9.243   6.876
21349SOL    HW264298   6.039   9.311   7.004
21350SOL     OW64299  15.703  15.703   7.572
21350SOL    HW164300  15.709  15.777   7.511
21350SOL    HW264301  10.394  10.324   0.008
21351SOL     OW64302  16.099   9.977   7.586
21351SOL    HW164303   5.402   9.922   7.596
21351SOL    HW264304  10.690   4.616   0.057
21352SOL     OW64305   6.438  13.848   5.871
21352SOL    HW164306   6.521  13.884   5.843
21352SOL    HW264307   6.394  13.822   5.790
21353SOL     OW64308   5.886   1.994   2.008
21353SOL    HW164309   5.953   1.978   2.073
21353SOL    HW264310   5.848   2.078   2.032
21354SOL     OW64311   9.011   3.475   1.844
21354SOL    HW164312   8.924   3.445   1.871
21354SOL    HW264313   9.011   3.569   1.865
21355SOL     OW64314   7.576   4.238   3.725
21355SOL    HW164315   7.617   4.157   3.695
21355SOL    HW264316   7.645   4.284   3.773
21356SOL     OW64317   6.645  13.884   6.393
21356SOL    HW164318   6.579  13.818   6.416
21356SOL    HW264319   6.722  13.833   6.369
21357SOL     OW64320   6.669   9.490   5.956
21357SOL    HW164321   6.726   9.548   5.906
21357SOL    HW264322   6.590   9.542   5.973
21358SOL     OW64323   2.389   4.922   3.118
21358SOL    HW164324   2.404   4.892   3.207
21358SOL    HW264325   2.374   4.842   3.068
21359SOL     OW64326   6.055  12.839   3.894
21359SOL    HW164327   6.021  12.757   3.932
21359SOL    HW264328   6.146  12.820   3.874
21360SOL     OW64329  13.380   9.503   5.614
21360SOL    HW164330  13.390   9.479   5.521
21360SOL    HW264331  13.469   9.509   5.647
21361SOL     OW64332   6.062   9.016   0.823
21361SOL    HW164333   6.003   8.996   0.750
21361SOL    HW264334   6.084   8.931   0.860
21362SOL     OW64335   5.657   1.004   0.235
21362SOL    HW164336   5.608   1.030   0.157
21362SOL    HW264337   5.603   1.033   0.308
21363SOL     OW64338  10.985  10.163   2.317
21363SOL    HW164339  11.035  10.232   2.275
21363SOL    HW264340  11.009  10.083   2.269
21364SOL     OW64341   7.732   7.218   4.789
21364SOL    HW164342   7.643   7.238   4.759
21364SOL    HW264343   7.783   7.296   4.769
21365SOL     OW64344   4.441   5.925   4.264
21365SOL    HW164345   4.508   5.983   4.229
21365SOL    HW264346   4.461   5.839   4.227
21366SOL     OW64347   7.937   7.776   3.271
21366SOL    HW164348   7.983   7.854   3.241
21366SOL    HW264349   7.938   7.783   3.367
21367SOL     OW64350   5.434   3.057   0.852
21367SOL    HW164351   5.373   3.025   0.918
21367SOL    HW264352   5.473   3.135   0.892
21368SOL     OW64353  13.973   4.145   5.617
21368SOL    HW164354  14.048   4.169   5.670
21368SOL    HW264355  13.992   4.180   5.530
21369SOL     OW64356   3.165   8.772   0.307
21369SOL    HW164357   3.124   8.815   0.382
21369SOL    HW264358   3.130   8.683   0.308
21370SOL     OW64359  11.611   7.597   4.011
21370SOL    HW164360  11.648   7.606   4.098
21370SOL    HW264361  11.675   7.545   3.963
21371SOL     OW64362   5.563  10.625   3.968
21371SOL    HW164363   5.532  10.535   3.970
21371SOL    HW264364   5.609  10.633   3.885
21372SOL     OW64365  10.620  12.026   3.227
21372SOL    HW164366  10.596  11.934   3.228
21372SOL    HW264367  10.536  12.073   3.231
21373SOL     OW64368  11.519  13.402   4.923
21373SOL    HW164369  11.524  13.308   4.938
21373SOL    HW264370  11.496  13.439   5.009
21374SOL     OW64371   3.386   8.697   1.553
21374SOL    HW164372   3.302   8.731   1.522
21374SOL    HW264373   3.376   8.687   1.647
21375SOL     OW64374   9.731  12.384   3.738
21375SOL    HW164375   9.763  12.315   3.796
21375SOL    HW264376   9.790  12.457   3.754
21376SOL     OW64377   3.222   4.438   3.734
21376SOL    HW164378   3.198   4.521   3.775
21376SOL    HW264379   3.258   4.386   3.806
21377SOL     OW64380   8.114  10.931   7.128
21377SOL    HW164381   8.024  10.909   7.103
21377SOL    HW264382   8.167  10.904   7.054
21378SOL     OW64383  12.429  13.884   6.973
21378SOL    HW164384  12.498  13.876   7.038
21378SOL    HW264385  12.352  13.845   7.014
21379SOL     OW64386   6.734   8.878   4.126
21379SOL    HW164387   6.698   8.842   4.207
21379SOL    HW264388   6.771   8.802   4.081
21380SOL     OW64389  10.809   4.556   0.647
21380SOL    HW164390  10.787   4.589   0.560
21380SOL    HW264391  10.804   4.632   0.704
21381SOL     OW64392   5.318   7.543   3.918
21381SOL    HW164393   5.330   7.459   3.874
21381SOL    HW264394   5.399   7.592   3.900
21382SOL     OW64395   3.936   5.273   3.740
21382SOL    HW164396   3.864   5.337   3.743
21382SOL    HW264397   4.010   5.322   3.704
21383SOL     OW64398  11.944  15.043   6.852
21383SOL    HW164399  11.924  15.077   6.765
21383SOL    HW264400  11.942  14.948   6.841
21384SOL     OW64401   7.859  10.865   7.472
21384SOL    HW164402   7.927  10.827   7.528
21384SOL    HW264403   7.827  10.791   7.419
21385SOL     OW64404   3.210   8.526   2.572
21385SOL    HW164405   3.270   8.532   2.498
21385SOL    HW264406   3.233   8.600   2.628
21386SOL     OW64407   7.218   7.452   0.135
21386SOL    HW164408   7.260   7.520   0.186
21386SOL    HW264409   7.274   7.375   0.146
21387SOL     OW64410   8.939   4.732   0.607
21387SOL    HW164411   8.915   4.746   0.698
21387SOL    HW264412   8.950   4.638   0.599
21388SOL     OW64413  15.251  12.491   7.091
21388SOL    HW164414  15.167  12.529   7.068
21388SOL    HW264415  15.294  12.475   7.007
21389SOL     OW64416   4.751  10.250   6.472
21389SOL    HW164417   4.797  10.292   6.544
21389SOL    HW264418   4.805  10.270   6.395
21390SOL     OW64419   8.244   5.048   6.080
21390SOL    HW164420   8.218   5.132   6.041
21390SOL    HW264421   8.339   5.049   6.075
21391SOL     OW64422   7.396   8.256   6.287
21391SOL    HW164423   7.428   8.271   6.376
21391SOL    HW264424   7.304   8.231   6.298
21392SOL     OW64425  12.117   6.921   3.350
21392SOL    HW164426  12.125   7.001   3.403
21392SOL    HW264427  12.202   6.912   3.307
21393SOL     OW64428   7.024   5.569   4.565
21393SOL    HW164429   6.930   5.560   4.575
21393SOL    HW264430   7.036   5.660   4.536
21394SOL     OW64431   4.190   5.580   1.197
21394SOL    HW164432   4.278   5.588   1.232
21394SOL    HW264433   4.186   5.645   1.127
21395SOL     OW64434   9.452   6.511   1.567
21395SOL    HW164435   9.414   6.444   1.510
21395SOL    HW264436   9.421   6.594   1.531
21396SOL     OW64437   5.461   7.390   2.130
21396SOL    HW164438   5.510   7.383   2.048
21396SOL    HW264439   5.485   7.475   2.166
21397SOL     OW64440   5.945   1.117   0.212
21397SOL    HW164441   5.973   1.196   0.259
21397SOL    HW264442   5.851   1.129   0.199
21398SOL     OW64443   8.108  10.332   1.364
21398SOL    HW164444   8.127  10.267   1.296
21398SOL    HW264445   8.022  10.308   1.397
21399SOL     OW64446  11.045   7.606   4.748
21399SOL    HW164447  11.032   7.701   4.758
21399SOL    HW264448  11.096   7.598   4.667
21400SOL     OW64449   3.720  10.584   1.597
21400SOL    HW164450   3.628  10.557   1.593
21400SOL    HW264451   3.741  10.612   1.508
21401SOL     OW64452   5.883   8.453   7.337
21401SOL    HW164453   5.872   8.413   7.251
21401SOL    HW264454   5.800   8.435   7.383
21402SOL     OW64455   7.595   2.179   1.250
21402SOL    HW164456   7.630   2.264   1.278
21402SOL    HW264457   7.560   2.140   1.330
21403SOL     OW64458  13.385  12.731   7.351
21403SOL    HW164459  13.325  12.796   7.387
21403SOL    HW264460  13.454  12.783   7.310
21404SOL     OW64461  10.373  10.180   4.036
21404SOL    HW164462  10.302  10.148   4.092
21404SOL    HW264463  10.431  10.228   4.094
21405SOL     OW64464  13.668   3.689   4.479
21405SOL    HW164465  13.598   3.727   4.531
21405SOL    HW264466  13.649   3.715   4.389
21406SOL     OW64467  10.132   6.957   4.171
21406SOL    HW164468  10.113   7.046   4.144
21406SOL    HW264469  10.046   6.918   4.187
21407SOL     OW64470   8.073   2.292   1.960
21407SOL    HW164471   7.990   2.332   1.934
21407SOL    HW264472   8.082   2.312   2.053
21408SOL     OW64473   7.843   6.337   0.234
21408SOL    HW164474   7.860   6.338   0.328
21408SOL    HW264475   7.925   6.307   0.194
21409SOL     OW64476   9.568   6.553   7.042
21409SOL    HW164477   9.533   6.482   6.989
21409SOL    HW264478   9.490   6.600   7.074
21410SOL     OW64479   5.875  10.067   0.418
21410SOL    HW164480   5.797  10.053   0.366
21410SOL    HW264481   5.921   9.982   0.415
21411SOL     OW64482   8.142   6.987   6.305
21411SOL    HW164483   8.192   6.907   6.322
21411SOL    HW264484   8.205   7.048   6.267
21412SOL     OW64485   7.243  11.525   4.775
21412SOL    HW164486   7.259  11.461   4.706
21412SOL    HW264487   7.179  11.484   4.832
21413SOL     OW64488   6.313   1.566   1.547
21413SOL    HW164489   6.295   1.492   1.605
21413SOL    HW264490   6.241   1.626   1.561
21414SOL     OW64491   8.800  13.755   6.193
21414SOL    HW164492   8.833  13.845   6.195
21414SOL    HW264493   8.778  13.736   6.284
21415SOL     OW64494  10.374  10.803   4.161
21415SOL    HW164495  10.383  10.719   4.115
21415SOL    HW264496  10.316  10.785   4.234
21416SOL     OW64497  10.520   4.303   2.196
21416SOL    HW164498  10.578   4.368   2.236
21416SOL    HW264499  10.435   4.346   2.194
21417SOL     OW64500   5.014   5.006   3.596
21417SOL    HW164501   4.930   4.984   3.636
21417SOL    HW264502   5.059   5.058   3.662
21418SOL     OW64503  12.264   4.727   4.675
21418SOL    HW164504  12.273   4.718   4.770
21418SOL    HW264505  12.354   4.718   4.641
21419SOL     OW64506   7.769   5.700   7.520
21419SOL    HW164507   7.757   5.742   7.435
21419SOL    HW264508   7.821   5.762   7.571
21420SOL     OW64509  12.934   9.245   3.933
21420SOL    HW164510  12.935   9.186   3.858
21420SOL    HW264511  12.955   9.189   4.008
21421SOL     OW64512   3.362   6.043   3.455
21421SOL    HW164513   3.321   6.129   3.468
21421SOL    HW264514   3.448   6.052   3.495
21422SOL     OW64515   9.408   6.622   5.799
21422SOL    HW164516   9.364   6.697   5.759
21422SOL    HW264517   9.341   6.578   5.850
21423SOL     OW64518  10.810   9.885   1.679
21423SOL    HW164519  10.718   9.903   1.657
21423SOL    HW264520  10.847   9.970   1.702
21424SOL     OW64521  11.081   7.118   1.556
21424SOL    HW164522  11.104   7.052   1.622
21424SOL    HW264523  11.044   7.068   1.483
21425SOL     OW64524  14.296   7.653   6.627
21425SOL    HW164525  14.241   7.669   6.704
21425SOL    HW264526  14.255   7.703   6.557
21426SOL     OW64527   7.027   3.865   2.835
21426SOL    HW164528   7.116   3.838   2.857
21426SOL    HW264529   7.014   3.946   2.885
21427SOL     OW64530   4.667   3.632   4.081
21427SOL    HW164531   4.664   3.682   4.162
21427SOL    HW264532   4.692   3.543   4.108
21428SOL     OW64533  10.550   3.316   3.176
21428SOL    HW164534  10.531   3.263   3.099
21428SOL    HW264535  10.534   3.407   3.148
21429SOL     OW64536   7.925   4.183   3.558
21429SOL    HW164537   7.909   4.148   3.645
21429SOL    HW264538   7.840   4.177   3.514
21430SOL     OW64539   6.466   9.038   2.960
21430SOL    HW164540   6.543   8.980   2.960
21430SOL    HW264541   6.488   9.106   2.896
21431SOL     OW64542   4.031   2.532   2.963
21431SOL    HW164543   4.113   2.572   2.934
21431SOL    HW264544   4.019   2.457   2.904
21432SOL     OW64545   3.426   8.644   1.806
21432SOL    HW164546   3.466   8.601   1.882
21432SOL    HW264547   3.386   8.723   1.843
21433SOL     OW64548   2.745   6.945   1.679
21433SOL    HW164549   2.754   6.897   1.761
21433SOL    HW264550   2.725   7.035   1.706
21434SOL     OW64551  11.817  12.024   7.581
21434SOL    HW164552   6.504   6.645   0.022
21434SOL    HW264553  11.844  11.957   7.518
21435SOL     OW64554  11.557   7.766   7.305
21435SOL    HW164555  11.604   7.683   7.315
21435SOL    HW264556  11.566   7.809   7.390
21436SOL     OW64557   6.756   5.014   0.833
21436SOL    HW164558   6.823   5.079   0.812
21436SOL    HW264559   6.685   5.064   0.874
21437SOL     OW64560   8.883   2.690   0.620
21437SOL    HW164561   8.891   2.738   0.703
21437SOL    HW264562   8.859   2.756   0.556
21438SOL     OW64563   9.987   8.290   4.394
21438SOL    HW164564   9.998   8.328   4.307
21438SOL    HW264565   9.894   8.272   4.401
21439SOL     OW64566   5.860  13.979   6.399
21439SOL    HW164567   5.933  14.037   6.378
21439SOL    HW264568   5.853  13.984   6.495
21440SOL     OW64569   3.801   4.037   1.012
21440SOL    HW164570   3.742   4.011   1.082
21440SOL    HW264571   3.815   4.131   1.025
21441SOL     OW64572   4.937  10.981   4.736
21441SOL    HW164573   5.013  10.935   4.771
21441SOL    HW264574   4.913  11.043   4.805
21442SOL     OW64575   5.784   3.095   1.396
21442SOL    HW164576   5.724   3.021   1.411
21442SOL    HW264577   5.728   3.172   1.401
21443SOL     OW64578   9.534   8.097   3.712
21443SOL    HW164579   9.548   8.056   3.797
21443SOL    HW264580   9.561   8.031   3.649
21444SOL     OW64581   7.944   3.484   2.682
21444SOL    HW164582   7.946   3.573   2.645
21444SOL    HW264583   7.859   3.449   2.655
21445SOL     OW64584   6.212  13.049   4.490
21445SOL    HW164585   6.174  13.061   4.403
21445SOL    HW264586   6.263  12.968   4.483
21446SOL     OW64587   7.232  12.984   4.914
21446SOL    HW164588   7.286  12.908   4.933
21446SOL    HW264589   7.247  13.043   4.988
21447SOL     OW64590  10.713  13.185   6.606
21447SOL    HW164591  10.808  13.191   6.606
21447SOL    HW264592  10.692  13.128   6.680
21448SOL     OW64593  10.742   4.163   0.090
21448SOL    HW164594   0.055   4.189   0.060
21448SOL    HW264595  10.687   4.173   0.012
21449SOL     OW64596  11.755  14.056   6.742
21449SOL    HW164597  11.809  14.129   6.712
21449SOL    HW264598  11.800  14.023   6.820
21450SOL     OW64599   3.993   8.006   5.163
21450SOL    HW164600   4.001   8.052   5.246
21450SOL    HW264601   3.911   8.039   5.125
21451SOL     OW64602  11.485   6.990   2.962
21451SOL    HW164603  11.569   6.962   2.926
21451SOL    HW264604  11.508   7.043   3.038
21452SOL     OW64605   3.004   1.747   1.681
21452SOL    HW164606   3.092   1.725   1.650
21452SOL    HW264607   2.992   1.694   1.760
21453SOL     OW64608  10.046   2.654   2.011
21453SOL    HW164609  10.113   2.661   2.080
21453SOL    HW264610  10.061   2.567   1.973
21454SOL     OW64611   2.716   6.140   1.130
21454SOL    HW164612   2.694   6.050   1.109
21454SOL    HW264613   2.776   6.167   1.060
21455SOL     OW64614  11.468   6.365   4.745
21455SOL    HW164615  11.516   6.303   4.691
21455SOL    HW264616  11.484   6.450   4.704
21456SOL     OW64617   4.693  11.345   3.863
21456SOL    HW164618   4.603  11.317   3.847
21456SOL    HW264619   4.738  11.267   3.895
21457SOL     OW64620   7.405   3.829   0.002
21457SOL    HW164621  12.733   9.141   7.618
21457SOL    HW264622   7.352   3.900   0.039
21458SOL     OW64623   4.454  13.221   5.101
21458SOL    HW164624   4.466  13.130   5.129
21458SOL    HW264625   4.437  13.216   5.007
21459SOL     OW64626   5.356   3.761   1.226
21459SOL    HW164627   5.396   3.779   1.311
21459SOL    HW264628   5.430   3.754   1.166
21460SOL     OW64629   5.570  12.467   5.643
21460SOL    HW164630   5.526  12.511   5.716
21460SOL    HW264631   5.547  12.374   5.655
21461SOL     OW64632   7.937  12.529   5.314
21461SOL    HW164633   7.979  12.573   5.388
21461SOL    HW264634   7.956  12.436   5.328
21462SOL     OW64635   7.025   2.085   2.249
21462SOL    HW164636   7.037   2.135   2.330
21462SOL    HW264637   7.059   1.998   2.269
21463SOL     OW64638   3.851   9.432   1.498
21463SOL    HW164639   3.902   9.353   1.478
21463SOL    HW264640   3.774   9.426   1.442
21464SOL     OW64641  10.419   5.044   4.707
21464SOL    HW164642  10.424   4.957   4.746
21464SOL    HW264643  10.331   5.075   4.726
21465SOL     OW64644  15.011  15.140   6.571
21465SOL    HW164645  15.086  15.118   6.515
21465SOL    HW264646  14.998  15.234   6.557
21466SOL     OW64647   9.651   9.200   0.951
21466SOL    HW164648   9.722   9.141   0.923
21466SOL    HW264649   9.618   9.161   1.032
21467SOL     OW64650   6.652   5.431   0.406
21467SOL    HW164651   6.605   5.508   0.372
21467SOL    HW264652   6.587   5.361   0.404
21468SOL     OW64653  11.618  12.861   5.687
21468SOL    HW164654  11.667  12.887   5.766
21468SOL    HW264655  11.614  12.766   5.692
21469SOL     OW64656   8.336  10.253   6.048
21469SOL    HW164657   8.278  10.186   6.084
21469SOL    HW264658   8.298  10.273   5.962
21470SOL     OW64659   2.111   2.332   0.923
21470SOL    HW164660   2.148   2.421   0.918
21470SOL    HW264661   2.176   2.281   0.971
21471SOL     OW64662   2.535   3.742   3.157
21471SOL    HW164663   2.441   3.730   3.165
21471SOL    HW264664   2.546   3.810   3.091
21472SOL     OW64665   7.274   9.622   2.420
21472SOL    HW164666   7.365   9.603   2.397
21472SOL    HW264667   7.279   9.670   2.503
21473SOL     OW64668   4.213   8.800   1.625
21473SOL    HW164669   4.134   8.762   1.663
21473SOL    HW264670   4.285   8.753   1.666
21474SOL     OW64671   6.010  10.224   0.638
21474SOL    HW164672   5.964  10.202   0.557
21474SOL    HW264673   6.002  10.319   0.645
21475SOL     OW64674   3.769   9.333   2.347
21475SOL    HW164675   3.708   9.261   2.333
21475SOL    HW264676   3.735   9.403   2.291
21476SOL     OW64677  14.040  10.762   7.346
21476SOL    HW164678  13.992  10.845   7.353
21476SOL    HW264679  14.019  10.729   7.259
21477SOL     OW64680   5.150   7.698   4.401
21477SOL    HW164681   5.200   7.676   4.323
21477SOL    HW264682   5.134   7.792   4.394
21478SOL     OW64683   3.684   8.261   0.737
21478SOL    HW164684   3.592   8.283   0.724
21478SOL    HW264685   3.724   8.268   0.651
21479SOL     OW64686  12.492   5.180   5.665
21479SOL    HW164687  12.574   5.205   5.622
21479SOL    HW264688  12.491   5.084   5.659
21480SOL     OW64689  13.500  10.018   5.879
21480SOL    HW164690  13.409   9.989   5.873
21480SOL    HW264691  13.551   9.938   5.889
21481SOL     OW64692   1.212   8.148   1.260
21481SOL    HW164693   1.246   8.063   1.232
21481SOL    HW264694   1.128   8.128   1.300
21482SOL     OW64695   5.610   7.613   1.665
21482SOL    HW164696   5.565   7.571   1.738
21482SOL    HW264697   5.702   7.613   1.692
21483SOL     OW64698   9.561   9.363   0.729
21483SOL    HW164699   9.583   9.317   0.809
21483SOL    HW264700   9.466   9.376   0.734
21484SOL     OW64701   9.175   7.454   7.339
21484SOL    HW164702   9.158   7.361   7.323
21484SOL    HW264703   9.103   7.481   7.396
21485SOL     OW64704  12.058   5.284   6.525
21485SOL    HW164705  12.101   5.218   6.580
21485SOL    HW264706  12.109   5.286   6.444
21486SOL     OW64707   3.818   7.276   4.174
21486SOL    HW164708   3.894   7.221   4.158
21486SOL    HW264709   3.787   7.300   4.086
21487SOL     OW64710   3.371   4.958   0.997
21487SOL    HW164711   3.364   4.964   0.902
21487SOL    HW264712   3.287   4.921   1.024
21488SOL     OW64713   2.327   3.274   1.110
21488SOL    HW164714   2.407   3.264   1.163
21488SOL    HW264715   2.269   3.328   1.163
21489SOL     OW64716   9.814  10.627   0.048
21489SOL    HW164717   9.846  10.537   0.043
21489SOL    HW264718  15.167  16.032   7.579
21490SOL     OW64719   3.793   7.622   1.848
21490SOL    HW164720   3.880   7.656   1.825
21490SOL    HW264721   3.803   7.589   1.937
21491SOL     OW64722   6.296   5.139   0.694
21491SOL    HW164723   6.392   5.138   0.690
21491SOL    HW264724   6.275   5.077   0.764
21492SOL     OW64725  13.383  13.683   7.147
21492SOL    HW164726  13.325  13.609   7.164
21492SOL    HW264727  13.362  13.709   7.057
21493SOL     OW64728  11.574  10.521   1.190
21493SOL    HW164729   0.842  10.564   1.116
21493SOL    HW264730  11.638  10.526   1.261
21494SOL     OW64731   7.798   7.887   4.683
21494SOL    HW164732   7.711   7.849   4.692
21494SOL    HW264733   7.782   7.979   4.663
21495SOL     OW64734   7.538   1.833   1.702
21495SOL    HW164735   7.451   1.843   1.663
21495SOL    HW264736   7.546   1.906   1.763
21496SOL     OW64737  10.086   2.823   0.539
21496SOL    HW164738  10.031   2.760   0.492
21496SOL    HW264739  10.061   2.908   0.504
21497SOL     OW64740  10.397   5.861   0.134
21497SOL    HW164741  10.409   5.955   0.124
21497SOL    HW264742  10.370   5.830   0.048
21498SOL     OW64743   3.224  12.980   4.559
21498SOL    HW164744  13.943  12.932   4.620
21498SOL    HW264745   3.307  12.933   4.559
21499SOL     OW64746   9.239   6.575   0.516
21499SOL    HW164747   9.171   6.542   0.458
21499SOL    HW264748   9.321   6.555   0.470
21500SOL     OW64749   5.934  14.861   6.068
21500SOL    HW164750   5.857  14.830   6.022
21500SOL    HW264751   5.963  14.938   6.018
21501SOL     OW64752   5.670  10.792   2.222
21501SOL    HW164753   5.634  10.876   2.194
21501SOL    HW264754   5.735  10.770   2.156
21502SOL     OW64755   5.105   7.247   1.855
21502SOL    HW164756   5.149   7.175   1.810
21502SOL    HW264757   5.140   7.326   1.814
21503SOL     OW64758   3.070  11.033   1.864
21503SOL    HW164759   3.132  11.092   1.907
21503SOL    HW264760   3.012  11.004   1.934
21504SOL     OW64761   3.755   5.655   1.150
21504SOL    HW164762   3.669   5.675   1.113
21504SOL    HW264763   3.796   5.596   1.087
21505SOL     OW64764   7.135  15.006   6.691
21505SOL    HW164765   7.077  14.949   6.741
21505SOL    HW264766   7.222  14.969   6.704
21506SOL     OW64767   6.534   3.126   0.457
21506SOL    HW164768   6.588   3.204   0.468
21506SOL    HW264769   6.586   3.068   0.401
21507SOL     OW64770   4.584   7.799   5.363
21507SOL    HW164771   4.516   7.814   5.428
21507SOL    HW264772   4.537   7.764   5.287
21508SOL     OW64773   9.483   2.776   3.733
21508SOL    HW164774   9.545   2.733   3.791
21508SOL    HW264775   9.536   2.834   3.678
21509SOL     OW64776  10.809  11.399   5.896
21509SOL    HW164777  10.739  11.435   5.841
21509SOL    HW264778  10.763  11.346   5.962
21510SOL     OW64779   6.952   4.235   0.475
21510SOL    HW164780   6.932   4.291   0.550
21510SOL    HW264781   6.996   4.159   0.513
21511SOL     OW64782   9.134   2.717   0.142
21511SOL    HW164783   9.215   2.768   0.146
21511SOL    HW264784   9.111   2.716   0.049
21512SOL     OW64785   9.910   7.907   1.887
21512SOL    HW164786   9.818   7.902   1.911
21512SOL    HW264787   9.921   7.993   1.846
21513SOL     OW64788  12.311   2.451   2.588
21513SOL    HW164789  12.235   2.504   2.565
21513SOL    HW264790  12.378   2.478   2.525
21514SOL     OW64791  10.929   2.563   1.041
21514SOL    HW164792  10.918   2.622   1.116
21514SOL    HW264793  10.955   2.620   0.969
21515SOL     OW64794   7.315  14.267   5.930
21515SOL    HW164795   7.406  14.250   5.955
21515SOL    HW264796   7.322  14.325   5.854
21516SOL     OW64797  10.424   5.762   0.400
21516SOL    HW164798  10.407   5.805   0.317
21516SOL    HW264799  10.387   5.674   0.390
21517SOL     OW64800  10.339   1.723   2.207
21517SOL    HW164801  10.290   1.641   2.198
21517SOL    HW264802  10.414   1.699   2.261
21518SOL     OW64803  14.656  10.120   6.617
21518SOL    HW164804  14.717  10.173   6.668
21518SOL    HW264805  14.707  10.043   6.592
21519SOL     OW64806   7.718   4.719   3.466
21519SOL    HW164807   7.659   4.787   3.434
21519SOL    HW264808   7.790   4.718   3.402
21520SOL     OW64809  11.396  10.875   1.742
21520SOL    HW164810  11.390  10.947   1.679
21520SOL    HW264811  11.400  10.796   1.689
21521SOL     OW64812   6.272   8.372   2.216
21521SOL    HW164813   6.365   8.390   2.202
21521SOL    HW264814   6.261   8.280   2.191
21522SOL     OW64815   6.011   4.909   1.843
21522SOL    HW164816   6.060   4.986   1.872
21522SOL    HW264817   6.079   4.848   1.814
21523SOL     OW64818   9.200  11.303   4.450
21523SOL    HW164819   9.171  11.363   4.519
21523SOL    HW264820   9.122  11.250   4.430
21524SOL     OW64821   6.446   7.858   6.391
21524SOL    HW164822   6.380   7.794   6.363
21524SOL    HW264823   6.435   7.931   6.330
21525SOL     OW64824   9.116  12.333   6.941
21525SOL    HW164825   9.127  12.415   6.990
21525SOL    HW264826   9.204  12.294   6.940
21526SOL     OW64827  11.757   2.403   1.794
21526SOL    HW164828  11.826   2.417   1.859
21526SOL    HW264829  11.679   2.441   1.834
21527SOL     OW64830  10.363   7.526   6.732
21527SOL    HW164831  10.351   7.505   6.639
21527SOL    HW264832  10.458   7.535   6.743
21528SOL     OW64833   9.869   5.765   3.572
21528SOL    HW164834   9.830   5.700   3.514
21528SOL    HW264835   9.816   5.843   3.560
21529SOL     OW64836   7.230   4.747   4.107
21529SOL    HW164837   7.166   4.755   4.036
21529SOL    HW264838   7.302   4.806   4.081
21530SOL     OW64839   8.606   4.270   3.167
21530SOL    HW164840   8.624   4.348   3.220
21530SOL    HW264841   8.662   4.202   3.204
21531SOL     OW64842   2.164   9.709   0.758
21531SOL    HW164843   2.231   9.661   0.709
21531SOL    HW264844   2.153   9.659   0.839
21532SOL     OW64845   6.719   7.309   2.005
21532SOL    HW164846   6.789   7.260   1.963
21532SOL    HW264847   6.645   7.303   1.945
21533SOL     OW64848   8.564   3.911   5.421
21533SOL    HW164849   8.547   3.820   5.397
21533SOL    HW264850   8.622   3.906   5.497
21534SOL     OW64851   3.038   9.093   0.486
21534SOL    HW164852   3.084   9.173   0.511
21534SOL    HW264853   3.064   9.029   0.553
21535SOL     OW64854   7.331   1.191   0.153
21535SOL    HW164855   7.413   1.152   0.122
21535SOL    HW264856   7.267   1.168   0.085
21536SOL     OW64857  11.304   5.297   4.809
21536SOL    HW164858  11.288   5.381   4.766
21536SOL    HW264859  11.263   5.305   4.895
21537SOL     OW64860   8.459   6.563   3.107
21537SOL    HW164861   8.538   6.593   3.152
21537SOL    HW264862   8.411   6.515   3.173
21538SOL     OW64863  11.188   7.622   5.858
21538SOL    HW164864  11.164   7.706   5.819
21538SOL    HW264865  11.135   7.616   5.937
21539SOL     OW64866  10.559  10.037   1.617
21539SOL    HW164867  10.507  10.061   1.541
21539SOL    HW264868  10.512   9.963   1.657
21540SOL     OW64869  11.193   6.288   2.743
21540SOL    HW164870  11.108   6.301   2.702
21540SOL    HW264871  11.226   6.377   2.760
21541SOL     OW64872   5.516   5.784   5.262
21541SOL    HW164873   5.481   5.845   5.197
21541SOL    HW264874   5.589   5.831   5.302
21542SOL     OW64875   9.915   5.550   2.501
21542SOL    HW164876   9.883   5.471   2.456
21542SOL    HW264877   9.959   5.601   2.433
21543SOL     OW64878  10.181  10.693   6.447
21543SOL    HW164879  10.272  10.720   6.433
21543SOL    HW264880  10.175  10.607   6.407
21544SOL     OW64881  11.073  13.747   7.541
21544SOL    HW164882  11.066  13.652   7.534
21544SOL    HW264883  11.004  13.781   7.484
21545SOL     OW64884   2.213   4.841   0.395
21545SOL    HW164885   2.128   4.865   0.430
21545SOL    HW264886   2.215   4.745   0.401
21546SOL     OW64887  11.932  15.258   7.468
21546SOL    HW164888  11.939  15.261   7.372
21546SOL    HW264889  11.921  15.349   7.494
21547SOL     OW64890   3.498   8.034   4.166
21547SOL    HW164891   3.557   8.038   4.242
21547SOL    HW264892   3.519   8.113   4.116
21548SOL     OW64893   9.398   5.338   3.972
21548SOL    HW164894   9.307   5.337   3.942
21548SOL    HW264895   9.449   5.327   3.892
21549SOL     OW64896   6.975  11.277   5.069
21549SOL    HW164897   6.920  11.350   5.041
21549SOL    HW264898   6.934  11.200   5.032
21550SOL     OW64899   4.602   9.283   0.932
21550SOL    HW164900   4.560   9.297   0.847
21550SOL    HW264901   4.644   9.198   0.924
21551SOL     OW64902   3.749   0.902   0.446
21551SOL    HW164903   3.780   0.963   0.512
21551SOL    HW264904   3.738   0.819   0.492
21552SOL     OW64905   4.423   7.469   1.153
21552SOL    HW164906   4.435   7.509   1.067
21552SOL    HW264907   4.328   7.462   1.162
21553SOL     OW64908  11.088   4.114   0.589
21553SOL    HW164909  11.162   4.166   0.619
21553SOL    HW264910  11.018   4.178   0.575
21554SOL     OW64911   8.628   7.197   2.611
21554SOL    HW164912   8.592   7.202   2.523
21554SOL    HW264913   8.606   7.109   2.641
21555SOL     OW64914  11.284  10.269   7.008
21555SOL    HW164915  11.196  10.242   7.031
21555SOL    HW264916  11.276  10.361   6.984
21556SOL     OW64917   5.778   8.648   1.792
21556SOL    HW164918   5.759   8.651   1.885
21556SOL    HW264919   5.706   8.597   1.754
21557SOL     OW64920   7.972   4.202   0.016
21557SOL    HW164921   7.988   4.126   0.072
21557SOL    HW264922   7.876   4.207   0.010
21558SOL     OW64923   6.961   3.561   0.722
21558SOL    HW164924   6.905   3.605   0.658
21558SOL    HW264925   6.973   3.473   0.687
21559SOL     OW64926  11.981   6.839   3.888
21559SOL    HW164927  11.923   6.768   3.915
21559SOL    HW264928  11.936   6.919   3.916
21560SOL     OW64929  15.419   9.009   7.433
21560SOL    HW164930  15.355   9.075   7.460
21560SOL    HW264931  15.463   9.047   7.357
21561SOL     OW64932   6.770   2.138   2.667
21561SOL    HW164933   6.838   2.104   2.725
21561SOL    HW264934   6.689   2.098   2.698
21562SOL     OW64935   5.461   6.633   5.071
21562SOL    HW164936   5.463   6.540   5.090
21562SOL    HW264937   5.400   6.642   4.998
21563SOL     OW64938   5.851   9.319   1.536
21563SOL    HW164939   5.851   9.358   1.449
21563SOL    HW264940   5.940   9.286   1.548
21564SOL     OW64941  15.427  15.084   7.515
21564SOL    HW164942  15.379  15.148   7.462
21564SOL    HW264943  15.389  14.999   7.491
21565SOL     OW64944   6.585  14.341   6.744
21565SOL    HW164945   6.632  14.424   6.751
21565SOL    HW264946   6.642  14.277   6.787
21566SOL     OW64947   9.552   2.643   1.746
21566SOL    HW164948   9.458   2.654   1.733
21566SOL    HW264949   9.590   2.729   1.730
21567SOL     OW64950  14.480  12.710   5.882
21567SOL    HW164951  14.532  12.677   5.809
21567SOL    HW264952  14.527  12.680   5.960
21568SOL     OW64953   1.659   7.045   1.341
21568SOL    HW164954   1.698   7.074   1.424
21568SOL    HW264955   1.705   7.095   1.274
21569SOL     OW64956   4.846   3.608   3.838
21569SOL    HW164957   4.875   3.517   3.828
21569SOL    HW264958   4.799   3.609   3.922
21570SOL     OW64959   8.485  12.175   6.143
21570SOL    HW164960   8.410  12.215   6.186
21570SOL    HW264961   8.531  12.129   6.213
21571SOL     OW64962  14.113   5.401   7.615
21571SOL    HW164963  14.196   5.435   7.584
21571SOL    HW264964  14.114  16.083   7.589
21572SOL     OW64965   3.760   8.967   0.020
21572SOL    HW164966   9.209  14.410   7.592
21572SOL    HW264967   9.095  14.314   7.569
21573SOL     OW64968   7.534  12.060   4.556
21573SOL    HW164969   7.620  12.023   4.535
21573SOL    HW264970   7.479  11.985   4.577
21574SOL     OW64971   4.798   0.261   0.076
21574SOL    HW164972   4.706   0.267   0.101
21574SOL    HW264973   4.832   0.188   0.127
21575SOL     OW64974  12.826   6.252   4.468
21575SOL    HW164975  12.860   6.218   4.551
21575SOL    HW264976  12.785   6.335   4.492
21576SOL     OW64977   9.516  12.227   5.383
21576SOL    HW164978   9.520  12.138   5.417
21576SOL    HW264979   9.538  12.282   5.458
21577SOL     OW64980  12.025  10.777   4.123
21577SOL    HW164981  12.106  10.795   4.075
21577SOL    HW264982  12.053  10.737   4.205
21578SOL     OW64983  11.667   6.014   4.935
21578SOL    HW164984  11.736   6.054   4.988
21578SOL    HW264985  11.703   6.009   4.847
21579SOL     OW64986  13.031   7.469   4.887
21579SOL    HW164987  13.007   7.431   4.803
21579SOL    HW264988  12.955   7.453   4.943
21580SOL     OW64989   9.662   5.696   0.467
21580SOL    HW164990   9.597   5.765   0.454
21580SOL    HW264991   9.727   5.735   0.525
21581SOL     OW64992   9.757  14.029   5.127
21581SOL    HW164993   9.817  14.017   5.201
21581SOL    HW264994   9.813  14.017   5.049
21582SOL     OW64995   5.215   2.008   0.704
21582SOL    HW164996   5.189   2.058   0.782
21582SOL    HW264997   5.135   1.963   0.677
21583SOL     OW64998   6.806   6.021   1.027
21583SOL    HW164999   6.784   5.984   0.941
21583SOL    HW265000   6.756   6.103   1.030
21584SOL     OW65001  12.013  11.302   7.590
21584SOL    HW165002   6.599   5.987   0.028
21584SOL    HW265003   6.646   5.844   0.032
21585SOL     OW65004  12.221  11.805   6.406
21585SOL    HW165005  12.190  11.728   6.454
21585SOL    HW265006  12.202  11.785   6.314
21586SOL     OW65007   7.587  12.845   4.532
21586SOL    HW165008   7.614  12.934   4.556
21586SOL    HW265009   7.511  12.827   4.587
21587SOL     OW65010   9.883   4.643   5.629
21587SOL    HW165011   9.905   4.726   5.670
21587SOL    HW265012   9.958   4.587   5.647
21588SOL     OW65013   5.859   9.517   4.285
21588SOL    HW165014   5.900   9.551   4.365
21588SOL    HW265015   5.932   9.505   4.224
21589SOL     OW65016   6.695   2.211   0.596
21589SOL    HW165017   6.623   2.253   0.641
21589SOL    HW265018   6.754   2.283   0.572
21590SOL     OW65019   5.215   2.075   1.798
21590SOL    HW165020   5.122   2.076   1.823
21590SOL    HW265021   5.216   2.028   1.715
21591SOL     OW65022   8.789   5.032   5.382
21591SOL    HW165023   8.753   4.961   5.329
21591SOL    HW265024   8.719   5.097   5.387
21592SOL     OW65025  10.169   5.049   0.293
21592SOL    HW165026  10.159   5.023   0.202
21592SOL    HW265027  10.264   5.061   0.304
21593SOL     OW65028  13.334   7.567   7.448
21593SOL    HW165029  13.368   7.496   7.393
21593SOL    HW265030  13.331   7.643   7.389
21594SOL     OW65031   5.432   4.529   1.516
21594SOL    HW165032   5.361   4.477   1.555
21594SOL    HW265033   5.512   4.492   1.552
21595SOL     OW65034   7.098   9.488   3.765
21595SOL    HW165035   7.103   9.436   3.845
21595SOL    HW265036   7.134   9.431   3.697
21596SOL     OW65037   6.199   5.437   3.544
21596SOL    HW165038   6.286   5.477   3.539
21596SOL    HW265039   6.208   5.354   3.497
21597SOL     OW65040  10.810  13.422   5.470
21597SOL    HW165041  10.821  13.328   5.461
21597SOL    HW265042  10.729  13.442   5.423
21598SOL     OW65043  10.621  10.942   4.933
21598SOL    HW165044  10.688  10.880   4.961
21598SOL    HW265045  10.570  10.959   5.012
21599SOL     OW65046  11.920  11.263   3.454
21599SOL    HW165047  11.866  11.315   3.395
21599SOL    HW265048  11.976  11.211   3.396
21600SOL     OW65049   7.991   1.846   0.271
21600SOL    HW165050   8.076   1.852   0.316
21600SOL    HW265051   7.928   1.833   0.342
21601SOL     OW65052   7.230  11.360   6.806
21601SOL    HW165053   7.288  11.365   6.730
21601SOL    HW265054   7.170  11.288   6.786
21602SOL     OW65055  11.659   5.429   4.393
21602SOL    HW165056  11.616   5.440   4.478
21602SOL    HW265057  11.593   5.456   4.329
21603SOL     OW65058   3.559   3.146   3.208
21603SOL    HW165059   3.580   3.057   3.237
21603SOL    HW265060   3.591   3.150   3.118
21604SOL     OW65061   7.618   5.611   2.146
21604SOL    HW165062   7.608   5.600   2.241
21604SOL    HW265063   7.642   5.703   2.135
21605SOL     OW65064   5.551   6.026   1.662
21605SOL    HW165065   5.559   5.953   1.600
21605SOL    HW265066   5.579   6.103   1.612
21606SOL     OW65067   8.708   4.397   2.630
21606SOL    HW165068   8.658   4.428   2.705
21606SOL    HW265069   8.770   4.334   2.667
21607SOL     OW65070   2.332  12.118   2.398
21607SOL    HW165071   2.300  12.154   2.316
21607SOL    HW265072   2.309  12.025   2.394
21608SOL     OW65073  11.796   7.484   3.340
21608SOL    HW165074  11.785   7.563   3.393
21608SOL    HW265075  11.729   7.492   3.271
21609SOL     OW65076   8.181   4.653   3.795
21609SOL    HW165077   8.153   4.672   3.706
21609SOL    HW265078   8.118   4.589   3.827
21610SOL     OW65079   6.047  14.750   6.927
21610SOL    HW165080   6.070  14.837   6.894
21610SOL    HW265081   6.046  14.695   6.849
21611SOL     OW65082   2.088   6.304   2.762
21611SOL    HW165083   2.118   6.238   2.699
21611SOL    HW265084   2.167   6.330   2.810
21612SOL     OW65085   3.847   8.175   2.604
21612SOL    HW165086   3.787   8.210   2.670
21612SOL    HW265087   3.798   8.105   2.562
21613SOL     OW65088   5.192  15.115   6.314
21613SOL    HW165089   5.285  15.124   6.290
21613SOL    HW265090   5.147  15.101   6.231
21614SOL     OW65091   5.848   8.331   1.323
21614SOL    HW165092   5.772   8.376   1.285
21614SOL    HW265093   5.916   8.398   1.329
21615SOL     OW65094   5.299  11.813   4.426
21615SOL    HW165095   5.273  11.725   4.398
21615SOL    HW265096   5.327  11.802   4.517
21616SOL     OW65097   1.238   1.272   0.177
21616SOL    HW165098   1.189   1.248   0.098
21616SOL    HW265099   1.177   1.256   0.249
21617SOL     OW65100  11.811   4.995   6.493
21617SOL    HW165101  11.863   5.034   6.423
21617SOL    HW265102  11.797   5.068   6.554
21618SOL     OW65103  10.758   6.122   6.619
21618SOL    HW165104  10.823   6.192   6.612
21618SOL    HW265105  10.702   6.148   6.692
21619SOL     OW65106   9.527   1.506   0.401
21619SOL    HW165107   9.607   1.557   0.414
21619SOL    HW265108   9.463   1.570   0.367
21620SOL     OW65109   8.155  13.615   4.219
21620SOL    HW165110   8.091  13.686   4.213
21620SOL    HW265111   8.103  13.535   4.212
21621SOL     OW65112  14.309   9.465   5.237
21621SOL    HW165113  14.324   9.382   5.193
21621SOL    HW265114  14.220   9.459   5.272
21622SOL     OW65115  10.793   7.398   7.606
21622SOL    HW165116   5.443   2.052   0.065
21622SOL    HW265117  10.791   7.468   7.540
21623SOL     OW65118   6.888   5.005   4.729
21623SOL    HW165119   6.953   4.942   4.758
21623SOL    HW265120   6.852   4.968   4.649
21624SOL     OW65121   2.184   5.577   0.231
21624SOL    HW165122   2.162   5.492   0.268
21624SOL    HW265123   2.214   5.557   0.142
21625SOL     OW65124   5.820  11.249   6.012
21625SOL    HW165125   5.907  11.282   6.035
21625SOL    HW265126   5.829  11.220   5.922
21626SOL     OW65127   8.306  12.470   4.264
21626SOL    HW165128   8.352  12.549   4.294
21626SOL    HW265129   8.353  12.444   4.185
21627SOL     OW65130  14.611   9.033   6.066
21627SOL    HW165131  14.585   9.079   5.986
21627SOL    HW265132  14.661   9.098   6.116
21628SOL     OW65133   1.700   2.641   0.814
21628SOL    HW165134   1.768   2.624   0.879
21628SOL    HW265135   1.619   2.648   0.866
21629SOL     OW65136  11.209  11.824   3.401
21629SOL    HW165137  11.302  11.813   3.418
21629SOL    HW265138  11.168  11.753   3.450
21630SOL     OW65139  14.129   5.006   5.261
21630SOL    HW165140  14.176   5.078   5.303
21630SOL    HW265141  14.050   4.994   5.315
21631SOL     OW65142   7.930   3.248   3.871
21631SOL    HW165143   8.021   3.242   3.902
21631SOL    HW265144   7.935   3.299   3.791
21632SOL     OW65145   8.650   1.718   0.731
21632SOL    HW165146   8.576   1.771   0.701
21632SOL    HW265147   8.710   1.782   0.770
21633SOL     OW65148  12.301   8.202   6.886
21633SOL    HW165149  12.328   8.266   6.821
21633SOL    HW265150  12.219   8.166   6.853
21634SOL     OW65151   2.900   9.163   3.854
21634SOL    HW165152   2.979   9.144   3.803
21634SOL    HW265153   2.930   9.166   3.944
21635SOL     OW65154   2.976   3.700   2.463
21635SOL    HW165155   2.999   3.719   2.372
21635SOL    HW265156   3.060   3.685   2.506
21636SOL     OW65157   7.948  11.266   4.527
21636SOL    HW165158   7.998  11.317   4.591
21636SOL    HW265159   7.868  11.317   4.514
21637SOL     OW65160  12.249   4.718   4.976
21637SOL    HW165161  12.185   4.788   4.960
21637SOL    HW265162  12.196   4.641   4.994
21638SOL     OW65163   8.241  11.115   1.110
21638SOL    HW165164   8.216  11.178   1.177
21638SOL    HW265165   8.227  11.160   1.027
21639SOL     OW65166   5.277   3.340   3.147
21639SOL    HW165167   5.274   3.352   3.052
21639SOL    HW265168   5.186   3.328   3.173
21640SOL     OW65169   3.720  11.711   3.799
21640SOL    HW165170   3.669  11.643   3.843
21640SOL    HW265171   3.668  11.734   3.722
21641SOL     OW65172   8.741   4.539   1.244
21641SOL    HW165173   8.740   4.520   1.150
21641SOL    HW265174   8.833   4.560   1.262
21642SOL     OW65175   3.844   7.048   4.334
21642SOL    HW165176   3.786   6.973   4.337
21642SOL    HW265177   3.805   7.107   4.269
21643SOL     OW65178  11.516   6.182   7.522
21643SOL    HW165179  11.485   6.273   7.517
21643SOL    HW265180  11.437   6.130   7.534
21644SOL     OW65181  11.465   3.186   2.718
21644SOL    HW165182  11.390   3.243   2.738
21644SOL    HW265183  11.446   3.150   2.632
21645SOL     OW65184   3.420   4.229   0.541
21645SOL    HW165185   3.326   4.209   0.535
21645SOL    HW265186   3.459   4.148   0.573
21646SOL     OW65187  10.228  13.460   6.925
21646SOL    HW165188  10.153  13.424   6.972
21646SOL    HW265189  10.199  13.545   6.895
21647SOL     OW65190   4.109   6.382   3.054
21647SOL    HW165191   4.161   6.375   3.134
21647SOL    HW265192   4.119   6.473   3.026
21648SOL     OW65193  10.612  12.629   6.739
21648SOL    HW165194  10.589  12.575   6.815
21648SOL    HW265195  10.553  12.599   6.670
21649SOL     OW65196   9.498   5.689   5.715
21649SOL    HW165197   9.438   5.730   5.776
21649SOL    HW265198   9.559   5.759   5.691
21650SOL     OW65199  12.254   8.953   4.724
21650SOL    HW165200  12.337   8.963   4.677
21650SOL    HW265201  12.279   8.944   4.816
21651SOL     OW65202   9.058   7.650   5.190
21651SOL    HW165203   9.094   7.735   5.214
21651SOL    HW265204   9.012   7.665   5.107
21652SOL     OW65205  11.221   2.360   1.907
21652SOL    HW165206  11.211   2.346   2.001
21652SOL    HW265207  11.153   2.306   1.868
21653SOL     OW65208   6.810   4.661   1.091
21653SOL    HW165209   6.848   4.725   1.152
21653SOL    HW265210   6.813   4.578   1.138
21654SOL     OW65211   6.088   9.532   7.470
21654SOL    HW165212   6.091   9.472   7.544
21654SOL    HW265213   6.111   9.478   7.394
21655SOL     OW65214   4.889  11.468   2.104
21655SOL    HW165215   4.824  11.467   2.175
21655SOL    HW265216   4.847  11.516   2.033
21656SOL     OW65217   9.877   3.905   2.510
21656SOL    HW165218   9.971   3.891   2.508
21656SOL    HW265219   9.861   3.978   2.449
21657SOL     OW65220   2.202   4.337   1.820
21657SOL    HW165221   2.109   4.343   1.800
21657SOL    HW265222   2.207   4.349   1.915
21658SOL     OW65223   9.401   8.252   3.442
21658SOL    HW165224   9.481   8.200   3.438
21658SOL    HW265225   9.402   8.291   3.529
21659SOL     OW65226  14.279  12.951   6.146
21659SOL    HW165227  14.290  12.959   6.240
21659SOL    HW265228  14.364  12.974   6.109
21660SOL     OW65229  15.271  10.774   7.140
21660SOL    HW165230  15.318  10.695   7.169
21660SOL    HW265231  15.240  10.814   7.222
21661SOL     OW65232   6.687   1.965   1.487
21661SOL    HW165233   6.671   1.887   1.434
21661SOL    HW265234   6.636   2.034   1.444
21662SOL     OW65235   5.103   9.560   4.334
21662SOL    HW165236   5.085   9.466   4.328
21662SOL    HW265237   5.032   9.602   4.286
21663SOL     OW65238   4.794   6.222   4.737
21663SOL    HW165239   4.733   6.162   4.695
21663SOL    HW265240   4.840   6.264   4.665
21664SOL     OW65241   2.590   9.879   1.687
21664SOL    HW165242   2.587   9.785   1.667
21664SOL    HW265243   2.550   9.920   1.610
21665SOL     OW65244   8.081  15.263   7.165
21665SOL    HW165245   8.015  15.236   7.229
21665SOL    HW265246   8.045  15.343   7.126
21666SOL     OW65247   5.837   4.892   4.966
21666SOL    HW165248   5.852   4.853   4.880
21666SOL    HW265249   5.852   4.986   4.954
21667SOL     OW65250  12.185   6.449   5.473
21667SOL    HW165251  12.135   6.370   5.492
21667SOL    HW265252  12.229   6.430   5.391
21668SOL     OW65253   7.980   9.122   6.701
21668SOL    HW165254   7.910   9.149   6.642
21668SOL    HW265255   8.029   9.055   6.652
21669SOL     OW65256   5.544  10.529   0.700
21669SOL    HW165257   5.581  10.618   0.699
21669SOL    HW265258   5.565  10.493   0.614
21670SOL     OW65259   4.740   7.107   3.204
21670SOL    HW165260   4.672   7.040   3.211
21670SOL    HW265261   4.693   7.190   3.204
21671SOL     OW65262   6.981   8.518   4.752
21671SOL    HW165263   6.914   8.450   4.743
21671SOL    HW265264   6.932   8.601   4.750
21672SOL     OW65265   8.188   9.305   0.850
21672SOL    HW165266   8.210   9.291   0.758
21672SOL    HW265267   8.102   9.266   0.860
21673SOL     OW65268   6.140   4.791   0.948
21673SOL    HW165269   6.060   4.741   0.942
21673SOL    HW265270   6.192   4.764   0.873
21674SOL     OW65271  11.920  10.544   5.846
21674SOL    HW165272  11.974  10.577   5.919
21674SOL    HW265273  11.966  10.466   5.816
21675SOL     OW65274   5.425   2.375   1.337
21675SOL    HW165275   5.411   2.394   1.429
21675SOL    HW265276   5.337   2.363   1.301
21676SOL     OW65277   4.556   7.971   1.258
21676SOL    HW165278   4.489   7.931   1.315
21676SOL    HW265279   4.614   7.898   1.236
21677SOL     OW65280   7.268  14.824   6.467
21677SOL    HW165281   7.173  14.826   6.457
21677SOL    HW265282   7.301  14.796   6.382
21678SOL     OW65283   4.968   7.260   0.408
21678SOL    HW165284   4.909   7.270   0.483
21678SOL    HW265285   5.050   7.227   0.446
21679SOL     OW65286   9.649   7.081   7.040
21679SOL    HW165287   9.694   7.000   7.019
21679SOL    HW265288   9.678   7.143   6.972
21680SOL     OW65289   3.534   7.298   4.279
21680SOL    HW165290   3.628   7.286   4.269
21680SOL    HW265291   3.508   7.345   4.200
21681SOL     OW65292  12.004   8.958   5.280
21681SOL    HW165293  11.952   8.897   5.228
21681SOL    HW265294  12.086   8.912   5.298
21682SOL     OW65295  10.860   6.664   2.950
21682SOL    HW165296  10.798   6.596   2.926
21682SOL    HW265297  10.944   6.619   2.959
21683SOL     OW65298   3.186   5.066   1.393
21683SOL    HW165299   3.262   5.070   1.452
21683SOL    HW265300   3.155   4.976   1.401
21684SOL     OW65301  11.746   1.825   2.024
21684SOL    HW165302  11.781   1.912   2.042
21684SOL    HW265303  11.659   1.826   2.064
21685SOL     OW65304  11.305   5.891   4.497
21685SOL    HW165305  11.239   5.942   4.544
21685SOL    HW265306  11.321   5.940   4.417
21686SOL     OW65307  10.409  13.418   4.291
21686SOL    HW165308  10.394  13.512   4.287
21686SOL    HW265309  10.384  13.393   4.380
21687SOL     OW65310   6.203   9.526   5.071
21687SOL    HW165311   6.231   9.581   4.997
21687SOL    HW265312   6.284   9.491   5.107
21688SOL     OW65313   5.281   9.671   6.368
21688SOL    HW165314   5.270   9.603   6.434
21688SOL    HW265315   5.315   9.746   6.417
21689SOL     OW65316   9.208   4.575   5.711
21689SOL    HW165317   9.146   4.645   5.733
21689SOL    HW265318   9.165   4.526   5.641
21690SOL     OW65319  10.947  14.260   6.425
21690SOL    HW165320  10.955  14.206   6.346
21690SOL    HW265321  10.974  14.347   6.397
21691SOL     OW65322   5.453  10.882   4.915
21691SOL    HW165323   5.377  10.940   4.901
21691SOL    HW265324   5.494  10.875   4.828
21692SOL     OW65325   7.093   6.166   4.965
21692SOL    HW165326   7.011   6.122   4.985
21692SOL    HW265327   7.150   6.146   5.039
21693SOL     OW65328   9.077   2.683   0.858
21693SOL    HW165329   9.004   2.682   0.920
21693SOL    HW265330   9.058   2.610   0.799
21694SOL     OW65331  12.336   6.885   3.157
21694SOL    HW165332  12.279   6.817   3.121
21694SOL    HW265333  12.344   6.949   3.086
21695SOL     OW65334   6.505   6.756   7.303
21695SOL    HW165335   6.541   6.794   7.223
21695SOL    HW265336   6.524   6.662   7.296
21696SOL     OW65337  12.420   4.070   4.429
21696SOL    HW165338  12.407   4.023   4.511
21696SOL    HW265339  12.383   4.157   4.445
21697SOL     OW65340   1.486   9.846   2.040
21697SOL    HW165341  12.181   9.831   1.989
21697SOL    HW265342   1.541   9.770   2.020
21698SOL     OW65343   8.750   8.319   1.494
21698SOL    HW165344   8.655   8.321   1.502
21698SOL    HW265345   8.773   8.396   1.443
21699SOL     OW65346   5.327   4.895   1.054
21699SOL    HW165347   5.382   4.909   1.131
21699SOL    HW265348   5.344   4.970   0.998
21700SOL     OW65349   8.895   6.883   1.413
21700SOL    HW165350   8.843   6.812   1.450
21700SOL    HW265351   8.904   6.861   1.320
21701SOL     OW65352  11.842  13.894   5.082
21701SOL    HW165353  11.756  13.930   5.106
21701SOL    HW265354  11.847  13.811   5.130
21702SOL     OW65355   7.721   3.768   0.141
21702SOL    HW165356   7.648   3.787   0.081
21702SOL    HW265357   7.682   3.772   0.228
21703SOL     OW65358  12.329  11.659   5.561
21703SOL    HW165359  12.352  11.729   5.622
21703SOL    HW265360  12.398  11.660   5.495
21704SOL     OW65361   4.086   2.512   0.070
21704SOL    HW165362   9.451   7.911   7.597
21704SOL    HW265363   4.001   2.511   0.115
21705SOL     OW65364   4.607  13.564   4.224
21705SOL    HW165365   4.667  13.557   4.299
21705SOL    HW265366   4.620  13.482   4.177
21706SOL     OW65367   2.582   3.844   0.406
21706SOL    HW165368   2.517   3.844   0.475
21706SOL    HW265369   2.627   3.760   0.415
21707SOL     OW65370   4.155   9.207   3.275
21707SOL    HW165371   4.130   9.238   3.187
21707SOL    HW265372   4.091   9.248   3.333
21708SOL     OW65373   5.204   4.600   2.192
21708SOL    HW165374   5.124   4.577   2.238
21708SOL    HW265375   5.198   4.554   2.108
21709SOL     OW65376  11.584   4.114   3.417
21709SOL    HW165377  11.595   4.118   3.512
21709SOL    HW265378  11.522   4.043   3.402
21710SOL     OW65379   9.801   3.258   2.266
21710SOL    HW165380   9.852   3.338   2.276
21710SOL    HW265381   9.866   3.188   2.276
21711SOL     OW65382   3.762   6.684   2.453
21711SOL    HW165383   3.851   6.721   2.456
21711SOL    HW265384   3.748   6.663   2.361
21712SOL     OW65385   9.202  11.550   2.374
21712SOL    HW165386   9.193  11.620   2.438
21712SOL    HW265387   9.114  11.513   2.366
21713SOL     OW65388  12.596  13.304   6.647
21713SOL    HW165389  12.679  13.257   6.654
21713SOL    HW265390  12.592  13.357   6.727
21714SOL     OW65391  15.628  11.075   6.908
21714SOL    HW165392  15.608  10.987   6.876
21714SOL    HW265393   4.915  11.110   6.844
21715SOL     OW65394   4.737  14.934   5.941
21715SOL    HW165395   4.745   4.253   5.922
21715SOL    HW265396   4.647  14.912   5.918
21716SOL     OW65397  11.305  15.018   7.314
21716SOL    HW165398  11.291  15.001   7.221
21716SOL    HW265399  11.362  14.946   7.343
21717SOL     OW65400   4.926  10.282   1.698
21717SOL    HW165401   4.930  10.337   1.620
21717SOL    HW265402   4.928  10.192   1.665
21718SOL     OW65403   6.052   6.553   7.089
21718SOL    HW165404   6.052   6.649   7.093
21718SOL    HW265405   5.971   6.531   7.044
21719SOL     OW65406   7.835   6.735   4.393
21719SOL    HW165407   7.836   6.682   4.472
21719SOL    HW265408   7.909   6.703   4.341
21720SOL     OW65409   8.901  14.160   6.686
21720SOL    HW165410   8.889  14.217   6.762
21720SOL    HW265411   8.813  14.153   6.647
21721SOL     OW65412  11.555  11.471   4.454
21721SOL    HW165413  11.603  11.553   4.454
21721SOL    HW265414  11.618  11.407   4.488
21722SOL     OW65415   7.183   4.856   2.980
21722SOL    HW165416   7.229   4.933   2.946
21722SOL    HW265417   7.213   4.849   3.071
21723SOL     OW65418   7.065  10.258   5.350
21723SOL    HW165419   7.033  10.304   5.272
21723SOL    HW265420   7.036  10.168   5.338
21724SOL     OW65421   7.966   8.501   3.620
21724SOL    HW165422   8.003   8.567   3.562
21724SOL    HW265423   7.881   8.479   3.581
21725SOL     OW65424   3.990  14.535   5.618
21725SOL    HW165425  14.777  14.460   5.677
21725SOL    HW265426  14.685  14.577   5.649
21726SOL     OW65427   4.698  11.362   5.675
21726SOL    HW165428   4.645  11.416   5.615
21726SOL    HW265429   4.638  11.338   5.745
21727SOL     OW65430   9.150  13.845   6.353
21727SOL    HW165431   9.072  13.901   6.350
21727SOL    HW265432   9.211  13.892   6.410
21728SOL     OW65433  10.912  12.107   5.629
21728SOL    HW165434  10.966  12.178   5.663
21728SOL    HW265435  10.975  12.038   5.607
21729SOL     OW65436   8.289   8.226   3.831
21729SOL    HW165437   8.296   8.144   3.880
21729SOL    HW265438   8.355   8.219   3.762
21730SOL     OW65439  13.918   5.929   4.594
21730SOL    HW165440  13.875   6.009   4.565
21730SOL    HW265441  14.004   5.957   4.623
21731SOL     OW65442  10.627   8.338   6.282
21731SOL    HW165443  10.640   8.349   6.188
21731SOL    HW265444  10.652   8.423   6.319
21732SOL     OW65445  11.787  12.054   4.925
21732SOL    HW165446  11.699  12.049   4.887
21732SOL    HW265447  11.809  12.147   4.922
21733SOL     OW65448   6.559   9.551   3.744
21733SOL    HW165449   6.612   9.567   3.667
21733SOL    HW265450   6.575   9.460   3.766
21734SOL     OW65451   8.874  13.591   5.380
21734SOL    HW165452   8.872  13.503   5.418
21734SOL    HW265453   8.909  13.578   5.292
21735SOL     OW65454  12.340   8.860   2.849
21735SOL    HW165455  12.260   8.823   2.812
21735SOL    HW265456  12.404   8.790   2.841
21736SOL     OW65457   6.173   7.821   2.977
21736SOL    HW165458   6.236   7.780   2.917
21736SOL    HW265459   6.224   7.890   3.021
21737SOL     OW65460   1.630   4.628   0.342
21737SOL    HW165461   1.667   4.689   0.278
21737SOL    HW265462   1.535   4.637   0.332
21738SOL     OW65463  11.449  13.975   5.955
21738SOL    HW165464  11.356  13.991   5.971
21738SOL    HW265465  11.480  14.055   5.911
21739SOL     OW65466   7.053   2.662   2.241
21739SOL    HW165467   7.049   2.705   2.155
21739SOL    HW265468   7.145   2.636   2.250
21740SOL     OW65469  10.328   2.937   0.424
21740SOL    HW165470  10.244   2.923   0.468
21740SOL    HW265471  10.306   2.935   0.331
21741SOL     OW65472  14.161  11.116   5.111
21741SOL    HW165473  14.116  11.194   5.144
21741SOL    HW265474  14.171  11.060   5.187
21742SOL     OW65475  10.247   5.473   6.508
21742SOL    HW165476  10.195   5.440   6.582
21742SOL    HW265477  10.329   5.424   6.512
21743SOL     OW65478  11.813   3.875   3.359
21743SOL    HW165479  11.906   3.890   3.343
21743SOL    HW265480  11.771   3.895   3.276
21744SOL     OW65481   6.030   2.104   1.413
21744SOL    HW165482   6.066   2.067   1.493
21744SOL    HW265483   6.104   2.112   1.354
21745SOL     OW65484   4.769  12.915   5.654
21745SOL    HW165485   4.697  12.891   5.595
21745SOL    HW265486   4.800  12.832   5.690
21746SOL     OW65487   3.301   5.189   1.153
21746SOL    HW165488   3.230   5.207   1.215
21746SOL    HW265489   3.279   5.104   1.116
21747SOL     OW65490  12.492   9.346   7.499
21747SOL    HW165491  12.499   9.362   7.405
21747SOL    HW265492  12.561   9.401   7.537
21748SOL     OW65493   3.502  13.412   4.202
21748SOL    HW165494   3.449  13.373   4.272
21748SOL    HW265495   3.585  13.366   4.206
21749SOL     OW65496   6.847   8.135   6.726
21749SOL    HW165497   6.854   8.159   6.633
21749SOL    HW265498   6.854   8.040   6.728
21750SOL     OW65499   4.137   2.713   2.342
21750SOL    HW165500   4.179   2.792   2.308
21750SOL    HW265501   4.056   2.706   2.292
21751SOL     OW65502  12.358  10.593   4.150
21751SOL    HW165503  12.345  10.683   4.179
21751SOL    HW265504  12.334  10.594   4.057
21752SOL     OW65505   8.233  11.671   7.425
21752SOL    HW165506   8.265  11.606   7.363
21752SOL    HW265507   8.309  11.693   7.479
21753SOL     OW65508  10.149  12.505   2.746
21753SOL    HW165509  10.104  12.456   2.677
21753SOL    HW265510  10.098  12.585   2.757
21754SOL     OW65511   2.619   7.091   0.885
21754SOL    HW165512   2.681   7.022   0.908
21754SOL    HW265513   2.623   7.152   0.959
21755SOL     OW65514   3.507   3.475   0.450
21755SOL    HW165515   3.592   3.439   0.476
21755SOL    HW265516   3.515   3.569   0.467
21756SOL     OW65517   7.154   4.869   2.643
21756SOL    HW165518   7.187   4.784   2.614
21756SOL    HW265519   7.060   4.855   2.655
21757SOL     OW65520  11.232   9.621   3.392
21757SOL    HW165521  11.257   9.667   3.312
21757SOL    HW265522  11.156   9.569   3.367
21758SOL     OW65523   8.197  10.027   6.167
21758SOL    HW165524   8.116  10.072   6.142
21758SOL    HW265525   8.175   9.934   6.160
21759SOL     OW65526  12.817  12.079   5.177
21759SOL    HW165527  12.770  12.016   5.123
21759SOL    HW265528  12.909  12.057   5.166
21760SOL     OW65529   4.532  11.498   1.783
21760SOL    HW165530   4.625  11.482   1.764
21760SOL    HW265531   4.521  11.592   1.770
21761SOL     OW65532   9.443   9.931   3.672
21761SOL    HW165533   9.451   9.851   3.619
21761SOL    HW265534   9.353   9.929   3.705
21762SOL     OW65535   6.227   4.333   4.848
21762SOL    HW165536   6.243   4.241   4.867
21762SOL    HW265537   6.250   4.343   4.756
21763SOL     OW65538   8.798   9.679   6.772
21763SOL    HW165539   8.885   9.699   6.738
21763SOL    HW265540   8.776   9.754   6.827
21764SOL     OW65541   9.653   5.438   7.556
21764SOL    HW165542   9.604   5.373   7.505
21764SOL    HW265543   9.601   5.518   7.548
21765SOL     OW65544   6.426   7.771   3.360
21765SOL    HW165545   6.410   7.846   3.417
21765SOL    HW265546   6.502   7.798   3.307
21766SOL     OW65547   9.308   7.478   6.464
21766SOL    HW165548   9.378   7.417   6.488
21766SOL    HW265549   9.315   7.488   6.369
21767SOL     OW65550  13.652   7.994   6.758
21767SOL    HW165551  13.605   7.977   6.840
21767SOL    HW265552  13.679   8.085   6.765
21768SOL     OW65553  10.858  10.156   0.600
21768SOL    HW165554  10.789  10.190   0.657
21768SOL    HW265555  10.894  10.233   0.556
21769SOL     OW65556  11.942   3.646   4.886
21769SOL    HW165557  12.014   3.630   4.826
21769SOL    HW265558  11.984   3.661   4.971
21770SOL     OW65559   9.533   4.317   3.900
21770SOL    HW165560   9.561   4.304   3.990
21770SOL    HW265561   9.438   4.302   3.902
21771SOL     OW65562   0.455   0.416   0.512
21771SOL    HW165563   0.485   0.506   0.494
21771SOL    HW265564   0.456  11.184   0.608
21772SOL     OW65565   9.933   7.131   1.483
21772SOL    HW165566   9.966   7.050   1.444
21772SOL    HW265567   9.843   7.138   1.450
21773SOL     OW65568   2.324   3.809   2.337
21773SOL    HW165569   2.253   3.838   2.394
21773SOL    HW265570   2.283   3.803   2.250
21774SOL     OW65571  12.832   9.681   5.277
21774SOL    HW165572  12.892   9.752   5.256
21774SOL    HW265573  12.754   9.726   5.312
21775SOL     OW65574   5.565   9.911   5.752
21775SOL    HW165575   5.585   9.992   5.800
21775SOL    HW265576   5.620   9.845   5.794
21776SOL     OW65577   5.954   6.084   2.893
21776SOL    HW165578   6.016   6.154   2.873
21776SOL    HW265579   5.929   6.049   2.807
21777SOL     OW65580   2.376   7.888   0.059
21777SOL    HW165581   7.760  13.321   7.594
21777SOL    HW265582   2.449   7.827   0.050
21778SOL     OW65583   7.391  14.550   6.582
21778SOL    HW165584   7.394  14.570   6.675
21778SOL    HW265585   7.332  14.616   6.545
21779SOL     OW65586  13.534   9.159   5.291
21779SOL    HW165587  13.604   9.169   5.356
21779SOL    HW265588  13.475   9.094   5.330
21780SOL     OW65589   4.748  12.233   3.929
21780SOL    HW165590   4.701  12.288   3.867
21780SOL    HW265591   4.835  12.270   3.934
21781SOL     OW65592   6.293   7.072   6.939
21781SOL    HW165593   6.389   7.070   6.938
21781SOL    HW265594   6.268   7.087   6.848
21782SOL     OW65595   9.360   8.984   0.126
21782SOL    HW165596   9.380   8.894   0.101
21782SOL    HW265597   9.415   9.000   0.202
21783SOL     OW65598   9.008  12.127   5.526
21783SOL    HW165599   9.049  12.157   5.445
21783SOL    HW265600   9.056  12.173   5.595
21784SOL     OW65601  14.182   3.695   4.880
21784SOL    HW165602  14.190   3.599   4.874
21784SOL    HW265603  14.199   3.714   4.972
21785SOL     OW65604  10.668  10.499   6.326
21785SOL    HW165605  10.649  10.451   6.406
21785SOL    HW265606  10.763  10.515   6.330
21786SOL     OW65607   5.941   7.087   3.505
21786SOL    HW165608   5.955   7.096   3.599
21786SOL    HW265609   5.919   7.176   3.476
21787SOL     OW65610   5.505   8.280   2.746
21787SOL    HW165611   5.441   8.225   2.790
21787SOL    HW265612   5.459   8.362   2.730
21788SOL     OW65613   9.063   6.680   0.346
21788SOL    HW165614   9.127   6.739   0.306
21788SOL    HW265615   9.048   6.717   0.434
21789SOL     OW65616   7.111  10.035   7.088
21789SOL    HW165617   7.174  10.092   7.131
21789SOL    HW265618   7.151   9.948   7.093
21790SOL     OW65619   8.694  13.924   5.692
21790SOL    HW165620   8.718  13.902   5.782
21790SOL    HW265621   8.758  13.877   5.639
21791SOL     OW65622   9.353   9.008   2.884
21791SOL    HW165623   9.331   9.056   2.963
21791SOL    HW265624   9.327   8.918   2.902
21792SOL     OW65625   7.566   0.469   0.360
21792SOL    HW165626   7.565   0.550   0.309
21792SOL    HW265627   7.648   0.474   0.410
21793SOL     OW65628   4.806   7.922   0.337
21793SOL    HW165629   4.891   7.886   0.311
21793SOL    HW265630   4.826   8.005   0.379
21794SOL     OW65631  14.512  14.104   6.254
21794SOL    HW165632  14.429  14.125   6.211
21794SOL    HW265633  14.558  14.048   6.192
21795SOL     OW65634   3.032   7.545   4.282
21795SOL    HW165635  13.728   7.553   4.228
21795SOL    HW265636   3.103   7.578   4.226
21796SOL     OW65637   6.284  12.550   3.983
21796SOL    HW165638   6.285  12.596   3.900
21796SOL    HW265639   6.330  12.468   3.965
21797SOL     OW65640   8.055   5.741   3.718
21797SOL    HW165641   8.145   5.751   3.686
21797SOL    HW265642   8.046   5.809   3.785
21798SOL     OW65643  12.713  11.041   4.577
21798SOL    HW165644  12.695  11.012   4.667
21798SOL    HW265645  12.806  11.021   4.564
21799SOL     OW65646   7.705   9.465   0.990
21799SOL    HW165647   7.635   9.401   0.984
21799SOL    HW265648   7.666   9.546   0.955
21800SOL     OW65649   5.845   7.730   3.703
21800SOL    HW165650   5.869   7.820   3.727
21800SOL    HW265651   5.915   7.677   3.739
21801SOL     OW65652  11.249  10.266   4.542
21801SOL    HW165653  11.235  10.248   4.635
21801SOL    HW265654  11.301  10.193   4.511
21802SOL     OW65655   6.290  11.203   5.861
21802SOL    HW165656   6.286  11.242   5.774
21802SOL    HW265657   6.253  11.116   5.850
21803SOL     OW65658   8.731   5.981   4.066
21803SOL    HW165659   8.670   5.953   4.134
21803SOL    HW265660   8.694   5.947   3.985
21804SOL     OW65661   7.945   9.107   2.507
21804SOL    HW165662   7.900   9.133   2.587
21804SOL    HW265663   7.943   9.185   2.451
21805SOL     OW65664   9.691   6.736   5.186
21805SOL    HW165665   9.667   6.725   5.094
21805SOL    HW265666   9.715   6.829   5.193
21806SOL     OW65667  10.404   6.303   1.242
21806SOL    HW165668  10.458   6.293   1.320
21806SOL    HW265669  10.399   6.397   1.228
21807SOL     OW65670   7.042  11.320   6.391
21807SOL    HW165671   7.041  11.270   6.309
21807SOL    HW265672   6.957  11.363   6.394
21808SOL     OW65673   7.526   9.639   6.802
21808SOL    HW165674   7.504   9.587   6.724
21808SOL    HW265675   7.602   9.691   6.776
21809SOL     OW65676   5.340   6.595   2.045
21809SOL    HW165677   5.331   6.554   1.959
21809SOL    HW265678   5.371   6.525   2.102
21810SOL     OW65679  10.284  10.183   3.444
21810SOL    HW165680  10.235  10.114   3.489
21810SOL    HW265681  10.262  10.263   3.492
21811SOL     OW65682   9.749   3.088   0.670
21811SOL    HW165683   9.700   3.053   0.595
21811SOL    HW265684   9.743   3.020   0.737
21812SOL     OW65685   9.403   9.850   1.027
21812SOL    HW165686   9.397   9.942   1.001
21812SOL    HW265687   9.465   9.850   1.100
21813SOL     OW65688   6.872  13.471   6.316
21813SOL    HW165689   6.955  13.442   6.280
21813SOL    HW265690   6.811  13.400   6.295
21814SOL     OW65691   7.760   8.029   5.719
21814SOL    HW165692   7.818   8.092   5.761
21814SOL    HW265693   7.808   7.946   5.722
21815SOL     OW65694  11.914   5.759   5.253
21815SOL    HW165695  11.865   5.680   5.231
21815SOL    HW265696  11.900   5.818   5.178
21816SOL     OW65697   9.117   1.124   0.688
21816SOL    HW165698   9.171   1.200   0.710
21816SOL    HW265699   9.180   1.053   0.677
21817SOL     OW65700  10.581   7.233   2.361
21817SOL    HW165701  10.584   7.299   2.430
21817SOL    HW265702  10.543   7.279   2.286
21818SOL     OW65703  11.587   1.596   1.903
21818SOL    HW165704  11.576   1.549   1.820
21818SOL    HW265705  11.682   1.600   1.916
21819SOL     OW65706   9.447   8.769   7.501
21819SOL    HW165707   9.434   8.708   7.428
21819SOL    HW265708   9.538   8.754   7.529
21820SOL     OW65709   7.168   3.843   0.108
21820SOL    HW165710   7.112   3.872   0.180
21820SOL    HW265711   7.134   3.890   0.032
21821SOL     OW65712  11.558   6.131   4.021
21821SOL    HW165713  11.626   6.197   4.038
21821SOL    HW265714  11.599   6.048   4.045
21822SOL     OW65715  10.006  11.370   6.082
21822SOL    HW165716   9.992  11.336   6.170
21822SOL    HW265717   9.922  11.357   6.038
21823SOL     OW65718  10.471  10.637   6.467
21823SOL    HW165719  10.553  10.591   6.453
21823SOL    HW265720  10.479  10.676   6.555
21824SOL     OW65721   7.597   7.525   3.264
21824SOL    HW165722   7.565   7.570   3.342
21824SOL    HW265723   7.525   7.532   3.201
21825SOL     OW65724  13.304   6.380   5.363
21825SOL    HW165725  13.282   6.294   5.398
21825SOL    HW265726  13.399   6.376   5.347
21826SOL     OW65727   7.495  11.497   3.389
21826SOL    HW165728   7.453  11.452   3.462
21826SOL    HW265729   7.537  11.573   3.429
21827SOL     OW65730  10.938   3.234   2.672
21827SOL    HW165731  10.965   3.142   2.672
21827SOL    HW265732  10.875   3.241   2.744
21828SOL     OW65733   9.243   5.192   7.009
21828SOL    HW165734   9.189   5.249   7.065
21828SOL    HW265735   9.262   5.246   6.932
21829SOL     OW65736   9.124  11.586   3.320
21829SOL    HW165737   9.115  11.495   3.351
21829SOL    HW265738   9.086  11.585   3.232
21830SOL     OW65739   7.049  10.423   2.049
21830SOL    HW165740   6.993  10.353   2.015
21830SOL    HW265741   7.023  10.433   2.140
21831SOL     OW65742   7.594  10.870   2.899
21831SOL    HW165743   7.662  10.849   2.834
21831SOL    HW265744   7.605  10.963   2.916
21832SOL     OW65745   6.977   3.450   4.516
21832SOL    HW165746   6.967   3.492   4.601
21832SOL    HW265747   7.071   3.453   4.498
21833SOL     OW65748   3.150   2.852   2.002
21833SOL    HW165749   3.142   2.767   2.046
21833SOL    HW265750   3.074   2.855   1.943
21834SOL     OW65751   9.069  12.040   2.486
21834SOL    HW165752   9.045  12.015   2.397
21834SOL    HW265753   9.045  12.133   2.492
21835SOL     OW65754   6.756   2.395   3.089
21835SOL    HW165755   6.809   2.475   3.088
21835SOL    HW265756   6.777   2.351   3.007
21836SOL     OW65757   9.394  10.436   2.946
21836SOL    HW165758   9.388  10.396   2.859
21836SOL    HW265759   9.304  10.439   2.977
21837SOL     OW65760   2.280  11.721   1.962
21837SOL    HW165761   2.279  11.634   2.002
21837SOL    HW265762   2.371  11.732   1.933
21838SOL     OW65763   7.311   2.716   0.970
21838SOL    HW165764   7.390   2.667   0.994
21838SOL    HW265765   7.340   2.779   0.905
21839SOL     OW65766   6.487   6.217   4.143
21839SOL    HW165767   6.407   6.170   4.118
21839SOL    HW265768   6.458   6.289   4.198
21840SOL     OW65769  12.899  11.328   5.261
21840SOL    HW165770  12.900  11.421   5.237
21840SOL    HW265771  12.989  11.309   5.288
21841SOL     OW65772   4.991   3.368   4.707
21841SOL    HW165773   4.961   3.458   4.714
21841SOL    HW265774   4.961   3.340   4.620
21842SOL     OW65775   5.893   9.994   1.900
21842SOL    HW165776   5.878  10.013   1.807
21842SOL    HW265777   5.806   9.994   1.940
21843SOL     OW65778   7.255   8.971   5.249
21843SOL    HW165779   7.318   9.004   5.185
21843SOL    HW265780   7.179   8.946   5.197
21844SOL     OW65781   4.621   8.235   0.338
21844SOL    HW165782   4.530   8.213   0.318
21844SOL    HW265783   4.668   8.152   0.332
21845SOL     OW65784   9.305   9.124   3.585
21845SOL    HW165785   9.347   9.040   3.570
21845SOL    HW265786   9.251   9.111   3.663
21846SOL     OW65787  10.372  11.120   2.381
21846SOL    HW165788  10.337  11.175   2.452
21846SOL    HW265789  10.306  11.053   2.368
21847SOL     OW65790  11.883   2.614   2.006
21847SOL    HW165791  11.808   2.671   2.021
21847SOL    HW265792  11.893   2.565   2.087
21848SOL     OW65793  11.165  11.370   2.139
21848SOL    HW165794  11.224  11.365   2.214
21848SOL    HW265795  11.213  11.423   2.075
21849SOL     OW65796   7.524   8.028   2.184
21849SOL    HW165797   7.477   7.956   2.228
21849SOL    HW265798   7.456   8.078   2.141
21850SOL     OW65799   7.306   3.282   0.621
21850SOL    HW165800   7.306   3.201   0.570
21850SOL    HW265801   7.309   3.252   0.712
21851SOL     OW65802   6.679  11.210   7.380
21851SOL    HW165803   6.725  11.292   7.363
21851SOL    HW265804   6.748  11.145   7.393
21852SOL     OW65805   9.357  10.838   1.751
21852SOL    HW165806   9.378  10.902   1.819
21852SOL    HW265807   9.386  10.754   1.788
21853SOL     OW65808   0.836   8.880   0.353
21853SOL    HW165809   0.882   8.963   0.366
21853SOL    HW265810   0.905   8.814   0.363
21854SOL     OW65811  14.502  12.758   7.557
21854SOL    HW165812   9.148   7.405   0.021
21854SOL    HW265813  14.412  12.732   7.575
21855SOL     OW65814   2.084   5.982   1.433
21855SOL    HW165815   2.097   6.077   1.432
21855SOL    HW265816   1.989   5.971   1.432
21856SOL     OW65817   2.957   5.769   1.252
21856SOL    HW165818   2.888   5.706   1.275
21856SOL    HW265819   3.033   5.739   1.302
21857SOL     OW65820   7.242   7.190   7.096
21857SOL    HW165821   7.307   7.199   7.166
21857SOL    HW265822   7.229   7.279   7.063
21858SOL     OW65823   6.952   3.243   0.579
21858SOL    HW165824   6.931   3.177   0.512
21858SOL    HW265825   7.023   3.204   0.630
21859SOL     OW65826   5.617  10.494   0.204
21859SOL    HW165827   5.641  10.572   0.154
21859SOL    HW265828   5.678  10.492   0.278
21860SOL     OW65829  12.697   5.839   4.745
21860SOL    HW165830  12.638   5.914   4.733
21860SOL    HW265831  12.735   5.825   4.658
21861SOL     OW65832   8.325  12.348   6.698
21861SOL    HW165833   8.292  12.438   6.691
21861SOL    HW265834   8.352  12.340   6.789
21862SOL     OW65835   4.633   3.591   3.083
21862SOL    HW165836   4.605   3.636   3.163
21862SOL    HW265837   4.718   3.630   3.062
21863SOL     OW65838  13.936  14.651   7.107
21863SOL    HW165839  13.905  14.731   7.150
21863SOL    HW265840  13.941  14.674   7.014
21864SOL     OW65841  13.629   3.808   4.215
21864SOL    HW165842  13.646   3.883   4.159
21864SOL    HW265843  13.553   3.765   4.175
21865SOL     OW65844   6.689  11.482   2.852
21865SOL    HW165845   6.757  11.437   2.902
21865SOL    HW265846   6.690  11.438   2.767
21866SOL     OW65847   6.827  12.401   4.472
21866SOL    HW165848   6.849  12.480   4.521
21866SOL    HW265849   6.909  12.353   4.466
21867SOL     OW65850   5.073   1.843   0.097
21867SOL    HW165851   5.082   1.923   0.148
21867SOL    HW265852   5.096   1.868   0.008
21868SOL     OW65853   3.874  11.268   4.374
21868SOL    HW165854   3.903  11.345   4.424
21868SOL    HW265855   3.878  11.297   4.282
21869SOL     OW65856  12.638   9.041   5.832
21869SOL    HW165857  12.731   9.019   5.834
21869SOL    HW265858  12.614   9.033   5.739
21870SOL     OW65859   9.363  10.087   3.381
21870SOL    HW165860   9.445  10.070   3.428
21870SOL    HW265861   9.316  10.149   3.436
21871SOL     OW65862   9.479   3.252   1.188
21871SOL    HW165863   9.513   3.255   1.098
21871SOL    HW265864   9.500   3.338   1.225
21872SOL     OW65865  11.856   9.514   5.654
21872SOL    HW165866  11.909   9.581   5.611
21872SOL    HW265867  11.910   9.484   5.727
21873SOL     OW65868  12.374  13.071   4.638
21873SOL    HW165869  12.286  13.100   4.615
21873SOL    HW265870  12.408  13.029   4.559
21874SOL     OW65871   5.379   5.493   5.663
21874SOL    HW165872   5.449   5.445   5.706
21874SOL    HW265873   5.384   5.467   5.571
21875SOL     OW65874  12.906   9.585   4.071
21875SOL    HW165875  12.994   9.594   4.035
21875SOL    HW265876  12.847   9.607   3.999
21876SOL     OW65877   9.248   0.605   0.756
21876SOL    HW165878   9.318   0.627   0.695
21876SOL    HW265879   9.256  11.285   0.768
21877SOL     OW65880  14.504   8.579   7.534
21877SOL    HW165881  14.424   8.560   7.584
21877SOL    HW265882  14.540   8.492   7.515
21878SOL     OW65883  11.748   7.370   2.291
21878SOL    HW165884  11.674   7.418   2.254
21878SOL    HW265885  11.801   7.436   2.335
21879SOL     OW65886   6.675   7.328   2.895
21879SOL    HW165887   6.749   7.388   2.906
21879SOL    HW265888   6.600   7.375   2.932
21880SOL     OW65889   5.038   8.778   7.092
21880SOL    HW165890  15.752   8.817   7.155
21880SOL    HW265891   5.076   8.703   7.138
21881SOL     OW65892   5.453   9.166   6.559
21881SOL    HW165893   5.494   9.090   6.601
21881SOL    HW265894   5.363   9.165   6.591
21882SOL     OW65895   6.801   1.934   0.724
21882SOL    HW165896   6.813   2.000   0.793
21882SOL    HW265897   6.738   1.974   0.664
21883SOL     OW65898  10.453  11.158   3.379
21883SOL    HW165899  10.409  11.086   3.424
21883SOL    HW265900  10.542  11.127   3.364
21884SOL     OW65901   6.777   7.863   6.581
21884SOL    HW165902   6.692   7.826   6.605
21884SOL    HW265903   6.841   7.804   6.621
21885SOL     OW65904  10.244   9.650   6.388
21885SOL    HW165905  10.168   9.696   6.355
21885SOL    HW265906  10.261   9.581   6.324
21886SOL     OW65907   5.748   6.632   5.724
21886SOL    HW165908   5.715   6.555   5.771
21886SOL    HW265909   5.691   6.639   5.647
21887SOL     OW65910   3.264   4.773   1.697
21887SOL    HW165911   3.355   4.772   1.726
21887SOL    HW265912   3.250   4.863   1.665
21888SOL     OW65913  15.590   9.647   7.319
21888SOL    HW165914  15.684   9.666   7.327
21888SOL    HW265915  15.548   9.733   7.317
21889SOL     OW65916   5.547   6.039   7.308
21889SOL    HW165917   5.639   6.066   7.315
21889SOL    HW265918   5.502   6.086   7.378
21890SOL     OW65919  14.823  12.723   5.917
21890SOL    HW165920  14.744  12.674   5.944
21890SOL    HW265921  14.889  12.655   5.903
21891SOL     OW65922  14.739  12.495   5.732
21891SOL    HW165923  14.744  12.531   5.643
21891SOL    HW265924  14.799  12.549   5.783
21892SOL     OW65925  10.332   3.227   0.891
21892SOL    HW165926  10.340   3.287   0.965
21892SOL    HW265927  10.327   3.285   0.814
21893SOL     OW65928   5.587  12.150   6.809
21893SOL    HW165929   5.615  12.199   6.886
21893SOL    HW265930   5.665  12.102   6.781
21894SOL     OW65931   7.822   9.993   7.269
21894SOL    HW165932   7.892   9.998   7.204
21894SOL    HW265933   7.795   9.901   7.268
21895SOL     OW65934  10.306  10.315   1.580
21895SOL    HW165935  10.240  10.373   1.618
21895SOL    HW265936  10.374  10.309   1.647
21896SOL     OW65937   9.715  11.623   6.478
21896SOL    HW165938   9.652  11.555   6.455
21896SOL    HW265939   9.664  11.687   6.528
21897SOL     OW65940   9.433  11.737   2.466
21897SOL    HW165941   9.421  11.779   2.381
21897SOL    HW265942   9.344  11.729   2.501
21898SOL     OW65943   2.720   9.159   2.191
21898SOL    HW165944   2.761   9.224   2.134
21898SOL    HW265945   2.651   9.207   2.236
21899SOL     OW65946   9.604  11.512   2.292
21899SOL    HW165947   9.535  11.447   2.309
21899SOL    HW265948   9.587  11.581   2.356
21900SOL     OW65949   5.535   0.824   0.056
21900SOL    HW165950   5.595   0.769   0.006
21900SOL    HW265951   5.565   0.914   0.038
21901SOL     OW65952   7.044  14.517   7.252
21901SOL    HW165953   7.134  14.510   7.220
21901SOL    HW265954   7.012  14.599   7.215
21902SOL     OW65955  12.178   5.155   7.004
21902SOL    HW165956  12.252   5.100   6.977
21902SOL    HW265957  12.104   5.123   6.951
21903SOL     OW65958   8.073   7.371   3.251
21903SOL    HW165959   8.153   7.415   3.279
21903SOL    HW265960   8.016   7.375   3.328
21904SOL     OW65961  10.431   5.815   2.601
21904SOL    HW165962  10.495   5.813   2.673
21904SOL    HW265963  10.415   5.723   2.581
21905SOL     OW65964   9.762   8.321   3.687
21905SOL    HW165965   9.808   8.405   3.682
21905SOL    HW265966   9.812   8.270   3.750
21906SOL     OW65967   1.571   4.863   0.927
21906SOL    HW165968   1.518   4.837   0.852
21906SOL    HW265969   1.577   4.785   0.981
21907SOL     OW65970  12.262  10.423   6.452
21907SOL    HW165971  12.218  10.364   6.513
21907SOL    HW265972  12.352  10.430   6.486
21908SOL     OW65973   6.319  11.792   2.364
21908SOL    HW165974   6.402  11.809   2.409
21908SOL    HW265975   6.255  11.846   2.412
21909SOL     OW65976  10.592   3.583   0.248
21909SOL    HW165977  10.628   3.509   0.199
21909SOL    HW265978  10.509   3.603   0.204
21910SOL     OW65979   5.083  10.112   0.836
21910SOL    HW165980   5.150  10.060   0.792
21910SOL    HW265981   5.015  10.049   0.860
21911SOL     OW65982  13.761  15.354   7.115
21911SOL    HW165983  13.710  15.417   7.065
21911SOL    HW265984  13.838  15.402   7.144
21912SOL     OW65985  11.240   7.241   4.166
21912SOL    HW165986  11.177   7.245   4.094
21912SOL    HW265987  11.245   7.331   4.198
21913SOL     OW65988   9.860   7.438   4.842
21913SOL    HW165989   9.838   7.347   4.822
21913SOL    HW265990   9.951   7.448   4.813
21914SOL     OW65991   5.675   5.406   1.904
21914SOL    HW165992   5.730   5.439   1.833
21914SOL    HW265993   5.605   5.470   1.913
21915SOL     OW65994   8.659   5.473   2.050
21915SOL    HW165995   8.672   5.466   2.145
21915SOL    HW265996   8.725   5.416   2.012
21916SOL     OW65997  12.944   6.129   7.119
21916SOL    HW165998  12.848   6.127   7.116
21916SOL    HW265999  12.964   6.140   7.212
21917SOL     OW66000   9.803   4.590   0.325
21917SOL    HW166001   9.829   4.557   0.239
21917SOL    HW266002   9.875   4.566   0.382
21918SOL     OW66003   0.362   8.308   0.206
21918SOL    HW166004   0.436   8.334   0.261
21918SOL    HW266005   0.297   8.377   0.219
21919SOL     OW66006   9.608   8.602   3.898
21919SOL    HW166007   9.652   8.525   3.933
21919SOL    HW266008   9.561   8.571   3.821
21920SOL     OW66009   8.344  11.337   6.618
21920SOL    HW166010   8.413  11.271   6.627
21920SOL    HW266011   8.263  11.287   6.628
21921SOL     OW66012   8.394   5.834   0.128
21921SOL    HW166013   8.477   5.825   0.175
21921SOL    HW266014   8.363   5.744   0.116
21922SOL     OW66015   8.861   8.784   6.854
21922SOL    HW166016   8.852   8.864   6.802
21922SOL    HW266017   8.817   8.717   6.802
21923SOL     OW66018   1.650  10.172   0.074
21923SOL    HW166019   1.690  10.253   0.105
21923SOL    HW266020   1.724  10.116   0.050
21924SOL     OW66021  14.704  11.349   7.052
21924SOL    HW166022  14.705  11.404   6.974
21924SOL    HW266023  14.763  11.393   7.114
21925SOL     OW66024   9.389   9.775   0.714
21925SOL    HW166025   9.312   9.751   0.661
21925SOL    HW266026   9.386   9.715   0.788
21926SOL     OW66027   8.451  12.143   3.128
21926SOL    HW166028   8.434  12.156   3.221
21926SOL    HW266029   8.511  12.068   3.125
21927SOL     OW66030  10.214   4.960   4.152
21927SOL    HW166031  10.221   4.898   4.225
21927SOL    HW266032  10.305   4.986   4.135
21928SOL     OW66033  10.154  13.914   5.480
21928SOL    HW166034  10.170  13.820   5.487
21928SOL    HW266035  10.238  13.955   5.502
21929SOL     OW66036   6.581  11.665   6.782
21929SOL    HW166037   6.591  11.756   6.810
21929SOL    HW266038   6.494  11.662   6.740
21930SOL     OW66039   4.058   4.463   2.835
21930SOL    HW166040   4.038   4.554   2.855
21930SOL    HW266041   4.041   4.454   2.741
21931SOL     OW66042   7.235   4.138   4.139
21931SOL    HW166043   7.149   4.134   4.181
21931SOL    HW266044   7.280   4.210   4.183
21932SOL     OW66045   8.273   6.863   1.891
21932SOL    HW166046   8.281   6.945   1.940
21932SOL    HW266047   8.285   6.795   1.957
21933SOL     OW66048   7.324   2.328   1.738
21933SOL    HW166049   7.232   2.308   1.756
21933SOL    HW266050   7.363   2.339   1.825
21934SOL     OW66051  10.995   3.825   3.979
21934SOL    HW166052  10.968   3.748   3.928
21934SOL    HW266053  11.012   3.790   4.066
21935SOL     OW66054   6.238   4.076   5.575
21935SOL    HW166055   6.177   4.040   5.510
21935SOL    HW266056   6.315   4.019   5.569
21936SOL     OW66057   9.432   7.805   5.962
21936SOL    HW166058   9.415   7.840   6.050
21936SOL    HW266059   9.526   7.811   5.951
21937SOL     OW66060   4.740   9.617   1.235
21937SOL    HW166061   4.683   9.648   1.305
21937SOL    HW266062   4.814   9.678   1.235
21938SOL     OW66063  12.224   8.572   3.041
21938SOL    HW166064  12.176   8.504   2.993
21938SOL    HW266065  12.311   8.535   3.055
21939SOL     OW66066   7.751   8.641   0.114
21939SOL    HW166067   7.689   8.669   0.182
21939SOL    HW266068   7.826   8.606   0.162
21940SOL     OW66069   4.842   8.151   1.304
21940SOL    HW166070   4.753   8.152   1.268
21940SOL    HW266071   4.832   8.187   1.392
21941SOL     OW66072   9.176  10.891   3.641
21941SOL    HW166073   9.096  10.886   3.589
21941SOL    HW266074   9.235  10.945   3.589
21942SOL     OW66075   4.103   6.810   4.128
21942SOL    HW166076   4.198   6.808   4.113
21942SOL    HW266077   4.066   6.764   4.052
21943SOL     OW66078  11.935  12.073   4.322
21943SOL    HW166079  11.972  12.083   4.410
21943SOL    HW266080  11.842  12.089   4.333
21944SOL     OW66081   6.570  13.522   4.059
21944SOL    HW166082   6.608  13.470   3.988
21944SOL    HW266083   6.504  13.465   4.097
21945SOL     OW66084   8.875  10.775   0.245
21945SOL    HW166085   8.786  10.752   0.273
21945SOL    HW266086   8.877  10.755   0.152
21946SOL     OW66087   6.272   7.884   5.734
21946SOL    HW166088   6.286   7.814   5.670
21946SOL    HW266089   6.188   7.923   5.708
21947SOL     OW66090  10.634   3.033   3.290
21947SOL    HW166091  10.641   3.034   3.195
21947SOL    HW266092  10.554   3.082   3.309
21948SOL     OW66093   6.411   8.987   5.162
21948SOL    HW166094   6.377   8.898   5.151
21948SOL    HW266095   6.332   9.040   5.177
21949SOL     OW66096   3.298   3.144   3.211
21949SOL    HW166097   3.358   3.185   3.149
21949SOL    HW266098   3.338   3.157   3.296
21950SOL     OW66099   8.887  15.749   7.093
21950SOL    HW166100   8.966  15.698   7.077
21950SOL    HW266101   8.912  15.809   7.163
21951SOL     OW66102   3.322   5.192   3.673
21951SOL    HW166103   3.330   5.118   3.614
21951SOL    HW266104   3.293   5.154   3.756
21952SOL     OW66105   6.193   1.981   0.750
21952SOL    HW166106   6.154   2.062   0.780
21952SOL    HW266107   6.161   1.914   0.811
21953SOL     OW66108   9.354  11.254   6.106
21953SOL    HW166109   9.447  11.260   6.088
21953SOL    HW266110   9.319  11.197   6.037
21954SOL     OW66111   1.232   9.560   0.943
21954SOL    HW166112   1.276   9.631   0.990
21954SOL    HW266113   1.195   9.601   0.865
21955SOL     OW66114  11.249  12.011   7.013
21955SOL    HW166115  11.254  12.078   7.082
21955SOL    HW266116  11.165  11.968   7.028
21956SOL     OW66117  11.418   8.156   2.143
21956SOL    HW166118  11.438   8.188   2.055
21956SOL    HW266119  11.465   8.214   2.202
21957SOL     OW66120  13.290   5.100   6.172
21957SOL    HW166121  13.354   5.171   6.161
21957SOL    HW266122  13.283   5.088   6.267
21958SOL     OW66123  13.479   3.952   4.994
21958SOL    HW166124  13.421   3.886   5.031
21958SOL    HW266125  13.566   3.913   4.999
21959SOL     OW66126  14.976  10.290   6.320
21959SOL    HW166127  14.931  10.278   6.403
21959SOL    HW266128  15.062  10.250   6.333
21960SOL     OW66129   4.029   8.834   1.957
21960SOL    HW166130   4.076   8.909   1.993
21960SOL    HW266131   3.943   8.836   2.000
21961SOL     OW66132   9.974   7.224   6.436
21961SOL    HW166133  10.018   7.139   6.432
21961SOL    HW266134   9.977   7.256   6.346
21962SOL     OW66135  11.289   6.055   3.611
21962SOL    HW166136  11.263   6.048   3.703
21962SOL    HW266137  11.385   6.052   3.612
21963SOL     OW66138  10.689   9.882   0.984
21963SOL    HW166139  10.732   9.852   0.905
21963SOL    HW266140  10.688   9.977   0.976
21964SOL     OW66141   5.776  10.846   2.545
21964SOL    HW166142   5.843  10.912   2.530
21964SOL    HW266143   5.779  10.790   2.467
21965SOL     OW66144  11.913   6.693   5.090
21965SOL    HW166145  11.953   6.778   5.108
21965SOL    HW266146  11.859   6.709   5.013
21966SOL     OW66147   7.535   3.689   2.511
21966SOL    HW166148   7.528   3.677   2.606
21966SOL    HW266149   7.452   3.729   2.486
21967SOL     OW66150   3.725   7.431   0.722
21967SOL    HW166151   3.655   7.388   0.671
21967SOL    HW266152   3.727   7.384   0.805
21968SOL     OW66153   7.834  14.217   7.329
21968SOL    HW166154   7.864  14.226   7.239
21968SOL    HW266155   7.747  14.178   7.321
21969SOL     OW66156  10.264   9.589   1.671
21969SOL    HW166157  10.323   9.530   1.718
21969SOL    HW266158  10.297   9.588   1.581
21970SOL     OW66159   8.612   7.471   5.543
21970SOL    HW166160   8.531   7.507   5.507
21970SOL    HW266161   8.629   7.393   5.490
21971SOL     OW66162   3.922  11.114   2.185
21971SOL    HW166163   3.882  11.045   2.238
21971SOL    HW266164   3.849  11.156   2.140
21972SOL     OW66165   3.768   2.480   2.423
21972SOL    HW166166   3.833   2.502   2.490
21972SOL    HW266167   3.772   2.553   2.361
21973SOL     OW66168  10.706   8.183   2.609
21973SOL    HW166169  10.719   8.203   2.702
21973SOL    HW266170  10.611   8.184   2.597
21974SOL     OW66171   8.349  10.988   6.758
21974SOL    HW166172   8.397  11.021   6.833
21974SOL    HW266173   8.405  11.008   6.683
21975SOL     OW66174   5.296   4.886   1.754
21975SOL    HW166175   5.221   4.892   1.695
21975SOL    HW266176   5.367   4.853   1.700
21976SOL     OW66177   9.403   7.886   4.635
21976SOL    HW166178   9.332   7.869   4.696
21976SOL    HW266179   9.440   7.970   4.663
21977SOL     OW66180   4.026   9.429   4.065
21977SOL    HW166181   4.063   9.357   4.116
21977SOL    HW266182   3.993   9.388   3.985
21978SOL     OW66183   3.166   3.417   3.804
21978SOL    HW166184   3.106   3.454   3.739
21978SOL    HW266185   3.232   3.485   3.817
21979SOL     OW66186   6.083  14.502   7.414
21979SOL    HW166187   6.114  14.574   7.468
21979SOL    HW266188   6.018  14.542   7.356
21980SOL     OW66189   8.391   9.471   5.237
21980SOL    HW166190   8.363   9.419   5.313
21980SOL    HW266191   8.482   9.493   5.256
21981SOL     OW66192   5.388   7.143   3.253
21981SOL    HW166193   5.441   7.153   3.174
21981SOL    HW266194   5.410   7.220   3.306
21982SOL     OW66195   8.379   6.963   6.858
21982SOL    HW166196   8.292   6.931   6.882
21982SOL    HW266197   8.390   6.935   6.767
21983SOL     OW66198  10.790  10.909   1.788
21983SOL    HW166199  10.733  10.947   1.855
21983SOL    HW266200  10.872  10.959   1.796
21984SOL     OW66201   8.520  11.725   2.832
21984SOL    HW166202   8.448  11.661   2.834
21984SOL    HW266203   8.588  11.685   2.887
21985SOL     OW66204   8.498   8.933   5.007
21985SOL    HW166205   8.513   9.026   5.023
21985SOL    HW266206   8.505   8.924   4.912
21986SOL     OW66207   1.180   7.198   0.917
21986SOL    HW166208   1.151   7.165   0.831
21986SOL    HW266209   1.102   7.240   0.953
21987SOL     OW66210  12.055   7.365   7.343
21987SOL    HW166211  12.082   7.431   7.279
21987SOL    HW266212  11.987   7.408   7.395
21988SOL     OW66213   5.849   6.714   0.228
21988SOL    HW166214   5.852   6.626   0.193
21988SOL    HW266215   5.789   6.762   0.172
21989SOL     OW66216   8.441   8.761   6.642
21989SOL    HW166217   8.508   8.706   6.602
21989SOL    HW266218   8.449   8.745   6.736
21990SOL     OW66219   3.935   8.471   5.045
21990SOL    HW166220   3.986   8.540   5.088
21990SOL    HW266221   3.977   8.389   5.073
21991SOL     OW66222   7.661  10.416   5.551
21991SOL    HW166223   7.610  10.477   5.604
21991SOL    HW266224   7.641  10.441   5.460
21992SOL     OW66225  12.724  13.785   5.613
21992SOL    HW166226  12.748  13.815   5.701
21992SOL    HW266227  12.747  13.692   5.612
21993SOL     OW66228   5.407   8.725   2.551
21993SOL    HW166229   5.435   8.793   2.491
21993SOL    HW266230   5.334   8.682   2.507
21994SOL     OW66231   7.455  13.077   6.551
21994SOL    HW166232   7.402  13.107   6.477
21994SOL    HW266233   7.411  13.112   6.628
21995SOL     OW66234   2.518  10.639   2.584
21995SOL    HW166235   2.609  10.637   2.553
21995SOL    HW266236   2.517  10.579   2.659
21996SOL     OW66237  11.932  13.865   5.545
21996SOL    HW166238  11.851  13.821   5.519
21996SOL    HW266239  11.955  13.918   5.469
21997SOL     OW66240   8.283  10.876   0.395
21997SOL    HW166241   8.235  10.949   0.434
21997SOL    HW266242   8.245  10.798   0.436
21998SOL     OW66243   5.201   5.625   6.458
21998SOL    HW166244   5.204   5.652   6.366
21998SOL    HW266245   5.139   5.552   6.460
21999SOL     OW66246   8.474   6.844   5.460
21999SOL    HW166247   8.546   6.847   5.397
21999SOL    HW266248   8.395   6.857   5.408
22000SOL     OW66249   5.421  11.654   3.591
22000SOL    HW166250   5.351  11.717   3.577
22000SOL    HW266251   5.376  11.571   3.606
22001SOL     OW66252   9.270   3.787   1.465
22001SOL    HW166253   9.338   3.827   1.518
22001SOL    HW266254   9.301   3.698   1.448
22002SOL     OW66255  12.867  10.117   6.362
22002SOL    HW166256  12.921  10.077   6.294
22002SOL    HW266257  12.783  10.133   6.320
22003SOL     OW66258   3.972  10.497   0.793
22003SOL    HW166259   3.910  10.446   0.844
22003SOL    HW266260   3.921  10.570   0.759
22004SOL     OW66261   2.100   4.478   0.198
22004SOL    HW166262   2.055   4.560   0.178
22004SOL    HW266263   2.193   4.501   0.197
22005SOL     OW66264   7.761   8.241   1.477
22005SOL    HW166265   7.703   8.180   1.432
22005SOL    HW266266   7.846   8.197   1.478
22006SOL     OW66267   2.950   7.955   1.615
22006SOL    HW166268   3.011   7.993   1.552
22006SOL    HW266269   2.967   8.003   1.696
22007SOL     OW66270  12.770   6.599   7.342
22007SOL    HW166271  12.849   6.648   7.319
22007SOL    HW266272  12.716   6.604   7.263
22008SOL     OW66273  14.121   5.961   6.267
22008SOL    HW166274  14.028   5.986   6.271
22008SOL    HW266275  14.158   5.995   6.349
22009SOL     OW66276   7.364   4.454   1.534
22009SOL    HW166277   7.379   4.459   1.440
22009SOL    HW266278   7.373   4.544   1.565
22010SOL     OW66279   8.028   6.263   4.810
22010SOL    HW166280   8.079   6.200   4.861
22010SOL    HW266281   8.051   6.244   4.719
22011SOL     OW66282  10.207   5.552   5.784
22011SOL    HW166283  10.171   5.504   5.859
22011SOL    HW266284  10.189   5.644   5.805
22012SOL     OW66285  12.621   8.220   6.255
22012SOL    HW166286  12.679   8.150   6.223
22012SOL    HW266287  12.655   8.300   6.214
22013SOL     OW66288   5.610   7.955   0.080
22013SOL    HW166289   5.560   7.887   0.034
22013SOL    HW266290   5.610   7.927   0.171
22014SOL     OW66291   2.260   8.705   1.230
22014SOL    HW166292   2.265   8.610   1.220
22014SOL    HW266293   2.202   8.719   1.305
22015SOL     OW66294   9.328   4.350   2.658
22015SOL    HW166295   9.415   4.345   2.619
22015SOL    HW266296   9.298   4.439   2.639
22016SOL     OW66297  11.656   3.650   4.925
22016SOL    HW166298  11.748   3.640   4.949
22016SOL    HW266299  11.626   3.726   4.976
22017SOL     OW66300   8.675   8.552   6.698
22017SOL    HW166301   8.736   8.517   6.634
22017SOL    HW266302   8.596   8.500   6.688
22018SOL     OW66303  10.385   2.278   2.368
22018SOL    HW166304  10.433   2.198   2.392
22018SOL    HW266305  10.359   2.316   2.452
22019SOL     OW66306  10.878   7.120   5.306
22019SOL    HW166307  10.884   7.197   5.363
22019SOL    HW266308  10.969   7.100   5.284
22020SOL     OW66309   4.869   8.533   3.741
22020SOL    HW166310   4.819   8.489   3.810
22020SOL    HW266311   4.925   8.464   3.705
22021SOL     OW66312  12.918  13.608   4.696
22021SOL    HW166313  12.991  13.549   4.716
22021SOL    HW266314  12.961  13.687   4.662
22022SOL     OW66315  13.803   8.102   6.267
22022SOL    HW166316  13.746   8.027   6.279
22022SOL    HW266317  13.875   8.068   6.213
22023SOL     OW66318   3.706  11.218   2.380
22023SOL    HW166319   3.785  11.172   2.351
22023SOL    HW266320   3.649  11.219   2.303
22024SOL     OW66321   9.116   6.572   3.918
22024SOL    HW166322   9.191   6.631   3.913
22024SOL    HW266323   9.143   6.494   3.869
22025SOL     OW66324  14.879  10.852   6.248
22025SOL    HW166325  14.951  10.792   6.269
22025SOL    HW266326  14.801  10.797   6.248
22026SOL     OW66327  13.412   4.929   5.979
22026SOL    HW166328  13.475   4.975   5.924
22026SOL    HW266329  13.391   4.990   6.049
22027SOL     OW66330   2.023   5.004   2.250
22027SOL    HW166331   2.092   5.055   2.207
22027SOL    HW266332   2.012   4.927   2.194
22028SOL     OW66333  14.662  10.181   6.309
22028SOL    HW166334  14.615  10.144   6.383
22028SOL    HW266335  14.660  10.112   6.243
22029SOL     OW66336   7.620  11.246   2.720
22029SOL    HW166337   7.705  11.229   2.760
22029SOL    HW266338   7.574  11.162   2.725
22030SOL     OW66339   9.432   6.343   7.424
22030SOL    HW166340   9.372   6.314   7.493
22030SOL    HW266341   9.511   6.291   7.437
22031SOL     OW66342   5.510  10.013   6.558
22031SOL    HW166343   5.420   9.981   6.550
22031SOL    HW266344   5.561   9.954   6.501
22032SOL     OW66345   4.956   5.240   5.958
22032SOL    HW166346   4.922   5.198   5.879
22032SOL    HW266347   4.942   5.175   6.027
22033SOL     OW66348  10.772  12.758   4.383
22033SOL    HW166349  10.756  12.695   4.454
22033SOL    HW266350  10.705  12.739   4.318
22034SOL     OW66351   7.869  11.013   1.513
22034SOL    HW166352   7.961  11.037   1.517
22034SOL    HW266353   7.864  10.928   1.557
22035SOL     OW66354   7.192   6.022   7.054
22035SOL    HW166355   7.243   6.049   6.978
22035SOL    HW266356   7.144   5.944   7.025
22036SOL     OW66357   8.646   6.884   6.660
22036SOL    HW166358   8.555   6.876   6.633
22036SOL    HW266359   8.663   6.805   6.712
22037SOL     OW66360   5.373  15.511   7.529
22037SOL    HW166361   5.455  15.528   7.482
22037SOL    HW266362   5.367  15.415   7.532
22038SOL     OW66363   9.407   6.030   3.487
22038SOL    HW166364   9.353   6.109   3.482
22038SOL    HW266365   9.419   6.003   3.396
22039SOL     OW66366  11.181  12.050   4.545
22039SOL    HW166367  11.213  11.976   4.597
22039SOL    HW266368  11.240  12.123   4.568
22040SOL     OW66369   7.204   6.395   1.992
22040SOL    HW166370   7.230   6.394   2.084
22040SOL    HW266371   7.118   6.354   1.990
22041SOL     OW66372   6.289  13.918   6.562
22041SOL    HW166373   6.341  13.991   6.595
22041SOL    HW266374   6.245  13.952   6.484
22042SOL     OW66375   7.873   7.271   5.100
22042SOL    HW166376   7.845   7.359   5.121
22042SOL    HW266377   7.847   7.218   5.175
22043SOL     OW66378   6.201   9.884   6.129
22043SOL    HW166379   6.164   9.844   6.050
22043SOL    HW266380   6.249   9.813   6.171
22044SOL     OW66381  13.315   8.335   4.828
22044SOL    HW166382  13.320   8.429   4.847
22044SOL    HW266383  13.334   8.293   4.912
22045SOL     OW66384   5.954  12.377   7.046
22045SOL    HW166385   5.908  12.411   6.969
22045SOL    HW266386   5.891  12.387   7.118
22046SOL     OW66387   6.806   2.348   1.679
22046SOL    HW166388   6.746   2.274   1.668
22046SOL    HW266389   6.795   2.374   1.771
22047SOL     OW66390  12.782   2.723   2.970
22047SOL    HW166391   2.092   2.763   2.947
22047SOL    HW266392  12.720   2.797   2.969
22048SOL     OW66393   8.751   7.940   1.278
22048SOL    HW166394   8.747   8.036   1.288
22048SOL    HW266395   8.826   7.926   1.220
22049SOL     OW66396   7.473   6.249   7.470
22049SOL    HW166397   7.428   6.209   7.396
22049SOL    HW266398   7.404   6.270   7.532
22050SOL     OW66399  13.506  14.581   6.183
22050SOL    HW166400  13.585  14.628   6.158
22050SOL    HW266401  13.496  14.513   6.116
22051SOL     OW66402   5.533   7.628   4.318
22051SOL    HW166403   5.501   7.709   4.278
22051SOL    HW266404   5.505   7.559   4.258
22052SOL     OW66405   8.131  12.441   2.812
22052SOL    HW166406   8.167  12.367   2.861
22052SOL    HW266407   8.036  12.428   2.815
22053SOL     OW66408   6.101  13.503   6.166
22053SOL    HW166409   6.166  13.537   6.105
22053SOL    HW266410   6.075  13.580   6.218
22054SOL     OW66411   7.220   2.822   3.225
22054SOL    HW166412   7.135   2.777   3.232
22054SOL    HW266413   7.240   2.848   3.316
22055SOL     OW66414  13.586   5.749   6.168
22055SOL    HW166415  13.569   5.840   6.190
22055SOL    HW266416  13.541   5.699   6.237
22056SOL     OW66417   9.263   9.245   2.615
22056SOL    HW166418   9.330   9.178   2.630
22056SOL    HW266419   9.288   9.317   2.674
22057SOL     OW66420   8.575   2.614   1.432
22057SOL    HW166421   8.527   2.613   1.515
22057SOL    HW266422   8.663   2.644   1.455
22058SOL     OW66423   5.136   8.438   3.271
22058SOL    HW166424   5.231   8.423   3.270
22058SOL    HW266425   5.108   8.419   3.182
22059SOL     OW66426   2.463   7.340   1.553
22059SOL    HW166427   2.381   7.363   1.509
22059SOL    HW266428   2.437   7.276   1.620
22060SOL     OW66429  10.231   6.546   2.225
22060SOL    HW166430  10.315   6.516   2.189
22060SOL    HW266431  10.255   6.611   2.291
22061SOL     OW66432   3.346  11.148   1.306
22061SOL    HW166433   3.276  11.091   1.338
22061SOL    HW266434   3.300  11.226   1.273
22062SOL     OW66435   9.475  12.348   6.978
22062SOL    HW166436   9.569  12.331   6.976
22062SOL    HW266437   9.454  12.379   6.890
22063SOL     OW66438  12.674   7.489   4.188
22063SOL    HW166439  12.581   7.494   4.167
22063SOL    HW266440  12.691   7.564   4.245
22064SOL     OW66441   6.078   2.124   2.184
22064SOL    HW166442   5.991   2.155   2.159
22064SOL    HW266443   6.124   2.203   2.215
22065SOL     OW66444  11.135   4.776   5.400
22065SOL    HW166445  11.205   4.751   5.461
22065SOL    HW266446  11.113   4.866   5.425
22066SOL     OW66447  12.015  11.739   3.791
22066SOL    HW166448  11.976  11.794   3.859
22066SOL    HW266449  12.017  11.652   3.829
22067SOL     OW66450   8.534   3.901   0.937
22067SOL    HW166451   8.605   3.952   0.897
22067SOL    HW266452   8.492   3.858   0.862
22068SOL     OW66453   3.628  11.791   4.982
22068SOL    HW166454   3.585  11.862   5.029
22068SOL    HW266455   3.721  11.799   5.004
22069SOL     OW66456   9.830   2.124   2.890
22069SOL    HW166457   9.804   2.128   2.982
22069SOL    HW266458   9.761   2.072   2.848
22070SOL     OW66459   3.714   6.386   3.494
22070SOL    HW166460   3.803   6.418   3.487
22070SOL    HW266461   3.660   6.465   3.498
22071SOL     OW66462  10.252   8.183   5.191
22071SOL    HW166463  10.262   8.229   5.274
22071SOL    HW266464  10.166   8.141   5.197
22072SOL     OW66465   4.035   9.435   0.453
22072SOL    HW166466   4.058   9.393   0.536
22072SOL    HW266467   4.117   9.474   0.422
22073SOL     OW66468  11.710   4.060   2.337
22073SOL    HW166469  11.648   4.085   2.267
22073SOL    HW266470  11.681   4.111   2.413
22074SOL     OW66471  10.921  11.932   1.970
22074SOL    HW166472  10.996  11.900   2.019
22074SOL    HW266473  10.942  12.023   1.951
22075SOL     OW66474   6.501   3.172   3.261
22075SOL    HW166475   6.410   3.195   3.280
22075SOL    HW266476   6.540   3.252   3.226
22076SOL     OW66477  11.739   6.580   6.612
22076SOL    HW166478  11.776   6.583   6.700
22076SOL    HW266479  11.811   6.550   6.557
22077SOL     OW66480  10.511   5.184   6.087
22077SOL    HW166481  10.555   5.260   6.124
22077SOL    HW266482  10.579   5.117   6.080
22078SOL     OW66483   9.033  15.840   7.336
22078SOL    HW166484   8.961  15.892   7.371
22078SOL    HW266485   9.105  15.903   7.325
22079SOL     OW66486   1.417   1.440   1.507
22079SOL    HW166487   1.394   1.434   1.414
22079SOL    HW266488   1.361   1.510   1.541
22080SOL     OW66489   8.182   5.954   5.278
22080SOL    HW166490   8.267   5.917   5.257
22080SOL    HW266491   8.167   6.021   5.212
22081SOL     OW66492   0.842   3.432   0.870
22081SOL    HW166493   0.909   3.414   0.936
22081SOL    HW266494   0.890   3.473   0.797
22082SOL     OW66495   5.096   7.660   1.884
22082SOL    HW166496   5.109   7.742   1.930
22082SOL    HW266497   5.042   7.607   1.943
22083SOL     OW66498   8.734   6.094   6.218
22083SOL    HW166499   8.710   6.102   6.310
22083SOL    HW266500   8.768   6.005   6.210
22084SOL     OW66501   6.325  12.089   6.059
22084SOL    HW166502   6.280  12.173   6.070
22084SOL    HW266503   6.355  12.066   6.147
22085SOL     OW66504   8.481   9.803   5.720
22085SOL    HW166505   8.407   9.829   5.665
22085SOL    HW266506   8.467   9.850   5.802
22086SOL     OW66507  13.158  13.960   6.053
22086SOL    HW166508  13.184  13.882   6.102
22086SOL    HW266509  13.147  13.930   5.963
22087SOL     OW66510   2.277   9.671   2.951
22087SOL    HW166511   2.369   9.661   2.928
22087SOL    HW266512   2.261   9.765   2.942
22088SOL     OW66513   3.846   8.944   0.394
22088SOL    HW166514   3.783   9.008   0.360
22088SOL    HW266515   3.863   8.886   0.319
22089SOL     OW66516   4.786   2.584   3.054
22089SOL    HW166517   4.807   2.579   3.147
22089SOL    HW266518   4.792   2.494   3.023
22090SOL     OW66519   6.459   1.868   2.376
22090SOL    HW166520   6.543   1.913   2.378
22090SOL    HW266521   6.481   1.776   2.358
22091SOL     OW66522   7.305   8.730   0.810
22091SOL    HW166523   7.309   8.646   0.764
22091SOL    HW266524   7.358   8.789   0.757
22092SOL     OW66525  12.537   7.352   5.751
22092SOL    HW166526  12.472   7.385   5.814
22092SOL    HW266527  12.532   7.414   5.678
22093SOL     OW66528  12.493  14.776   6.891
22093SOL    HW166529  12.471  14.831   6.966
22093SOL    HW266530  12.412  14.769   6.841
22094SOL     OW66531   5.492  12.039   5.840
22094SOL    HW166532   5.558  11.977   5.871
22094SOL    HW266533   5.531  12.125   5.853
22095SOL     OW66534   4.270  14.055   4.725
22095SOL    HW166535   4.344  13.994   4.731
22095SOL    HW266536   4.195  14.005   4.756
22096SOL     OW66537   7.523   3.023   1.573
22096SOL    HW166538   7.479   2.997   1.654
22096SOL    HW266539   7.477   3.102   1.544
22097SOL     OW66540   5.363  11.906   3.803
22097SOL    HW166541   5.356  11.815   3.832
22097SOL    HW266542   5.449  11.911   3.762
22098SOL     OW66543   9.274   8.981   4.426
22098SOL    HW166544   9.331   8.927   4.372
22098SOL    HW266545   9.222   8.918   4.477
22099SOL     OW66546   9.581   6.970   1.443
22099SOL    HW166547   9.628   6.893   1.412
22099SOL    HW266548   9.631   7.044   1.410
22100SOL     OW66549   3.456   6.721   0.004
22100SOL    HW166550   8.845  12.045   7.551
22100SOL    HW266551   3.424   6.670   0.079
22101SOL     OW66552  12.760   4.897   3.200
22101SOL    HW166553  12.700   4.972   3.204
22101SOL    HW266554  12.714   4.827   3.246
22102SOL     OW66555   3.826   2.104   0.410
22102SOL    HW166556   3.817   2.107   0.505
22102SOL    HW266557   3.755   2.046   0.381
22103SOL     OW66558  13.474   4.234   5.578
22103SOL    HW166559  13.466   4.238   5.673
22103SOL    HW266560  13.568   4.238   5.562
22104SOL     OW66561   4.162   4.651   3.032
22104SOL    HW166562   4.164   4.567   2.988
22104SOL    HW266563   4.103   4.638   3.107
22105SOL     OW66564   7.631   9.910   2.766
22105SOL    HW166565   7.716   9.941   2.797
22105SOL    HW266566   7.595   9.984   2.716
22106SOL     OW66567  10.726   1.225   0.727
22106SOL    HW166568  10.709   1.131   0.734
22106SOL    HW266569  10.686   1.251   0.644
22107SOL     OW66570   0.950   5.704   1.142
22107SOL    HW166571   0.868   5.655   1.147
22107SOL    HW266572   1.018   5.637   1.152
22108SOL     OW66573   8.562  12.269   7.081
22108SOL    HW166574   8.586  12.215   7.156
22108SOL    HW266575   8.585  12.358   7.105
22109SOL     OW66576  11.331   9.666   5.476
22109SOL    HW166577  11.279   9.727   5.527
22109SOL    HW266578  11.422   9.686   5.498
22110SOL     OW66579  12.086   6.490   4.513
22110SOL    HW166580  12.073   6.510   4.606
22110SOL    HW266581  12.041   6.406   4.501
22111SOL     OW66582   3.428   7.354   3.269
22111SOL    HW166583   3.333   7.362   3.273
22111SOL    HW266584   3.460   7.402   3.345
22112SOL     OW66585   2.587   1.034   0.170
22112SOL    HW166586   2.680   1.017   0.160
22112SOL    HW266587   2.548   1.003   0.088
22113SOL     OW66588   6.335   6.181   7.142
22113SOL    HW166589   6.412   6.129   7.165
22113SOL    HW266590   6.270   6.159   7.209
22114SOL     OW66591   5.900   8.477   4.697
22114SOL    HW166592   5.807   8.499   4.688
22114SOL    HW266593   5.903   8.382   4.690
22115SOL     OW66594  13.973   3.857   4.963
22115SOL    HW166595  14.000   3.784   4.907
22115SOL    HW266596  14.038   3.859   5.033
22116SOL     OW66597   7.039   5.868   6.917
22116SOL    HW166598   7.002   5.799   6.863
22116SOL    HW266599   6.968   5.894   6.975
22117SOL     OW66600   9.601   5.226   6.026
22117SOL    HW166601   9.582   5.314   5.993
22117SOL    HW266602   9.627   5.176   5.948
22118SOL     OW66603   9.738   9.394   5.581
22118SOL    HW166604   9.735   9.459   5.511
22118SOL    HW266605   9.810   9.422   5.637
22119SOL     OW66606  12.381  14.477   7.404
22119SOL    HW166607  12.385  14.543   7.473
22119SOL    HW266608  12.336  14.403   7.444
22120SOL     OW66609   9.595   9.763   0.527
22120SOL    HW166610   9.651   9.703   0.575
22120SOL    HW266611   9.509   9.754   0.569
22121SOL     OW66612  11.212   5.743   1.033
22121SOL    HW166613  11.232   5.691   1.111
22121SOL    HW266614  11.287   5.802   1.024
22122SOL     OW66615   6.063  13.365   4.012
22122SOL    HW166616   6.137  13.315   4.045
22122SOL    HW266617   6.005  13.299   3.973
22123SOL     OW66618  11.881  11.510   2.552
22123SOL    HW166619  11.875  11.500   2.647
22123SOL    HW266620  11.915  11.599   2.539
22124SOL     OW66621   5.583   8.580   5.099
22124SOL    HW166622   5.567   8.650   5.036
22124SOL    HW266623   5.501   8.574   5.149
22125SOL     OW66624   7.362   2.023   1.036
22125SOL    HW166625   7.347   1.958   1.104
22125SOL    HW266626   7.406   2.095   1.081
22126SOL     OW66627   4.812  15.273   6.480
22126SOL    HW166628   4.785  15.364   6.497
22126SOL    HW266629   4.844  15.242   6.565
22127SOL     OW66630   8.233   8.343   4.068
22127SOL    HW166631   8.245   8.305   3.981
22127SOL    HW266632   8.317   8.328   4.112
22128SOL     OW66633  11.504   2.372   1.876
22128SOL    HW166634  11.488   2.278   1.870
22128SOL    HW266635  11.421   2.409   1.907
22129SOL     OW66636   6.035   8.145   1.323
22129SOL    HW166637   5.950   8.189   1.312
22129SOL    HW266638   6.092   8.187   1.259
22130SOL     OW66639  12.083  12.951   5.018
22130SOL    HW166640  12.040  12.922   5.098
22130SOL    HW266641  12.101  12.869   4.970
22131SOL     OW66642   6.990   9.538   3.414
22131SOL    HW166643   6.920   9.475   3.431
22131SOL    HW266644   7.070   9.487   3.416
22132SOL     OW66645  10.005  13.214   7.470
22132SOL    HW166646  10.077  13.238   7.529
22132SOL    HW266647  10.025  13.262   7.389
22133SOL     OW66648   5.932   7.530   5.055
22133SOL    HW166649   5.980   7.613   5.059
22133SOL    HW266650   6.001   7.463   5.059
22134SOL     OW66651   6.059   7.432   2.989
22134SOL    HW166652   6.010   7.370   3.043
22134SOL    HW266653   6.058   7.393   2.901
22135SOL     OW66654  13.406   8.643   5.374
22135SOL    HW166655  13.396   8.619   5.466
22135SOL    HW266656  13.382   8.735   5.370
22136SOL     OW66657   4.272  12.560   5.700
22136SOL    HW166658   4.318  12.574   5.783
22136SOL    HW266659   4.233  12.645   5.680
22137SOL     OW66660   9.994   3.917   1.403
22137SOL    HW166661   9.954   4.001   1.426
22137SOL    HW266662  10.087   3.928   1.422
22138SOL     OW66663   4.888  13.472   5.840
22138SOL    HW166664   4.839  13.523   5.775
22138SOL    HW266665   4.831  13.399   5.861
22139SOL     OW66666  11.380  15.443   7.088
22139SOL    HW166667  11.306  15.452   7.148
22139SOL    HW266668  11.347  15.476   7.005
22140SOL     OW66669   6.503   6.945   0.547
22140SOL    HW166670   6.460   6.941   0.461
22140SOL    HW266671   6.431   6.956   0.609
22141SOL     OW66672   7.288   4.790   3.201
22141SOL    HW166673   7.380   4.795   3.230
22141SOL    HW266674   7.254   4.712   3.244
22142SOL     OW66675  10.497  14.498   6.541
22142SOL    HW166676  10.491  14.576   6.484
22142SOL    HW266677  10.590  14.475   6.538
22143SOL     OW66678   2.968   7.985   2.755
22143SOL    HW166679   2.888   7.970   2.705
22143SOL    HW266680   2.975   7.909   2.813
22144SOL     OW66681  11.635   6.673   3.234
22144SOL    HW166682  11.560   6.615   3.218
22144SOL    HW266683  11.637   6.685   3.328
22145SOL     OW66684   4.906  12.970   5.363
22145SOL    HW166685   4.866  12.995   5.279
22145SOL    HW266686   4.882  13.041   5.423
22146SOL     OW66687   0.521   8.717   0.519
22146SOL    HW166688   0.508   8.622   0.515
22146SOL    HW266689   0.527   8.737   0.612
22147SOL     OW66690   8.249   6.729   2.728
22147SOL    HW166691   8.229   6.716   2.635
22147SOL    HW266692   8.321   6.668   2.746
22148SOL     OW66693  12.159  13.124   3.751
22148SOL    HW166694  12.225  13.170   3.699
22148SOL    HW266695  12.209  13.065   3.807
22149SOL     OW66696  12.769   6.428   4.728
22149SOL    HW166697  12.778   6.488   4.654
22149SOL    HW266698  12.854   6.433   4.773
22150SOL     OW66699  11.272   2.320   1.051
22150SOL    HW166700  11.367   2.310   1.057
22150SOL    HW266701  11.238   2.232   1.064
22151SOL     OW66702   5.119   4.459   3.389
22151SOL    HW166703   5.159   4.471   3.475
22151SOL    HW266704   5.178   4.502   3.328
22152SOL     OW66705   6.910  10.916   1.746
22152SOL    HW166706   6.919  10.952   1.834
22152SOL    HW266707   6.954  10.980   1.690
22153SOL     OW66708  10.026   6.896   1.285
22153SOL    HW166709   9.985   6.831   1.227
22153SOL    HW266710   9.993   6.874   1.372
22154SOL     OW66711   9.798  13.095   3.314
22154SOL    HW166712   9.793   2.356   3.225
22154SOL    HW266713   9.719  13.041   3.322
22155SOL     OW66714   3.952   2.076   2.865
22155SOL    HW166715   4.001   2.085   2.784
22155SOL    HW266716   3.868   2.118   2.848
22156SOL     OW66717   8.416  14.680   7.469
22156SOL    HW166718   8.446  14.595   7.501
22156SOL    HW266719   8.352  14.658   7.401
22157SOL     OW66720  12.687  12.242   7.435
22157SOL    HW166721  12.687  12.289   7.518
22157SOL    HW266722  12.608  12.187   7.438
22158SOL     OW66723   6.554  13.523   4.963
22158SOL    HW166724   6.462  13.549   4.972
22158SOL    HW266725   6.603  13.604   4.973
22159SOL     OW66726   7.497   6.662   6.112
22159SOL    HW166727   7.507   6.569   6.093
22159SOL    HW266728   7.586   6.697   6.109
22160SOL     OW66729   0.879   9.194   0.001
22160SOL    HW166730   0.936   9.118   0.009
22160SOL    HW266731   6.325  14.653   7.596
22161SOL     OW66732   7.354   6.535   0.185
22161SOL    HW166733   7.341   6.481   0.108
22161SOL    HW266734   7.428   6.591   0.163
22162SOL     OW66735   9.116   5.076   3.524
22162SOL    HW166736   9.064   5.039   3.452
22162SOL    HW266737   9.050   5.112   3.585
22163SOL     OW66738   4.411   8.131   1.607
22163SOL    HW166739   4.371   8.215   1.587
22163SOL    HW266740   4.473   8.150   1.678
22164SOL     OW66741   7.877  13.572   4.196
22164SOL    HW166742   7.907  13.481   4.199
22164SOL    HW266743   7.785  13.566   4.170
22165SOL     OW66744   7.465   8.630   7.236
22165SOL    HW166745   7.429   8.699   7.180
22165SOL    HW266746   7.444   8.657   7.325
22166SOL     OW66747   8.960   5.594   1.163
22166SOL    HW166748   8.971   5.509   1.120
22166SOL    HW266749   8.899   5.641   1.106
22167SOL     OW66750   6.879  10.558   6.479
22167SOL    HW166751   6.817  10.620   6.518
22167SOL    HW266752   6.925  10.519   6.553
22168SOL     OW66753   6.478   7.515   6.901
22168SOL    HW166754   6.433   7.590   6.941
22168SOL    HW266755   6.427   7.496   6.823
22169SOL     OW66756  10.436  12.378   3.068
22169SOL    HW166757  10.341  12.380   3.058
22169SOL    HW266758  10.463  12.299   3.021
22170SOL     OW66759   9.299   9.600   0.890
22170SOL    HW166760   9.214   9.560   0.907
22170SOL    HW266761   9.326   9.637   0.974
22171SOL     OW66762   8.648   9.277   6.908
22171SOL    HW166763   8.700   9.347   6.948
22171SOL    HW266764   8.658   9.290   6.814
22172SOL     OW66765  10.436   8.366   3.029
22172SOL    HW166766  10.408   8.423   3.101
22172SOL    HW266767  10.428   8.277   3.063
22173SOL     OW66768  13.059   7.902   6.491
22173SOL    HW166769  13.141   7.852   6.487
22173SOL    HW266770  12.996   7.842   6.528
22174SOL     OW66771   6.261   9.342   2.271
22174SOL    HW166772   6.263   9.322   2.365
22174SOL    HW266773   6.327   9.410   2.260
22175SOL     OW66774  14.658  14.028   6.757
22175SOL    HW166775  14.652  13.959   6.823
22175SOL    HW266776  14.602  13.999   6.686
22176SOL     OW66777   3.877  11.428   2.940
22176SOL    HW166778   3.803  11.426   3.001
22176SOL    HW266779   3.951  11.458   2.993
22177SOL     OW66780   5.747   8.988   6.669
22177SOL    HW166781   5.807   9.061   6.653
22177SOL    HW266782   5.805   8.914   6.687
22178SOL     OW66783   7.987   3.059   3.256
22178SOL    HW166784   8.024   3.009   3.328
22178SOL    HW266785   8.020   3.015   3.177
22179SOL     OW66786   7.874   9.029   4.556
22179SOL    HW166787   7.946   8.973   4.585
22179SOL    HW266788   7.897   9.116   4.590
22180SOL     OW66789   9.214   4.739   6.429
22180SOL    HW166790   9.279   4.743   6.358
22180SOL    HW266791   9.262   4.765   6.507
22181SOL     OW66792   4.328   3.686   3.990
22181SOL    HW166793   4.337   3.719   4.080
22181SOL    HW266794   4.296   3.761   3.941
22182SOL     OW66795  10.837   3.277   3.167
22182SOL    HW166796  10.840   3.369   3.193
22182SOL    HW266797  10.832   3.279   3.071
22183SOL     OW66798   7.471   5.188   5.705
22183SOL    HW166799   7.461   5.177   5.611
22183SOL    HW266800   7.395   5.240   5.732
22184SOL     OW66801   5.368  10.765   1.066
22184SOL    HW166802   5.336  10.844   1.110
22184SOL    HW266803   5.437  10.732   1.124
22185SOL     OW66804   5.566  11.020   3.152
22185SOL    HW166805   5.609  11.029   3.066
22185SOL    HW266806   5.480  11.059   3.140
22186SOL     OW66807   5.781  11.682   1.883
22186SOL    HW166808   5.753  11.593   1.864
22186SOL    HW266809   5.708  11.737   1.853
22187SOL     OW66810   9.526   3.716   2.661
22187SOL    HW166811   9.494   3.795   2.617
22187SOL    HW266812   9.531   3.650   2.592
22188SOL     OW66813  10.224  11.027   7.269
22188SOL    HW166814  10.246  11.105   7.217
22188SOL    HW266815  10.129  11.031   7.279
22189SOL     OW66816   4.494   4.310   5.241
22189SOL    HW166817   4.426   4.275   5.183
22189SOL    HW266818   4.458   4.393   5.273
22190SOL     OW66819  11.390   6.202   5.673
22190SOL    HW166820  11.320   6.155   5.720
22190SOL    HW266821  11.403   6.150   5.593
22191SOL     OW66822  13.509  10.299   5.809
22191SOL    HW166823  13.458  10.219   5.820
22191SOL    HW266824  13.462  10.365   5.860
22192SOL     OW66825  10.920   5.900   0.218
22192SOL    HW166826  10.836   5.930   0.184
22192SOL    HW266827  10.898   5.833   0.282
22193SOL     OW66828   6.985  12.893   3.481
22193SOL    HW166829   6.957  12.878   3.571
22193SOL    HW266830   6.913  12.941   3.441
22194SOL     OW66831   3.894   9.189   4.916
22194SOL    HW166832   3.863   9.193   5.006
22194SOL    HW266833   3.837   9.125   4.873
22195SOL     OW66834   5.762  11.313   5.384
22195SOL    HW166835   5.714  11.273   5.456
22195SOL    HW266836   5.699  11.373   5.344
22196SOL     OW66837   7.633   2.202   2.726
22196SOL    HW166838   7.559   2.143   2.713
22196SOL    HW266839   7.595   2.281   2.764
22197SOL     OW66840  14.419  10.276   6.817
22197SOL    HW166841  14.424  10.214   6.745
22197SOL    HW266842  14.386  10.357   6.778
22198SOL     OW66843   3.361   5.885   3.675
22198SOL    HW166844   3.318   5.804   3.647
22198SOL    HW266845   3.322   5.953   3.619
22199SOL     OW66846  10.229   8.721   3.696
22199SOL    HW166847  10.216   8.750   3.606
22199SOL    HW266848  10.199   8.630   3.696
22200SOL     OW66849   2.789   1.330   0.156
22200SOL    HW166850   2.883   1.320   0.147
22200SOL    HW266851   2.754   1.306   0.070
22201SOL     OW66852   2.951   5.272   0.320
22201SOL    HW166853   3.004   5.308   0.249
22201SOL    HW266854   2.880   5.226   0.275
22202SOL     OW66855   8.310  11.598   2.216
22202SOL    HW166856   8.218  11.618   2.200
22202SOL    HW266857   8.358  11.651   2.153
22203SOL     OW66858  13.670   4.902   6.261
22203SOL    HW166859  13.580   4.915   6.290
22203SOL    HW266860  13.673   4.812   6.230
22204SOL     OW66861   5.436   3.449   3.904
22204SOL    HW166862   5.444   3.357   3.932
22204SOL    HW266863   5.355   3.479   3.945
22205SOL     OW66864  11.196  12.204   5.475
22205SOL    HW166865  11.265  12.158   5.426
22205SOL    HW266866  11.116  12.185   5.426
22206SOL     OW66867   8.770   7.739   3.740
22206SOL    HW166868   8.797   7.818   3.693
22206SOL    HW266869   8.676   7.734   3.726
22207SOL     OW66870   8.112   6.915   5.883
22207SOL    HW166871   8.100   6.837   5.937
22207SOL    HW266872   8.130   6.881   5.795
22208SOL     OW66873   7.574  14.138   7.218
22208SOL    HW166874   7.499  14.078   7.218
22208SOL    HW266875   7.597  14.147   7.125
22209SOL     OW66876   9.887   5.660   4.683
22209SOL    HW166877   9.829   5.701   4.746
22209SOL    HW266878   9.948   5.730   4.658
22210SOL     OW66879   3.508   1.521   0.972
22210SOL    HW166880   3.586   1.533   0.918
22210SOL    HW266881   3.436   1.544   0.914
22211SOL     OW66882   5.693   2.112   0.391
22211SOL    HW166883   5.735   2.194   0.365
22211SOL    HW266884   5.701   2.056   0.315
22212SOL     OW66885  10.339   7.996   4.932
22212SOL    HW166886  10.285   7.922   4.901
22212SOL    HW266887  10.290   8.031   5.006
22213SOL     OW66888   2.286   4.843   1.882
22213SOL    HW166889   2.377   4.833   1.910
22213SOL    HW266890   2.267   4.936   1.895
22214SOL     OW66891  14.854   5.972   5.996
22214SOL    HW166892  14.902   6.055   6.000
22214SOL    HW266893  14.900   5.921   5.930
22215SOL     OW66894   8.709   6.951   5.627
22215SOL    HW166895   8.688   6.963   5.719
22215SOL    HW266896   8.629   6.916   5.588
22216SOL     OW66897   1.407   3.712   1.535
22216SOL    HW166898   1.381   3.621   1.550
22216SOL    HW266899   1.325   3.762   1.538
22217SOL     OW66900   2.179   5.580   1.619
22217SOL    HW166901   2.090   5.581   1.654
22217SOL    HW266902   2.169   5.601   1.527
22218SOL     OW66903  11.889   4.612   4.006
22218SOL    HW166904  11.900   4.632   3.914
22218SOL    HW266905  11.795   4.594   4.016
22219SOL     OW66906  10.121  11.239   0.884
22219SOL    HW166907  10.131  11.193   0.967
22219SOL    HW266908  10.033  11.277   0.888
22220SOL     OW66909   7.703   5.348   2.167
22220SOL    HW166910   7.677   5.439   2.151
22220SOL    HW266911   7.623   5.306   2.201
22221SOL     OW66912   2.203   4.424   0.824
22221SOL    HW166913   2.172   4.335   0.807
22221SOL    HW266914   2.265   4.441   0.753
22222SOL     OW66915   9.777  13.754   6.873
22222SOL    HW166916   9.790  13.693   6.800
22222SOL    HW266917   9.719  13.707   6.933
22223SOL     OW66918   5.826   6.758   7.232
22223SOL    HW166919   5.915   6.781   7.259
22223SOL    HW266920   5.830   6.665   7.210
22224SOL     OW66921   8.210  10.506   0.679
22224SOL    HW166922   8.297  10.479   0.648
22224SOL    HW266923   8.223  10.595   0.711
22225SOL     OW66924  11.166   7.085   2.531
22225SOL    HW166925  11.255   7.052   2.517
22225SOL    HW266926  11.140   7.121   2.446
22226SOL     OW66927  13.397   9.426   5.322
22226SOL    HW166928  13.307   9.398   5.311
22226SOL    HW266929  13.447   9.344   5.325
22227SOL     OW66930  13.361   5.935   4.046
22227SOL    HW166931  13.456   5.945   4.033
22227SOL    HW266932  13.352   5.904   4.136
22228SOL     OW66933   8.437   3.558   2.438
22228SOL    HW166934   8.475   3.582   2.523
22228SOL    HW266935   8.480   3.616   2.375
22229SOL     OW66936  14.644   9.748   5.848
22229SOL    HW166937  14.703   9.795   5.907
22229SOL    HW266938  14.702   9.696   5.792
22230SOL     OW66939   8.887   6.845   4.439
22230SOL    HW166940   8.982   6.853   4.440
22230SOL    HW266941   8.869   6.770   4.495
22231SOL     OW66942   8.369   5.955   7.133
22231SOL    HW166943   8.396   5.942   7.224
22231SOL    HW266944   8.279   5.922   7.130
22232SOL     OW66945   6.119   1.326   1.635
22232SOL    HW166946   6.109   1.264   1.706
22232SOL    HW266947   6.172   1.280   1.570
22233SOL     OW66948   8.504   6.090   4.592
22233SOL    HW166949   8.520   6.183   4.606
22233SOL    HW266950   8.437   6.088   4.523
22234SOL     OW66951   9.369   4.569   0.793
22234SOL    HW166952   9.396   4.541   0.706
22234SOL    HW266953   9.399   4.660   0.800
22235SOL     OW66954  12.018   9.152   6.738
22235SOL    HW166955  12.007   9.085   6.671
22235SOL    HW266956  11.971   9.228   6.704
22236SOL     OW66957   8.805   7.040   3.509
22236SOL    HW166958   8.802   6.990   3.591
22236SOL    HW266959   8.874   6.998   3.458
22237SOL     OW66960   8.380   4.808   6.385
22237SOL    HW166961   8.445   4.867   6.345
22237SOL    HW266962   8.418   4.786   6.470
22238SOL     OW66963   7.839  11.327   7.252
22238SOL    HW166964   7.853  11.235   7.274
22238SOL    HW266965   7.745  11.341   7.267
22239SOL     OW66966   1.191   9.948   1.360
22239SOL    HW166967   1.149  10.029   1.389
22239SOL    HW266968   1.118   9.891   1.333
22240SOL     OW66969  11.745   7.089   5.200
22240SOL    HW166970  11.657   7.064   5.228
22240SOL    HW266971  11.763   7.171   5.246
22241SOL     OW66972  10.109   9.229   5.328
22241SOL    HW166973  10.066   9.144   5.330
22241SOL    HW266974  10.058   9.283   5.389
22242SOL     OW66975   5.183   8.218   6.963
22242SOL    HW166976   5.216   8.290   6.909
22242SOL    HW266977   5.245   8.146   6.947
22243SOL     OW66978   5.133  10.084   6.003
22243SOL    HW166979   5.174  10.026   5.939
22243SOL    HW266980   5.075  10.140   5.951
22244SOL     OW66981  14.438   7.322   6.753
22244SOL    HW166982  14.471   7.239   6.789
22244SOL    HW266983  14.515   7.379   6.749
22245SOL     OW66984   7.899   7.061   2.895
22245SOL    HW166985   7.906   7.156   2.904
22245SOL    HW266986   7.892   7.046   2.800
22246SOL     OW66987   6.091  13.573   5.718
22246SOL    HW166988   6.180  13.604   5.726
22246SOL    HW266989   6.075  13.521   5.797
22247SOL     OW66990   5.046  12.741   5.248
22247SOL    HW166991   5.114  12.773   5.307
22247SOL    HW266992   4.973  12.803   5.258
22248SOL     OW66993   5.195   7.773   1.564
22248SOL    HW166994   5.149   7.850   1.598
22248SOL    HW266995   5.260   7.753   1.632
22249SOL     OW66996   4.967  12.373   3.601
22249SOL    HW166997   5.039  12.312   3.583
22249SOL    HW266998   4.889  12.318   3.604
22250SOL     OW66999   5.442   3.666   4.519
22250SOL    HW167000   5.425   3.730   4.449
22250SOL    HW267001   5.359   3.619   4.528
22251SOL     OW67002   6.590   6.724   0.217
22251SOL    HW167003   6.647   6.648   0.221
22251SOL    HW267004   6.648   6.796   0.191
22252SOL     OW67005  12.526   6.014   4.661
22252SOL    HW167006  12.531   6.091   4.717
22252SOL    HW267007  12.562   6.043   4.577
22253SOL     OW67008  12.204   5.623   3.687
22253SOL    HW167009  12.286   5.611   3.638
22253SOL    HW267010  12.185   5.537   3.725
22254SOL     OW67011   4.889   9.708   6.501
22254SOL    HW167012   4.826   9.642   6.471
22254SOL    HW267013   4.859   9.789   6.462
22255SOL     OW67014   4.392  11.478   6.124
22255SOL    HW167015   4.323  11.443   6.067
22255SOL    HW267016   4.451  11.403   6.137
22256SOL     OW67017   5.986   8.583   1.196
22256SOL    HW167018   5.942   8.562   1.114
22256SOL    HW267019   5.916   8.618   1.252
22257SOL     OW67020   5.770   9.819   5.981
22257SOL    HW167021   5.693   9.797   6.034
22257SOL    HW267022   5.783   9.913   5.996
22258SOL     OW67023   7.485   3.382   4.419
22258SOL    HW167024   7.428   3.321   4.467
22258SOL    HW267025   7.425   3.436   4.368
22259SOL     OW67026  10.265   5.948   1.414
22259SOL    HW167027  10.294   5.921   1.501
22259SOL    HW267028  10.303   5.884   1.355
22260SOL     OW67029   6.457   6.113   0.070
22260SOL    HW167030   6.402   6.155   0.135
22260SOL    HW267031   6.513   6.183   0.036
22261SOL     OW67032   7.573   4.885   4.908
22261SOL    HW167033   7.577   4.832   4.829
22261SOL    HW267034   7.664   4.905   4.928
22262SOL     OW67035   6.413  12.858   4.451
22262SOL    HW167036   6.463  12.781   4.424
22262SOL    HW267037   6.359  12.827   4.524
22263SOL     OW67038  10.207   6.368   6.931
22263SOL    HW167039  10.224   6.375   6.838
22263SOL    HW267040  10.166   6.283   6.942
22264SOL     OW67041   9.305   2.587   1.946
22264SOL    HW167042   9.364   2.512   1.957
22264SOL    HW267043   9.349   2.659   1.991
22265SOL     OW67044  11.553  10.372   3.641
22265SOL    HW167045  11.467  10.374   3.684
22265SOL    HW267046  11.544  10.305   3.574
22266SOL     OW67047  15.282   8.808   7.154
22266SOL    HW167048  15.241   8.795   7.240
22266SOL    HW267049  15.257   8.730   7.104
22267SOL     OW67050   3.246   0.306   0.062
22267SOL    HW167051   3.195   0.226   0.073
22267SOL    HW267052   3.202   0.370   0.119
22268SOL     OW67053   9.756  12.687   7.416
22268SOL    HW167054   9.719  12.746   7.483
22268SOL    HW267055   9.765  12.743   7.339
22269SOL     OW67056   2.771   2.706   3.751
22269SOL    HW167057   2.767  13.456   3.843
22269SOL    HW267058   2.689   2.754   3.735
22270SOL     OW67059   6.781   0.873   0.923
22270SOL    HW167060   6.738   0.957   0.908
22270SOL    HW267061   6.855   0.894   0.980
22271SOL     OW67062   5.190   9.511   1.281
22271SOL    HW167063   5.126   9.444   1.258
22271SOL    HW267064   5.184   9.519   1.376
22272SOL     OW67065   9.959   6.511   2.483
22272SOL    HW167066   9.978   6.421   2.507
22272SOL    HW267067  10.042   6.544   2.447
22273SOL     OW67068   4.319  10.716   3.279
22273SOL    HW167069   4.292  10.753   3.364
22273SOL    HW267070   4.285  10.626   3.281
22274SOL     OW67071   7.807  11.064   7.173
22274SOL    HW167072   7.854  11.008   7.110
22274SOL    HW267073   7.753  11.121   7.118
22275SOL     OW67074   5.613   4.219   4.772
22275SOL    HW167075   5.662   4.219   4.690
22275SOL    HW267076   5.666   4.166   4.832
22276SOL     OW67077   4.473   7.160   1.014
22276SOL    HW167078   4.463   7.253   1.035
22276SOL    HW267079   4.392   7.137   0.969
22277SOL     OW67080   9.066   8.938   5.660
22277SOL    HW167081   9.141   8.908   5.712
22277SOL    HW267082   9.021   9.001   5.716
22278SOL     OW67083  11.228   5.832   3.204
22278SOL    HW167084  11.169   5.873   3.267
22278SOL    HW267085  11.280   5.770   3.256
22279SOL     OW67086  10.142   6.617   5.360
22279SOL    HW167087  10.179   6.683   5.301
22279SOL    HW267088  10.212   6.552   5.370
22280SOL     OW67089   4.836   0.612   0.293
22280SOL    HW167090   4.923   0.583   0.266
22280SOL    HW267091   4.779   0.590   0.219
22281SOL     OW67092   9.604   6.957   6.585
22281SOL    HW167093   9.670   6.994   6.527
22281SOL    HW267094   9.617   6.862   6.580
22282SOL     OW67095   6.667  12.233   6.205
22282SOL    HW167096   6.588  12.262   6.251
22282SOL    HW267097   6.734  12.228   6.273
22283SOL     OW67098   4.751   7.225   5.544
22283SOL    HW167099   4.822   7.160   5.541
22283SOL    HW267100   4.760   7.266   5.630
22284SOL     OW67101  10.640   2.971   0.621
22284SOL    HW167102  10.570   2.927   0.574
22284SOL    HW267103  10.671   2.907   0.685
22285SOL     OW67104   4.802   4.735   0.137
22285SOL    HW167105   4.762   4.813   0.100
22285SOL    HW267106   4.744   4.663   0.109
22286SOL     OW67107   8.610  10.739   2.896
22286SOL    HW167108   8.531  10.705   2.939
22286SOL    HW267109   8.592  10.732   2.802
22287SOL     OW67110  12.789   9.731   3.812
22287SOL    HW167111  12.744   9.656   3.774
22287SOL    HW267112  12.727   9.767   3.875
22288SOL     OW67113   7.386  15.162   6.536
22288SOL    HW167114   7.391  15.252   6.569
22288SOL    HW267115   7.391  15.107   6.614
22289SOL     OW67116   7.855  12.268   6.466
22289SOL    HW167117   7.880  12.286   6.557
22289SOL    HW267118   7.926  12.304   6.413
22290SOL     OW67119  13.459   9.472   6.681
22290SOL    HW167120  13.473   9.408   6.611
22290SOL    HW267121  13.473   9.423   6.762
22291SOL     OW67122   5.959   7.883   5.732
22291SOL    HW167123   5.955   7.805   5.676
22291SOL    HW267124   5.946   7.956   5.672
22292SOL     OW67125   3.767   3.429   3.862
22292SOL    HW167126   3.825   3.504   3.874
22292SOL    HW267127   3.781   3.374   3.939
22293SOL     OW67128   9.296   3.735   3.964
22293SOL    HW167129   9.296   3.688   3.881
22293SOL    HW267130   9.308   3.827   3.940
22294SOL     OW67131  13.637  10.489   6.828
22294SOL    HW167132  13.664  10.490   6.737
22294SOL    HW267133  13.554  10.441   6.829
22295SOL     OW67134   4.749   4.598   2.781
22295SOL    HW167135   4.758   4.578   2.687
22295SOL    HW267136   4.839   4.605   2.812
22296SOL     OW67137  12.781  10.384   6.745
22296SOL    HW167138  12.713  10.322   6.769
22296SOL    HW267139  12.793  10.371   6.650
22297SOL     OW67140   7.808   1.215   1.021
22297SOL    HW167141   7.764   1.190   1.102
22297SOL    HW267142   7.809   1.135   0.968
22298SOL     OW67143   9.702  12.444   4.284
22298SOL    HW167144   9.735  12.533   4.273
22298SOL    HW267145   9.766  12.401   4.341
22299SOL     OW67146   4.689   8.656   3.576
22299SOL    HW167147   4.719   8.678   3.488
22299SOL    HW267148   4.765   8.616   3.618
22300SOL     OW67149  14.786   5.232   6.833
22300SOL    HW167150  14.747   5.145   6.837
22300SOL    HW267151  14.865   5.225   6.887
22301SOL     OW67152   5.997   8.905   4.953
22301SOL    HW167153   5.953   8.886   5.035
22301SOL    HW267154   5.943   8.972   4.911
22302SOL     OW67155   7.705   4.247   2.899
22302SOL    HW167156   7.683   4.178   2.961
22302SOL    HW267157   7.704   4.328   2.951
22303SOL     OW67158  10.810   7.686   6.343
22303SOL    HW167159  10.743   7.700   6.409
22303SOL    HW267160  10.805   7.593   6.323
22304SOL     OW67161   6.845   4.166   1.315
22304SOL    HW167162   6.778   4.127   1.371
22304SOL    HW267163   6.928   4.148   1.360
22305SOL     OW67164   7.495   8.217   0.048
22305SOL    HW167165   7.509   8.291   0.107
22305SOL    HW267166   7.558   8.151   0.077
22306SOL     OW67167   2.470   3.610   2.163
22306SOL    HW167168   2.468   3.687   2.106
22306SOL    HW267169   2.413   3.633   2.236
22307SOL     OW67170   1.867   3.268   2.133
22307SOL    HW167171   1.849   3.275   2.039
22307SOL    HW267172   1.866   3.174   2.151
22308SOL     OW67173  12.912   8.056   6.931
22308SOL    HW167174  12.899   8.149   6.949
22308SOL    HW267175  12.825   8.024   6.905
22309SOL     OW67176   7.529  11.292   1.894
22309SOL    HW167177   7.559  11.353   1.961
22309SOL    HW267178   7.547  11.337   1.811
22310SOL     OW67179   5.460   3.300   0.974
22310SOL    HW167180   5.484   3.346   1.054
22310SOL    HW267181   5.366   3.316   0.965
22311SOL     OW67182   9.930   8.441   1.980
22311SOL    HW167183   9.985   8.423   1.904
22311SOL    HW267184   9.868   8.368   1.984
22312SOL     OW67185  10.428   9.309   6.888
22312SOL    HW167186  10.494   9.286   6.822
22312SOL    HW267187  10.460   9.272   6.969
22313SOL     OW67188  10.487  13.329   6.607
22313SOL    HW167189  10.563  13.279   6.579
22313SOL    HW267190  10.516  13.420   6.607
22314SOL     OW67191   6.457   9.644   5.238
22314SOL    HW167192   6.479   9.580   5.170
22314SOL    HW267193   6.489   9.605   5.319
22315SOL     OW67194   3.647   4.211   1.198
22315SOL    HW167195   3.636   4.291   1.146
22315SOL    HW267196   3.721   4.230   1.255
22316SOL     OW67197  11.415   4.863   4.159
22316SOL    HW167198  11.337   4.864   4.215
22316SOL    HW267199  11.476   4.923   4.203
22317SOL     OW67200   9.863   6.728   0.309
22317SOL    HW167201   9.877   6.812   0.352
22317SOL    HW267202   9.768   6.721   0.301
22318SOL     OW67203   8.823   9.957   6.650
22318SOL    HW167204   8.757  10.021   6.674
22318SOL    HW267205   8.885   9.958   6.723
22319SOL     OW67206   8.802   9.692   2.944
22319SOL    HW167207   8.822   9.779   2.910
22319SOL    HW267208   8.841   9.691   3.032
22320SOL     OW67209  12.264   8.213   3.002
22320SOL    HW167210  12.353   8.211   3.037
22320SOL    HW267211  12.225   8.291   3.040
22321SOL     OW67212   6.305   8.257   3.108
22321SOL    HW167213   6.296   8.352   3.105
22321SOL    HW267214   6.392   8.243   3.146
22322SOL     OW67215   5.128   5.568   3.282
22322SOL    HW167216   5.163   5.614   3.206
22322SOL    HW267217   5.066   5.505   3.245
22323SOL     OW67218   5.899  10.083   5.717
22323SOL    HW167219   5.853  10.117   5.641
22323SOL    HW267220   5.867   9.993   5.726
22324SOL     OW67221   8.913   9.610   2.257
22324SOL    HW167222   8.900   9.688   2.310
22324SOL    HW267223   8.841   9.552   2.281
22325SOL     OW67224   8.832  11.317   3.594
22325SOL    HW167225   8.812  11.397   3.546
22325SOL    HW267226   8.749  11.292   3.636
22326SOL     OW67227  14.851  11.105   6.782
22326SOL    HW167228  14.935  11.092   6.826
22326SOL    HW267229  14.785  11.091   6.850
22327SOL     OW67230   7.445   0.670   0.028
22327SOL    HW167231  12.765   6.031   7.583
22327SOL    HW267232   7.404   0.654   0.113
22328SOL     OW67233   5.971   6.955   2.172
22328SOL    HW167234   5.993   6.977   2.082
22328SOL    HW267235   5.946   7.038   2.212
22329SOL     OW67236   8.214   5.243   2.517
22329SOL    HW167237   8.248   5.330   2.537
22329SOL    HW267238   8.292   5.190   2.499
22330SOL     OW67239   2.708  10.818   0.267
22330SOL    HW167240   2.682  10.740   0.318
22330SOL    HW267241   2.803  10.816   0.267
22331SOL     OW67242   4.531  11.995   3.405
22331SOL    HW167243   4.492  12.048   3.336
22331SOL    HW267244   4.583  12.057   3.457
22332SOL     OW67245  10.440   8.036   7.272
22332SOL    HW167246  10.459   8.126   7.246
22332SOL    HW267247  10.504   7.983   7.224
22333SOL     OW67248   2.176   3.981   1.785
22333SOL    HW167249   2.258   3.952   1.746
22333SOL    HW267250   2.203   4.035   1.859
22334SOL     OW67251   7.213  13.127   5.731
22334SOL    HW167252   7.229  13.217   5.702
22334SOL    HW267253   7.284  13.109   5.793
22335SOL     OW67254  13.605   7.283   6.457
22335SOL    HW167255  13.686   7.321   6.423
22335SOL    HW267256  13.627   7.254   6.546
22336SOL     OW67257   9.991  11.588   3.548
22336SOL    HW167258  10.057  11.647   3.587
22336SOL    HW267259   9.969  11.527   3.618
22337SOL     OW67260  11.091   9.125   7.310
22337SOL    HW167261  11.162   9.094   7.253
22337SOL    HW267262  11.120   9.101   7.398
22338SOL     OW67263   7.721   3.478   4.523
22338SOL    HW167264   7.667   3.484   4.603
22338SOL    HW267265   7.659   3.458   4.454
22339SOL     OW67266   5.985  11.872   6.484
22339SOL    HW167267   5.993  11.860   6.579
22339SOL    HW267268   6.032  11.797   6.447
22340SOL     OW67269   0.666   4.397   0.860
22340SOL    HW167270   0.636   4.407   0.769
22340SOL    HW267271  11.369   4.434   0.912
22341SOL     OW67272   7.064  11.561   7.324
22341SOL    HW167273   7.135  11.610   7.366
22341SOL    HW267274   7.057  11.599   7.236
22342SOL     OW67275   8.536   7.272   0.320
22342SOL    HW167276   8.449   7.260   0.282
22342SOL    HW267277   8.535   7.220   0.400
22343SOL     OW67278   2.457   8.741   1.636
22343SOL    HW167279   2.454   8.804   1.708
22343SOL    HW267280   2.391   8.675   1.659
22344SOL     OW67281   5.929   6.933   6.730
22344SOL    HW167282   5.836   6.918   6.717
22344SOL    HW267283   5.948   6.897   6.817
22345SOL     OW67284  14.471  11.514   6.457
22345SOL    HW167285  14.534  11.463   6.508
22345SOL    HW267286  14.424  11.450   6.404
22346SOL     OW67287   3.867   9.429   4.293
22346SOL    HW167288   3.807   9.502   4.309
22346SOL    HW267289   3.888   9.435   4.200
22347SOL     OW67290  12.378  11.944   3.320
22347SOL    HW167291  12.336  11.873   3.271
22347SOL    HW267292  12.305  11.995   3.355
22348SOL     OW67293   5.171   2.825   0.400
22348SOL    HW167294   5.160   2.822   0.305
22348SOL    HW267295   5.249   2.772   0.417
22349SOL     OW67296   4.904   4.631   3.994
22349SOL    HW167297   4.946   4.716   4.007
22349SOL    HW267298   4.914   4.586   4.078
22350SOL     OW67299   5.849  15.126   6.797
22350SOL    HW167300   5.828  15.213   6.830
22350SOL    HW267301   5.799  15.118   6.716
22351SOL     OW67302  11.683   6.167   4.405
22351SOL    HW167303  11.674   6.076   4.433
22351SOL    HW267304  11.596   6.205   4.420
22352SOL     OW67305  11.433  10.825   4.509
22352SOL    HW167306  11.464  10.864   4.591
22352SOL    HW267307  11.341  10.806   4.525
22353SOL     OW67308  11.024   4.356   2.095
22353SOL    HW167309  11.021   4.416   2.021
22353SOL    HW267310  11.021   4.412   2.172
22354SOL     OW67311   9.319  10.643   6.565
22354SOL    HW167312   9.231  10.607   6.579
22354SOL    HW267313   9.377  10.585   6.614
22355SOL     OW67314  13.253   8.869   5.370
22355SOL    HW167315  13.189   8.902   5.432
22355SOL    HW267316  13.201   8.827   5.301
22356SOL     OW67317   8.334   9.752   2.554
22356SOL    HW167318   8.318   9.784   2.465
22356SOL    HW267319   8.286   9.814   2.610
22357SOL     OW67320   1.794   7.368   1.858
22357SOL    HW167321   1.793   7.406   1.946
22357SOL    HW267322   1.770   7.276   1.871
22358SOL     OW67323   9.962   8.155   5.186
22358SOL    HW167324   9.871   8.125   5.195
22358SOL    HW267325   9.972   8.172   5.092
22359SOL     OW67326   6.008  13.671   6.570
22359SOL    HW167327   5.967  13.652   6.655
22359SOL    HW267328   5.996  13.765   6.558
22360SOL     OW67329   3.349   6.444   1.220
22360SOL    HW167330   3.398   6.443   1.138
22360SOL    HW267331   3.390   6.514   1.272
22361SOL     OW67332   6.730   9.221   2.506
22361SOL    HW167333   6.680   9.253   2.431
22361SOL    HW267334   6.673   9.154   2.545
22362SOL     OW67335   4.981   6.218   2.358
22362SOL    HW167336   4.998   6.126   2.339
22362SOL    HW267337   4.967   6.259   2.272
22363SOL     OW67338  10.294  10.460   3.643
22363SOL    HW167339  10.278  10.499   3.729
22363SOL    HW267340  10.388  10.444   3.640
22364SOL     OW67341   6.964   9.888   6.341
22364SOL    HW167342   6.907   9.845   6.405
22364SOL    HW267343   7.047   9.902   6.387
22365SOL     OW67344   4.045   7.161   4.693
22365SOL    HW167345   3.997   7.206   4.623
22365SOL    HW267346   4.097   7.095   4.648
22366SOL     OW67347   7.294  11.537   5.088
22366SOL    HW167348   7.344  11.613   5.117
22366SOL    HW267349   7.255  11.564   5.005
22367SOL     OW67350  10.178   1.938   2.539
22367SOL    HW167351  10.196   1.917   2.630
22367SOL    HW267352  10.246   2.002   2.515
22368SOL     OW67353   2.486   1.698   0.827
22368SOL    HW167354   2.458   1.676   0.916
22368SOL    HW267355   2.509   1.614   0.788
22369SOL     OW67356  10.817   7.946   1.085
22369SOL    HW167357  10.833   8.019   1.145
22369SOL    HW267358  10.779   7.877   1.140
22370SOL     OW67359   4.867   8.553   2.731
22370SOL    HW167360   4.825   8.529   2.814
22370SOL    HW267361   4.937   8.612   2.755
22371SOL     OW67362  13.448   5.631   4.485
22371SOL    HW167363  13.412   5.684   4.414
22371SOL    HW267364  13.373   5.582   4.519
22372SOL     OW67365   8.392  12.789   7.096
22372SOL    HW167366   8.322  12.833   7.049
22372SOL    HW267367   8.351  12.758   7.177
22373SOL     OW67368  13.230  14.649   6.136
22373SOL    HW167369  13.210  14.634   6.228
22373SOL    HW267370  13.325  14.653   6.132
22374SOL     OW67371   8.606  12.061   4.089
22374SOL    HW167372   8.687  12.097   4.127
22374SOL    HW267373   8.593  12.113   4.009
22375SOL     OW67374   0.458   2.049   0.471
22375SOL    HW167375   0.375   2.030   0.428
22375SOL    HW267376   0.439   2.046   0.564
22376SOL     OW67377   9.994   7.046   6.880
22376SOL    HW167378  10.030   6.965   6.916
22376SOL    HW267379  10.060   7.076   6.817
22377SOL     OW67380   5.576   9.168   3.775
22377SOL    HW167381   5.567   9.257   3.742
22377SOL    HW267382   5.507   9.161   3.842
22378SOL     OW67383  13.292   7.396   7.163
22378SOL    HW167384  13.242   7.328   7.208
22378SOL    HW267385  13.249   7.478   7.187
22379SOL     OW67386  14.209   6.422   6.735
22379SOL    HW167387  14.301   6.429   6.712
22379SOL    HW267388  14.167   6.496   6.690
22380SOL     OW67389   8.447   5.262   1.628
22380SOL    HW167390   8.460   5.327   1.696
22380SOL    HW267391   8.364   5.287   1.586
22381SOL     OW67392   6.805   9.627   2.494
22381SOL    HW167393   6.876   9.646   2.432
22381SOL    HW267394   6.814   9.694   2.561
22382SOL     OW67395   6.993   6.454   4.070
22382SOL    HW167396   6.959   6.497   3.992
22382SOL    HW267397   7.085   6.438   4.050
22383SOL     OW67398  13.017   9.001   4.047
22383SOL    HW167399  13.095   9.052   4.026
22383SOL    HW267400  13.032   8.915   4.007
22384SOL     OW67401  11.313   3.826   4.530
22384SOL    HW167402  11.308   3.762   4.601
22384SOL    HW267403  11.242   3.801   4.471
22385SOL     OW67404  10.967  11.573   1.148
22385SOL    HW167405  10.925  11.534   1.225
22385SOL    HW267406  10.941  11.516   1.075
22386SOL     OW67407   7.028   9.052   3.575
22386SOL    HW167408   7.008   9.041   3.482
22386SOL    HW267409   6.945   9.081   3.614
22387SOL     OW67410   9.749   4.953   5.587
22387SOL    HW167411   9.779   4.932   5.499
22387SOL    HW267412   9.654   4.947   5.582
22388SOL     OW67413  10.889   9.895   0.669
22388SOL    HW167414  10.844   9.979   0.670
22388SOL    HW267415  10.887   9.868   0.577
22389SOL     OW67416   6.991   4.079   2.555
22389SOL    HW167417   6.932   4.134   2.606
22389SOL    HW267418   6.997   3.998   2.606
22390SOL     OW67419  10.956  10.399   0.523
22390SOL    HW167420  10.940  10.442   0.607
22390SOL    HW267421  11.022  10.454   0.481
22391SOL     OW67422   2.906   4.354   2.810
22391SOL    HW167423   2.813   4.373   2.797
22391SOL    HW267424   2.915   4.261   2.791
22392SOL     OW67425  10.410   5.110   2.336
22392SOL    HW167426  10.489   5.149   2.299
22392SOL    HW267427  10.438   5.024   2.369
22393SOL     OW67428  13.010  11.097   7.198
22393SOL    HW167429  12.975  11.183   7.224
22393SOL    HW267430  12.964  11.077   7.116
22394SOL     OW67431   6.757   6.694   1.794
22394SOL    HW167432   6.843   6.712   1.755
22394SOL    HW267433   6.775   6.666   1.883
22395SOL     OW67434   1.281  10.302   0.886
22395SOL    HW167435   1.188  10.309   0.867
22395SOL    HW267436   1.285  10.265   0.974
22396SOL     OW67437   9.096   9.065   3.756
22396SOL    HW167438   9.106   9.133   3.822
22396SOL    HW267439   9.008   9.076   3.721
22397SOL     OW67440  12.265  11.700   3.201
22397SOL    HW167441  12.298  11.668   3.116
22397SOL    HW267442  12.227  11.622   3.242
22398SOL     OW67443   6.612   3.431   3.204
22398SOL    HW167444   6.637   3.466   3.118
22398SOL    HW267445   6.643   3.497   3.266
22399SOL     OW67446  11.650   7.113   4.200
22399SOL    HW167447  11.591   7.037   4.206
22399SOL    HW267448  11.601   7.185   4.239
22400SOL     OW67449   1.108   1.210   0.934
22400SOL    HW167450   1.127   1.273   1.004
22400SOL    HW267451   1.158   1.132   0.958
22401SOL     OW67452   8.648   3.158   2.202
22401SOL    HW167453   8.653   3.105   2.281
22401SOL    HW267454   8.638   3.248   2.233
22402SOL     OW67455  13.038  13.613   4.376
22402SOL    HW167456  13.080  13.687   4.421
22402SOL    HW267457  13.097  13.593   4.304
22403SOL     OW67458   5.039  13.339   5.307
22403SOL    HW167459   5.057  13.338   5.213
22403SOL    HW267460   4.945  13.328   5.314
22404SOL     OW67461   7.778  13.661   5.878
22404SOL    HW167462   7.722  13.733   5.903
22404SOL    HW267463   7.788  13.669   5.783
22405SOL     OW67464   3.533   2.357   1.010
22405SOL    HW167465   3.548   2.303   0.932
22405SOL    HW267466   3.526   2.295   1.082
22406SOL     OW67467   1.300   6.689   0.176
22406SOL    HW167468   1.327   6.631   0.105
22406SOL    HW267469   1.341   6.773   0.155
22407SOL     OW67470   4.129   4.149   2.121
22407SOL    HW167471   4.161   4.121   2.035
22407SOL    HW267472   4.206   4.147   2.177
22408SOL     OW67473   6.978   9.685   7.280
22408SOL    HW167474   6.962   9.720   7.192
22408SOL    HW267475   7.072   9.669   7.282
22409SOL     OW67476   6.934  10.735   4.381
22409SOL    HW167477   6.951  10.679   4.457
22409SOL    HW267478   6.843  10.715   4.357
22410SOL     OW67479   6.596   3.360   1.551
22410SOL    HW167480   6.607   3.270   1.520
22410SOL    HW267481   6.508   3.384   1.523
22411SOL     OW67482  10.602  12.840   3.514
22411SOL    HW167483  10.577  12.835   3.607
22411SOL    HW267484  10.534  12.894   3.474
22412SOL     OW67485  11.947   5.901   6.183
22412SOL    HW167486  11.916   5.928   6.097
22412SOL    HW267487  11.909   5.965   6.243
22413SOL     OW67488   4.084   2.236   3.156
22413SOL    HW167489   4.118   2.238   3.067
22413SOL    HW267490   4.024  12.936   3.158
22414SOL     OW67491   4.780   6.815   0.366
22414SOL    HW167492   4.862   6.850   0.401
22414SOL    HW267493   4.723   6.806   0.442
22415SOL     OW67494   3.073   2.426   0.151
22415SOL    HW167495   3.014   2.460   0.084
22415SOL    HW267496   3.021   2.363   0.201
22416SOL     OW67497   7.294   8.238   4.246
22416SOL    HW167498   7.248   8.257   4.328
22416SOL    HW267499   7.375   8.290   4.251
22417SOL     OW67500  15.346  13.071   6.675
22417SOL    HW167501  15.338  13.010   6.749
22417SOL    HW267502  15.440  13.081   6.663
22418SOL     OW67503   3.996   8.338   3.407
22418SOL    HW167504   3.947   8.272   3.357
22418SOL    HW267505   4.071   8.359   3.351
22419SOL     OW67506  11.249   8.486   5.917
22419SOL    HW167507  11.238   8.476   6.011
22419SOL    HW267508  11.160   8.499   5.884
22420SOL     OW67509  11.771   4.019   3.063
22420SOL    HW167510  11.679   4.015   3.037
22420SOL    HW267511  11.816   4.052   2.985
22421SOL     OW67512   1.569   0.788   0.581
22421SOL    HW167513   1.549   0.787   0.675
22421SOL    HW267514   1.610   0.703   0.565
22422SOL     OW67515  12.049  13.447   5.411
22422SOL    HW167516  12.126  13.504   5.403
22422SOL    HW267517  11.978  13.496   5.369
22423SOL     OW67518   3.707   3.260   3.468
22423SOL    HW167519   3.761   3.225   3.397
22423SOL    HW267520   3.633   3.300   3.423
22424SOL     OW67521  12.050  14.567   5.800
22424SOL    HW167522  12.102  14.647   5.812
22424SOL    HW267523  12.037  14.562   5.705
22425SOL     OW67524   7.639   1.209   0.482
22425SOL    HW167525   7.695   1.197   0.559
22425SOL    HW267526   7.674   1.287   0.439
22426SOL     OW67527   9.909   7.864   7.446
22426SOL    HW167528   9.990   7.915   7.438
22426SOL    HW267529   9.843   7.927   7.475
22427SOL     OW67530  10.773  11.560   2.843
22427SOL    HW167531  10.752  11.640   2.890
22427SOL    HW267532  10.738  11.575   2.755
22428SOL     OW67533   7.942   4.995   5.508
22428SOL    HW167534   8.027   5.038   5.506
22428SOL    HW267535   7.886   5.054   5.559
22429SOL     OW67536   8.098   9.157   7.425
22429SOL    HW167537   8.055   9.092   7.480
22429SOL    HW267538   8.156   9.204   7.485
22430SOL     OW67539   4.240   3.006   2.602
22430SOL    HW167540   4.300   2.935   2.578
22430SOL    HW267541   4.153   2.964   2.603
22431SOL     OW67542  10.761  10.701   4.641
22431SOL    HW167543  10.723  10.788   4.627
22431SOL    HW267544  10.824  10.712   4.712
22432SOL     OW67545   7.309   4.715   4.876
22432SOL    HW167546   7.367   4.674   4.940
22432SOL    HW267547   7.367   4.770   4.823
22433SOL     OW67548   5.139  14.095   6.541
22433SOL    HW167549   5.122  14.187   6.563
22433SOL    HW267550   5.095  14.082   6.457
22434SOL     OW67551   5.614   3.764   4.100
22434SOL    HW167552   5.636   3.829   4.033
22434SOL    HW267553   5.622   3.680   4.055
22435SOL     OW67554  12.704  12.908   3.773
22435SOL    HW167555  12.640  12.978   3.757
22435SOL    HW267556  12.712  12.905   3.868
22436SOL     OW67557  12.705  12.826   7.343
22436SOL    HW167558  12.714  12.780   7.426
22436SOL    HW267559  12.670  12.761   7.282
22437SOL     OW67560   7.604   6.931   1.415
22437SOL    HW167561   7.591   6.939   1.320
22437SOL    HW267562   7.520   6.898   1.448
22438SOL     OW67563   2.077   9.097   1.205
22438SOL    HW167564   2.144   9.162   1.183
22438SOL    HW267565   2.013   9.105   1.134
22439SOL     OW67566  11.051   8.576   2.400
22439SOL    HW167567  10.989   8.506   2.416
22439SOL    HW267568  11.127   8.533   2.360
22440SOL     OW67569   7.345   8.068   3.837
22440SOL    HW167570   7.401   7.993   3.860
22440SOL    HW267571   7.258   8.030   3.826
22441SOL     OW67572   4.201   8.056   1.321
22441SOL    HW167573   4.125   8.013   1.360
22441SOL    HW267574   4.255   7.985   1.287
22442SOL     OW67575   5.116   9.208   2.928
22442SOL    HW167576   5.090   9.193   3.019
22442SOL    HW267577   5.166   9.289   2.930
22443SOL     OW67578   5.860   5.217   4.844
22443SOL    HW167579   5.949   5.242   4.867
22443SOL    HW267580   5.812   5.300   4.840
22444SOL     OW67581   5.525   2.290   0.627
22444SOL    HW167582   5.555   2.305   0.716
22444SOL    HW267583   5.604   2.300   0.573
22445SOL     OW67584   7.066   4.013   0.603
22445SOL    HW167585   7.051   3.946   0.670
22445SOL    HW267586   7.162   4.017   0.596
22446SOL     OW67587   9.733   8.798   3.150
22446SOL    HW167588   9.762   8.709   3.170
22446SOL    HW267589   9.780   8.853   3.212
22447SOL     OW67590  11.656   5.495   1.534
22447SOL    HW167591  11.643   5.404   1.509
22447SOL    HW267592  11.708   5.532   1.463
22448SOL     OW67593   1.811   9.946   0.081
22448SOL    HW167594   1.880   9.935   0.016
22448SOL    HW267595   1.828   9.878   0.146
22449SOL     OW67596   7.488  13.922   4.762
22449SOL    HW167597   7.490  13.836   4.721
22449SOL    HW267598   7.398  13.934   4.790
22450SOL     OW67599   7.996   6.781   6.126
22450SOL    HW167600   7.958   6.854   6.078
22450SOL    HW267601   7.936   6.767   6.199
22451SOL     OW67602   8.956  14.500   7.255
22451SOL    HW167603   9.049  14.485   7.241
22451SOL    HW267604   8.950  14.538   7.343
22452SOL     OW67605   5.350   1.439   0.537
22452SOL    HW167606   5.391   1.352   0.536
22452SOL    HW267607   5.423   1.500   0.527
22453SOL     OW67608   4.292   9.115   0.515
22453SOL    HW167609   4.202   9.108   0.483
22453SOL    HW267610   4.295   9.056   0.591
22454SOL     OW67611  10.706   6.701   0.249
22454SOL    HW167612  10.661   6.778   0.285
22454SOL    HW267613  10.732   6.651   0.327
22455SOL     OW67614  11.431  12.209   5.806
22455SOL    HW167615  11.422  12.276   5.740
22455SOL    HW267616  11.425  12.256   5.889
22456SOL     OW67617   3.204   3.905   1.123
22456SOL    HW167618   3.178   3.974   1.184
22456SOL    HW267619   3.172   3.935   1.038
22457SOL     OW67620  10.635   6.361   6.838
22457SOL    HW167621  10.644   6.418   6.762
22457SOL    HW267622  10.706   6.388   6.897
22458SOL     OW67623  15.609  12.197   7.033
22458SOL    HW167624  15.612  12.186   7.128
22458SOL    HW267625  15.516  12.199   7.011
22459SOL     OW67626  10.357  14.483   6.182
22459SOL    HW167627  10.264  14.486   6.204
22459SOL    HW267628  10.376  14.390   6.169
22460SOL     OW67629   5.957   8.402   4.376
22460SOL    HW167630   5.867   8.433   4.374
22460SOL    HW267631   6.007   8.477   4.409
22461SOL     OW67632  10.044   8.845   4.696
22461SOL    HW167633   9.998   8.921   4.661
22461SOL    HW267634  10.093   8.810   4.621
22462SOL     OW67635  10.681  11.497   1.994
22462SOL    HW167636  10.644  11.479   1.908
22462SOL    HW267637  10.604  11.510   2.050
22463SOL     OW67638  10.292   4.083   0.656
22463SOL    HW167639  10.260   4.122   0.737
22463SOL    HW267640  10.295   3.989   0.673
22464SOL     OW67641  13.298  14.245   5.991
22464SOL    HW167642  13.244  14.188   6.046
22464SOL    HW267643  13.244  14.260   5.913
22465SOL     OW67644   4.973   5.440   2.330
22465SOL    HW167645   4.952   5.483   2.413
22465SOL    HW267646   4.921   5.488   2.265
22466SOL     OW67647   5.199   9.333   7.271
22466SOL    HW167648  15.920   9.363   7.344
22466SOL    HW267649   5.147   9.351   7.193
22467SOL     OW67650   7.515  10.456   3.598
22467SOL    HW167651   7.465  10.488   3.523
22467SOL    HW267652   7.479  10.503   3.673
22468SOL     OW67653  14.342  12.965   5.810
22468SOL    HW167654  14.393  12.889   5.837
22468SOL    HW267655  14.254  12.949   5.844
22469SOL     OW67656   3.378   5.776   2.127
22469SOL    HW167657   3.302   5.805   2.178
22469SOL    HW267658   3.342   5.752   2.042
22470SOL     OW67659   7.955   3.175   2.399
22470SOL    HW167660   7.918   3.118   2.467
22470SOL    HW267661   8.026   3.222   2.443
22471SOL     OW67662   6.234   0.223   0.275
22471SOL    HW167663   6.256  10.991   0.368
22471SOL    HW267664   6.184   0.304   0.268
22472SOL     OW67665   6.110   8.334   1.117
22472SOL    HW167666   6.031   8.348   1.065
22472SOL    HW267667   6.135   8.421   1.148
22473SOL     OW67668   5.282   7.417   5.121
22473SOL    HW167669   5.265   7.506   5.151
22473SOL    HW267670   5.199   7.371   5.131
22474SOL     OW67671   3.798   8.185   1.746
22474SOL    HW167672   3.767   8.269   1.714
22474SOL    HW267673   3.874   8.165   1.691
22475SOL     OW67674   8.563  10.902   4.161
22475SOL    HW167675   8.558  10.993   4.130
22475SOL    HW267676   8.621  10.905   4.237
22476SOL     OW67677  10.406   0.707   0.388
22476SOL    HW167678  10.483   0.764   0.390
22476SOL    HW267679  10.367   0.724   0.303
22477SOL     OW67680  13.490   7.626   5.336
22477SOL    HW167681  13.510   7.563   5.267
22477SOL    HW267682  13.515   7.711   5.299
22478SOL     OW67683  10.417  11.659   2.550
22478SOL    HW167684  10.338  11.630   2.596
22478SOL    HW267685  10.474  11.582   2.549
22479SOL     OW67686   3.416   8.552   4.292
22479SOL    HW167687   3.391   8.549   4.200
22479SOL    HW267688   3.460   8.468   4.308
22480SOL     OW67689  12.557   5.786   4.985
22480SOL    HW167690  12.575   5.825   4.900
22480SOL    HW267691  12.521   5.699   4.965
22481SOL     OW67692   8.000   3.855   4.585
22481SOL    HW167693   8.079   3.907   4.567
22481SOL    HW267694   7.990   3.800   4.507
22482SOL     OW67695   9.398   9.675   7.617
22482SOL    HW167696   3.983   4.274   0.088
22482SOL    HW267697   9.388   9.769   7.603
22483SOL     OW67698  10.433   7.148   1.745
22483SOL    HW167699  10.405   7.171   1.656
22483SOL    HW267700  10.352   7.139   1.795
22484SOL     OW67701   6.344  13.929   4.860
22484SOL    HW167702   6.329  13.874   4.783
22484SOL    HW267703   6.410  13.992   4.832
22485SOL     OW67704   7.959   8.336   1.000
22485SOL    HW167705   7.918   8.255   1.031
22485SOL    HW267706   7.957   8.394   1.076
22486SOL     OW67707   9.104   9.104   7.614
22486SOL    HW167708   9.117   9.040   7.544
22486SOL    HW267709   3.626   3.706   0.021
22487SOL     OW67710   8.520  14.845   6.125
22487SOL    HW167711   8.592  14.846   6.188
22487SOL    HW267712   8.451  14.898   6.166
22488SOL     OW67713  13.052  14.275   7.607
22488SOL    HW167714  13.085  14.186   7.616
22488SOL    HW267715   7.660   8.921   0.078
22489SOL     OW67716   7.824  10.370   6.450
22489SOL    HW167717   7.841  10.276   6.438
22489SOL    HW267718   7.750  10.388   6.392
22490SOL     OW67719   8.176   5.338   1.550
22490SOL    HW167720   8.146   5.397   1.481
22490SOL    HW267721   8.095   5.297   1.583
22491SOL     OW67722   5.008  10.839   6.835
22491SOL    HW167723   4.975  10.765   6.886
22491SOL    HW267724   5.074  10.880   6.891
22492SOL     OW67725  10.334   9.982   0.907
22492SOL    HW167726  10.354  10.070   0.938
22492SOL    HW267727  10.295   9.938   0.983
22493SOL     OW67728  13.742   6.974   4.682
22493SOL    HW167729  13.812   6.914   4.656
22493SOL    HW267730  13.661   6.930   4.655
22494SOL     OW67731   5.703   6.581   2.722
22494SOL    HW167732   5.628   6.537   2.683
22494SOL    HW267733   5.766   6.591   2.650
22495SOL     OW67734   8.584  10.216   5.762
22495SOL    HW167735   8.589  10.310   5.748
22495SOL    HW267736   8.491  10.198   5.773
22496SOL     OW67737   9.777  11.942   2.514
22496SOL    HW167738   9.707  11.928   2.578
22496SOL    HW267739   9.776  12.036   2.499
22497SOL     OW67740  11.616   4.136   4.074
22497SOL    HW167741  11.704   4.114   4.106
22497SOL    HW267742  11.562   4.142   4.153
22498SOL     OW67743   3.167   8.074   0.019
22498SOL    HW167744   3.192   7.989   0.055
22498SOL    HW267745   3.072   8.074   0.023
22499SOL     OW67746   2.021   3.405   2.441
22499SOL    HW167747   1.964   3.419   2.365
22499SOL    HW267748   1.974   3.446   2.514
22500SOL     OW67749  14.514  13.401   6.676
22500SOL    HW167750  14.608  13.411   6.686
22500SOL    HW267751  14.501  13.306   6.667
22501SOL     OW67752   9.100   1.822   0.397
22501SOL    HW167753   9.127   1.819   0.489
22501SOL    HW267754   9.151   1.752   0.355
22502SOL     OW67755  11.032   6.188   3.538
22502SOL    HW167756  11.089   6.177   3.462
22502SOL    HW267757  11.035   6.102   3.582
22503SOL     OW67758   1.521   7.731   1.377
22503SOL    HW167759   1.448   7.732   1.438
22503SOL    HW267760   1.558   7.819   1.380
22504SOL     OW67761  14.274  15.581   6.921
22504SOL    HW167762  14.254  15.641   6.993
22504SOL    HW267763  14.198  15.523   6.915
22505SOL     OW67764  11.575  14.437   5.936
22505SOL    HW167765  11.668  14.424   5.919
22505SOL    HW267766  11.570  14.526   5.971
22506SOL     OW67767   6.426  10.428   3.157
22506SOL    HW167768   6.512  10.393   3.181
22506SOL    HW267769   6.365  10.360   3.185
22507SOL     OW67770  11.731  15.777   7.208
22507SOL    HW167771  11.652  15.725   7.222
22507SOL    HW267772  11.722   5.036   7.119
22508SOL     OW67773  10.527  13.570   6.015
22508SOL    HW167774  10.538  13.663   5.994
22508SOL    HW267775  10.616  13.539   6.032
22509SOL     OW67776   2.901   6.906   0.911
22509SOL    HW167777   2.862   6.819   0.924
22509SOL    HW267778   2.984   6.902   0.958
22510SOL     OW67779   4.798   2.706   1.102
22510SOL    HW167780   4.734   2.640   1.076
22510SOL    HW267781   4.774   2.783   1.050
22511SOL     OW67782   7.529  13.629   5.027
22511SOL    HW167783   7.547  13.721   5.011
22511SOL    HW267784   7.511  13.592   4.941
22512SOL     OW67785   9.803   4.932   1.260
22512SOL    HW167786   9.749   4.877   1.203
22512SOL    HW267787   9.792   5.020   1.226
22513SOL     OW67788  10.144  11.316   4.087
22513SOL    HW167789  10.200  11.275   4.020
22513SOL    HW267790  10.094  11.244   4.124
22514SOL     OW67791   9.184   8.132   0.178
22514SOL    HW167792   9.152   8.223   0.173
22514SOL    HW267793   9.275   8.138   0.151
22515SOL     OW67794  13.691  13.588   4.274
22515SOL    HW167795  13.668  13.648   4.203
22515SOL    HW267796  13.778  13.555   4.252
22516SOL     OW67797   6.312   6.825   0.334
22516SOL    HW167798   6.232   6.801   0.382
22516SOL    HW267799   6.364   6.745   0.332
22517SOL     OW67800   5.280   5.593   3.059
22517SOL    HW167801   5.343   5.586   2.987
22517SOL    HW267802   5.195   5.576   3.017
22518SOL     OW67803   9.317  10.050   2.387
22518SOL    HW167804   9.261   9.976   2.411
22518SOL    HW267805   9.376  10.014   2.320
22519SOL     OW67806  10.945   7.811   2.333
22519SOL    HW167807  10.860   7.784   2.300
22519SOL    HW267808  10.925   7.869   2.407
22520SOL     OW67809   5.815  10.085   7.428
22520SOL    HW167810   5.866  10.099   7.348
22520SOL    HW267811   5.881  10.077   7.497
22521SOL     OW67812   4.939  12.734   3.906
22521SOL    HW167813   4.940  12.738   3.810
22521SOL    HW267814   4.846  12.739   3.929
22522SOL     OW67815   7.026  12.417   7.170
22522SOL    HW167816   6.994  12.327   7.176
22522SOL    HW267817   6.991  12.449   7.086
22523SOL     OW67818   9.022   6.283   1.656
22523SOL    HW167819   8.990   6.292   1.566
22523SOL    HW267820   8.998   6.193   1.681
22524SOL     OW67821   9.946   5.232   0.929
22524SOL    HW167822  10.024   5.261   0.976
22524SOL    HW267823   9.932   5.143   0.959
22525SOL     OW67824   5.825   4.594   5.325
22525SOL    HW167825   5.861   4.648   5.255
22525SOL    HW267826   5.845   4.504   5.300
22526SOL     OW67827  13.914  13.459   7.104
22526SOL    HW167828  13.832  13.500   7.131
22526SOL    HW267829  13.907  13.368   7.134
22527SOL     OW67830   6.030  10.842   0.431
22527SOL    HW167831   6.050  10.792   0.510
22527SOL    HW267832   6.105  10.900   0.420
22528SOL     OW67833  13.309   9.934   3.592
22528SOL    HW167834  13.326   9.852   3.640
22528SOL    HW267835   2.616   9.952   3.545
22529SOL     OW67836   4.293   4.804   5.800
22529SOL    HW167837   4.331   4.768   5.880
22529SOL    HW267838   4.337   4.888   5.788
22530SOL     OW67839   9.333  13.520   6.756
22530SOL    HW167840   9.411  13.479   6.794
22530SOL    HW267841   9.367  13.592   6.703
22531SOL     OW67842   4.315   6.688   3.018
22531SOL    HW167843   4.343   6.624   3.083
22531SOL    HW267844   4.258   6.748   3.067
22532SOL     OW67845  14.312  12.180   5.997
22532SOL    HW167846  14.390  12.203   5.946
22532SOL    HW267847  14.344  12.120   6.064
22533SOL     OW67848   8.744  12.366   7.530
22533SOL    HW167849   8.765  12.274   7.545
22533SOL    HW267850   8.688  12.365   7.452
22534SOL     OW67851  11.186   7.359   6.402
22534SOL    HW167852  11.143   7.401   6.477
22534SOL    HW267853  11.275   7.394   6.402
22535SOL     OW67854   8.683   4.113   4.695
22535SOL    HW167855   8.698   4.166   4.617
22535SOL    HW267856   8.630   4.168   4.752
22536SOL     OW67857   3.901   9.987   1.771
22536SOL    HW167858   3.890  10.076   1.737
22536SOL    HW267859   3.875   9.992   1.863
22537SOL     OW67860  10.491   5.161   2.968
22537SOL    HW167861  10.531   5.223   3.028
22537SOL    HW267862  10.407   5.200   2.945
22538SOL     OW67863   9.639   5.455   4.804
22538SOL    HW167864   9.602   5.404   4.876
22538SOL    HW267865   9.649   5.544   4.840
22539SOL     OW67866   0.872   4.315   0.411
22539SOL    HW167867   0.804   4.319   0.343
22539SOL    HW267868   0.841   4.375   0.478
22540SOL     OW67869   8.407   8.195   2.001
22540SOL    HW167870   8.404   8.159   2.090
22540SOL    HW267871   8.320   8.177   1.965
22541SOL     OW67872   7.294   8.646   4.872
22541SOL    HW167873   7.288   8.670   4.965
22541SOL    HW267874   7.307   8.551   4.873
22542SOL     OW67875  13.515   6.757   4.955
22542SOL    HW167876  13.558   6.831   4.997
22542SOL    HW267877  13.567   6.681   4.981
22543SOL     OW67878   4.874  10.134   0.615
22543SOL    HW167879   4.932  10.114   0.542
22543SOL    HW267880   4.932  10.171   0.682
22544SOL     OW67881   3.668   9.856   4.769
22544SOL    HW167882   3.685   9.794   4.841
22544SOL    HW267883   3.572   9.856   4.760
22545SOL     OW67884  11.262  10.304   4.100
22545SOL    HW167885  11.284  10.321   4.008
22545SOL    HW267886  11.247  10.391   4.138
22546SOL     OW67887  10.050  12.652   3.482
22546SOL    HW167888  10.075  12.621   3.395
22546SOL    HW267889  10.052  12.748   3.474
22547SOL     OW67890  13.953  10.868   6.483
22547SOL    HW167891  13.866  10.908   6.477
22547SOL    HW267892  13.946  10.806   6.555
22548SOL     OW67893   2.579   0.941   0.467
22548SOL    HW167894   2.511   0.957   0.401
22548SOL    HW267895   2.654   0.910   0.417
22549SOL     OW67896   1.475   1.393   0.474
22549SOL    HW167897   1.512   1.305   0.470
22549SOL    HW267898   1.380   1.380   0.468
22550SOL     OW67899   7.187  12.566   3.917
22550SOL    HW167900   7.128  12.641   3.919
22550SOL    HW267901   7.135  12.493   3.948
22551SOL     OW67902   3.229   7.005   2.823
22551SOL    HW167903   3.241   7.093   2.858
22551SOL    HW267904   3.317   6.975   2.800
22552SOL     OW67905   6.163   5.374   1.399
22552SOL    HW167906   6.168   5.306   1.466
22552SOL    HW267907   6.223   5.344   1.330
22553SOL     OW67908   4.278  10.264   0.032
22553SOL    HW167909   4.237  10.316   0.101
22553SOL    HW267910   4.361  10.234   0.070
22554SOL     OW67911  13.306  13.096   4.955
22554SOL    HW167912  13.358  13.078   5.033
22554SOL    HW267913  13.364  13.146   4.899
22555SOL     OW67914  13.089  13.892   5.434
22555SOL    HW167915  13.104  13.984   5.412
22555SOL    HW267916  12.994  13.884   5.438
22556SOL     OW67917  12.579   8.658   5.546
22556SOL    HW167918  12.609   8.705   5.624
22556SOL    HW267919  12.579   8.724   5.476
22557SOL     OW67920  14.674  10.846   5.518
22557SOL    HW167921   3.973  10.829   5.458
22557SOL    HW267922  14.714  10.844   5.605
22558SOL     OW67923  13.022   9.913   5.158
22558SOL    HW167924  13.069   9.903   5.075
22558SOL    HW267925  13.087   9.893   5.225
22559SOL     OW67926   9.737  11.165   1.380
22559SOL    HW167927   9.785  11.242   1.349
22559SOL    HW267928   9.646  11.192   1.378
22560SOL     OW67929  12.959  11.437   7.212
22560SOL    HW167930  13.053  11.425   7.202
22560SOL    HW267931  12.932  11.485   7.134
22561SOL     OW67932   2.666   6.453   2.170
22561SOL    HW167933   2.614   6.480   2.095
22561SOL    HW267934   2.756   6.456   2.140
22562SOL     OW67935  12.456   9.982   2.581
22562SOL    HW167936  12.535   9.964   2.632
22562SOL    HW267937  12.411   9.897   2.576
22563SOL     OW67938   8.789  11.084   0.606
22563SOL    HW167939   8.809  11.046   0.691
22563SOL    HW267940   8.803  11.178   0.616
22564SOL     OW67941  13.736  15.157   6.679
22564SOL    HW167942  13.809  15.196   6.729
22564SOL    HW267943  13.748  15.063   6.690
22565SOL     OW67944  10.182   9.716   3.043
22565SOL    HW167945  10.222   9.635   3.073
22565SOL    HW267946  10.208   9.781   3.108
22566SOL     OW67947  13.338   8.431   5.179
22566SOL    HW167948  13.344   8.365   5.248
22566SOL    HW267949  13.343   8.514   5.225
22567SOL     OW67950   1.520   4.900   1.972
22567SOL    HW167951   1.602   4.894   1.922
22567SOL    HW267952   1.489   4.809   1.976
22568SOL     OW67953   3.408   5.843   3.256
22568SOL    HW167954   3.382   5.886   3.337
22568SOL    HW267955   3.412   5.913   3.192
22569SOL     OW67956  11.390   6.379   1.487
22569SOL    HW167957  11.416   6.462   1.526
22569SOL    HW267958  11.425   6.313   1.546
22570SOL     OW67959   2.834   2.147   1.160
22570SOL    HW167960   2.878   2.132   1.243
22570SOL    HW267961   2.865   2.232   1.131
22571SOL     OW67962   4.708   2.978   1.063
22571SOL    HW167963   4.720   3.063   1.105
22571SOL    HW267964   4.694   3.000   0.970
22572SOL     OW67965  10.093   4.797   5.426
22572SOL    HW167966  10.071   4.714   5.468
22572SOL    HW267967  10.131   4.850   5.496
22573SOL     OW67968   9.352  10.364   6.654
22573SOL    HW167969   9.274  10.381   6.601
22573SOL    HW267970   9.329  10.286   6.706
22574SOL     OW67971  14.892  15.296   7.310
22574SOL    HW167972  14.913  15.228   7.246
22574SOL    HW267973  14.797  15.287   7.324
22575SOL     OW67974   9.315  10.768   2.344
22575SOL    HW167975   9.226  10.733   2.337
22575SOL    HW267976   9.361  10.704   2.398
22576SOL     OW67977   5.876  10.530   4.312
22576SOL    HW167978   5.868  10.506   4.219
22576SOL    HW267979   5.936  10.604   4.313
22577SOL     OW67980   6.694   5.800   2.470
22577SOL    HW167981   6.719   5.786   2.562
22577SOL    HW267982   6.641   5.880   2.472
22578SOL     OW67983   7.388   7.642   1.129
22578SOL    HW167984   7.421   7.657   1.217
22578SOL    HW267985   7.330   7.716   1.111
22579SOL     OW67986  11.883   5.515   2.624
22579SOL    HW167987  11.840   5.455   2.564
22579SOL    HW267988  11.918   5.585   2.568
22580SOL     OW67989   6.869   5.908   4.043
22580SOL    HW167990   6.917   5.825   4.049
22580SOL    HW267991   6.821   5.902   3.960
22581SOL     OW67992   4.978   9.734   4.825
22581SOL    HW167993   5.027   9.800   4.777
22581SOL    HW267994   4.902   9.781   4.860
22582SOL     OW67995   2.905   7.955   0.189
22582SOL    HW167996   2.891   7.993   0.276
22582SOL    HW267997   2.971   7.888   0.202
22583SOL     OW67998  13.085   9.572   7.588
22583SOL    HW167999  13.087   9.476   7.582
22583SOL    HW268000  13.004   9.597   7.544
22584SOL     OW68001   6.703  14.546   6.012
22584SOL    HW168002   6.611  14.538   5.989
22584SOL    HW268003   6.749  14.495   5.945
22585SOL     OW68004  12.537  10.305   3.707
22585SOL    HW168005  12.472  10.254   3.756
22585SOL    HW268006  12.600  10.334   3.773
22586SOL     OW68007   2.111  10.351   0.704
22586SOL    HW168008   2.046  10.282   0.692
22586SOL    HW268009   2.110  10.368   0.799
22587SOL     OW68010   9.443   5.145   1.068
22587SOL    HW168011   9.461   5.112   0.980
22587SOL    HW268012   9.507   5.101   1.124
22588SOL     OW68013  12.125   4.481   3.476
22588SOL    HW168014  12.155   4.561   3.519
22588SOL    HW268015  12.086   4.512   3.394
22589SOL     OW68016   2.246   8.316   1.785
22589SOL    HW168017   2.322   8.371   1.768
22589SOL    HW268018   2.274   8.227   1.763
22590SOL     OW68019  10.258  10.012   2.955
22590SOL    HW168020  10.206   9.996   2.877
22590SOL    HW268021  10.303   9.929   2.971
22591SOL     OW68022  11.333   6.532   3.570
22591SOL    HW168023  11.407   6.491   3.526
22591SOL    HW268024  11.260   6.520   3.509
22592SOL     OW68025   1.482   7.379   0.306
22592SOL    HW168026   1.432   7.333   0.239
22592SOL    HW268027   1.573   7.365   0.282
22593SOL     OW68028   9.210   7.743   3.126
22593SOL    HW168029   9.134   7.732   3.068
22593SOL    HW268030   9.225   7.656   3.163
22594SOL     OW68031   2.463   7.778   0.756
22594SOL    HW168032   2.408   7.856   0.767
22594SOL    HW268033   2.400   7.706   0.748
22595SOL     OW68034   6.675  10.006   2.528
22595SOL    HW168035   6.634   9.997   2.442
22595SOL    HW268036   6.603  10.003   2.590
22596SOL     OW68037  13.012   5.863   6.656
22596SOL    HW168038  13.107   5.869   6.668
22596SOL    HW268039  13.002   5.814   6.575
22597SOL     OW68040   1.788   7.373   0.510
22597SOL    HW168041   1.780   7.284   0.545
22597SOL    HW268042   1.805   7.360   0.417
22598SOL     OW68043   1.804   4.367   0.781
22598SOL    HW168044   1.751   4.429   0.730
22598SOL    HW268045   1.748   4.342   0.854
22599SOL     OW68046   5.224   5.488   4.675
22599SOL    HW168047   5.201   5.560   4.733
22599SOL    HW268048   5.153   5.424   4.685
22600SOL     OW68049   6.049   4.275   5.642
22600SOL    HW168050   6.118   4.222   5.602
22600SOL    HW268051   6.070   4.276   5.735
22601SOL     OW68052  13.904   6.108   5.693
22601SOL    HW168053  13.820   6.064   5.682
22601SOL    HW268054  13.919   6.109   5.787
22602SOL     OW68055   2.924  12.249   3.274
22602SOL    HW168056   2.936  12.338   3.240
22602SOL    HW268057   2.897  12.262   3.365
22603SOL     OW68058  12.053   6.346   5.886
22603SOL    HW168059  12.123   6.380   5.831
22603SOL    HW268060  12.013   6.276   5.834
22604SOL     OW68061   5.143   7.786   2.928
22604SOL    HW168062   5.113   7.837   3.003
22604SOL    HW268063   5.065   7.775   2.873
22605SOL     OW68064   4.981  10.210   5.750
22605SOL    HW168065   4.916  10.142   5.768
22605SOL    HW268066   4.961  10.240   5.661
22606SOL     OW68067   0.719   5.399   0.628
22606SOL    HW168068   0.774   5.475   0.608
22606SOL    HW268069   0.641   5.411   0.575
22607SOL     OW68070   7.866  11.959   4.724
22607SOL    HW168071   7.833  11.957   4.634
22607SOL    HW268072   7.850  11.871   4.758
22608SOL     OW68073   3.435  11.176   4.521
22608SOL    HW168074   3.497  11.167   4.593
22608SOL    HW268075   3.360  11.122   4.546
22609SOL     OW68076  10.905   5.268   2.254
22609SOL    HW168077  10.952   5.223   2.184
22609SOL    HW268078  10.971   5.326   2.293
22610SOL     OW68079   1.638   7.174   1.093
22610SOL    HW168080   1.717   7.215   1.129
22610SOL    HW268081   1.574   7.179   1.165
22611SOL     OW68082   4.468   9.321   2.786
22611SOL    HW168083   4.384   9.291   2.823
22611SOL    HW268084   4.530   9.252   2.809
22612SOL     OW68085   6.791   9.641   1.272
22612SOL    HW168086   6.843   9.564   1.248
22612SOL    HW268087   6.845   9.686   1.337
22613SOL     OW68088  10.198   8.521   4.731
22613SOL    HW168089  10.241   8.475   4.659
22613SOL    HW268090  10.172   8.452   4.791
22614SOL     OW68091   8.226   8.367   6.551
22614SOL    HW168092   8.165   8.308   6.594
22614SOL    HW268093   8.310   8.351   6.594
22615SOL     OW68094   9.436   6.930   5.144
22615SOL    HW168095   9.436   6.846   5.189
22615SOL    HW268096   9.495   6.918   5.070
22616SOL     OW68097   5.980   4.317   0.000
22616SOL    HW168098   6.052   4.336   0.062
22616SOL    HW268099   5.901   4.326   0.052
22617SOL     OW68100   5.123  11.572   4.548
22617SOL    HW168101   5.043  11.619   4.570
22617SOL    HW268102   5.113  11.550   4.456
22618SOL     OW68103   6.141   9.105   4.030
22618SOL    HW168104   6.227   9.072   4.055
22618SOL    HW268105   6.082   9.073   4.098
22619SOL     OW68106   5.564   6.936   2.531
22619SOL    HW168107   5.631   6.943   2.599
22619SOL    HW268108   5.514   7.018   2.538
22620SOL     OW68109  12.364   7.436   3.632
22620SOL    HW168110  12.432   7.445   3.566
22620SOL    HW268111  12.286   7.410   3.583
22621SOL     OW68112  11.847  12.918   4.724
22621SOL    HW168113  11.901  12.845   4.695
22621SOL    HW268114  11.876  12.992   4.670
22622SOL     OW68115   2.462  11.545   2.139
22622SOL    HW168116   2.496  11.524   2.226
22622SOL    HW268117   2.510  11.487   2.080
22623SOL     OW68118   7.772  14.069   6.491
22623SOL    HW168119   7.778  13.980   6.457
22623SOL    HW268120   7.858  14.108   6.475
22624SOL     OW68121   9.688   2.084   2.461
22624SOL    HW168122   9.680   2.150   2.392
22624SOL    HW268123   9.599   2.077   2.497
22625SOL     OW68124  12.386  10.770   6.255
22625SOL    HW168125  12.334  10.769   6.175
22625SOL    HW268126  12.322  10.766   6.326
22626SOL     OW68127   4.888   5.129   5.698
22626SOL    HW168128   4.865   5.219   5.673
22626SOL    HW268129   4.977   5.117   5.667
22627SOL     OW68130   9.294   0.911   0.867
22627SOL    HW168131   9.206   0.928   0.902
22627SOL    HW268132   9.282   0.907   0.772
22628SOL     OW68133   8.419   7.375   2.724
22628SOL    HW168134   8.377   7.306   2.775
22628SOL    HW268135   8.512   7.358   2.730
22629SOL     OW68136  10.783  11.386   3.749
22629SOL    HW168137  10.767  11.379   3.655
22629SOL    HW268138  10.750  11.304   3.786
22630SOL     OW68139   7.873   6.128   2.456
22630SOL    HW168140   7.809   6.127   2.385
22630SOL    HW268141   7.911   6.040   2.455
22631SOL     OW68142  12.249   5.705   7.220
22631SOL    HW168143  12.157   5.729   7.205
22631SOL    HW268144  12.258   5.618   7.179
22632SOL     OW68145   6.061  10.327   5.726
22632SOL    HW168146   5.977  10.290   5.753
22632SOL    HW268147   6.123  10.297   5.793
22633SOL     OW68148   5.687   6.831   5.346
22633SOL    HW168149   5.708   6.924   5.346
22633SOL    HW268150   5.758   6.790   5.394
22634SOL     OW68151  12.369  11.821   5.965
22634SOL    HW168152  12.317  11.815   6.045
22634SOL    HW268153  12.417  11.738   5.962
22635SOL     OW68154  12.203  10.577   2.040
22635SOL    HW168155  12.202  10.590   2.135
22635SOL    HW268156  12.149  10.499   2.026
22636SOL     OW68157  11.515   3.160   3.002
22636SOL    HW168158  11.521   3.115   2.917
22636SOL    HW268159  11.479   3.246   2.980
22637SOL     OW68160   6.701   7.657   6.761
22637SOL    HW168161   6.627   7.637   6.818
22637SOL    HW268162   6.774   7.674   6.821
22638SOL     OW68163   4.761   5.955   1.293
22638SOL    HW168164   4.671   5.948   1.325
22638SOL    HW268165   4.779   6.049   1.295
22639SOL     OW68166   8.410  12.240   3.367
22639SOL    HW168167   8.427  12.331   3.341
22639SOL    HW268168   8.315  12.237   3.383
22640SOL     OW68169   7.314  13.138   3.927
22640SOL    HW168170   7.387  13.081   3.907
22640SOL    HW268171   7.268  13.095   3.999
22641SOL     OW68172   5.754   5.312   0.668
22641SOL    HW168173   5.680   5.252   0.668
22641SOL    HW268174   5.828   5.259   0.698
22642SOL     OW68175  10.802   2.341   2.108
22642SOL    HW168176  10.791   2.387   2.025
22642SOL    HW268177  10.763   2.399   2.173
22643SOL     OW68178  10.969   5.482   6.546
22643SOL    HW168179  11.014   5.403   6.516
22643SOL    HW268180  10.877   5.456   6.550
22644SOL     OW68181   6.948   4.094   4.653
22644SOL    HW168182   6.933   4.182   4.685
22644SOL    HW268183   7.041   4.092   4.630
22645SOL     OW68184   5.213   9.813   5.031
22645SOL    HW168185   5.261   9.878   4.980
22645SOL    HW268186   5.124   9.816   4.996
22646SOL     OW68187   9.001   9.106   5.848
22646SOL    HW168188   8.942   9.132   5.919
22646SOL    HW268189   9.080   9.157   5.861
22647SOL     OW68190   9.161  12.679   5.137
22647SOL    HW168191   9.079  12.696   5.091
22647SOL    HW268192   9.204  12.765   5.144
22648SOL     OW68193  13.667  13.443   6.323
22648SOL    HW168194  13.582  13.455   6.366
22648SOL    HW268195  13.727  13.419   6.394
22649SOL     OW68196   6.498   7.983   4.828
22649SOL    HW168197   6.466   8.069   4.804
22649SOL    HW268198   6.526   7.992   4.920
22650SOL     OW68199   4.967  13.513   4.598
22650SOL    HW168200   5.007  13.442   4.549
22650SOL    HW268201   4.906  13.470   4.658
22651SOL     OW68202   8.377  14.759   6.555
22651SOL    HW168203   8.464  14.746   6.517
22651SOL    HW268204   8.331  14.814   6.492
22652SOL     OW68205  12.301   9.794   3.203
22652SOL    HW168206  12.331   9.823   3.289
22652SOL    HW268207  12.379   9.800   3.148
22653SOL     OW68208   5.339   7.142   7.437
22653SOL    HW168209   5.414   7.083   7.442
22653SOL    HW268210   5.378   7.228   7.425
22654SOL     OW68211   1.886   2.569   0.021
22654SOL    HW168212   1.823   2.529   0.080
22654SOL    HW268213   1.971   2.541   0.055
22655SOL     OW68214   5.655   6.257   1.548
22655SOL    HW168215   5.727   6.224   1.495
22655SOL    HW268216   5.694   6.329   1.598
22656SOL     OW68217   8.741   4.182   0.060
22656SOL    HW168218   8.694   4.261   0.034
22656SOL    HW268219  14.200   9.562   7.616
22657SOL     OW68220  10.491   3.826   4.442
22657SOL    HW168221  10.496   3.911   4.486
22657SOL    HW268222  10.579   3.811   4.407
22658SOL     OW68223  13.944   7.578   6.106
22658SOL    HW168224  13.904   7.577   6.019
22658SOL    HW268225  14.037   7.565   6.089
22659SOL     OW68226  15.020   6.385   7.604
22659SOL    HW168227  15.029   6.381   7.509
22659SOL    HW268228   9.558   1.056   0.000
22660SOL     OW68229   6.856  14.248   6.121
22660SOL    HW168230   6.865  14.197   6.202
22660SOL    HW268231   6.922  14.212   6.063
22661SOL     OW68232   8.680   5.761   3.433
22661SOL    HW168233   8.703   5.695   3.368
22661SOL    HW268234   8.628   5.714   3.497
22662SOL     OW68235   5.183   4.316   1.062
22662SOL    HW168236   5.160   4.400   1.100
22662SOL    HW268237   5.197   4.258   1.137
22663SOL     OW68238   6.888  11.201   3.730
22663SOL    HW168239   6.875  11.152   3.811
22663SOL    HW268240   6.800  11.222   3.700
22664SOL     OW68241   6.603   1.091   0.390
22664SOL    HW168242   6.649   1.146   0.454
22664SOL    HW268243   6.649   1.107   0.308
22665SOL     OW68244   8.222   7.608   2.023
22665SOL    HW168245   8.204   7.519   2.053
22665SOL    HW268246   8.317   7.614   2.019
22666SOL     OW68247  12.303   4.424   5.361
22666SOL    HW168248  12.233   4.383   5.309
22666SOL    HW268249  12.257   4.481   5.422
22667SOL     OW68250  14.287   7.558   5.550
22667SOL    HW168251  14.338   7.628   5.590
22667SOL    HW268252  14.349   7.487   5.538
22668SOL     OW68253   6.634   8.277   0.630
22668SOL    HW168254   6.636   8.182   0.639
22668SOL    HW268255   6.670   8.310   0.712
22669SOL     OW68256   6.821   5.379   6.083
22669SOL    HW168257   6.757   5.316   6.116
22669SOL    HW268258   6.901   5.359   6.131
22670SOL     OW68259  12.981   4.615   3.947
22670SOL    HW168260  12.996   4.572   3.863
22670SOL    HW268261  13.028   4.562   4.011
22671SOL     OW68262  11.683  11.442   3.321
22671SOL    HW168263  11.680  11.534   3.346
22671SOL    HW268264  11.690  11.444   3.225
22672SOL     OW68265   8.042  14.040   6.975
22672SOL    HW168266   8.097  14.031   7.053
22672SOL    HW268267   8.105  14.053   6.904
22673SOL     OW68268   1.532   3.756   0.813
22673SOL    HW168269   1.510   3.670   0.849
22673SOL    HW268270   1.586   3.736   0.736
22674SOL     OW68271   5.526   7.178   4.047
22674SOL    HW168272   5.449   7.184   3.990
22674SOL    HW268273   5.580   7.252   4.022
22675SOL     OW68274   5.587   3.363   2.490
22675SOL    HW168275   5.619   3.290   2.542
22675SOL    HW268276   5.543   3.322   2.415
22676SOL     OW68277   5.587   8.614   7.257
22676SOL    HW168278   5.645   8.652   7.323
22676SOL    HW268279   5.576   8.683   7.192
22677SOL     OW68280  11.566   3.888   1.336
22677SOL    HW168281  11.632   3.931   1.280
22677SOL    HW268282  11.612   3.814   1.375
22678SOL     OW68283   8.874  10.840   6.015
22678SOL    HW168284   8.805  10.906   6.017
22678SOL    HW268285   8.956  10.890   6.011
22679SOL     OW68286   6.609   9.705   3.023
22679SOL    HW168287   6.603   9.709   2.927
22679SOL    HW268288   6.672   9.774   3.045
22680SOL     OW68289  11.699   7.800   2.262
22680SOL    HW168290  11.656   7.714   2.262
22680SOL    HW268291  11.720   7.816   2.354
22681SOL     OW68292  15.065   7.042   7.142
22681SOL    HW168293  15.107   7.088   7.069
22681SOL    HW268294  15.038   7.111   7.202
22682SOL     OW68295   1.148   2.853   0.696
22682SOL    HW168296   1.104   2.915   0.637
22682SOL    HW268297   1.231   2.834   0.653
22683SOL     OW68298   7.803  11.256   3.027
22683SOL    HW168299   7.869  11.264   3.095
22683SOL    HW268300   7.723  11.234   3.075
22684SOL     OW68301   2.547   4.084   0.551
22684SOL    HW168302   2.508   4.108   0.467
22684SOL    HW268303   2.641   4.084   0.535
22685SOL     OW68304  12.471   3.892   3.322
22685SOL    HW168305  12.401   3.955   3.339
22685SOL    HW268306  12.426   3.807   3.315
22686SOL     OW68307  12.463   9.850   5.252
22686SOL    HW168308  12.425   9.906   5.319
22686SOL    HW268309  12.476   9.907   5.176
22687SOL     OW68310   4.370   9.592   3.658
22687SOL    HW168311   4.351   9.521   3.597
22687SOL    HW268312   4.285   9.631   3.677
22688SOL     OW68313   7.138   7.929   4.142
22688SOL    HW168314   7.202   7.935   4.212
22688SOL    HW268315   7.056   7.904   4.186
22689SOL     OW68316  10.681  12.136   3.939
22689SOL    HW168317  10.640  12.186   3.868
22689SOL    HW268318  10.775  12.139   3.918
22690SOL     OW68319  13.957  15.251   6.839
22690SOL    HW168320  14.031  15.217   6.789
22690SOL    HW268321  13.989  15.332   6.877
22691SOL     OW68322   4.582   6.220   2.258
22691SOL    HW168323   4.604   6.127   2.247
22691SOL    HW268324   4.487   6.220   2.270
22692SOL     OW68325  13.913   7.236   7.513
22692SOL    HW168326  13.948   7.153   7.544
22692SOL    HW268327  13.931   7.236   7.419
22693SOL     OW68328  12.547  11.759   4.444
22693SOL    HW168329  12.610  11.830   4.429
22693SOL    HW268330  12.597  11.679   4.426
22694SOL     OW68331   2.951   3.790   1.700
22694SOL    HW168332   2.970   3.838   1.780
22694SOL    HW268333   2.923   3.703   1.730
22695SOL     OW68334   8.527   7.686   6.475
22695SOL    HW168335   8.598   7.627   6.451
22695SOL    HW268336   8.568   7.751   6.533
22696SOL     OW68337   9.093  12.327   4.140
22696SOL    HW168338   9.058  12.267   4.074
22696SOL    HW268339   9.023  12.390   4.155
22697SOL     OW68340   3.146   5.353   2.324
22697SOL    HW168341   3.104   5.417   2.266
22697SOL    HW268342   3.228   5.394   2.350
22698SOL     OW68343   9.510  14.875   5.929
22698SOL    HW168344   9.551  14.906   5.847
22698SOL    HW268345   9.462  14.797   5.903
22699SOL     OW68346   8.183   9.330   6.064
22699SOL    HW168347   8.221   9.357   6.147
22699SOL    HW268348   8.219   9.392   6.000
22700SOL     OW68349  14.455  12.073   6.597
22700SOL    HW168350  14.493  12.114   6.674
22700SOL    HW268351  14.405  11.998   6.631
22701SOL     OW68352   5.944   3.521   3.516
22701SOL    HW168353   5.919   3.521   3.609
22701SOL    HW268354   5.893   3.451   3.477
22702SOL     OW68355   2.950   4.927   2.125
22702SOL    HW168356   3.018   4.994   2.118
22702SOL    HW268357   2.897   4.954   2.200
22703SOL     OW68358  11.234   3.331   0.941
22703SOL    HW168359  11.207   3.333   1.033
22703SOL    HW268360  11.300   3.400   0.935
22704SOL     OW68361  15.701  12.804   7.259
22704SOL    HW168362  15.740  12.761   7.184
22704SOL    HW268363  15.738  12.893   7.259
22705SOL     OW68364  11.971   6.245   4.396
22705SOL    HW168365  11.880   6.216   4.390
22705SOL    HW268366  12.009   6.225   4.311
22706SOL     OW68367   9.787   8.870   5.962
22706SOL    HW168368   9.881   8.858   5.950
22706SOL    HW268369   9.776   8.877   6.057
22707SOL     OW68370  10.244   6.385   3.530
22707SOL    HW168371  10.235   6.407   3.623
22707SOL    HW268372  10.217   6.465   3.484
22708SOL     OW68373  12.771  11.965   6.789
22708SOL    HW168374  12.710  11.986   6.860
22708SOL    HW268375  12.799  12.050   6.755
22709SOL     OW68376   5.878   6.975   5.804
22709SOL    HW168377   5.907   7.065   5.818
22709SOL    HW268378   5.882   6.935   5.891
22710SOL     OW68379  13.380   9.777   3.778
22710SOL    HW168380  13.321   9.847   3.807
22710SOL    HW268381  13.467   9.805   3.808
22711SOL     OW68382  14.136  12.930   7.277
22711SOL    HW168383  14.121  13.018   7.242
22711SOL    HW268384  14.058  12.881   7.252
22712SOL     OW68385   8.186   8.757   5.777
22712SOL    HW168386   8.234   8.797   5.705
22712SOL    HW268387   8.244   8.766   5.853
22713SOL     OW68388  12.422   4.595   4.216
22713SOL    HW168389  12.400   4.502   4.221
22713SOL    HW268390  12.442   4.620   4.306
22714SOL     OW68391   1.396   3.450   0.623
22714SOL    HW168392   1.310   3.486   0.604
22714SOL    HW268393   1.394   3.431   0.717
22715SOL     OW68394  12.831   3.292   4.608
22715SOL    HW168395  12.854   3.355   4.677
22715SOL    HW268396  12.883   3.320   4.533
22716SOL     OW68397  14.189  10.716   5.287
22716SOL    HW168398  14.119  10.774   5.256
22716SOL    HW268399  14.231  10.765   5.357
22717SOL     OW68400   4.576   9.239   2.253
22717SOL    HW168401   4.559   9.312   2.313
22717SOL    HW268402   4.671   9.243   2.237
22718SOL     OW68403  13.587   9.646   5.488
22718SOL    HW168404  13.669   9.693   5.477
22718SOL    HW268405  13.543   9.654   5.403
22719SOL     OW68406  15.146   9.799   6.289
22719SOL    HW168407  15.070   9.852   6.264
22719SOL    HW268408  15.134   9.717   6.242
22720SOL     OW68409   9.916   6.287   6.924
22720SOL    HW168410   9.874   6.359   6.877
22720SOL    HW268411   9.893   6.208   6.875
22721SOL     OW68412   8.059  14.149   6.183
22721SOL    HW168413   7.964  14.138   6.185
22721SOL    HW268414   8.093  14.064   6.212
22722SOL     OW68415  10.152   8.923   6.483
22722SOL    HW168416  10.134   9.013   6.455
22722SOL    HW268417  10.120   8.869   6.412
22723SOL     OW68418   7.174  11.308   4.608
22723SOL    HW168419   7.225  11.227   4.615
22723SOL    HW268420   7.083  11.280   4.622
22724SOL     OW68421   6.190   4.961   1.574
22724SOL    HW168422   6.147   5.008   1.646
22724SOL    HW268423   6.223   5.030   1.517
22725SOL     OW68424   3.921   4.485   3.691
22725SOL    HW168425   3.922   4.560   3.631
22725SOL    HW268426   3.835   4.446   3.679
22726SOL     OW68427  13.504   7.953   5.873
22726SOL    HW168428  13.442   7.981   5.940
22726SOL    HW268429  13.509   8.027   5.812
22727SOL     OW68430   3.778  10.083   3.953
22727SOL    HW168431   3.750  10.161   4.002
22727SOL    HW268432   3.835  10.117   3.884
22728SOL     OW68433   7.702  14.184   5.090
22728SOL    HW168434   7.702  14.191   5.185
22728SOL    HW268435   7.656  14.262   5.060
22729SOL     OW68436   5.421   5.354   6.589
22729SOL    HW168437   5.491   5.288   6.587
22729SOL    HW268438   5.372   5.334   6.669
22730SOL     OW68439   7.958   9.520   7.473
22730SOL    HW168440   7.915   9.605   7.464
22730SOL    HW268441   8.043   9.532   7.429
22731SOL     OW68442   9.401   3.954   1.657
22731SOL    HW168443   9.424   3.937   1.748
22731SOL    HW268444   9.464   4.020   1.628
22732SOL     OW68445  13.777   9.879   5.463
22732SOL    HW168446  13.852   9.919   5.507
22732SOL    HW268447  13.700   9.922   5.502
22733SOL     OW68448  11.380  12.417   6.744
22733SOL    HW168449  11.392  12.456   6.658
22733SOL    HW268450  11.301  12.460   6.779
22734SOL     OW68451  12.913  10.270   6.110
22734SOL    HW168452  12.912  10.341   6.046
22734SOL    HW268453  12.914  10.190   6.057
22735SOL     OW68454   7.799  14.417   5.975
22735SOL    HW168455   7.834  14.441   6.061
22735SOL    HW268456   7.809  14.322   5.970
22736SOL     OW68457  10.467   7.473   0.243
22736SOL    HW168458  10.551   7.447   0.281
22736SOL    HW268459  10.491   7.516   0.160
22737SOL     OW68460   1.207   2.630   1.687
22737SOL    HW168461  11.909   2.693   1.691
22737SOL    HW268462  11.958   2.562   1.750
22738SOL     OW68463  10.918   5.461   3.519
22738SOL    HW168464  10.849   5.455   3.584
22738SOL    HW268465  10.980   5.525   3.556
22739SOL     OW68466   4.703   7.844   3.656
22739SOL    HW168467   4.713   7.749   3.649
22739SOL    HW268468   4.732   7.877   3.571
22740SOL     OW68469   1.348  11.205   1.630
22740SOL    HW168470   1.313  11.131   1.680
22740SOL    HW268471   1.438  11.214   1.661
22741SOL     OW68472   2.582   9.326   0.060
22741SOL    HW168473   2.493   9.312   0.092
22741SOL    HW268474   2.616   9.239   0.043
22742SOL     OW68475   4.598  10.202   5.280
22742SOL    HW168476   4.555  10.265   5.223
22742SOL    HW268477   4.563  10.221   5.367
22743SOL     OW68478   4.637   8.961   2.123
22743SOL    HW168479   4.685   9.030   2.078
22743SOL    HW268480   4.594   9.004   2.196
22744SOL     OW68481   3.479   3.876   1.094
22744SOL    HW168482   3.500   3.816   1.022
22744SOL    HW268483   3.383   3.871   1.101
22745SOL     OW68484   5.573   5.095   0.713
22745SOL    HW168485   5.491   5.130   0.746
22745SOL    HW268486   5.624   5.076   0.792
22746SOL     OW68487   6.553   6.173   6.959
22746SOL    HW168488   6.487   6.127   6.908
22746SOL    HW268489   6.505   6.242   7.005
22747SOL     OW68490   9.689   7.820   6.722
22747SOL    HW168491   9.616   7.770   6.685
22747SOL    HW268492   9.676   7.815   6.816
22748SOL     OW68493   9.531   3.777   3.350
22748SOL    HW168494   9.481   3.813   3.423
22748SOL    HW268495   9.469   3.719   3.305
22749SOL     OW68496  13.287  11.479   4.220
22749SOL    HW168497  13.304  11.450   4.310
22749SOL    HW268498  13.256  11.569   4.229
22750SOL     OW68499  11.990  10.252   2.522
22750SOL    HW168500  12.065  10.270   2.465
22750SOL    HW268501  11.914  10.274   2.469
22751SOL     OW68502   5.806   5.124   2.588
22751SOL    HW168503   5.712   5.136   2.600
22751SOL    HW268504   5.833   5.197   2.533
22752SOL     OW68505   4.467  10.205   3.715
22752SOL    HW168506   4.396  10.167   3.664
22752SOL    HW268507   4.532  10.135   3.722
22753SOL     OW68508  12.583  12.325   4.641
22753SOL    HW168509  12.609  12.402   4.692
22753SOL    HW268510  12.511  12.356   4.586
22754SOL     OW68511  15.064  10.935   6.595
22754SOL    HW168512  14.991  10.950   6.654
22754SOL    HW268513  15.092  11.023   6.570
22755SOL     OW68514   4.001   4.190   4.207
22755SOL    HW168515   3.918   4.141   4.209
22755SOL    HW268516   4.052   4.148   4.138
22756SOL     OW68517  12.106  14.458   6.336
22756SOL    HW168518  12.093  14.408   6.256
22756SOL    HW268519  12.185  14.511   6.318
22757SOL     OW68520   9.357   5.895   0.155
22757SOL    HW168521   9.346   5.989   0.136
22757SOL    HW268522   9.398   5.860   0.076
22758SOL     OW68523   6.042  10.861   5.430
22758SOL    HW168524   6.002  10.848   5.517
22758SOL    HW268525   6.102  10.787   5.420
22759SOL     OW68526  10.635   4.052   3.850
22759SOL    HW168527  10.547   4.015   3.842
22759SOL    HW268528  10.678   4.030   3.767
22760SOL     OW68529   3.340   4.249   0.191
22760SOL    HW168530   3.429   4.271   0.164
22760SOL    HW268531   3.310   4.325   0.239
22761SOL     OW68532   3.333   9.207   3.690
22761SOL    HW168533   3.362   9.297   3.672
22761SOL    HW268534   3.351   9.195   3.783
22762SOL     OW68535   8.980   7.965   3.072
22762SOL    HW168536   9.047   7.930   3.013
22762SOL    HW268537   8.985   8.060   3.060
22763SOL     OW68538   9.741  10.226   3.067
22763SOL    HW168539   9.768  10.140   3.036
22763SOL    HW268540   9.646  10.221   3.072
22764SOL     OW68541   9.567  11.181   0.782
22764SOL    HW168542   9.525  11.235   0.850
22764SOL    HW268543   9.564  11.092   0.817
22765SOL     OW68544   2.488  10.564   0.606
22765SOL    HW168545   2.406  10.542   0.561
22765SOL    HW268546   2.460  10.602   0.689
22766SOL     OW68547  13.751  12.096   6.752
22766SOL    HW168548  13.803  12.064   6.826
22766SOL    HW268549  13.807  12.162   6.711
22767SOL     OW68550   4.609  10.533   5.877
22767SOL    HW168551   4.550  10.506   5.947
22767SOL    HW268552   4.557  10.593   5.824
22768SOL     OW68553   6.863   7.179   7.570
22768SOL    HW168554   6.943   7.198   7.521
22768SOL    HW268555   6.819   7.264   7.578
22769SOL     OW68556   9.967   3.564   2.309
22769SOL    HW168557   9.985   3.658   2.298
22769SOL    HW268558   9.922   3.539   2.229
22770SOL     OW68559  12.491  12.779   5.092
22770SOL    HW168560  12.438  12.853   5.065
22770SOL    HW268561  12.556  12.769   5.023
22771SOL     OW68562  14.244   6.957   6.571
22771SOL    HW168563  14.228   6.937   6.663
22771SOL    HW268564  14.157   6.968   6.534
22772SOL     OW68565   6.105   2.872   0.266
22772SOL    HW168566   6.066   2.955   0.237
22772SOL    HW268567   6.099   2.815   0.189
22773SOL     OW68568   6.874   6.806   0.658
22773SOL    HW168569   6.905   6.854   0.734
22773SOL    HW268570   6.795   6.761   0.689
22774SOL     OW68571   4.527   4.139   1.637
22774SOL    HW168572   4.560   4.088   1.563
22774SOL    HW268573   4.550   4.230   1.616
22775SOL     OW68574  12.416   4.206   2.949
22775SOL    HW168575  12.461   4.121   2.957
22775SOL    HW268576  12.487   4.270   2.941
22776SOL     OW68577  10.066   0.839   0.774
22776SOL    HW168578  10.034   0.750   0.788
22776SOL    HW268579  10.034   0.888   0.850
22777SOL     OW68580  10.607   7.880   1.275
22777SOL    HW168581  10.650   7.961   1.303
22777SOL    HW268582  10.513   7.899   1.284
22778SOL     OW68583   5.350  10.638   2.824
22778SOL    HW168584   5.285  10.579   2.863
22778SOL    HW268585   5.399  10.583   2.763
22779SOL     OW68586   8.455   4.426   0.362
22779SOL    HW168587   8.372   4.448   0.403
22779SOL    HW268588   8.511   4.502   0.379
22780SOL     OW68589  10.236   5.416   4.887
22780SOL    HW168590  10.239   5.449   4.977
22780SOL    HW268591  10.197   5.329   4.894
22781SOL     OW68592   7.141  13.121   6.441
22781SOL    HW168593   7.212  13.172   6.402
22781SOL    HW268594   7.088  13.186   6.488
22782SOL     OW68595   5.060   8.820   0.953
22782SOL    HW168596   5.107   8.752   0.905
22782SOL    HW268597   5.027   8.878   0.885
22783SOL     OW68598  13.776   4.707   5.794
22783SOL    HW168599  13.728   4.630   5.765
22783SOL    HW268600  13.810   4.747   5.713
22784SOL     OW68601   9.795   1.862   1.253
22784SOL    HW168602   9.727   1.924   1.280
22784SOL    HW268603   9.872   1.916   1.238
22785SOL     OW68604   8.739   8.450   5.529
22785SOL    HW168605   8.644   8.460   5.528
22785SOL    HW268606   8.759   8.393   5.455
22786SOL     OW68607   5.987   7.468   3.652
22786SOL    HW168608   5.926   7.511   3.592
22786SOL    HW268609   5.953   7.380   3.663
22787SOL     OW68610   8.173   7.985   0.912
22787SOL    HW168611   8.105   7.924   0.941
22787SOL    HW268612   8.158   7.994   0.818
22788SOL     OW68613   9.681   6.752   2.091
22788SOL    HW168614   9.694   6.832   2.141
22788SOL    HW268615   9.769   6.713   2.085
22789SOL     OW68616  13.915   5.473   4.712
22789SOL    HW168617  14.007   5.453   4.696
22789SOL    HW268618  13.867   5.420   4.649
22790SOL     OW68619   5.771   2.661   2.403
22790SOL    HW168620   5.793   2.574   2.437
22790SOL    HW268621   5.681   2.676   2.431
22791SOL     OW68622   1.507   3.968   0.554
22791SOL    HW168623   1.537   4.059   0.559
22791SOL    HW268624   1.556   3.923   0.622
22792SOL     OW68625   4.426   4.185   5.813
22792SOL    HW168626   4.465   4.251   5.871
22792SOL    HW268627   4.335   4.178   5.842
22793SOL     OW68628   2.595   8.345   1.376
22793SOL    HW168629   2.555   8.429   1.354
22793SOL    HW268630   2.616   8.352   1.469
22794SOL     OW68631  10.265   3.597   3.944
22794SOL    HW168632  10.316   3.600   3.863
22794SOL    HW268633  10.318   3.544   4.003
22795SOL     OW68634  11.785   6.499   3.586
22795SOL    HW168635  11.831   6.465   3.663
22795SOL    HW268636  11.760   6.588   3.610
22796SOL     OW68637   3.248   1.057   0.845
22796SOL    HW168638   3.201   0.975   0.827
22796SOL    HW268639   3.221   1.082   0.933
22797SOL     OW68640  13.199   9.521   4.871
22797SOL    HW168641  13.178   9.430   4.852
22797SOL    HW268642  13.185   9.567   4.789
22798SOL     OW68643  11.450   8.717   5.772
22798SOL    HW168644  11.432   8.689   5.861
22798SOL    HW268645  11.505   8.647   5.736
22799SOL     OW68646   4.886   5.367   2.577
22799SOL    HW168647   4.826   5.294   2.561
22799SOL    HW268648   4.943   5.336   2.648
22800SOL     OW68649   6.286   9.222   5.329
22800SOL    HW168650   6.223   9.230   5.258
22800SOL    HW268651   6.291   9.128   5.346
22801SOL     OW68652  14.759   7.892   6.707
22801SOL    HW168653  14.700   7.867   6.636
22801SOL    HW268654  14.794   7.977   6.681
22802SOL     OW68655   3.910   8.437   2.564
22802SOL    HW168656   3.896   8.344   2.584
22802SOL    HW268657   3.947   8.437   2.475
22803SOL     OW68658  10.624   4.583   2.797
22803SOL    HW168659  10.622   4.491   2.822
22803SOL    HW268660  10.712   4.597   2.763
22804SOL     OW68661   9.056  10.210   5.074
22804SOL    HW168662   9.019  10.217   5.162
22804SOL    HW268663   9.101  10.294   5.060
22805SOL     OW68664  10.674  11.795   2.922
22805SOL    HW168665  10.617  11.866   2.892
22805SOL    HW268666  10.718  11.831   2.999
22806SOL     OW68667  10.672  10.500   7.587
22806SOL    HW168668  10.665  10.545   7.503
22806SOL    HW268669   5.236   5.169   0.029
22807SOL     OW68670  13.329   7.042   4.741
22807SOL    HW168671  13.304   7.009   4.827
22807SOL    HW268672  13.411   7.089   4.755
22808SOL     OW68673  14.976  10.521   6.785
22808SOL    HW168674  15.002  10.471   6.863
22808SOL    HW268675  15.021  10.605   6.795
22809SOL     OW68676   9.640  14.616   5.782
22809SOL    HW168677   9.628  14.646   5.692
22809SOL    HW268678   9.552  14.622   5.821
22810SOL     OW68679  10.275   3.916   1.438
22810SOL    HW168680  10.367   3.936   1.458
22810SOL    HW268681  10.279   3.844   1.375
22811SOL     OW68682   5.089  11.241   4.407
22811SOL    HW168683   5.159  11.177   4.419
22811SOL    HW268684   5.066  11.234   4.314
22812SOL     OW68685   2.353   8.250   3.203
22812SOL    HW168686  13.039   8.238   3.237
22812SOL    HW268687   2.394   8.164   3.210
22813SOL     OW68688   0.221   8.596   0.190
22813SOL    HW168689  10.906   8.630   0.196
22813SOL    HW268690   0.267   8.636   0.264
22814SOL     OW68691   5.708   8.696   2.581
22814SOL    HW168692   5.614   8.705   2.562
22814SOL    HW268693   5.714   8.615   2.631
22815SOL     OW68694  11.742   7.135   2.868
22815SOL    HW168695  11.829   7.097   2.860
22815SOL    HW268696  11.744   7.212   2.812
22816SOL     OW68697   4.178  11.423   4.605
22816SOL    HW168698   4.181  11.516   4.629
22816SOL    HW268699   4.090  11.410   4.569
22817SOL     OW68700   9.909   9.943   2.022
22817SOL    HW168701   9.883  10.005   1.954
22817SOL    HW268702   9.989   9.980   2.060
22818SOL     OW68703   8.360   8.474   3.211
22818SOL    HW168704   8.340   8.533   3.137
22818SOL    HW268705   8.448   8.500   3.239
22819SOL     OW68706   5.280  10.525   6.837
22819SOL    HW168707   5.374  10.517   6.821
22819SOL    HW268708   5.249  10.588   6.773
22820SOL     OW68709   8.114   9.589   0.804
22820SOL    HW168710   8.154   9.669   0.838
22820SOL    HW268711   8.172   9.519   0.834
22821SOL     OW68712   8.136   5.313   4.366
22821SOL    HW168713   8.075   5.243   4.340
22821SOL    HW268714   8.123   5.381   4.300
22822SOL     OW68715   5.288  13.918   7.266
22822SOL    HW168716   5.362  13.969   7.233
22822SOL    HW268717   5.211  13.957   7.224
22823SOL     OW68718   6.763  10.253   3.021
22823SOL    HW168719   6.735  10.275   3.110
22823SOL    HW268720   6.695  10.195   2.988
22824SOL     OW68721  14.123  13.458   5.752
22824SOL    HW168722  14.097  13.541   5.714
22824SOL    HW268723  14.219  13.460   5.751
22825SOL     OW68724   6.345   9.612   5.990
22825SOL    HW168725   6.389   9.697   5.989
22825SOL    HW268726   6.317   9.600   6.081
22826SOL     OW68727  11.392   8.199   5.199
22826SOL    HW168728  11.468   8.255   5.218
22826SOL    HW268729  11.324   8.231   5.259
22827SOL     OW68730   8.202  13.305   7.151
22827SOL    HW168731   8.200  13.224   7.201
22827SOL    HW268732   8.252  13.283   7.072
22828SOL     OW68733   8.224   4.998   2.779
22828SOL    HW168734   8.267   4.969   2.860
22828SOL    HW268735   8.131   4.988   2.797
22829SOL     OW68736   6.395   5.865   6.962
22829SOL    HW168737   6.362   5.776   6.974
22829SOL    HW268738   6.431   5.866   6.874
22830SOL     OW68739   4.686   6.184   5.947
22830SOL    HW168740   4.592   6.199   5.958
22830SOL    HW268741   4.724   6.204   6.033
22831SOL     OW68742  12.180   5.480   4.829
22831SOL    HW168743  12.087   5.503   4.830
22831SOL    HW268744  12.193   5.428   4.909
22832SOL     OW68745   7.275  12.634   4.246
22832SOL    HW168746   7.256  12.541   4.234
22832SOL    HW268747   7.302  12.642   4.338
22833SOL     OW68748  10.275   2.463   1.928
22833SOL    HW168749  10.350   2.446   1.870
22833SOL    HW268750  10.274   2.390   1.989
22834SOL     OW68751   3.348   0.648   0.014
22834SOL    HW168752   8.733   6.016   7.539
22834SOL    HW268753   3.382   0.737   0.020
22835SOL     OW68754   4.856   2.679   2.347
22835SOL    HW168755   4.894   2.606   2.395
22835SOL    HW268756   4.856   2.650   2.256
22836SOL     OW68757   9.020   8.397   0.168
22836SOL    HW168758   9.056   8.471   0.118
22836SOL    HW268759   9.003   8.434   0.255
22837SOL     OW68760  14.592   6.239   5.416
22837SOL    HW168761   3.780   6.246   5.328
22837SOL    HW268762  14.539   6.172   5.459
22838SOL     OW68763   5.005   5.334   4.769
22838SOL    HW168764   4.979   5.243   4.753
22838SOL    HW268765   4.948   5.363   4.841
22839SOL     OW68766  11.552   6.724   3.612
22839SOL    HW168767  11.549   6.746   3.705
22839SOL    HW268768  11.461   6.727   3.584
22840SOL     OW68769  10.476   6.933   4.960
22840SOL    HW168770  10.567   6.918   4.937
22840SOL    HW268771  10.441   6.984   4.886
22841SOL     OW68772  10.760   6.001   0.869
22841SOL    HW168773  10.798   5.932   0.815
22841SOL    HW268774  10.701   5.954   0.929
22842SOL     OW68775  10.653   2.485   1.199
22842SOL    HW168776  10.664   2.505   1.292
22842SOL    HW268777  10.631   2.569   1.159
22843SOL     OW68778   5.860   7.036   6.096
22843SOL    HW168779   5.860   7.126   6.128
22843SOL    HW268780   5.888   6.983   6.171
22844SOL     OW68781   9.873  10.904   7.451
22844SOL    HW168782   9.919  10.825   7.478
22844SOL    HW268783   9.877  10.961   7.528
22845SOL     OW68784   5.859  11.928   3.991
22845SOL    HW168785   5.916  11.935   4.067
22845SOL    HW268786   5.898  11.986   3.926
22846SOL     OW68787   8.976  14.075   5.635
22846SOL    HW168788   8.987  13.985   5.605
22846SOL    HW268789   8.977  14.127   5.555
22847SOL     OW68790   9.918   9.752   4.969
22847SOL    HW168791   9.851   9.791   5.024
22847SOL    HW268792   9.977   9.824   4.947
22848SOL     OW68793  10.040   8.496   3.709
22848SOL    HW168794  10.098   8.421   3.723
22848SOL    HW268795  10.043   8.543   3.793
22849SOL     OW68796  10.420   6.775   3.320
22849SOL    HW168797  10.488   6.713   3.294
22849SOL    HW268798  10.344   6.750   3.268
22850SOL     OW68799   9.810   9.147   0.010
22850SOL    HW168800   9.735   9.140   0.069
22850SOL    HW268801   9.872   9.082   0.043
22851SOL     OW68802   7.240   4.433   0.101
22851SOL    HW168803   7.251   4.487   0.022
22851SOL    HW268804   7.147   4.414   0.104
22852SOL     OW68805   9.771   3.799   5.180
22852SOL    HW168806   9.773   3.889   5.149
22852SOL    HW268807   9.849   3.790   5.235
22853SOL     OW68808   4.353   2.884   0.515
22853SOL    HW168809   4.283   2.820   0.523
22853SOL    HW268810   4.314   2.957   0.468
22854SOL     OW68811  12.979   4.577   4.897
22854SOL    HW168812  12.935   4.661   4.884
22854SOL    HW268813  12.985   4.568   4.992
22855SOL     OW68814  10.959   6.653   6.678
22855SOL    HW168815  10.925   6.563   6.677
22855SOL    HW268816  10.990   6.668   6.589
22856SOL     OW68817   5.549   4.704   4.599
22856SOL    HW168818   5.600   4.730   4.522
22856SOL    HW268819   5.530   4.611   4.584
22857SOL     OW68820   5.583   2.161   2.298
22857SOL    HW168821   5.622   2.117   2.374
22857SOL    HW268822   5.654   2.213   2.262
22858SOL     OW68823   7.922  10.206   0.479
22858SOL    HW168824   7.993  10.147   0.504
22858SOL    HW268825   7.851  10.148   0.452
22859SOL     OW68826  11.522   7.943   2.505
22859SOL    HW168827  11.471   7.970   2.429
22859SOL    HW268828  11.475   7.979   2.580
22860SOL     OW68829  10.020   9.416   6.170
22860SOL    HW168830   9.959   9.490   6.167
22860SOL    HW268831   9.972   9.347   6.215
22861SOL     OW68832   7.351  11.871   4.600
22861SOL    HW168833   7.279  11.835   4.653
22861SOL    HW268834   7.350  11.818   4.520
22862SOL     OW68835   9.759  12.339   7.043
22862SOL    HW168836   9.808  12.264   7.011
22862SOL    HW268837   9.815  12.379   7.109
22863SOL     OW68838   6.057  13.283   5.117
22863SOL    HW168839   5.985  13.323   5.068
22863SOL    HW268840   6.093  13.218   5.056
22864SOL     OW68841   6.284   9.522   0.970
22864SOL    HW168842   6.221   9.591   0.994
22864SOL    HW268843   6.230   9.446   0.952
22865SOL     OW68844   9.864  12.582   7.176
22865SOL    HW168845   9.901  12.665   7.148
22865SOL    HW268846   9.840  12.596   7.268
22866SOL     OW68847   7.091   7.115   1.734
22866SOL    HW168848   7.119   7.155   1.652
22866SOL    HW268849   7.120   7.024   1.728
22867SOL     OW68850   1.536  10.400   0.954
22867SOL    HW168851   1.499  10.381   1.040
22867SOL    HW268852   1.481  10.350   0.893
22868SOL     OW68853   4.747   5.603   0.393
22868SOL    HW168854   4.776   5.627   0.481
22868SOL    HW268855   4.813   5.541   0.362
22869SOL     OW68856  12.995   7.004   7.458
22869SOL    HW168857  12.915   7.021   7.508
22869SOL    HW268858  12.970   7.019   7.367
22870SOL     OW68859  10.236   0.903   0.553
22870SOL    HW168860  10.313   0.847   0.564
22870SOL    HW268861  10.165   0.853   0.593
22871SOL     OW68862   6.544   5.879   1.162
22871SOL    HW168863   6.633   5.899   1.134
22871SOL    HW268864   6.505   5.833   1.087
22872SOL     OW68865  12.047   5.263   5.563
22872SOL    HW168866  12.033   5.297   5.475
22872SOL    HW268867  12.054   5.342   5.618
22873SOL     OW68868  14.050  14.184   7.572
22873SOL    HW168869  14.133  14.232   7.576
22873SOL    HW268870  14.002  14.226   7.501
22874SOL     OW68871   9.958   0.237   0.045
22874SOL    HW168872  10.033   0.297   0.055
22874SOL    HW268873   9.966   0.176   0.118
22875SOL     OW68874   9.899  11.342   6.377
22875SOL    HW168875   9.917  11.284   6.451
22875SOL    HW268876   9.857  11.419   6.416
22876SOL     OW68877   8.926   6.198   4.122
22876SOL    HW168878   8.841   6.162   4.097
22876SOL    HW268879   8.987   6.124   4.114
22877SOL     OW68880   4.579   9.315   5.316
22877SOL    HW168881   4.537   9.267   5.388
22877SOL    HW268882   4.671   9.287   5.319
22878SOL     OW68883   6.666  10.629   1.549
22878SOL    HW168884   6.664  10.554   1.489
22878SOL    HW268885   6.709  10.596   1.628
22879SOL     OW68886  10.317   5.060   3.379
22879SOL    HW168887  10.315   4.994   3.448
22879SOL    HW268888  10.406   5.093   3.379
22880SOL     OW68889  12.958   3.448   4.435
22880SOL    HW168890  12.991   3.535   4.457
22880SOL    HW268891  12.972   3.440   4.341
22881SOL     OW68892   7.585   3.127   1.907
22881SOL    HW168893   7.597   3.041   1.867
22881SOL    HW268894   7.673   3.165   1.910
22882SOL     OW68895   2.244  10.772   0.144
22882SOL    HW168896   2.290  10.854   0.160
22882SOL    HW268897   2.203  10.785   0.058
22883SOL     OW68898  10.093   7.533   0.222
22883SOL    HW168899  10.181   7.533   0.261
22883SOL    HW268900  10.033   7.542   0.296
22884SOL     OW68901   8.214   7.106   5.075
22884SOL    HW168902   8.259   7.028   5.042
22884SOL    HW268903   8.282   7.157   5.119
22885SOL     OW68904  12.741   8.220   5.428
22885SOL    HW168905  12.730   8.226   5.523
22885SOL    HW268906  12.707   8.303   5.395
22886SOL     OW68907   5.317   0.663   0.098
22886SOL    HW168908   5.395   0.718   0.099
22886SOL    HW268909   5.253   0.711   0.151
22887SOL     OW68910   7.738   5.753   4.517
22887SOL    HW168911   7.670   5.757   4.451
22887SOL    HW268912   7.716   5.676   4.569
22888SOL     OW68913   7.683   8.391   2.114
22888SOL    HW168914   7.671   8.459   2.047
22888SOL    HW268915   7.632   8.317   2.082
22889SOL     OW68916  15.752  14.206   7.101
22889SOL    HW168917  15.763  14.116   7.071
22889SOL    HW268918  15.690  14.244   7.038
22890SOL     OW68919   5.486   6.919   4.212
22890SOL    HW168920   5.392   6.937   4.207
22890SOL    HW268921   5.528   7.002   4.188
22891SOL     OW68922   9.613   4.046   3.255
22891SOL    HW168923   9.524   4.018   3.230
22891SOL    HW268924   9.625   4.129   3.210
22892SOL     OW68925   6.999   1.196   0.488
22892SOL    HW168926   7.011   1.265   0.553
22892SOL    HW268927   7.013   1.239   0.404
22893SOL     OW68928  10.004   9.466   1.624
22893SOL    HW168929  10.078   9.501   1.673
22893SOL    HW268930   9.928   9.513   1.659
22894SOL     OW68931   9.672   5.777   1.236
22894SOL    HW168932   9.704   5.809   1.152
22894SOL    HW268933   9.577   5.773   1.226
22895SOL     OW68934   7.292   3.767   4.465
22895SOL    HW168935   7.199   3.785   4.453
22895SOL    HW268936   7.333   3.800   4.385
22896SOL     OW68937  13.047   8.444   6.223
22896SOL    HW168938  13.080   8.517   6.275
22896SOL    HW268939  13.120   8.381   6.221
22897SOL     OW68940   7.904   8.162   6.771
22897SOL    HW168941   7.864   8.243   6.802
22897SOL    HW268942   7.900   8.103   6.846
22898SOL     OW68943   1.234   7.733   0.892
22898SOL    HW168944   1.251   7.745   0.798
22898SOL    HW268945   1.251   7.641   0.908
22899SOL     OW68946   4.957   3.107   2.302
22899SOL    HW168947   4.901   3.089   2.377
22899SOL    HW268948   4.896   3.115   2.228
22900SOL     OW68949   7.711   6.841   5.158
22900SOL    HW168950   7.701   6.823   5.251
22900SOL    HW268951   7.799   6.876   5.149
22901SOL     OW68952   4.139   9.734   3.629
22901SOL    HW168953   4.184   9.816   3.607
22901SOL    HW268954   4.122   9.742   3.723
22902SOL     OW68955  13.970   6.939   5.531
22902SOL    HW168956  14.026   7.014   5.511
22902SOL    HW268957  13.957   6.896   5.446
22903SOL     OW68958  14.890   6.614   7.074
22903SOL    HW168959  14.864   6.693   7.027
22903SOL    HW268960  14.831   6.546   7.041
22904SOL     OW68961   8.473   4.208   1.919
22904SOL    HW168962   8.530   4.218   1.843
22904SOL    HW268963   8.452   4.115   1.922
22905SOL     OW68964   3.968   7.887   2.360
22905SOL    HW168965   3.940   7.825   2.427
22905SOL    HW268966   3.889   7.903   2.308
22906SOL     OW68967   6.698  14.815   6.492
22906SOL    HW168968   6.746  14.752   6.439
22906SOL    HW268969   6.683  14.769   6.575
22907SOL     OW68970   3.562   7.546   3.450
22907SOL    HW168971   3.637   7.553   3.391
22907SOL    HW268972   3.533   7.636   3.464
22908SOL     OW68973   4.419  12.289   4.963
22908SOL    HW168974   4.398  12.319   5.051
22908SOL    HW268975   4.512  12.265   4.968
22909SOL     OW68976   4.287   6.027   2.434
22909SOL    HW168977   4.280   6.018   2.339
22909SOL    HW268978   4.359   5.970   2.458
22910SOL     OW68979  14.152   9.037   6.138
22910SOL    HW168980  14.232   9.023   6.188
22910SOL    HW268981  14.151   9.131   6.119
22911SOL     OW68982   7.347  12.243   5.214
22911SOL    HW168983   7.381  12.221   5.301
22911SOL    HW268984   7.253  12.255   5.228
22912SOL     OW68985   4.184   8.282   2.010
22912SOL    HW168986   4.227   8.308   1.929
22912SOL    HW268987   4.192   8.358   2.068
22913SOL     OW68988   5.656  12.392   6.549
22913SOL    HW168989   5.588  12.396   6.482
22913SOL    HW268990   5.738  12.383   6.501
22914SOL     OW68991   9.455  12.469   6.462
22914SOL    HW168992   9.435  12.405   6.394
22914SOL    HW268993   9.422  12.552   6.427
22915SOL     OW68994   4.654   4.259   3.259
22915SOL    HW168995   4.602   4.248   3.339
22915SOL    HW268996   4.712   4.333   3.279
22916SOL     OW68997   6.024  13.722   4.589
22916SOL    HW168998   5.929  13.734   4.580
22916SOL    HW268999   6.044  13.648   4.532
22917SOL     OW69000   5.589  14.219   6.076
22917SOL    HW169001   5.588  14.136   6.123
22917SOL    HW269002   5.497  14.248   6.077
22918SOL     OW69003  11.278   9.457   7.207
22918SOL    HW169004  11.358   9.449   7.259
22918SOL    HW269005  11.267   9.551   7.195
22919SOL     OW69006   9.546  10.668   2.779
22919SOL    HW169007   9.542  10.758   2.812
22919SOL    HW269008   9.461  10.655   2.736
22920SOL     OW69009  11.258   9.317   3.116
22920SOL    HW169010  11.265   9.267   3.035
22920SOL    HW269011  11.332   9.378   3.113
22921SOL     OW69012  14.089  13.017   5.617
22921SOL    HW169013  14.109  13.082   5.549
22921SOL    HW269014  14.161  12.954   5.612
22922SOL     OW69015   8.619   6.616   2.560
22922SOL    HW169016   8.583   6.607   2.648
22922SOL    HW269017   8.623   6.710   2.545
22923SOL     OW69018   2.722   2.492   2.898
22923SOL    HW169019   2.753   2.505   2.809
22923SOL    HW269020   2.635   2.533   2.900
22924SOL     OW69021   7.149   5.146   2.479
22924SOL    HW169022   7.172   5.123   2.389
22924SOL    HW269023   7.172   5.068   2.530
22925SOL     OW69024  10.037  12.733   7.000
22925SOL    HW169025  10.123  12.699   6.975
22925SOL    HW269026   9.980  12.710   6.927
22926SOL     OW69027   1.954   8.017   2.685
22926SOL    HW169028   2.015   7.981   2.621
22926SOL    HW269029   1.922   8.098   2.645
22927SOL     OW69030   8.180  10.290   6.335
22927SOL    HW169031   8.142  10.213   6.293
22927SOL    HW269032   8.125  10.306   6.411
22928SOL     OW69033   1.515   3.661   1.302
22928SOL    HW169034   1.575   3.731   1.278
22928SOL    HW269035   1.488   3.682   1.391
22929SOL     OW69036   9.186   4.735   3.658
22929SOL    HW169037   9.227   4.783   3.586
22929SOL    HW269038   9.258   4.716   3.718
22930SOL     OW69039   9.742   9.460   5.059
22930SOL    HW169040   9.794   9.386   5.090
22930SOL    HW269041   9.798   9.504   4.995
22931SOL     OW69042   2.521   4.649   1.470
22931SOL    HW169043   2.452   4.690   1.520
22931SOL    HW269044   2.482   4.568   1.436
22932SOL     OW69045   3.734   6.583   1.786
22932SOL    HW169046   3.782   6.549   1.711
22932SOL    HW269047   3.760   6.526   1.859
22933SOL     OW69048   1.810   3.908   1.054
22933SOL    HW169049   1.798   3.847   0.981
22933SOL    HW269050   1.873   3.865   1.111
22934SOL     OW69051  14.498  13.529   7.460
22934SOL    HW169052  14.443  13.465   7.416
22934SOL    HW269053  14.567  13.477   7.502
22935SOL     OW69054  10.835  11.851   7.526
22935SOL    HW169055  10.770  11.833   7.594
22935SOL    HW269056  10.800  11.807   7.448
22936SOL     OW69057   8.317   3.979   5.528
22936SOL    HW169058   8.399   3.949   5.488
22936SOL    HW269059   8.295  14.687   5.593
22937SOL     OW69060   8.693   2.379   3.202
22937SOL    HW169061   8.662   2.457   3.248
22937SOL    HW269062   8.772   2.354   3.249
22938SOL     OW69063   5.338   5.183   1.293
22938SOL    HW169064   5.293   5.267   1.288
22938SOL    HW269065   5.271   5.122   1.322
22939SOL     OW69066  10.136   8.727   3.390
22939SOL    HW169067  10.165   8.636   3.391
22939SOL    HW269068  10.042   8.723   3.377
22940SOL     OW69069   0.320   1.085   0.133
22940SOL    HW169070   0.331   1.019   0.201
22940SOL    HW269071   0.227   1.083   0.112
22941SOL     OW69072   6.455   4.593   5.705
22941SOL    HW169073   6.395   4.583   5.779
22941SOL    HW269074   6.492   4.681   5.716
22942SOL     OW69075   8.927   3.269   2.827
22942SOL    HW169076   8.885   3.277   2.742
22942SOL    HW269077   8.996   3.204   2.815
22943SOL     OW69078   3.069   1.880   1.329
22943SOL    HW169079   3.134   1.811   1.341
22943SOL    HW269080   3.028   1.890   1.415
22944SOL     OW69081   5.818   3.698   4.530
22944SOL    HW169082   5.848   3.752   4.603
22944SOL    HW269083   5.763   3.757   4.477
22945SOL     OW69084  14.750  13.416   6.514
22945SOL    HW169085  14.776  13.495   6.562
22945SOL    HW269086  14.831  13.367   6.503
22946SOL     OW69087  11.295  11.210   1.813
22946SOL    HW169088  11.234  11.250   1.751
22946SOL    HW269089  11.372  11.188   1.761
22947SOL     OW69090   5.106  12.940   4.630
22947SOL    HW169091   5.133  12.878   4.698
22947SOL    HW269092   5.179  12.939   4.567
22948SOL     OW69093  10.492  13.710   7.527
22948SOL    HW169094  10.506  13.801   7.504
22948SOL    HW269095  10.433  13.677   7.459
22949SOL     OW69096   8.140   8.887   6.590
22949SOL    HW169097   8.076   8.816   6.589
22949SOL    HW269098   8.220   8.846   6.622
22950SOL     OW69099   7.333   9.850   7.340
22950SOL    HW169100   7.332   9.941   7.309
22950SOL    HW269101   7.273   9.849   7.414
22951SOL     OW69102  14.088   5.602   5.754
22951SOL    HW169103  14.073   5.692   5.725
22951SOL    HW269104  14.062   5.602   5.846
22952SOL     OW69105  10.627   9.218   4.548
22952SOL    HW169106  10.647   9.301   4.590
22952SOL    HW269107  10.587   9.242   4.465
22953SOL     OW69108   5.817   5.985   5.697
22953SOL    HW169109   5.804   5.928   5.621
22953SOL    HW269110   5.752   5.954   5.761
22954SOL     OW69111   1.715   8.474   0.275
22954SOL    HW169112   1.629   8.432   0.267
22954SOL    HW269113   1.778   8.406   0.249
22955SOL     OW69114   5.635  11.788   6.322
22955SOL    HW169115   5.711  11.730   6.332
22955SOL    HW269116   5.665  11.872   6.355
22956SOL     OW69117   8.392   6.233   2.224
22956SOL    HW169118   8.299   6.254   2.222
22956SOL    HW269119   8.411   6.220   2.317
22957SOL     OW69120  15.164  11.052   6.942
22957SOL    HW169121  15.243  11.020   6.985
22957SOL    HW269122  15.196  11.094   6.862
22958SOL     OW69123   6.914  11.878   5.326
22958SOL    HW169124   6.932  11.833   5.243
22958SOL    HW269125   6.821  11.862   5.342
22959SOL     OW69126   7.548   8.815   3.303
22959SOL    HW169127   7.519   8.858   3.223
22959SOL    HW269128   7.567   8.887   3.363
22960SOL     OW69129  12.913  13.926   7.505
22960SOL    HW169130  12.828  13.911   7.546
22960SOL    HW269131  12.920  14.021   7.497
22961SOL     OW69132   2.714   2.037   1.809
22961SOL    HW169133   2.692   2.129   1.795
22961SOL    HW269134   2.800   2.038   1.850
22962SOL     OW69135   9.116  13.308   7.152
22962SOL    HW169136   9.098  13.376   7.216
22962SOL    HW269137   9.144  13.355   7.074
22963SOL     OW69138   8.135  12.014   2.433
22963SOL    HW169139   8.204  12.029   2.498
22963SOL    HW269140   8.157  12.072   2.360
22964SOL     OW69141  11.083  10.114   1.727
22964SOL    HW169142  11.084  10.031   1.680
22964SOL    HW269143  11.012  10.164   1.686
22965SOL     OW69144   9.154   9.096   6.545
22965SOL    HW169145   9.080   9.047   6.581
22965SOL    HW269146   9.230   9.040   6.558
22966SOL     OW69147   4.665   9.272   3.508
22966SOL    HW169148   4.572   9.271   3.485
22966SOL    HW269149   4.687   9.181   3.525
22967SOL     OW69150   8.977   8.505   6.739
22967SOL    HW169151   9.008   8.593   6.757
22967SOL    HW269152   8.993   8.492   6.645
22968SOL     OW69153   3.723  10.402   2.747
22968SOL    HW169154   3.672  10.370   2.821
22968SOL    HW269155   3.808  10.425   2.784
22969SOL     OW69156   4.092  11.290   1.259
22969SOL    HW169157   4.049  11.373   1.239
22969SOL    HW269158   4.064  11.270   1.348
22970SOL     OW69159  13.442  12.186   4.397
22970SOL    HW169160  13.533  12.187   4.427
22970SOL    HW269161  13.436  12.107   4.343
22971SOL     OW69162   8.113  10.696   4.592
22971SOL    HW169163   8.034  10.751   4.593
22971SOL    HW269164   8.087  10.617   4.640
22972SOL     OW69165  13.334   5.483   4.227
22972SOL    HW169166  13.390   5.470   4.150
22972SOL    HW269167  13.257   5.429   4.210
22973SOL     OW69168   4.986   6.964   0.525
22973SOL    HW169169   5.067   6.997   0.564
22973SOL    HW269170   4.916   7.008   0.573
22974SOL     OW69171  13.902  10.311   7.125
22974SOL    HW169172  13.894  10.217   7.112
22974SOL    HW269173  13.961  10.320   7.200
22975SOL     OW69174   7.135   4.964   3.329
22975SOL    HW169175   7.071   5.003   3.269
22975SOL    HW269176   7.185   4.903   3.274
22976SOL     OW69177   1.801   1.527   1.257
22976SOL    HW169178   1.776   1.436   1.266
22976SOL    HW269179   1.841   1.533   1.171
22977SOL     OW69180   8.176   8.307   3.092
22977SOL    HW169181   8.220   8.353   3.164
22977SOL    HW269182   8.184   8.215   3.114
22978SOL     OW69183   2.066   3.794   1.203
22978SOL    HW169184   2.089   3.712   1.159
22978SOL    HW269185   2.077   3.775   1.296
22979SOL     OW69186   5.922   7.154   3.799
22979SOL    HW169187   5.844   7.099   3.811
22979SOL    HW269188   5.970   7.146   3.882
22980SOL     OW69189   9.604   6.739   0.898
22980SOL    HW169190   9.512   6.713   0.899
22980SOL    HW269191   9.603   6.831   0.925
22981SOL     OW69192  11.405   3.514   3.798
22981SOL    HW169193  11.451   3.439   3.761
22981SOL    HW269194  11.376   3.565   3.722
22982SOL     OW69195  11.516   5.433   3.329
22982SOL    HW169196  11.457   5.509   3.327
22982SOL    HW269197  11.566   5.440   3.248
22983SOL     OW69198   7.936  12.147   3.210
22983SOL    HW169199   7.923  12.141   3.116
22983SOL    HW269200   8.021  12.107   3.225
22984SOL     OW69201  10.565   9.796   4.643
22984SOL    HW169202  10.624   9.734   4.686
22984SOL    HW269203  10.477   9.760   4.659
22985SOL     OW69204  13.631   3.999   4.612
22985SOL    HW169205  13.677   4.029   4.690
22985SOL    HW269206  13.565   4.066   4.597
22986SOL     OW69207   8.529  10.212   1.754
22986SOL    HW169208   8.447  10.259   1.736
22986SOL    HW269209   8.585  10.277   1.796
22987SOL     OW69210   6.841   6.837   3.551
22987SOL    HW169211   6.751   6.865   3.534
22987SOL    HW269212   6.895   6.906   3.512
22988SOL     OW69213   9.997   7.541   2.077
22988SOL    HW169214   9.999   7.595   1.998
22988SOL    HW269215  10.007   7.604   2.149
22989SOL     OW69216   5.709  10.538   7.358
22989SOL    HW169217   5.796  10.534   7.398
22989SOL    HW269218   5.652  10.575   7.426
22990SOL     OW69219  12.481   7.750   5.418
22990SOL    HW169220  12.501   7.840   5.443
22990SOL    HW269221  12.564   7.703   5.426
22991SOL     OW69222  10.823  13.799   5.443
22991SOL    HW169223  10.919  13.789   5.445
22991SOL    HW269224  10.789  13.712   5.462
22992SOL     OW69225   6.250  10.505   3.599
22992SOL    HW169226   6.340  10.497   3.630
22992SOL    HW269227   6.236  10.428   3.544
22993SOL     OW69228   5.229   9.209   0.124
22993SOL    HW169229   5.324   9.213   0.110
22993SOL    HW269230   5.220   9.182   0.215
22994SOL     OW69231   4.908   5.082   0.964
22994SOL    HW169232   4.855   5.017   1.009
22994SOL    HW269233   4.948   5.133   1.034
22995SOL     OW69234  14.227   9.924   5.483
22995SOL    HW169235  14.217   9.843   5.533
22995SOL    HW269236  14.320   9.930   5.466
22996SOL     OW69237   8.998   8.018   1.596
22996SOL    HW169238   9.060   7.996   1.665
22996SOL    HW269239   9.010   8.112   1.583
22997SOL     OW69240   4.433   2.792   2.031
22997SOL    HW169241   4.468   2.816   1.945
22997SOL    HW269242   4.472   2.707   2.050
22998SOL     OW69243   4.118   3.795   3.854
22998SOL    HW169244   4.035   3.841   3.848
22998SOL    HW269245   4.141   3.772   3.764
22999SOL     OW69246   5.247   7.383   1.349
22999SOL    HW169247   5.179   7.441   1.314
22999SOL    HW269248   5.279   7.428   1.427
23000SOL     OW69249   7.489  11.142   0.622
23000SOL    HW169250   7.500  11.096   0.539
23000SOL    HW269251   7.554  11.102   0.680
23001SOL     OW69252   6.018   5.249   0.073
23001SOL    HW169253   6.069   5.323   0.106
23001SOL    HW269254   6.081   5.195   0.025
23002SOL     OW69255  10.815   3.101   1.222
23002SOL    HW169256  10.896   3.078   1.175
23002SOL    HW269257  10.790   3.020   1.267
23003SOL     OW69258   9.011   8.361   1.634
23003SOL    HW169259   8.919   8.340   1.618
23003SOL    HW269260   9.022   8.351   1.729
23004SOL     OW69261   8.148   5.837   1.750
23004SOL    HW169262   8.188   5.758   1.714
23004SOL    HW269263   8.214   5.905   1.738
23005SOL     OW69264   3.130   5.884   2.227
23005SOL    HW169265   3.095   5.795   2.216
23005SOL    HW269266   3.061   5.941   2.194
23006SOL     OW69267  12.925   5.501   5.351
23006SOL    HW169268  12.839   5.458   5.356
23006SOL    HW269269  12.982   5.435   5.310
23007SOL     OW69270   8.284   4.292   1.339
23007SOL    HW169271   8.308   4.265   1.428
23007SOL    HW269272   8.368   4.318   1.300
23008SOL     OW69273   5.889   4.168   4.353
23008SOL    HW169274   5.950   4.208   4.415
23008SOL    HW269275   5.869   4.237   4.290
23009SOL     OW69276   4.810   4.755   3.517
23009SOL    HW169277   4.789   4.835   3.470
23009SOL    HW269278   4.903   4.741   3.502
23010SOL     OW69279   3.335   9.651   0.805
23010SOL    HW169280   3.374   9.677   0.888
23010SOL    HW269281   3.348   9.726   0.747
23011SOL     OW69282   5.057   6.186   5.611
23011SOL    HW169283   4.973   6.231   5.620
23011SOL    HW269284   5.111   6.219   5.683
23012SOL     OW69285   7.403  13.700   5.547
23012SOL    HW169286   7.317  13.667   5.522
23012SOL    HW269287   7.407  13.788   5.508
23013SOL     OW69288   7.574   3.445   1.923
23013SOL    HW169289   7.496   3.451   1.867
23013SOL    HW269290   7.577   3.529   1.968
23014SOL     OW69291   8.973   7.401   2.711
23014SOL    HW169292   8.953   7.400   2.617
23014SOL    HW269293   8.980   7.309   2.735
23015SOL     OW69294   9.309   9.335   0.861
23015SOL    HW169295   9.384   9.286   0.896
23015SOL    HW269296   9.319   9.423   0.895
23016SOL     OW69297   0.877   4.547   1.239
23016SOL    HW169298   0.943   4.574   1.304
23016SOL    HW269299  11.595   4.486   1.287
23017SOL     OW69300   5.700   5.667   0.794
23017SOL    HW169301   5.633   5.715   0.745
23017SOL    HW269302   5.700   5.580   0.754
23018SOL     OW69303   7.439  12.686   4.678
23018SOL    HW169304   7.472  12.607   4.721
23018SOL    HW269305   7.441  12.754   4.746
23019SOL     OW69306  11.591  10.760   7.463
23019SOL    HW169307  11.545  10.679   7.486
23019SOL    HW269308  11.660  10.768   7.529
23020SOL     OW69309   4.354   7.757   3.042
23020SOL    HW169310   4.308   7.828   2.997
23020SOL    HW269311   4.352   7.684   2.981
23021SOL     OW69312   8.546   5.896   5.734
23021SOL    HW169313   8.538   5.988   5.759
23021SOL    HW269314   8.460   5.858   5.756
23022SOL     OW69315  11.120   5.521   1.249
23022SOL    HW169316  11.199   5.485   1.209
23022SOL    HW269317  11.052   5.457   1.229
23023SOL     OW69318  13.352  13.419   4.913
23023SOL    HW169319  13.394  13.494   4.873
23023SOL    HW269320  13.290  13.388   4.847
23024SOL     OW69321   4.945   6.929   6.252
23024SOL    HW169322   5.008   6.891   6.313
23024SOL    HW269323   4.922   6.858   6.192
23025SOL     OW69324   9.297  11.003   4.891
23025SOL    HW169325   9.231  10.947   4.931
23025SOL    HW269326   9.373  10.996   4.950
23026SOL     OW69327  15.133   8.561   7.103
23026SOL    HW169328  15.218   8.519   7.111
23026SOL    HW269329  15.113   8.557   7.009
23027SOL     OW69330  13.543   3.405   4.075
23027SOL    HW169331  13.534   3.319   4.117
23027SOL    HW269332  13.525   3.389   3.983
23028SOL     OW69333   6.853  11.384   1.909
23028SOL    HW169334   6.854  11.295   1.875
23028SOL    HW269335   6.778  11.387   1.969
23029SOL     OW69336  11.066  13.627   5.730
23029SOL    HW169337  11.138  13.680   5.764
23029SOL    HW269338  11.105  13.577   5.658
23030SOL     OW69339   7.571   3.190   0.774
23030SOL    HW169340   7.661   3.220   0.768
23030SOL    HW269341   7.536   3.200   0.685
23031SOL     OW69342  14.183  11.075   6.725
23031SOL    HW169343  14.110  11.084   6.663
23031SOL    HW269344  14.242  11.146   6.701
23032SOL     OW69345   8.563   8.733   6.969
23032SOL    HW169346   8.643   8.681   6.973
23032SOL    HW269347   8.594   8.824   6.969
23033SOL     OW69348  12.898  10.433   4.316
23033SOL    HW169349  12.899  10.528   4.316
23033SOL    HW269350  12.835  10.410   4.247
23034SOL     OW69351  12.020   5.816   7.341
23034SOL    HW169352  12.099   5.840   7.389
23034SOL    HW269353  11.949   5.832   7.403
23035SOL     OW69354   9.670   7.153   4.148
23035SOL    HW169355   9.742   7.211   4.173
23035SOL    HW269356   9.627   7.131   4.230
23036SOL     OW69357   7.143  10.115   3.000
23036SOL    HW169358   7.122  10.026   2.970
23036SOL    HW269359   7.198  10.103   3.077
23037SOL     OW69360  11.197   9.270   2.856
23037SOL    HW169361  11.211   9.181   2.825
23037SOL    HW269362  11.115   9.298   2.815
23038SOL     OW69363   8.750   0.818   1.080
23038SOL    HW169364   8.739  11.563   1.171
23038SOL    HW269365   8.728   0.742   1.027
23039SOL     OW69366   4.142   0.417   0.030
23039SOL    HW169367   4.080   0.490   0.022
23039SOL    HW269368   4.225   0.458   0.053
23040SOL     OW69369  11.599  13.553   5.178
23040SOL    HW169370  11.631  13.623   5.234
23040SOL    HW269371  11.537  13.505   5.233
23041SOL     OW69372   7.002  12.211   4.287
23041SOL    HW169373   7.051  12.130   4.299
23041SOL    HW269374   7.047  12.275   4.342
23042SOL     OW69375   1.869   3.335   1.438
23042SOL    HW169376   1.924   3.391   1.492
23042SOL    HW269377   1.849   3.260   1.495
23043SOL     OW69378   9.967   6.366   7.183
23043SOL    HW169379  10.061   6.353   7.194
23043SOL    HW269380   9.949   6.338   7.093
23044SOL     OW69381   5.916   1.851   0.714
23044SOL    HW169382   5.894   1.769   0.668
23044SOL    HW269383   5.919   1.917   0.645
23045SOL     OW69384  11.561  11.816   5.267
23045SOL    HW169385  11.502  11.890   5.252
23045SOL    HW269386  11.594  11.794   5.181
23046SOL     OW69387   9.519  12.722   5.807
23046SOL    HW169388   9.450  12.784   5.785
23046SOL    HW269389   9.583  12.773   5.855
23047SOL     OW69390   6.858   6.118   1.816
23047SOL    HW169391   6.928   6.060   1.786
23047SOL    HW269392   6.872   6.124   1.910
23048SOL     OW69393   5.945   3.658   4.118
23048SOL    HW169394   6.023   3.704   4.149
23048SOL    HW269395   5.873   3.719   4.135
23049SOL     OW69396   8.645   3.063   1.146
23049SOL    HW169397   8.708   3.027   1.208
23049SOL    HW269398   8.598   3.130   1.196
23050SOL     OW69399   3.353  10.452   4.406
23050SOL    HW169400   3.359  10.545   4.426
23050SOL    HW269401   3.281  10.420   4.460
23051SOL     OW69402  14.418   6.750   6.166
23051SOL    HW169403  14.379   6.813   6.226
23051SOL    HW269404  14.480   6.801   6.113
23052SOL     OW69405   5.768  12.902   7.183
23052SOL    HW169406   5.766  12.821   7.235
23052SOL    HW269407   5.836  12.955   7.225
23053SOL     OW69408   6.656   6.276   0.894
23053SOL    HW169409   6.627   6.346   0.836
23053SOL    HW269410   6.747   6.298   0.914
23054SOL     OW69411   5.588   7.906   0.339
23054SOL    HW169412   5.616   7.983   0.388
23054SOL    HW269413   5.602   7.833   0.399
23055SOL     OW69414  13.384   6.628   6.767
23055SOL    HW169415  13.454   6.564   6.781
23055SOL    HW269416  13.400   6.695   6.834
23056SOL     OW69417  11.426   6.549   6.584
23056SOL    HW169418  11.439   6.456   6.567
23056SOL    HW269419  11.483   6.568   6.658
23057SOL     OW69420   5.259   7.974   4.346
23057SOL    HW169421   5.193   8.042   4.365
23057SOL    HW269422   5.265   7.972   4.251
23058SOL     OW69423  13.775   5.955   5.450
23058SOL    HW169424  13.717   6.031   5.453
23058SOL    HW269425  13.721   5.883   5.484
23059SOL     OW69426   5.786  10.688   0.597
23059SOL    HW169427   5.842  10.735   0.658
23059SOL    HW269428   5.700  10.729   0.606
23060SOL     OW69429   6.930  11.195   4.597
23060SOL    HW169430   6.859  11.139   4.627
23060SOL    HW269431   6.985  11.137   4.544
23061SOL     OW69432   9.129   7.024   2.976
23061SOL    HW169433   9.183   7.059   2.905
23061SOL    HW269434   9.056   7.085   2.984
23062SOL     OW69435  11.869  10.404   7.093
23062SOL    HW169436  11.870  10.498   7.078
23062SOL    HW269437  11.951  10.386   7.138
23063SOL     OW69438   9.282   5.043   1.318
23063SOL    HW169439   9.216   4.974   1.307
23063SOL    HW269440   9.361   5.008   1.277
23064SOL     OW69441   6.522   5.682   0.324
23064SOL    HW169442   6.465   5.679   0.247
23064SOL    HW269443   6.583   5.753   0.305
23065SOL     OW69444  14.818   8.104   6.905
23065SOL    HW169445  14.808   8.010   6.920
23065SOL    HW269446  14.832   8.112   6.811
23066SOL     OW69447   4.740  13.620   5.104
23066SOL    HW169448   4.823  13.627   5.056
23066SOL    HW269449   4.762  13.570   5.182
23067SOL     OW69450  11.196   6.597   4.189
23067SOL    HW169451  11.125   6.537   4.210
23067SOL    HW269452  11.266   6.574   4.249
23068SOL     OW69453  13.078  11.931   7.507
23068SOL    HW169454  13.097  12.003   7.446
23068SOL    HW269455  13.022  11.872   7.457
23069SOL     OW69456  13.336   6.680   6.054
23069SOL    HW169457  13.409   6.711   6.107
23069SOL    HW269458  13.279   6.636   6.117
23070SOL     OW69459  11.840   1.639   1.820
23070SOL    HW169460  11.870   1.682   1.740
23070SOL    HW269461  11.841   1.708   1.886
23071SOL     OW69462   4.923   5.706   2.500
23071SOL    HW169463   4.955   5.789   2.463
23071SOL    HW269464   4.876   5.665   2.429
23072SOL     OW69465  13.621  11.808   7.530
23072SOL    HW169466  13.624  11.904   7.525
23072SOL    HW269467  13.531  11.788   7.556
23073SOL     OW69468  12.599  10.584   5.056
23073SOL    HW169469  12.524  10.533   5.088
23073SOL    HW269470  12.623  10.640   5.130
23074SOL     OW69471   1.736   9.585   0.738
23074SOL    HW169472   1.749   9.640   0.661
23074SOL    HW269473   1.648   9.609   0.770
23075SOL     OW69474  12.094   6.408   6.602
23075SOL    HW169475  12.039   6.354   6.545
23075SOL    HW269476  12.160   6.446   6.544
23076SOL     OW69477   0.565   7.064   0.437
23076SOL    HW169478   0.600   7.011   0.366
23076SOL    HW269479   0.606   7.150   0.425
23077SOL     OW69480   4.176   8.683   5.843
23077SOL    HW169481  14.866   8.686   5.799
23077SOL    HW269482   4.239   8.707   5.775
23078SOL     OW69483   3.618  10.054   0.231
23078SOL    HW169484   3.656  10.091   0.311
23078SOL    HW269485   3.540  10.107   0.216
23079SOL     OW69486   7.874   6.416   0.920
23079SOL    HW169487   7.930   6.468   0.976
23079SOL    HW269488   7.864   6.468   0.840
23080SOL     OW69489  13.458   6.883   6.503
23080SOL    HW169490  13.518   6.877   6.429
23080SOL    HW269491  13.389   6.820   6.482
23081SOL     OW69492   2.886   5.614   0.065
23081SOL    HW169493   2.854   5.704   0.074
23081SOL    HW269494   8.248  10.976   7.594
23082SOL     OW69495  14.643   8.259   5.879
23082SOL    HW169496  14.710   8.320   5.909
23082SOL    HW269497  14.690   8.193   5.829
23083SOL     OW69498   6.762   2.895   2.737
23083SOL    HW169499   6.857   2.882   2.733
23083SOL    HW269500   6.727   2.810   2.763
23084SOL     OW69501  13.613   9.399   4.930
23084SOL    HW169502  13.538   9.457   4.942
23084SOL    HW269503  13.622   9.391   4.835
23085SOL     OW69504   3.941   6.773   4.579
23085SOL    HW169505   3.848   6.791   4.569
23085SOL    HW269506   3.984   6.856   4.558
23086SOL     OW69507  14.617   8.064   5.534
23086SOL    HW169508  14.547   8.084   5.471
23086SOL    HW269509  14.629   7.969   5.527
23087SOL     OW69510  11.878   7.103   6.120
23087SOL    HW169511  11.904   7.178   6.173
23087SOL    HW269512  11.883   7.028   6.181
23088SOL     OW69513   4.864   6.448   1.532
23088SOL    HW169514   4.797   6.482   1.471
23088SOL    HW269515   4.835   6.478   1.618
23089SOL     OW69516  13.718  10.978   6.647
23089SOL    HW169517  13.631  10.956   6.614
23089SOL    HW269518  13.749  10.896   6.688
23090SOL     OW69519   9.745  10.639   2.232
23090SOL    HW169520   9.836  10.616   2.255
23090SOL    HW269521   9.748  10.732   2.211
23091SOL     OW69522   5.230   6.494   6.380
23091SOL    HW169523   5.217   6.500   6.474
23091SOL    HW269524   5.320   6.524   6.366
23092SOL     OW69525   5.178   6.736   7.316
23092SOL    HW169526   5.217   6.809   7.363
23092SOL    HW269527  15.894   6.776   7.252
23093SOL     OW69528  13.180  11.348   5.280
23093SOL    HW169529  13.270  11.320   5.263
23093SOL    HW269530  13.158  11.404   5.205
23094SOL     OW69531   8.221  14.789   6.056
23094SOL    HW169532   8.297  14.829   6.013
23094SOL    HW269533   8.177  14.741   5.986
23095SOL     OW69534  10.141  12.909   4.690
23095SOL    HW169535  10.166  12.817   4.700
23095SOL    HW269536  10.045  12.908   4.688
23096SOL     OW69537  10.722  13.638   7.124
23096SOL    HW169538  10.689  13.728   7.127
23096SOL    HW269539  10.809  13.646   7.085
23097SOL     OW69540   8.850   3.917   4.781
23097SOL    HW169541   8.941   3.942   4.794
23097SOL    HW269542   8.808   3.997   4.747
23098SOL     OW69543   6.519   6.267   7.578
23098SOL    HW169544   1.153   0.930   0.038
23098SOL    HW269545   6.600   6.222   7.555
23099SOL     OW69546   7.192   3.523   4.783
23099SOL    HW169547   7.118   3.567   4.739
23099SOL    HW269548   7.252   3.594   4.806
23100SOL     OW69549   9.873   3.787   0.915
23100SOL    HW169550   9.929   3.860   0.942
23100SOL    HW269551   9.933   3.714   0.902
23101SOL     OW69552   7.352  11.620   7.428
23101SOL    HW169553   7.444  11.616   7.456
23101SOL    HW269554   7.350  11.688   7.361
23102SOL     OW69555   4.751   9.151   4.960
23102SOL    HW169556   4.703   9.080   5.002
23102SOL    HW269557   4.829   9.162   5.014
23103SOL     OW69558   2.684   5.686   2.398
23103SOL    HW169559   2.603   5.639   2.380
23103SOL    HW269560   2.659   5.754   2.462
23104SOL     OW69561  13.350   8.118   5.654
23104SOL    HW169562  13.311   8.032   5.643
23104SOL    HW269563  13.293   8.162   5.717
23105SOL     OW69564   5.637   5.599   5.420
23105SOL    HW169565   5.578   5.651   5.365
23105SOL    HW269566   5.716   5.652   5.427
23106SOL     OW69567  14.315   9.379   5.591
23106SOL    HW169568  14.391   9.415   5.636
23106SOL    HW269569  14.321   9.413   5.502
23107SOL     OW69570   6.237  13.835   5.655
23107SOL    HW169571   6.189  13.752   5.654
23107SOL    HW269572   6.239  13.862   5.563
23108SOL     OW69573  10.222  10.997   2.926
23108SOL    HW169574  10.281  11.058   2.881
23108SOL    HW269575  10.222  11.027   3.017
23109SOL     OW69576  12.332  11.532   6.850
23109SOL    HW169577  12.345  11.496   6.937
23109SOL    HW269578  12.280  11.610   6.863
23110SOL     OW69579   5.864   5.481   5.061
23110SOL    HW169580   5.899   5.497   5.149
23110SOL    HW269581   5.779   5.438   5.077
23111SOL     OW69582   9.443  10.412   7.279
23111SOL    HW169583   9.491  10.464   7.343
23111SOL    HW269584   9.365  10.464   7.259
23112SOL     OW69585   7.497   7.416   5.020
23112SOL    HW169586   7.424   7.468   4.987
23112SOL    HW269587   7.573   7.447   4.971
23113SOL     OW69588   9.138   5.601   5.111
23113SOL    HW169589   9.064   5.541   5.111
23113SOL    HW269590   9.214   5.546   5.095
23114SOL     OW69591   5.614   6.415   5.416
23114SOL    HW169592   5.535   6.363   5.406
23114SOL    HW269593   5.609   6.450   5.505
23115SOL     OW69594   7.088   8.582   3.061
23115SOL    HW169595   7.111   8.673   3.075
23115SOL    HW269596   7.142   8.554   2.988
23116SOL     OW69597  11.934   5.416   6.726
23116SOL    HW169598  11.869   5.358   6.765
23116SOL    HW269599  11.983   5.360   6.666
23117SOL     OW69600   2.260   7.236   2.314
23117SOL    HW169601   2.324   7.171   2.343
23117SOL    HW269602   2.243   7.289   2.391
23118SOL     OW69603   9.658  12.198   3.937
23118SOL    HW169604   9.660  12.117   3.988
23118SOL    HW269605   9.577  12.242   3.964
23119SOL     OW69606   7.449   7.248   2.020
23119SOL    HW169607   7.544   7.240   2.009
23119SOL    HW269608   7.412   7.198   1.947
23120SOL     OW69609  14.900  10.036   7.255
23120SOL    HW169610  14.894  10.025   7.350
23120SOL    HW269611  14.986  10.076   7.241
23121SOL     OW69612   6.570  12.608   4.444
23121SOL    HW169613   6.590  12.519   4.473
23121SOL    HW269614   6.569  12.603   4.349
23122SOL     OW69615   6.483   9.826   2.095
23122SOL    HW169616   6.516   9.892   2.034
23122SOL    HW269617   6.396   9.859   2.121
23123SOL     OW69618   1.652   4.601   2.203
23123SOL    HW169619   1.671   4.691   2.231
23123SOL    HW269620   1.586   4.612   2.133
23124SOL     OW69621   3.351  11.968   3.080
23124SOL    HW169622   3.437  11.965   3.124
23124SOL    HW269623   3.327  12.061   3.081
23125SOL     OW69624   4.115   3.550   0.913
23125SOL    HW169625   4.132   3.544   1.007
23125SOL    HW269626   4.170   3.483   0.874
23126SOL     OW69627   7.392   4.820   4.616
23126SOL    HW169628   7.463   4.854   4.561
23126SOL    HW269629   7.318   4.879   4.599
23127SOL     OW69630  10.682  13.786   4.641
23127SOL    HW169631  10.588  13.776   4.658
23127SOL    HW269632  10.720  13.704   4.673
23128SOL     OW69633  12.336   7.119   4.638
23128SOL    HW169634  12.259   7.081   4.594
23128SOL    HW269635  12.404   7.052   4.629
23129SOL     OW69636   4.816   5.561   1.464
23129SOL    HW169637   4.760   5.549   1.387
23129SOL    HW269638   4.755   5.554   1.538
23130SOL     OW69639  10.387  11.610   3.916
23130SOL    HW169640  10.463  11.568   3.956
23130SOL    HW269641  10.412  11.623   3.825
23131SOL     OW69642  10.168   4.624   5.191
23131SOL    HW169643  10.263   4.612   5.200
23131SOL    HW269644  10.142   4.670   5.271
23132SOL     OW69645   3.454  10.033   1.003
23132SOL    HW169646   3.453  10.115   1.052
23132SOL    HW269647   3.471   9.966   1.069
23133SOL     OW69648   9.525  11.914   3.942
23133SOL    HW169649   9.454  11.963   3.900
23133SOL    HW269650   9.591  11.905   3.874
23134SOL     OW69651   6.433   3.287   1.980
23134SOL    HW169652   6.510   3.252   2.025
23134SOL    HW269653   6.435   3.381   1.997
23135SOL     OW69654   6.496  13.040   5.687
23135SOL    HW169655   6.552  12.996   5.622
23135SOL    HW269656   6.431  13.087   5.636
23136SOL     OW69657   4.274  12.371   2.735
23136SOL    HW169658   4.320  12.295   2.702
23136SOL    HW269659   4.205  12.388   2.671
23137SOL     OW69660  14.858  14.375   6.243
23137SOL    HW169661  14.880  14.282   6.246
23137SOL    HW269662  14.874  14.401   6.152
23138SOL     OW69663  12.055   9.262   4.464
23138SOL    HW169664  12.066   9.258   4.369
23138SOL    HW269665  12.023   9.351   4.480
23139SOL     OW69666  11.299  11.551   6.613
23139SOL    HW169667  11.232  11.556   6.544
23139SOL    HW269668  11.278  11.471   6.661
23140SOL     OW69669  11.301  14.755   6.140
23140SOL    HW169670  11.234  14.727   6.202
23140SOL    HW269671  11.374  14.783   6.195
23141SOL     OW69672   7.051   9.975   3.572
23141SOL    HW169673   7.007   9.941   3.494
23141SOL    HW269674   7.107   9.903   3.601
23142SOL     OW69675   2.638   8.135   0.630
23142SOL    HW169676   2.726   8.123   0.667
23142SOL    HW269677   2.579   8.099   0.697
23143SOL     OW69678   6.574  11.732   4.223
23143SOL    HW169679   6.526  11.764   4.299
23143SOL    HW269680   6.556  11.638   4.220
23144SOL     OW69681  12.551   9.291   4.844
23144SOL    HW169682  12.488   9.325   4.907
23144SOL    HW269683  12.514   9.312   4.758
23145SOL     OW69684  10.078  11.522   4.600
23145SOL    HW169685  10.150  11.477   4.644
23145SOL    HW269686  10.116  11.553   4.518
23146SOL     OW69687   4.133  10.562   1.796
23146SOL    HW169688   4.085  10.527   1.871
23146SOL    HW269689   4.177  10.486   1.758
23147SOL     OW69690   6.806   5.299   5.112
23147SOL    HW169691   6.803   5.365   5.181
23147SOL    HW269692   6.778   5.218   5.154
23148SOL     OW69693   8.700   9.129   4.136
23148SOL    HW169694   8.777   9.157   4.086
23148SOL    HW269695   8.626   9.146   4.077
23149SOL     OW69696   9.059  12.748   6.574
23149SOL    HW169697   9.100  12.740   6.660
23149SOL    HW269698   8.966  12.761   6.592
23150SOL     OW69699   7.009  12.181   2.649
23150SOL    HW169700   6.920  12.209   2.671
23150SOL    HW269701   7.036  12.240   2.579
23151SOL     OW69702   6.800   9.781   6.564
23151SOL    HW169703   6.820   9.868   6.597
23151SOL    HW269704   6.874   9.727   6.593
23152SOL     OW69705   9.012   4.592   3.437
23152SOL    HW169706   8.996   4.522   3.374
23152SOL    HW269707   8.928   4.603   3.482
23153SOL     OW69708   3.753  12.573   2.722
23153SOL    HW169709   3.758  12.632   2.797
23153SOL    HW269710   3.832  12.593   2.671
23154SOL     OW69711   5.572   4.332   2.109
23154SOL    HW169712   5.501   4.379   2.153
23154SOL    HW269713   5.648   4.343   2.168
23155SOL     OW69714   7.981   8.122   0.718
23155SOL    HW169715   8.047   8.176   0.762
23155SOL    HW269716   7.927   8.088   0.789
23156SOL     OW69717  12.787   5.952   6.962
23156SOL    HW169718  12.868   5.992   6.995
23156SOL    HW269719  12.736   6.026   6.928
23157SOL     OW69720  10.301  14.818   7.283
23157SOL    HW169721  10.350  14.738   7.303
23157SOL    HW269722  10.282  14.856   7.369
23158SOL     OW69723   4.522  10.227   5.567
23158SOL    HW169724   4.436  10.219   5.608
23158SOL    HW269725   4.584  10.198   5.635
23159SOL     OW69726   8.257  12.543   3.387
23159SOL    HW169727   8.218  12.608   3.329
23159SOL    HW269728   8.351  12.560   3.382
23160SOL     OW69729   7.391  10.366   4.104
23160SOL    HW169730   7.346  10.306   4.044
23160SOL    HW269731   7.482  10.363   4.077
23161SOL     OW69732   8.555   5.840   2.356
23161SOL    HW169733   8.589   5.869   2.441
23161SOL    HW269734   8.632   5.822   2.303
23162SOL     OW69735  10.739  11.041   2.740
23162SOL    HW169736  10.777  10.966   2.695
23162SOL    HW269737  10.729  11.107   2.671
23163SOL     OW69738   8.358  13.372   7.353
23163SOL    HW169739   8.283  13.375   7.294
23163SOL    HW269740   8.430  13.408   7.300
23164SOL     OW69741   4.963  12.167   6.273
23164SOL    HW169742   4.871  12.147   6.291
23164SOL    HW269743   5.006  12.082   6.266
23165SOL     OW69744   4.936   5.364   3.201
23165SOL    HW169745   4.885   5.324   3.130
23165SOL    HW269746   4.876   5.366   3.275
23166SOL     OW69747  12.482   4.860   2.451
23166SOL    HW169748   1.724   4.890   2.362
23166SOL    HW269749  12.500   4.937   2.505
23167SOL     OW69750  11.402   6.825   7.285
23167SOL    HW169751  11.476   6.884   7.270
23167SOL    HW269752  11.419   6.787   7.371
23168SOL     OW69753  13.355   5.258   6.501
23168SOL    HW169754  13.415   5.264   6.427
23168SOL    HW269755  13.402   5.301   6.573
23169SOL     OW69756   5.406   9.967   2.241
23169SOL    HW169757   5.423  10.033   2.308
23169SOL    HW269758   5.312   9.950   2.248
23170SOL     OW69759   7.955   9.877   3.694
23170SOL    HW169760   7.964   9.862   3.788
23170SOL    HW269761   8.041   9.857   3.658
23171SOL     OW69762   6.149   7.828   7.559
23171SOL    HW169763   6.130   7.851   7.468
23171SOL    HW269764   6.107   7.896   7.611
23172SOL     OW69765  10.243   8.730   7.008
23172SOL    HW169766  10.222   8.650   6.960
23172SOL    HW269767  10.304   8.777   6.952
23173SOL     OW69768  11.352   2.042   2.102
23173SOL    HW169769  11.299   2.056   2.024
23173SOL    HW269770  11.410   2.118   2.106
23174SOL     OW69771   7.389   2.713   2.668
23174SOL    HW169772   7.436   2.635   2.640
23174SOL    HW269773   7.457   2.780   2.678
23175SOL     OW69774   5.581  13.063   6.697
23175SOL    HW169775   5.645  13.101   6.637
23175SOL    HW269776   5.501  13.113   6.682
23176SOL     OW69777   7.515   8.840   3.675
23176SOL    HW169778   7.582   8.781   3.640
23176SOL    HW269779   7.455   8.854   3.602
23177SOL     OW69780   5.606   7.633   0.402
23177SOL    HW169781   5.585   7.620   0.310
23177SOL    HW269782   5.644   7.550   0.430
23178SOL     OW69783   9.154   7.104   3.992
23178SOL    HW169784   9.129   7.193   4.017
23178SOL    HW269785   9.247   7.109   3.972
23179SOL     OW69786  12.395   1.961   2.302
23179SOL    HW169787  12.412   2.047   2.341
23179SOL    HW269788  12.419   1.899   2.370
23180SOL     OW69789  11.130  11.911   5.898
23180SOL    HW169790  11.158  11.981   5.838
23180SOL    HW269791  11.078  11.956   5.964
23181SOL     OW69792  12.101  11.686   4.496
23181SOL    HW169793  12.168  11.617   4.495
23181SOL    HW269794  12.086  11.703   4.589
23182SOL     OW69795   5.816   7.551   2.058
23182SOL    HW169796   5.897   7.540   2.107
23182SOL    HW269797   5.749   7.567   2.126
23183SOL     OW69798  13.060   7.838   6.911
23183SOL    HW169799  13.028   7.929   6.919
23183SOL    HW269800  13.135   7.834   6.969
23184SOL     OW69801   7.574  11.979   5.357
23184SOL    HW169802   7.643  12.035   5.393
23184SOL    HW269803   7.494  12.010   5.398
23185SOL     OW69804   3.876   1.807   1.044
23185SOL    HW169805   3.827   1.844   1.117
23185SOL    HW269806   3.852   1.714   1.044
23186SOL     OW69807   6.126  11.156   3.137
23186SOL    HW169808   6.160  11.235   3.180
23186SOL    HW269809   6.135  11.087   3.202
23187SOL     OW69810   6.702   8.276   6.248
23187SOL    HW169811   6.789   8.302   6.220
23187SOL    HW269812   6.663   8.356   6.283
23188SOL     OW69813  12.301   5.778   6.189
23188SOL    HW169814  12.255   5.738   6.263
23188SOL    HW269815  12.275   5.726   6.113
23189SOL     OW69816  10.503   7.397   5.106
23189SOL    HW169817  10.562   7.455   5.057
23189SOL    HW269818  10.556   7.320   5.125
23190SOL     OW69819   5.637  12.441   6.248
23190SOL    HW169820   5.706  12.506   6.229
23190SOL    HW269821   5.555  12.486   6.227
23191SOL     OW69822  10.634   7.567   6.817
23191SOL    HW169823  10.657   7.607   6.733
23191SOL    HW269824  10.706   7.591   6.875
23192SOL     OW69825  10.419   9.640   2.158
23192SOL    HW169826  10.441   9.553   2.124
23192SOL    HW269827  10.484   9.656   2.226
23193SOL     OW69828   5.681   8.210   5.744
23193SOL    HW169829   5.739   8.231   5.818
23193SOL    HW269830   5.593   8.217   5.780
23194SOL     OW69831   7.350   1.815   1.239
23194SOL    HW169832   7.292   1.854   1.305
23194SOL    HW269833   7.308   1.732   1.216
23195SOL     OW69834   7.151   3.273   2.658
23195SOL    HW169835   7.092   3.336   2.618
23195SOL    HW269836   7.097   3.224   2.719
23196SOL     OW69837   6.696  10.796   6.596
23196SOL    HW169838   6.610  10.797   6.639
23196SOL    HW269839   6.675  10.793   6.502
23197SOL     OW69840  13.902  10.758   6.725
23197SOL    HW169841  13.994  10.762   6.753
23197SOL    HW269842  13.863  10.693   6.783
23198SOL     OW69843  11.195   4.364   2.733
23198SOL    HW169844  11.182   4.298   2.801
23198SOL    HW269845  11.115   4.416   2.734
23199SOL     OW69846   9.862   9.004   7.046
23199SOL    HW169847   9.774   8.980   7.075
23199SOL    HW269848   9.891   9.070   7.109
23200SOL     OW69849   5.836  13.238   7.448
23200SOL    HW169850   5.803  13.179   7.515
23200SOL    HW269851   5.864  13.316   7.497
23201SOL     OW69852  11.416   3.616   2.909
23201SOL    HW169853  11.437   3.538   2.961
23201SOL    HW269854  11.440   3.592   2.820
23202SOL     OW69855   9.775  11.163   5.425
23202SOL    HW169856   9.697  11.190   5.474
23202SOL    HW269857   9.740  11.129   5.342
23203SOL     OW69858   3.035   3.358   0.928
23203SOL    HW169859   3.038   3.394   1.017
23203SOL    HW269860   3.127   3.350   0.903
23204SOL     OW69861  14.931   8.050   6.008
23204SOL    HW169862  14.879   8.005   5.941
23204SOL    HW269863  14.983   7.980   6.048
23205SOL     OW69864   7.253   7.171   3.805
23205SOL    HW169865   7.327   7.219   3.768
23205SOL    HW269866   7.233   7.217   3.886
23206SOL     OW69867   5.251  12.134   2.998
23206SOL    HW169868   5.185  12.133   3.067
23206SOL    HW269869   5.281  12.043   2.992
23207SOL     OW69870   3.583   8.923   4.296
23207SOL    HW169871   3.594   8.854   4.231
23207SOL    HW269872   3.671   8.940   4.330
23208SOL     OW69873   8.558   6.502   1.318
23208SOL    HW169874   8.475   6.499   1.271
23208SOL    HW269875   8.540   6.461   1.403
23209SOL     OW69876   9.229  10.422   5.008
23209SOL    HW169877   9.280  10.457   5.082
23209SOL    HW269878   9.291  10.367   4.960
23210SOL     OW69879   6.678   9.851   5.045
23210SOL    HW169880   6.627   9.878   5.122
23210SOL    HW269881   6.643   9.902   4.973
23211SOL     OW69882   5.843  14.580   5.806
23211SOL    HW169883   5.859  14.674   5.800
23211SOL    HW269884   5.923  14.539   5.775
23212SOL     OW69885   6.989   6.003   5.279
23212SOL    HW169886   6.992   5.922   5.330
23212SOL    HW269887   7.080   6.027   5.265
23213SOL     OW69888   8.569   7.881   5.598
23213SOL    HW169889   8.616   7.819   5.542
23213SOL    HW269890   8.615   7.877   5.681
23214SOL     OW69891   9.424   3.132   2.132
23214SOL    HW169892   9.357   3.183   2.087
23214SOL    HW269893   9.479   3.097   2.062
23215SOL     OW69894  10.975  13.066   4.984
23215SOL    HW169895  10.959  13.160   4.996
23215SOL    HW269896  11.030  13.042   5.058
23216SOL     OW69897  11.100  13.033   7.022
23216SOL    HW169898  11.175  13.093   7.019
23216SOL    HW269899  11.066  13.033   6.933
23217SOL     OW69900   8.422   7.854   1.914
23217SOL    HW169901   8.392   7.944   1.910
23217SOL    HW269902   8.413   7.830   2.006
23218SOL     OW69903   8.831   7.912   6.387
23218SOL    HW169904   8.832   8.005   6.365
23218SOL    HW269905   8.892   7.871   6.325
23219SOL     OW69906  10.245   2.513   2.993
23219SOL    HW169907  10.253   2.589   3.051
23219SOL    HW269908  10.310   2.529   2.924
23220SOL     OW69909   8.153  11.049   5.701
23220SOL    HW169910   8.145  11.062   5.607
23220SOL    HW269911   8.137  10.956   5.714
23221SOL     OW69912  12.626   8.975   3.838
23221SOL    HW169913  12.535   8.961   3.863
23221SOL    HW269914  12.628   9.064   3.804
23222SOL     OW69915  12.482   5.676   3.572
23222SOL    HW169916  12.443   5.748   3.622
23222SOL    HW269917  12.563   5.713   3.537
23223SOL     OW69918   6.232   9.875   7.097
23223SOL    HW169919   6.287   9.950   7.073
23223SOL    HW269920   6.288   9.822   7.154
23224SOL     OW69921   8.176   3.500   2.339
23224SOL    HW169922   8.265   3.520   2.369
23224SOL    HW269923   8.182   3.501   2.244
23225SOL     OW69924  10.729   8.988   2.737
23225SOL    HW169925  10.690   8.918   2.789
23225SOL    HW269926  10.787   8.944   2.676
23226SOL     OW69927   5.451   5.531   4.274
23226SOL    HW169928   5.525   5.585   4.302
23226SOL    HW269929   5.489   5.464   4.219
23227SOL     OW69930   5.111   4.924   2.089
23227SOL    HW169931   5.166   5.001   2.080
23227SOL    HW269932   5.104   4.889   2.000
23228SOL     OW69933  13.257   4.976   4.339
23228SOL    HW169934  13.249   4.889   4.302
23228SOL    HW269935  13.349   4.999   4.329
23229SOL     OW69936   2.891  10.493   1.615
23229SOL    HW169937   2.923  10.425   1.555
23229SOL    HW269938   2.799  10.473   1.628
23230SOL     OW69939   2.390   6.879   3.267
23230SOL    HW169940   2.453   6.950   3.258
23230SOL    HW269941  13.150   6.871   3.362
23231SOL     OW69942   7.441  11.033   4.251
23231SOL    HW169943   7.502  11.083   4.197
23231SOL    HW269944   7.397  10.974   4.189
23232SOL     OW69945   1.968   5.024   2.535
23232SOL    HW169946   1.992   5.028   2.443
23232SOL    HW269947   2.013   5.099   2.575
23233SOL     OW69948   8.929  13.903   4.940
23233SOL    HW169949   8.866  13.903   4.868
23233SOL    HW269950   8.885  13.857   5.011
23234SOL     OW69951   5.345  13.201   4.052
23234SOL    HW169952   5.376  13.245   4.131
23234SOL    HW269953   5.425  13.181   4.003
23235SOL     OW69954  12.171   9.074   6.341
23235SOL    HW169955  12.247   9.043   6.292
23235SOL    HW269956  12.195   9.163   6.368
23236SOL     OW69957   2.251   4.567   0.535
23236SOL    HW169958   2.167   4.521   0.531
23236SOL    HW269959   2.316   4.502   0.511
23237SOL     OW69960   8.452  13.278   5.390
23237SOL    HW169961   8.475  13.365   5.356
23237SOL    HW269962   8.535  13.241   5.419
23238SOL     OW69963   5.881   5.094   4.549
23238SOL    HW169964   5.912   5.005   4.567
23238SOL    HW269965   5.861   5.131   4.635
23239SOL     OW69966   6.666   5.000   4.907
23239SOL    HW169967   6.669   5.024   5.000
23239SOL    HW269968   6.757   5.008   4.878
23240SOL     OW69969   6.486   9.544   3.228
23240SOL    HW169970   6.503   9.584   3.143
23240SOL    HW269971   6.480   9.450   3.210
23241SOL     OW69972   5.363  12.945   3.515
23241SOL    HW169973   5.302  13.019   3.524
23241SOL    HW269974   5.445  12.977   3.551
23242SOL     OW69975  13.634  14.616   7.032
23242SOL    HW169976  13.539  14.628   7.027
23242SOL    HW269977  13.647  14.559   7.107
23243SOL     OW69978  14.833   6.558   6.130
23243SOL    HW169979  14.755   6.605   6.162
23243SOL    HW269980  14.904   6.592   6.185
23244SOL     OW69981  12.297   2.807   3.657
23244SOL    HW169982  12.214   2.760   3.668
23244SOL    HW269983  12.361   2.752   3.702
23245SOL     OW69984   1.480   4.161   0.762
23245SOL    HW169985   1.420   4.099   0.721
23245SOL    HW269986   1.556   4.109   0.787
23246SOL     OW69987  12.083   4.323   4.056
23246SOL    HW169988  12.147   4.256   4.032
23246SOL    HW269989  12.066   4.371   3.975
23247SOL     OW69990  12.707   4.918   4.114
23247SOL    HW169991  12.736   4.833   4.081
23247SOL    HW269992  12.623   4.900   4.157
23248SOL     OW69993  10.812   1.619   0.064
23248SOL    HW169994   0.049   1.532   0.027
23248SOL    HW269995   0.127   1.655   0.070
23249SOL     OW69996  12.001   9.754   5.999
23249SOL    HW169997  11.913   9.790   5.991
23249SOL    HW269998  12.052   9.797   5.930
23250SOL     OW69999   4.244   9.208   5.949
23250SOL    HW170000   4.292   9.252   5.879
23250SOL    HW270001  15.016   9.271   6.020
23251SOL     OW70002   3.369   9.917   2.796
23251SOL    HW170003   3.296   9.856   2.779
23251SOL    HW270004   3.387   9.956   2.711
23252SOL     OW70005   4.299  10.874   1.590
23252SOL    HW170006   4.264  10.814   1.656
23252SOL    HW270007   4.292  10.960   1.629
23253SOL     OW70008   4.311   2.623   1.247
23253SOL    HW170009   4.308   2.557   1.177
23253SOL    HW270010   4.404   2.631   1.268
23254SOL     OW70011   0.664   8.683   0.227
23254SOL    HW170012   0.632   8.650   0.144
23254SOL    HW270013   0.744   8.730   0.205
23255SOL     OW70014   8.088   4.801   1.740
23255SOL    HW170015   8.087   4.778   1.833
23255SOL    HW270016   8.027   4.740   1.699
23256SOL     OW70017  11.069   8.335   1.293
23256SOL    HW170018  11.079   8.306   1.202
23256SOL    HW270019  11.123   8.413   1.299
23257SOL     OW70020   8.730  12.854   4.206
23257SOL    HW170021   8.806  12.797   4.221
23257SOL    HW270022   8.702  12.833   4.117
23258SOL     OW70023   7.341  10.311   1.096
23258SOL    HW170024   7.299  10.334   1.014
23258SOL    HW270025   7.342  10.392   1.146
23259SOL     OW70026  13.346   8.928   5.091
23259SOL    HW170027  13.431   8.965   5.069
23259SOL    HW270028  13.317   8.978   5.167
23260SOL     OW70029  13.149   7.605   5.897
23260SOL    HW170030  13.242   7.581   5.900
23260SOL    HW270031  13.136   7.657   5.976
23261SOL     OW70032   3.045   2.418   2.188
23261SOL    HW170033   3.123   2.429   2.243
23261SOL    HW270034   3.071   2.451   2.102
23262SOL     OW70035  13.829  12.570   6.597
23262SOL    HW170036  13.752  12.619   6.627
23262SOL    HW270037  13.839  12.595   6.506
23263SOL     OW70038  14.064   5.387   7.159
23263SOL    HW170039  14.120   5.310   7.149
23263SOL    HW270040  14.002   5.363   7.228
23264SOL     OW70041   7.866  10.785   4.600
23264SOL    HW170042   7.882  10.876   4.628
23264SOL    HW270043   7.771  10.777   4.596
23265SOL     OW70044   5.841  11.254   4.605
23265SOL    HW170045   5.908  11.186   4.594
23265SOL    HW270046   5.886  11.335   4.581
23266SOL     OW70047   4.140   5.176   5.434
23266SOL    HW170048   4.090   5.135   5.364
23266SOL    HW270049   4.161   5.263   5.401
23267SOL     OW70050   2.532   6.202   0.618
23267SOL    HW170051   2.452   6.240   0.654
23267SOL    HW270052   2.503   6.151   0.543
23268SOL     OW70053  11.266  14.094   7.585
23268SOL    HW170054  11.332  14.025   7.596
23268SOL    HW270055   5.802   8.673   0.011
23269SOL     OW70056   3.559   4.281   4.883
23269SOL    HW170057   3.633   4.318   4.931
23269SOL    HW270058   3.585   4.190   4.865
23270SOL     OW70059   7.204   6.256   5.789
23270SOL    HW170060   7.297   6.277   5.799
23270SOL    HW270061   7.197   6.166   5.819
23271SOL     OW70062   7.862  11.766   2.252
23271SOL    HW170063   7.781  11.724   2.280
23271SOL    HW270064   7.918  11.765   2.330
23272SOL     OW70065  12.705   5.004   6.536
23272SOL    HW170066  12.677   4.913   6.522
23272SOL    HW270067  12.640   5.040   6.596
23273SOL     OW70068   9.619   4.257   2.705
23273SOL    HW170069   9.670   4.205   2.768
23273SOL    HW270070   9.678   4.270   2.631
23274SOL     OW70071   3.488   8.861   0.754
23274SOL    HW170072   3.439   8.779   0.750
23274SOL    HW270073   3.501   8.875   0.848
23275SOL     OW70074   5.551  10.183   3.374
23275SOL    HW170075   5.549  10.272   3.340
23275SOL    HW270076   5.604  10.134   3.310
23276SOL     OW70077   3.829  11.760   5.398
23276SOL    HW170078  14.519  11.759   5.443
23276SOL    HW270079   3.851  11.667   5.387
23277SOL     OW70080   7.576  10.296   0.148
23277SOL    HW170081   7.509  10.352   0.189
23277SOL    HW270082   7.624  10.355   0.090
23278SOL     OW70083   9.197  13.639   5.447
23278SOL    HW170084   9.285  13.610   5.472
23278SOL    HW270085   9.203  13.734   5.440
23279SOL     OW70086   2.512   5.667   1.617
23279SOL    HW170087   2.453   5.740   1.599
23279SOL    HW270088   2.454   5.593   1.635
23280SOL     OW70089  15.258   5.684   6.762
23280SOL    HW170090  15.212   5.664   6.844
23280SOL    HW270091  15.202   5.747   6.717
23281SOL     OW70092  10.881   6.214   5.156
23281SOL    HW170093  10.854   6.283   5.216
23281SOL    HW270094  10.839   6.236   5.073
23282SOL     OW70095   2.947   5.035   2.727
23282SOL    HW170096   2.987   5.111   2.684
23282SOL    HW270097   3.020   4.980   2.753
23283SOL     OW70098  12.025  10.755   4.742
23283SOL    HW170099  12.073  10.694   4.798
23283SOL    HW270100  11.944  10.708   4.721
23284SOL     OW70101   5.552  10.823   4.625
23284SOL    HW170102   5.551  10.833   4.530
23284SOL    HW270103   5.640  10.793   4.645
23285SOL     OW70104   4.118  10.433   0.218
23285SOL    HW170105   4.123  10.457   0.311
23285SOL    HW270106   4.089  10.513   0.174
23286SOL     OW70107   8.933   7.875   5.345
23286SOL    HW170108   8.882   7.837   5.417
23286SOL    HW270109   9.022   7.845   5.359
23287SOL     OW70110  11.244   3.588   2.642
23287SOL    HW170111  11.191   3.668   2.638
23287SOL    HW270112  11.228   3.545   2.558
23288SOL     OW70113  12.007   7.260   7.615
23288SOL    HW170114  12.073   7.304   7.561
23288SOL    HW270115   6.670   1.816   0.054
23289SOL     OW70116   2.843   9.712   3.373
23289SOL    HW170117   2.777   9.739   3.309
23289SOL    HW270118   2.799   9.646   3.426
23290SOL     OW70119  11.193  14.340   6.235
23290SOL    HW170120  11.179  14.289   6.155
23290SOL    HW270121  11.287  14.335   6.250
23291SOL     OW70122   7.364  11.890   6.900
23291SOL    HW170123   7.459  11.878   6.895
23291SOL    HW270124   7.328  11.816   6.851
23292SOL     OW70125   7.884   8.880   3.462
23292SOL    HW170126   7.805   8.829   3.483
23292SOL    HW270127   7.956   8.827   3.496
23293SOL     OW70128  12.556   7.921   7.222
23293SOL    HW170129  12.644   7.940   7.254
23293SOL    HW270130  12.570   7.876   7.139
23294SOL     OW70131  12.064   5.678   4.163
23294SOL    HW170132  12.026   5.748   4.109
23294SOL    HW270133  12.023   5.598   4.130
23295SOL     OW70134   8.371   6.144   5.844
23295SOL    HW170135   8.378   6.239   5.835
23295SOL    HW270136   8.317   6.131   5.921
23296SOL     OW70137   5.498   7.347   4.925
23296SOL    HW170138   5.545   7.277   4.970
23296SOL    HW270139   5.476   7.409   4.995
23297SOL     OW70140   6.356   4.524   3.762
23297SOL    HW170141   6.277   4.559   3.804
23297SOL    HW270142   6.427   4.546   3.822
23298SOL     OW70143   1.132   3.853   0.671
23298SOL    HW170144   1.101   3.935   0.633
23298SOL    HW270145   1.186   3.880   0.746
23299SOL     OW70146   6.158  12.352   6.417
23299SOL    HW170147   6.206  12.415   6.471
23299SOL    HW270148   6.197  12.267   6.440
23300SOL     OW70149   7.986   5.405   0.983
23300SOL    HW170150   8.081   5.406   0.972
23300SOL    HW270151   7.968   5.479   1.041
23301SOL     OW70152  12.667  15.457   7.574
23301SOL    HW170153   7.223  10.131   0.002
23301SOL    HW270154  12.746  15.507   7.555
23302SOL     OW70155   4.610  14.453   5.275
23302SOL    HW170156   4.593   3.767   5.244
23302SOL    HW270157   4.693  14.428   5.234
23303SOL     OW70158  11.052   7.373   1.942
23303SOL    HW170159  11.034   7.349   1.851
23303SOL    HW270160  10.967   7.368   1.985
23304SOL     OW70161   4.808   4.749   6.604
23304SOL    HW170162   4.852   4.740   6.688
23304SOL    HW270163   4.715   4.751   6.626
23305SOL     OW70164  10.289  14.695   6.029
23305SOL    HW170165  10.232  14.766   6.059
23305SOL    HW270166  10.293  14.634   6.103
23306SOL     OW70167   5.731   7.722   6.782
23306SOL    HW170168   5.799   7.743   6.718
23306SOL    HW270169   5.650   7.719   6.731
23307SOL     OW70170   8.073   4.752   3.011
23307SOL    HW170171   8.044   4.821   3.071
23307SOL    HW270172   7.998   4.738   2.953
23308SOL     OW70173   5.763  11.617   6.644
23308SOL    HW170174   5.781  11.545   6.585
23308SOL    HW270175   5.849  11.647   6.673
23309SOL     OW70176  10.827   5.931   5.240
23309SOL    HW170177  10.900   5.932   5.178
23309SOL    HW270178  10.865   5.895   5.320
23310SOL     OW70179   7.207   7.001   2.864
23310SOL    HW170180   7.240   6.912   2.857
23310SOL    HW270181   7.283   7.056   2.848
23311SOL     OW70182   9.488   5.523   0.503
23311SOL    HW170183   9.464   5.472   0.425
23311SOL    HW270184   9.556   5.582   0.473
23312SOL     OW70185   4.209  10.778   0.729
23312SOL    HW170186   4.152  10.795   0.653
23312SOL    HW270187   4.210  10.683   0.737
23313SOL     OW70188  10.555   0.203   0.166
23313SOL    HW170189  10.469   0.183   0.128
23313SOL    HW270190  10.603   0.120   0.160
23314SOL     OW70191   8.122   0.768   0.678
23314SOL    HW170192   8.036   0.750   0.716
23314SOL    HW270193   8.129   0.863   0.678
23315SOL     OW70194   0.663   8.294   0.197
23315SOL    HW170195   0.633   8.223   0.141
23315SOL    HW270196   0.689   8.251   0.279
23316SOL     OW70197   3.047   2.051   0.627
23316SOL    HW170198   3.024   2.144   0.626
23316SOL    HW270199   3.126   2.046   0.680
23317SOL     OW70200   6.537  14.758   6.176
23317SOL    HW170201   6.577  14.671   6.175
23317SOL    HW270202   6.609  14.817   6.199
23318SOL     OW70203  10.160   9.523   3.686
23318SOL    HW170204  10.174   9.586   3.756
23318SOL    HW270205  10.104   9.568   3.623
23319SOL     OW70206   8.520   5.567   2.264
23319SOL    HW170207   8.461   5.642   2.270
23319SOL    HW270208   8.466   5.496   2.229
23320SOL     OW70209   6.983   6.566   1.614
23320SOL    HW170210   7.025   6.498   1.667
23320SOL    HW270211   7.002   6.541   1.523
23321SOL     OW70212   2.953   1.561   1.223
23321SOL    HW170213   2.865   1.595   1.210
23321SOL    HW270214   3.010   1.637   1.215
23322SOL     OW70215   3.640   7.874   2.578
23322SOL    HW170216   3.551   7.910   2.584
23322SOL    HW270217   3.659   7.844   2.667
23323SOL     OW70218  12.615  10.245   3.016
23323SOL    HW170219  12.587  10.195   3.093
23323SOL    HW270220  12.539  10.299   2.994
23324SOL     OW70221   8.906  10.711   4.817
23324SOL    HW170222   8.933  10.743   4.731
23324SOL    HW270223   8.983  10.666   4.851
23325SOL     OW70224  15.178   6.825   6.758
23325SOL    HW170225  15.251   6.765   6.773
23325SOL    HW270226  15.172   6.875   6.839
23326SOL     OW70227  12.081   7.284   4.908
23326SOL    HW170228  12.150   7.233   4.950
23326SOL    HW270229  12.044   7.225   4.841
23327SOL     OW70230   9.975  10.671   5.418
23327SOL    HW170231   9.952  10.605   5.483
23327SOL    HW270232  10.047  10.720   5.458
23328SOL     OW70233   2.266  11.322   2.318
23328SOL    HW170234   2.335  11.361   2.372
23328SOL    HW270235   2.282  11.228   2.325
23329SOL     OW70236   8.026  11.506   3.167
23329SOL    HW170237   7.976  11.468   3.239
23329SOL    HW270238   7.962  11.554   3.115
23330SOL     OW70239  11.994   4.398   5.814
23330SOL    HW170240  11.958   4.346   5.887
23330SOL    HW270241  11.968   4.350   5.736
23331SOL     OW70242  13.198  10.828   4.365
23331SOL    HW170243  13.286  10.832   4.402
23331SOL    HW270244  13.213  10.812   4.271
23332SOL     OW70245   7.137   3.111   0.423
23332SOL    HW170246   7.195   3.041   0.391
23332SOL    HW270247   7.144   3.179   0.357
23333SOL     OW70248  12.891   4.254   4.188
23333SOL    HW170249  12.801   4.228   4.166
23333SOL    HW270250  12.932   4.174   4.219
23334SOL     OW70251   0.799  11.458   1.105
23334SOL    HW170252  11.559  11.436   1.197
23334SOL    HW270253   0.890  11.433   1.089
23335SOL     OW70254  10.194   7.519   6.042
23335SOL    HW170255  10.215   7.439   5.995
23335SOL    HW270256  10.263   7.527   6.108
23336SOL     OW70257   3.023   8.421   2.352
23336SOL    HW170258   3.102   8.397   2.304
23336SOL    HW270259   3.056   8.462   2.433
23337SOL     OW70260  10.562   7.684   1.968
23337SOL    HW170261  10.496   7.664   2.034
23337SOL    HW270262  10.534   7.635   1.891
23338SOL     OW70263   3.370   1.692   2.281
23338SOL    HW170264   3.286   1.650   2.264
23338SOL    HW270265   3.384   1.749   2.206
23339SOL     OW70266   9.870   4.945   0.975
23339SOL    HW170267   9.824   4.873   1.018
23339SOL    HW270268   9.957   4.910   0.955
23340SOL     OW70269  10.630   1.225   1.723
23340SOL    HW170270  10.604  12.015   1.814
23340SOL    HW270271  10.554  11.957   1.684
23341SOL     OW70272   5.437  13.335   5.613
23341SOL    HW170273   5.476  13.418   5.643
23341SOL    HW270274   5.394  13.300   5.691
23342SOL     OW70275  12.375   6.796   2.621
23342SOL    HW170276  12.458   6.748   2.631
23342SOL    HW270277  12.316   6.733   2.578
23343SOL     OW70278   4.382   8.584   2.463
23343SOL    HW170279   4.450   8.651   2.456
23343SOL    HW270280   4.303   8.625   2.429
23344SOL     OW70281   9.618  10.022   2.494
23344SOL    HW170282   9.709  10.047   2.479
23344SOL    HW270283   9.583  10.006   2.406
23345SOL     OW70284   7.878  11.109   4.132
23345SOL    HW170285   7.832  11.025   4.130
23345SOL    HW270286   7.967  11.087   4.163
23346SOL     OW70287   9.564   6.001   7.341
23346SOL    HW170288   9.623   6.045   7.280
23346SOL    HW270289   9.581   6.041   7.426
23347SOL     OW70290   6.679   5.953   0.316
23347SOL    HW170291   6.743   5.944   0.246
23347SOL    HW270292   6.731   5.978   0.393
23348SOL     OW70293   4.625   6.106   2.523
23348SOL    HW170294   4.542   6.132   2.562
23348SOL    HW270295   4.680   6.184   2.529
23349SOL     OW70296   7.632   7.336   0.971
23349SOL    HW170297   7.570   7.267   0.948
23349SOL    HW270298   7.698   7.333   0.900
23350SOL     OW70299   6.549   8.335   2.895
23350SOL    HW170300   6.469   8.321   2.843
23350SOL    HW270301   6.553   8.430   2.906
23351SOL     OW70302   5.368  12.527   5.431
23351SOL    HW170303   5.437  12.511   5.496
23351SOL    HW270304   5.334  12.613   5.454
23352SOL     OW70305  11.452   9.697   7.065
23352SOL    HW170306  11.404   9.769   7.025
23352SOL    HW270307  11.470   9.727   7.154
23353SOL     OW70308   5.369  10.782   1.939
23353SOL    HW170309   5.348  10.690   1.954
23353SOL    HW270310   5.426  10.781   1.862
23354SOL     OW70311  10.880   9.315   7.584
23354SOL    HW170312  10.888   9.347   7.494
23354SOL    HW270313   5.529   3.998   0.019
23355SOL     OW70314   9.746   4.870   1.502
23355SOL    HW170315   9.768   4.884   1.410
23355SOL    HW270316   9.780   4.947   1.547
23356SOL     OW70317  11.175  10.071   6.148
23356SOL    HW170318  11.182   9.981   6.118
23356SOL    HW270319  11.127  10.065   6.231
23357SOL     OW70320   7.631   4.302   5.334
23357SOL    HW170321   7.594   4.390   5.331
23357SOL    HW270322   7.619   4.274   5.425
23358SOL     OW70323   5.501  10.370   1.793
23358SOL    HW170324   5.447  10.432   1.842
23358SOL    HW270325   5.589  10.378   1.831
23359SOL     OW70326   3.468   3.092   1.599
23359SOL    HW170327   3.445   3.005   1.631
23359SOL    HW270328   3.505   3.077   1.512
23360SOL     OW70329  10.327  14.629   6.965
23360SOL    HW170330  10.282  14.568   6.908
23360SOL    HW270331  10.259  14.689   6.997
23361SOL     OW70332  11.481   5.153   3.668
23361SOL    HW170333  11.541   5.166   3.741
23361SOL    HW270334  11.536   5.161   3.590
23362SOL     OW70335  13.738  12.771   6.926
23362SOL    HW170336  13.719  12.778   7.020
23362SOL    HW270337  13.805  12.837   6.910
23363SOL     OW70338   6.433   9.395   0.733
23363SOL    HW170339   6.515   9.408   0.686
23363SOL    HW270340   6.432   9.464   0.800
23364SOL     OW70341   2.155   2.970   2.199
23364SOL    HW170342   2.127   2.891   2.152
23364SOL    HW270343   2.246   2.982   2.172
23365SOL     OW70344   7.471   1.571   0.557
23365SOL    HW170345   7.540   1.565   0.623
23365SOL    HW270346   7.498   1.510   0.489
23366SOL     OW70347  15.920  15.320   7.318
23366SOL    HW170348  15.832  15.283   7.320
23366SOL    HW270349  15.909  15.411   7.344
23367SOL     OW70350  12.059  10.375   2.747
23367SOL    HW170351  12.017  10.343   2.668
23367SOL    HW270352  12.150  10.346   2.739
23368SOL     OW70353  11.376  11.225   3.089
23368SOL    HW170354  11.316  11.150   3.084
23368SOL    HW270355  11.325  11.294   3.131
23369SOL     OW70356   8.287  10.332   7.183
23369SOL    HW170357   8.260  10.397   7.248
23369SOL    HW270358   8.205  10.304   7.142
23370SOL     OW70359   4.054   5.110   2.639
23370SOL    HW170360   4.108   5.060   2.579
23370SOL    HW270361   3.982   5.051   2.661
23371SOL     OW70362   5.480   0.441   0.212
23371SOL    HW170363   5.425   0.467   0.286
23371SOL    HW270364   5.421   0.392   0.154
23372SOL     OW70365  13.875   3.924   4.532
23372SOL    HW170366  13.796   3.943   4.584
23372SOL    HW270367  13.845   3.862   4.465
23373SOL     OW70368   3.416   2.686   0.097
23373SOL    HW170369   3.456   2.717   0.015
23373SOL    HW270370   3.363   2.760   0.126
23374SOL     OW70371  12.552   8.646   4.057
23374SOL    HW170372  12.501   8.573   4.089
23374SOL    HW270373  12.506   8.675   3.978
23375SOL     OW70374   9.599  10.879   3.223
23375SOL    HW170375   9.531  10.876   3.156
23375SOL    HW270376   9.560  10.927   3.296
23376SOL     OW70377   4.351   6.292   4.722
23376SOL    HW170378   4.443   6.274   4.745
23376SOL    HW270379   4.355   6.369   4.666
23377SOL     OW70380   4.184  12.344   2.488
23377SOL    HW170381   4.140  12.421   2.454
23377SOL    HW270382   4.183  12.281   2.416
23378SOL     OW70383   4.936   6.572   6.475
23378SOL    HW170384   5.028   6.592   6.461
23378SOL    HW270385   4.931   6.476   6.472
23379SOL     OW70386   5.396   2.403   2.762
23379SOL    HW170387   5.341   2.364   2.694
23379SOL    HW270388   5.361   2.491   2.774
23380SOL     OW70389   7.772   6.930   3.819
23380SOL    HW170390   7.865   6.941   3.797
23380SOL    HW270391   7.768   6.846   3.865
23381SOL     OW70392  10.932   8.565   6.639
23381SOL    HW170393  10.903   8.481   6.675
23381SOL    HW270394  11.009   8.543   6.586
23382SOL     OW70395  10.367  12.420   7.206
23382SOL    HW170396  10.375  12.439   7.299
23382SOL    HW270397  10.377  12.505   7.163
23383SOL     OW70398  11.855   7.586   2.395
23383SOL    HW170399  11.894   7.639   2.465
23383SOL    HW270400  11.844   7.647   2.322
23384SOL     OW70401  11.477   4.846   2.544
23384SOL    HW170402  11.539   4.915   2.523
23384SOL    HW270403  11.430   4.877   2.621
23385SOL     OW70404   4.207  13.775   5.322
23385SOL    HW170405   4.194  13.869   5.305
23385SOL    HW270406   4.183  13.732   5.241
23386SOL     OW70407   7.758   3.138   0.230
23386SOL    HW170408   7.762   3.227   0.266
23386SOL    HW270409   7.664   3.117   0.229
23387SOL     OW70410   6.728  11.447   4.199
23387SOL    HW170411   6.777  11.366   4.182
23387SOL    HW270412   6.791  11.504   4.241
23388SOL     OW70413   5.416   5.291   4.589
23388SOL    HW170414   5.388   5.374   4.551
23388SOL    HW270415   5.422   5.309   4.683
23389SOL     OW70416   8.361   4.600   4.696
23389SOL    HW170417   8.338   4.521   4.744
23389SOL    HW270418   8.421   4.647   4.754
23390SOL     OW70419   5.827   7.486   7.422
23390SOL    HW170420   5.896   7.478   7.356
23390SOL    HW270421   5.780   7.403   7.418
23391SOL     OW70422   3.333   6.093   1.124
23391SOL    HW170423   3.357   6.182   1.098
23391SOL    HW270424   3.309   6.100   1.216
23392SOL     OW70425   5.130   5.866   3.189
23392SOL    HW170426   5.189   5.807   3.142
23392SOL    HW270427   5.185   5.941   3.213
23393SOL     OW70428  13.849  14.818   6.359
23393SOL    HW170429  13.801  14.741   6.391
23393SOL    HW270430  13.931  14.784   6.325
23394SOL     OW70431  14.240   9.923   6.971
23394SOL    HW170432  14.323   9.959   7.003
23394SOL    HW270433  14.227   9.967   6.886
23395SOL     OW70434  12.267  12.665   5.792
23395SOL    HW170435  12.172  12.650   5.792
23395SOL    HW270436  12.301  12.602   5.728
23396SOL     OW70437  10.994   4.580   2.244
23396SOL    HW170438  11.005   4.606   2.335
23396SOL    HW270439  11.067   4.621   2.198
23397SOL     OW70440   6.000   7.248   2.345
23397SOL    HW170441   5.941   7.229   2.417
23397SOL    HW270442   6.083   7.271   2.386
23398SOL     OW70443  12.358  13.356   5.266
23398SOL    HW170444  12.439  13.321   5.231
23398SOL    HW270445  12.381  13.391   5.352
23399SOL     OW70446   5.236   6.189   4.486
23399SOL    HW170447   5.283   6.139   4.553
23399SOL    HW270448   5.302   6.248   4.449
23400SOL     OW70449   7.760  11.671   4.692
23400SOL    HW170450   7.692  11.650   4.756
23400SOL    HW270451   7.749  11.607   4.622
23401SOL     OW70452   5.133  11.079   5.633
23401SOL    HW170453   5.211  11.085   5.688
23401SOL    HW270454   5.166  11.060   5.545
23402SOL     OW70455   9.071  11.580   4.554
23402SOL    HW170456   9.119  11.584   4.471
23402SOL    HW270457   8.979  11.572   4.527
23403SOL     OW70458  12.474  13.812   4.446
23403SOL    HW170459  12.489  13.828   4.353
23403SOL    HW270460  12.561  13.806   4.484
23404SOL     OW70461   8.679   2.621   3.060
23404SOL    HW170462   8.744   2.552   3.046
23404SOL    HW270463   8.665   2.658   2.972
23405SOL     OW70464   9.390  13.613   5.857
23405SOL    HW170465   9.343  13.630   5.939
23405SOL    HW270466   9.427  13.698   5.833
23406SOL     OW70467   5.646   5.699   0.506
23406SOL    HW170468   5.688   5.618   0.475
23406SOL    HW270469   5.703   5.769   0.475
23407SOL     OW70470   7.415   7.789   4.726
23407SOL    HW170471   7.400   7.881   4.702
23407SOL    HW270472   7.463   7.794   4.808
23408SOL     OW70473   3.031   9.257   1.376
23408SOL    HW170474   2.978   9.195   1.427
23408SOL    HW270475   2.993   9.343   1.395
23409SOL     OW70476   3.386   9.359   0.993
23409SOL    HW170477   3.434   9.437   1.020
23409SOL    HW270478   3.326   9.341   1.065
23410SOL     OW70479   5.180   7.026   7.238
23410SOL    HW170480   5.262   7.003   7.194
23410SOL    HW270481   5.207   7.073   7.317
23411SOL     OW70482  12.933  10.886   5.535
23411SOL    HW170483  12.905  10.958   5.479
23411SOL    HW270484  12.995  10.837   5.481
23412SOL     OW70485   3.730   7.920   4.397
23412SOL    HW170486   3.691   7.870   4.468
23412SOL    HW270487   3.768   7.997   4.440
23413SOL     OW70488   2.767   2.768   0.882
23413SOL    HW170489   2.831   2.749   0.813
23413SOL    HW270490   2.700   2.700   0.874
23414SOL     OW70491   3.670  12.580   4.809
23414SOL    HW170492   3.713  12.665   4.812
23414SOL    HW270493   3.714  12.532   4.739
23415SOL     OW70494  10.691   7.485   0.416
23415SOL    HW170495  10.672   7.578   0.412
23415SOL    HW270496  10.766   7.474   0.358
23416SOL     OW70497  10.723  11.491   1.602
23416SOL    HW170498  10.642  11.443   1.616
23416SOL    HW270499  10.707  11.577   1.643
23417SOL     OW70500   3.331  11.468   2.326
23417SOL    HW170501   3.322  11.432   2.238
23417SOL    HW270502   3.357  11.393   2.380
23418SOL     OW70503  14.183  11.103   5.940
23418SOL    HW170504  14.110  11.052   5.904
23418SOL    HW270505  14.261  11.057   5.908
23419SOL     OW70506   2.124   7.696   2.300
23419SOL    HW170507   2.115   7.630   2.369
23419SOL    HW270508   2.077   7.772   2.333
23420SOL     OW70509   6.073  14.692   6.579
23420SOL    HW170510   6.107  14.617   6.529
23420SOL    HW270511   5.980  14.672   6.591
23421SOL     OW70512  15.016  15.393   6.831
23421SOL    HW170513  15.095  15.354   6.792
23421SOL    HW270514  14.961  15.318   6.853
23422SOL     OW70515   9.228   7.911   1.716
23422SOL    HW170516   9.271   7.914   1.802
23422SOL    HW270517   9.293   7.948   1.656
23423SOL     OW70518   7.854   2.251   0.312
23423SOL    HW170519   7.820   2.169   0.276
23423SOL    HW270520   7.921   2.224   0.374
23424SOL     OW70521   4.586  10.011   3.064
23424SOL    HW170522   4.666   9.967   3.037
23424SOL    HW270523   4.517   9.946   3.052
23425SOL     OW70524   4.463   5.668   2.007
23425SOL    HW170525   4.456   5.590   2.062
23425SOL    HW270526   4.382   5.670   1.957
23426SOL     OW70527   2.838   1.512   0.561
23426SOL    HW170528   2.924   1.475   0.546
23426SOL    HW270529   2.854   1.604   0.579
23427SOL     OW70530   4.097   4.921   3.356
23427SOL    HW170531   4.158   4.946   3.287
23427SOL    HW270532   4.064   5.004   3.390
23428SOL     OW70533   3.226   8.978   2.231
23428SOL    HW170534   3.179   8.926   2.297
23428SOL    HW270535   3.162   9.041   2.200
23429SOL     OW70536   6.605  15.326   6.438
23429SOL    HW170537   6.547   4.627   6.436
23429SOL    HW270538   6.645  15.328   6.526
23430SOL     OW70539   4.318   9.944   2.475
23430SOL    HW170540   4.369   9.866   2.454
23430SOL    HW270541   4.353   9.974   2.559
23431SOL     OW70542   0.946   5.128   1.182
23431SOL    HW170543   0.921   5.220   1.174
23431SOL    HW270544   1.011   5.127   1.253
23432SOL     OW70545   8.639   6.010   1.962
23432SOL    HW170546   8.690   5.930   1.975
23432SOL    HW270547   8.610   6.034   2.050
23433SOL     OW70548   9.321   9.626   3.855
23433SOL    HW170549   9.258   9.674   3.908
23433SOL    HW270550   9.272   9.553   3.819
23434SOL     OW70551   3.149   3.139   0.259
23434SOL    HW170552   3.230   3.162   0.214
23434SOL    HW270553   3.153   3.186   0.342
23435SOL     OW70554  14.320  15.055   6.257
23435SOL    HW170555  14.390  14.989   6.254
23435SOL    HW270556  14.355  15.128   6.205
23436SOL     OW70557   4.773   7.257   6.713
23436SOL    HW170558   4.839   7.285   6.777
23436SOL    HW270559   4.822   7.245   6.632
23437SOL     OW70560  10.130   1.741   1.280
23437SOL    HW170561  10.174   1.794   1.347
23437SOL    HW270562  10.038   1.767   1.286
23438SOL     OW70563  13.410   4.865   4.047
23438SOL    HW170564  13.361   4.942   4.072
23438SOL    HW270565  13.352   4.791   4.067
23439SOL     OW70566   4.207  14.179   5.072
23439SOL    HW170567   4.295  14.176   5.108
23439SOL    HW270568   4.217  14.224   4.988
23440SOL     OW70569  11.667   8.519   3.158
23440SOL    HW170570  11.681   8.493   3.067
23440SOL    HW270571  11.736   8.584   3.175
23441SOL     OW70572  15.382  13.425   7.098
23441SOL    HW170573  15.376  13.491   7.028
23441SOL    HW270574  15.355  13.343   7.057
23442SOL     OW70575   5.011   3.823   3.086
23442SOL    HW170576   4.920   3.818   3.058
23442SOL    HW270577   5.006   3.832   3.181
23443SOL     OW70578   9.236  12.455   3.008
23443SOL    HW170579   9.148  12.469   3.043
23443SOL    HW270580   9.240  12.361   2.990
23444SOL     OW70581   5.519  10.693   6.648
23444SOL    HW170582   5.488  10.670   6.560
23444SOL    HW270583   5.501  10.786   6.657
23445SOL     OW70584   6.636   2.943   0.861
23445SOL    HW170585   6.669   3.016   0.809
23445SOL    HW270586   6.544   2.962   0.875
23446SOL     OW70587   3.607   7.334   2.858
23446SOL    HW170588   3.688   7.287   2.836
23446SOL    HW270589   3.585   7.382   2.778
23447SOL     OW70590  13.367  10.753   6.413
23447SOL    HW170591  13.372  10.689   6.484
23447SOL    HW270592  13.326  10.830   6.453
23448SOL     OW70593   7.397  14.780   5.949
23448SOL    HW170594   7.438  14.730   6.020
23448SOL    HW270595   7.354  14.853   5.993
23449SOL     OW70596   3.537   6.495   2.448
23449SOL    HW170597   3.486   6.553   2.392
23449SOL    HW270598   3.613   6.548   2.475
23450SOL     OW70599   8.497   9.372   7.515
23450SOL    HW170600   8.528   9.462   7.531
23450SOL    HW270601   8.493   9.365   7.419
23451SOL     OW70602   7.983   0.771   0.181
23451SOL    HW170603   8.019   0.750   0.094
23451SOL    HW270604   7.899   0.812   0.163
23452SOL     OW70605  13.417   5.406   6.749
23452SOL    HW170606  13.422   5.348   6.825
23452SOL    HW270607  13.432   5.494   6.785
23453SOL     OW70608  14.476  12.259   7.313
23453SOL    HW170609  14.410  12.307   7.362
23453SOL    HW270610  14.558  12.279   7.358
23454SOL     OW70611   8.386   6.408   7.093
23454SOL    HW170612   8.421   6.325   7.125
23454SOL    HW270613   8.406   6.408   6.999
23455SOL     OW70614   8.563  12.548   2.585
23455SOL    HW170615   8.561   1.869   2.590
23455SOL    HW270616   8.489  12.525   2.529
23456SOL     OW70617   3.452   4.480   1.174
23456SOL    HW170618   3.401   4.498   1.253
23456SOL    HW270619   3.387   4.458   1.107
23457SOL     OW70620   7.305   8.837   4.413
23457SOL    HW170621   7.251   8.802   4.484
23457SOL    HW270622   7.253   8.827   4.334
23458SOL     OW70623   3.986   7.972   3.900
23458SOL    HW170624   4.071   7.931   3.880
23458SOL    HW270625   3.984   7.976   3.995
23459SOL     OW70626   3.238   2.193   1.974
23459SOL    HW170627   3.157   2.243   1.985
23459SOL    HW270628   3.307   2.257   1.988
23460SOL     OW70629  10.850   9.892   1.387
23460SOL    HW170630  10.895   9.825   1.336
23460SOL    HW270631  10.885   9.975   1.353
23461SOL     OW70632   7.774  11.572   6.651
23461SOL    HW170633   7.811  11.614   6.573
23461SOL    HW270634   7.849  11.536   6.698
23462SOL     OW70635  10.609   2.815   0.822
23462SOL    HW170636  10.668   2.828   0.896
23462SOL    HW270637  10.571   2.729   0.836
23463SOL     OW70638   8.856  14.247   7.011
23463SOL    HW170639   8.936  14.269   7.058
23463SOL    HW270640   8.805  14.196   7.073
23464SOL     OW70641   4.592   5.543   6.004
23464SOL    HW170642   4.664   5.596   6.038
23464SOL    HW270643   4.579   5.574   5.915
23465SOL     OW70644  13.265   5.920   6.782
23465SOL    HW170645  13.324   5.995   6.772
23465SOL    HW270646  13.304   5.851   6.728
23466SOL     OW70647   3.376   4.606   0.540
23466SOL    HW170648   3.339   4.575   0.623
23466SOL    HW270649   3.409   4.694   0.559
23467SOL     OW70650   1.798   5.775   0.848
23467SOL    HW170651   1.733   5.821   0.796
23467SOL    HW270652   1.882   5.814   0.823
23468SOL     OW70653  10.946  10.707   7.341
23468SOL    HW170654  10.911  10.620   7.360
23468SOL    HW270655  10.979  10.700   7.251
23469SOL     OW70656   2.528   3.427   0.676
23469SOL    HW170657   2.467   3.370   0.723
23469SOL    HW270658   2.534   3.389   0.588
23470SOL     OW70659   6.557   2.877   1.668
23470SOL    HW170660   6.615   2.898   1.742
23470SOL    HW270661   6.469   2.878   1.706
23471SOL     OW70662  11.045  11.177   4.927
23471SOL    HW170663  11.039  11.195   5.020
23471SOL    HW270664  11.139  11.182   4.907
23472SOL     OW70665   8.802   8.235   0.697
23472SOL    HW170666   8.774   8.307   0.753
23472SOL    HW270667   8.773   8.156   0.743
23473SOL     OW70668   7.078  10.347   0.062
23473SOL    HW170669   7.057  10.354   0.155
23473SOL    HW270670   7.055  10.433   0.025
23474SOL     OW70671   3.431  13.017   4.338
23474SOL    HW170672   3.355  12.960   4.324
23474SOL    HW270673   3.496  12.985   4.276
23475SOL     OW70674   5.769  12.635   2.687
23475SOL    HW170675   5.736   1.892   2.603
23475SOL    HW270676   5.860  12.611   2.670
23476SOL     OW70677   2.419   3.848   2.033
23476SOL    HW170678   2.454   3.938   2.031
23476SOL    HW270679   2.324   3.860   2.032
23477SOL     OW70680   6.199   8.553   7.297
23477SOL    HW170681   6.167   8.477   7.248
23477SOL    HW270682   6.132   8.569   7.364
23478SOL     OW70683   9.224   9.570   6.856
23478SOL    HW170684   9.195   9.591   6.945
23478SOL    HW270685   9.189   9.641   6.802
23479SOL     OW70686   2.174   1.767   0.917
23479SOL    HW170687   2.217   1.706   0.857
23479SOL    HW270688   2.124   1.825   0.861
23480SOL     OW70689  12.140   9.180   2.045
23480SOL    HW170690  12.060   9.230   2.057
23480SOL    HW270691   1.391   9.195   1.954
23481SOL     OW70692   5.831  13.095   5.071
23481SOL    HW170693   5.761  13.075   5.008
23481SOL    HW270694   5.795  13.166   5.124
23482SOL     OW70695  10.561  12.875   7.021
23482SOL    HW170696  10.510  12.892   7.100
23482SOL    HW270697  10.651  12.898   7.045
23483SOL     OW70698   9.836  12.369   5.698
23483SOL    HW170699   9.875  12.301   5.752
23483SOL    HW270700   9.832  12.332   5.610
23484SOL     OW70701   9.445   5.742   6.555
23484SOL    HW170702   9.446   5.654   6.592
23484SOL    HW270703   9.472   5.799   6.628
23485SOL     OW70704   6.556   5.388   7.396
23485SOL    HW170705   6.511   5.439   7.463
23485SOL    HW270706   6.531   5.429   7.313
23486SOL     OW70707   6.443   7.763   5.428
23486SOL    HW170708   6.502   7.839   5.433
23486SOL    HW270709   6.447   7.725   5.516
23487SOL     OW70710   5.178   3.141   0.725
23487SOL    HW170711   5.099   3.157   0.778
23487SOL    HW270712   5.238   3.096   0.784
23488SOL     OW70713   7.068   3.795   3.979
23488SOL    HW170714   7.133   3.794   4.049
23488SOL    HW270715   7.060   3.704   3.952
23489SOL     OW70716   5.089   2.271   2.908
23489SOL    HW170717   5.107   2.183   2.876
23489SOL    HW270718   5.102   2.327   2.831
23490SOL     OW70719   1.738   1.031   1.337
23490SOL    HW170720   1.739   1.059   1.428
23490SOL    HW270721   1.695  11.719   1.339
23491SOL     OW70722   3.781  13.338   4.782
23491SOL    HW170723   3.750  13.410   4.728
23491SOL    HW270724   3.735  13.349   4.865
23492SOL     OW70725   7.126   9.277   4.433
23492SOL    HW170726   7.070   9.203   4.458
23492SOL    HW270727   7.213   9.238   4.422
23493SOL     OW70728  11.119   3.966   3.267
23493SOL    HW170729  11.196   3.909   3.269
23493SOL    HW270730  11.155   4.054   3.250
23494SOL     OW70731   3.721   2.220   2.843
23494SOL    HW170732   3.635   2.182   2.863
23494SOL    HW270733   3.717   2.241   2.750
23495SOL     OW70734   7.193   9.135   1.821
23495SOL    HW170735   7.214   9.045   1.796
23495SOL    HW270736   7.097   9.137   1.825
23496SOL     OW70737   3.707   8.161   3.923
23496SOL    HW170738   3.800   8.185   3.916
23496SOL    HW270739   3.665   8.240   3.958
23497SOL     OW70740  11.523   9.639   1.945
23497SOL    HW170741  11.478   9.555   1.937
23497SOL    HW270742  11.474   9.698   1.887
23498SOL     OW70743  12.771   8.460   5.244
23498SOL    HW170744  12.824   8.538   5.261
23498SOL    HW270745  12.822   8.410   5.180
23499SOL     OW70746   2.510   9.720   2.745
23499SOL    HW170747   2.552   9.640   2.775
23499SOL    HW270748   2.551   9.738   2.660
23500SOL     OW70749  10.392   5.747   3.857
23500SOL    HW170750  10.372   5.653   3.863
23500SOL    HW270751  10.307   5.788   3.840
23501SOL     OW70752   9.554   9.528   3.993
23501SOL    HW170753   9.494   9.523   4.067
23501SOL    HW270754   9.508   9.581   3.928
23502SOL     OW70755   6.444   5.353   0.151
23502SOL    HW170756   6.443   5.259   0.169
23502SOL    HW270757   6.394   5.391   0.224
23503SOL     OW70758  12.407  12.758   4.718
23503SOL    HW170759  12.376  12.669   4.699
23503SOL    HW270760  12.478  12.773   4.655
23504SOL     OW70761   9.812   7.773   1.561
23504SOL    HW170762   9.744   7.828   1.600
23504SOL    HW270763   9.814   7.694   1.615
23505SOL     OW70764  12.254  10.234   6.701
23505SOL    HW170765  12.321  10.166   6.693
23505SOL    HW270766  12.303  10.314   6.718
23506SOL     OW70767  12.504   6.478   4.552
23506SOL    HW170768  12.496   6.384   4.565
23506SOL    HW270769  12.455   6.517   4.625
23507SOL     OW70770   7.318  12.324   3.181
23507SOL    HW170771   7.277  12.406   3.151
23507SOL    HW270772   7.382  12.352   3.246
23508SOL     OW70773   5.881   4.359   4.575
23508SOL    HW170774   5.927   4.397   4.650
23508SOL    HW270775   5.941   4.373   4.501
23509SOL     OW70776   6.909  10.713   2.980
23509SOL    HW170777   6.896  10.632   2.932
23509SOL    HW270778   6.867  10.699   3.064
23510SOL     OW70779  10.947   4.613   2.813
23510SOL    HW170780  10.900   4.691   2.783
23510SOL    HW270781  10.974   4.634   2.903
23511SOL     OW70782   5.347   9.296   1.451
23511SOL    HW170783   5.284   9.328   1.516
23511SOL    HW270784   5.378   9.374   1.406
23512SOL     OW70785  15.284   9.770   7.144
23512SOL    HW170786  15.318   9.703   7.085
23512SOL    HW270787  15.358   9.790   7.202
23513SOL     OW70788   7.845  10.236   1.371
23513SOL    HW170789   7.848  10.144   1.396
23513SOL    HW270790   7.793  10.237   1.291
23514SOL     OW70791  14.636  14.038   7.433
23514SOL    HW170792  14.715  14.090   7.450
23514SOL    HW270793  14.600  14.021   7.520
23515SOL     OW70794   3.300   3.566   4.053
23515SOL    HW170795   3.357   3.570   4.129
23515SOL    HW270796   3.211   3.566   4.089
23516SOL     OW70797   7.961   9.494   7.080
23516SOL    HW170798   7.868   9.494   7.103
23516SOL    HW270799   8.001   9.436   7.145
23517SOL     OW70800  11.670  10.360   4.651
23517SOL    HW170801  11.625  10.444   4.660
23517SOL    HW270802  11.662  10.319   4.737
23518SOL     OW70803   7.839  12.663   3.311
23518SOL    HW170804   7.893  12.584   3.318
23518SOL    HW270805   7.771  12.640   3.248
23519SOL     OW70806  11.544   9.538   3.757
23519SOL    HW170807  11.564   9.596   3.683
23519SOL    HW270808  11.598   9.461   3.743
23520SOL     OW70809   5.083  12.660   6.977
23520SOL    HW170810   5.157  12.649   7.036
23520SOL    HW270811   5.053  12.571   6.959
23521SOL     OW70812   5.409   3.544   0.287
23521SOL    HW170813   5.486   3.587   0.250
23521SOL    HW270814   5.432   3.452   0.290
23522SOL     OW70815   8.473  14.367   6.327
23522SOL    HW170816   8.480  14.452   6.284
23522SOL    HW270817   8.446  14.387   6.417
23523SOL     OW70818   4.146   3.445   2.954
23523SOL    HW170819   4.147   3.468   2.861
23523SOL    HW270820   4.239   3.444   2.979
23524SOL     OW70821   3.241   1.523   0.769
23524SOL    HW170822   3.193   1.585   0.714
23524SOL    HW270823   3.238   1.441   0.719
23525SOL     OW70824  10.585   6.258   2.647
23525SOL    HW170825  10.602   6.166   2.667
23525SOL    HW270826  10.594   6.263   2.551
23526SOL     OW70827  10.977   6.969   2.826
23526SOL    HW170828  10.925   6.914   2.885
23526SOL    HW270829  10.911   7.017   2.774
23527SOL     OW70830  12.040   3.303   1.797
23527SOL    HW170831   1.322   3.255   1.858
23527SOL    HW270832  11.955   3.260   1.804
23528SOL     OW70833   8.004  10.548   2.574
23528SOL    HW170834   7.918  10.520   2.543
23528SOL    HW270835   7.996  10.644   2.580
23529SOL     OW70836   6.480   9.013   4.467
23529SOL    HW170837   6.512   9.103   4.477
23529SOL    HW270838   6.385   9.020   4.476
23530SOL     OW70839  11.054   8.161   2.370
23530SOL    HW170840  10.971   8.205   2.350
23530SOL    HW270841  11.050   8.142   2.464
23531SOL     OW70842   2.321   7.266   0.508
23531SOL    HW170843   2.346   7.288   0.598
23531SOL    HW270844   2.227   7.282   0.504
23532SOL     OW70845  13.985   9.827   6.768
23532SOL    HW170846  13.899   9.801   6.802
23532SOL    HW270847  14.036   9.746   6.771
23533SOL     OW70848  10.443  12.914   4.217
23533SOL    HW170849  10.459  12.828   4.176
23533SOL    HW270850  10.387  12.894   4.292
23534SOL     OW70851   4.098   6.368   0.435
23534SOL    HW170852   4.035   6.415   0.381
23534SOL    HW270853   4.135   6.435   0.492
23535SOL     OW70854   7.320   2.127   0.505
23535SOL    HW170855   7.355   2.051   0.458
23535SOL    HW270856   7.355   2.119   0.593
23536SOL     OW70857   2.103  10.906   2.321
23536SOL    HW170858   2.167  10.973   2.295
23536SOL    HW270859   2.025  10.925   2.269
23537SOL     OW70860  11.688  10.555   2.151
23537SOL    HW170861  11.614  10.495   2.156
23537SOL    HW270862  11.765  10.498   2.143
23538SOL     OW70863   5.983   8.778   2.889
23538SOL    HW170864   6.070   8.763   2.925
23538SOL    HW270865   5.927   8.716   2.936
23539SOL     OW70866   4.511   4.032   3.019
23539SOL    HW170867   4.477   4.115   2.987
23539SOL    HW270868   4.469   4.020   3.104
23540SOL     OW70869  14.046   7.837   7.163
23540SOL    HW170870  14.025   7.756   7.117
23540SOL    HW270871  14.078   7.808   7.249
23541SOL     OW70872   9.924  13.783   7.565
23541SOL    HW170873   9.846  13.826   7.529
23541SOL    HW270874   9.916  13.692   7.535
23542SOL     OW70875   8.397  13.836   6.533
23542SOL    HW170876   8.485  13.864   6.558
23542SOL    HW270877   8.401  13.740   6.536
23543SOL     OW70878   4.283   5.927   1.263
23543SOL    HW170879   4.209   5.962   1.214
23543SOL    HW270880   4.357   5.936   1.203
23544SOL     OW70881   3.477   8.349   1.183
23544SOL    HW170882   3.503   8.440   1.190
23544SOL    HW270883   3.383   8.350   1.200
23545SOL     OW70884   7.492   8.437   4.114
23545SOL    HW170885   7.502   8.528   4.088
23545SOL    HW270886   7.401   8.415   4.091
23546SOL     OW70887   6.987   5.072   4.274
23546SOL    HW170888   6.946   5.145   4.228
23546SOL    HW270889   7.073   5.105   4.300
23547SOL     OW70890  11.465   4.532   4.234
23547SOL    HW170891  11.375   4.550   4.209
23547SOL    HW270892  11.468   4.437   4.245
23548SOL     OW70893   2.535   6.258   3.249
23548SOL    HW170894   2.470   6.203   3.206
23548SOL    HW270895   2.484   6.322   3.298
23549SOL     OW70896   7.123  12.839   5.637
23549SOL    HW170897   7.105  12.932   5.655
23549SOL    HW270898   7.065  12.792   5.697
23550SOL     OW70899  13.122   5.004   3.651
23550SOL    HW170900  13.080   5.081   3.690
23550SOL    HW270901  13.142   4.947   3.725
23551SOL     OW70902   4.791   2.986   1.590
23551SOL    HW170903   4.766   2.893   1.589
23551SOL    HW270904   4.728   3.027   1.649
23552SOL     OW70905   3.812   3.312   1.503
23552SOL    HW170906   3.850   3.252   1.439
23552SOL    HW270907   3.887   3.347   1.551
23553SOL     OW70908   4.562   8.445   5.520
23553SOL    HW170909   4.581   8.530   5.482
23553SOL    HW270910   4.645   8.419   5.561
23554SOL     OW70911   9.966   4.507   3.402
23554SOL    HW170912   9.999   4.424   3.368
23554SOL    HW270913   9.880   4.518   3.361
23555SOL     OW70914  10.213   8.923   1.399
23555SOL    HW170915  10.146   8.854   1.399
23555SOL    HW270916  10.163   9.004   1.398
23556SOL     OW70917   4.609   6.123   3.278
23556SOL    HW170918   4.632   6.050   3.334
23556SOL    HW270919   4.692   6.152   3.240
23557SOL     OW70920   5.831  10.438   6.498
23557SOL    HW170921   5.883  10.429   6.579
23557SOL    HW270922   5.745  10.403   6.521
23558SOL     OW70923   8.995  12.412   7.264
23558SOL    HW170924   9.078  12.389   7.306
23558SOL    HW270925   9.020  12.439   7.176
23559SOL     OW70926  12.180  10.238   4.251
23559SOL    HW170927  12.146  10.315   4.207
23559SOL    HW270928  12.223  10.187   4.182
23560SOL     OW70929   2.823   6.510   0.233
23560SOL    HW170930   2.876   6.451   0.179
23560SOL    HW270931   2.845   6.488   0.323
23561SOL     OW70932   6.897   8.860   7.371
23561SOL    HW170933   6.855   8.945   7.371
23561SOL    HW270934   6.897   8.832   7.280
23562SOL     OW70935  14.637  10.421   5.483
23562SOL    HW170936  14.571  10.384   5.424
23562SOL    HW270937  14.639  10.362   5.558
23563SOL     OW70938  10.584  15.807   7.220
23563SOL    HW170939  10.643  15.818   7.145
23563SOL    HW270940  10.503  15.850   7.193
23564SOL     OW70941   5.874  14.209   6.161
23564SOL    HW170942   5.855  14.123   6.124
23564SOL    HW270943   5.802  14.264   6.131
23565SOL     OW70944   4.605  14.406   6.265
23565SOL    HW170945   4.662  14.395   6.341
23565SOL    HW270946   4.616  14.498   6.239
23566SOL     OW70947   6.519  12.712   6.763
23566SOL    HW170948   6.584  12.647   6.789
23566SOL    HW270949   6.543  12.735   6.674
23567SOL     OW70950  13.168   3.417   4.668
23567SOL    HW170951  13.104   3.401   4.599
23567SOL    HW270952  13.196   3.508   4.654
23568SOL     OW70953  10.067   7.856   3.146
23568SOL    HW170954  10.040   7.937   3.103
23568SOL    HW270955  10.082   7.794   3.075
23569SOL     OW70956   5.973  11.857   1.847
23569SOL    HW170957   6.020  11.868   1.929
23569SOL    HW270958   5.904  11.794   1.867
23570SOL     OW70959   9.218   5.043   4.150
23570SOL    HW170960   9.282   5.088   4.205
23570SOL    HW270961   9.151   5.110   4.131
23571SOL     OW70962   5.129   6.398   1.567
23571SOL    HW170963   5.059   6.333   1.568
23571SOL    HW270964   5.084   6.483   1.564
23572SOL     OW70965   8.381   9.079   6.264
23572SOL    HW170966   8.342   9.092   6.351
23572SOL    HW270967   8.307   9.088   6.203
23573SOL     OW70968  13.678  13.207   6.139
23573SOL    HW170969  13.672  13.252   6.223
23573SOL    HW270970  13.620  13.131   6.148
23574SOL     OW70971  13.117  10.598   7.478
23574SOL    HW170972  13.174  10.533   7.436
23574SOL    HW270973  13.176  10.647   7.536
23575SOL     OW70974   7.504   8.749   2.760
23575SOL    HW170975   7.591   8.788   2.753
23575SOL    HW270976   7.455   8.787   2.687
23576SOL     OW70977   4.626  11.499   4.372
23576SOL    HW170978   4.716  11.465   4.375
23576SOL    HW270979   4.597  11.483   4.282
23577SOL     OW70980   5.494   6.591   6.448
23577SOL    HW170981   5.581   6.592   6.408
23577SOL    HW270982   5.508   6.559   6.537
23578SOL     OW70983  12.197  12.136   5.544
23578SOL    HW170984  12.212  12.075   5.471
23578SOL    HW270985  12.211  12.084   5.622
23579SOL     OW70986   5.706   9.117   0.089
23579SOL    HW170987  11.077  14.480   7.617
23579SOL    HW270988   5.633   9.177   0.111
23580SOL     OW70989   6.332   9.520   3.552
23580SOL    HW170990   6.332   9.546   3.644
23580SOL    HW270991   6.422   9.533   3.523
23581SOL     OW70992   5.518  13.686   5.741
23581SOL    HW170993   5.515  13.612   5.802
23581SOL    HW270994   5.427  13.716   5.736
23582SOL     OW70995  11.598   6.487   5.482
23582SOL    HW170996  11.557   6.413   5.528
23582SOL    HW270997  11.677   6.450   5.443
23583SOL     OW70998   6.975   4.513   1.513
23583SOL    HW170999   6.883   4.538   1.502
23583SOL    HW271000   7.021   4.597   1.520
23584SOL     OW71001   7.832   9.219   7.109
23584SOL    HW171002   7.762   9.252   7.166
23584SOL    HW271003   7.890   9.171   7.169
23585SOL     OW71004   7.076   4.223   0.856
23585SOL    HW171005   7.059   4.148   0.913
23585SOL    HW271006   6.998   4.230   0.801
23586SOL     OW71007   5.555   2.348   2.001
23586SOL    HW171008   5.649   2.337   2.020
23586SOL    HW271009   5.512   2.327   2.084
23587SOL     OW71010  13.183  12.563   6.633
23587SOL    HW171011  13.182  12.558   6.538
23587SOL    HW271012  13.181  12.472   6.663
23588SOL     OW71013   4.096   8.748   0.423
23588SOL    HW171014   4.116   8.654   0.422
23588SOL    HW271015   4.041   8.759   0.501
23589SOL     OW71016   6.808   8.701   3.108
23589SOL    HW171017   6.840   8.611   3.113
23589SOL    HW271018   6.884   8.752   3.079
23590SOL     OW71019   8.717   4.465   4.713
23590SOL    HW171020   8.791   4.408   4.733
23590SOL    HW271021   8.666   4.468   4.794
23591SOL     OW71022  12.305   8.726   3.990
23591SOL    HW171023  12.305   8.687   4.078
23591SOL    HW271024  12.213   8.727   3.964
23592SOL     OW71025   8.219   0.315   0.219
23592SOL    HW171026   8.229   0.220   0.217
23592SOL    HW271027   8.208   0.341   0.128
23593SOL     OW71028   9.318  11.637   2.852
23593SOL    HW171029   9.224  11.653   2.843
23593SOL    HW271030   9.349  11.709   2.907
23594SOL     OW71031  12.942   5.982   5.711
23594SOL    HW171032  12.991   5.934   5.777
23594SOL    HW271033  12.850   5.958   5.727
23595SOL     OW71034   3.932   2.932   4.044
23595SOL    HW171035   3.968   3.011   4.084
23595SOL    HW271036   3.906   2.960   3.956
23596SOL     OW71037   1.643   8.646   1.495
23596SOL    HW171038   1.584   8.616   1.426
23596SOL    HW271039   1.602   8.726   1.529
23597SOL     OW71040   5.648   0.734   0.322
23597SOL    HW171041   5.684   0.822   0.314
23597SOL    HW271042   5.577   0.731   0.258
23598SOL     OW71043   0.957   7.278   0.169
23598SOL    HW171044   0.953   7.183   0.179
23598SOL    HW271045   0.889   7.298   0.105
23599SOL     OW71046  11.270  12.327   3.873
23599SOL    HW171047  11.213  12.256   3.844
23599SOL    HW271048  11.308  12.296   3.955
23600SOL     OW71049   1.213   8.242   1.533
23600SOL    HW171050   1.118   8.228   1.537
23600SOL    HW271051   1.238   8.211   1.446
23601SOL     OW71052   8.067   8.313   4.281
23601SOL    HW171053   8.145   8.326   4.227
23601SOL    HW271054   7.994   8.321   4.219
23602SOL     OW71055   7.937   6.948   7.074
23602SOL    HW171056   7.973   6.873   7.120
23602SOL    HW271057   7.939   7.019   7.139
23603SOL     OW71058   8.598  12.728   3.111
23603SOL    HW171059   8.673  12.669   3.119
23603SOL    HW271060   8.568  12.717   3.021
23604SOL     OW71061   8.067   6.521   1.434
23604SOL    HW171062   8.006   6.469   1.487
23604SOL    HW271063   8.019   6.538   1.353
23605SOL     OW71064   5.569  11.122   0.848
23605SOL    HW171065   5.584  11.182   0.922
23605SOL    HW271066   5.481  11.087   0.863
23606SOL     OW71067  11.168   5.034   2.235
23606SOL    HW171068  11.257   5.065   2.224
23606SOL    HW271069  11.144   5.060   2.324
23607SOL     OW71070   6.368   2.883   0.860
23607SOL    HW171071   6.430   2.838   0.917
23607SOL    HW271072   6.282   2.850   0.886
23608SOL     OW71073   6.179   3.947   0.884
23608SOL    HW171074   6.155   3.886   0.953
23608SOL    HW271075   6.273   3.932   0.871
23609SOL     OW71076   7.678   6.288   7.285
23609SOL    HW171077   7.711   6.374   7.260
23609SOL    HW271078   7.600   6.306   7.337
23610SOL     OW71079  14.104   9.339   6.065
23610SOL    HW171080  14.019   9.341   6.021
23610SOL    HW271081  14.138   9.429   6.054
23611SOL     OW71082  11.152   3.526   1.808
23611SOL    HW171083  11.163   3.431   1.804
23611SOL    HW271084  11.120   3.550   1.720
23612SOL     OW71085   2.053  10.642   1.812
23612SOL    HW171086   2.091  10.571   1.865
23612SOL    HW271087   1.983  10.678   1.867
23613SOL     OW71088   3.282   7.820   0.081
23613SOL    HW171089   3.343   7.845   0.151
23613SOL    HW271090   3.307   7.730   0.059
23614SOL     OW71091  12.302   5.194   2.793
23614SOL    HW171092  12.313   5.263   2.727
23614SOL    HW271093  12.335   5.232   2.874
23615SOL     OW71094   2.511   4.934   1.300
23615SOL    HW171095   2.484   4.986   1.375
23615SOL    HW271096   2.440   4.872   1.285
23616SOL     OW71097   9.174  11.787   2.548
23616SOL    HW171098   9.183  11.881   2.569
23616SOL    HW271099   9.081  11.769   2.560
23617SOL     OW71100  11.870   5.107   3.208
23617SOL    HW171101  11.939   5.166   3.240
23617SOL    HW271102  11.895   5.088   3.118
23618SOL     OW71103   5.773   6.733   2.078
23618SOL    HW171104   5.716   6.779   2.015
23618SOL    HW271105   5.831   6.801   2.111
23619SOL     OW71106   4.894   4.610   5.313
23619SOL    HW171107   4.929   4.555   5.242
23619SOL    HW271108   4.861   4.548   5.378
23620SOL     OW71109   4.063   3.265   4.504
23620SOL    HW171110   4.148   3.294   4.538
23620SOL    HW271111   4.072   3.273   4.409
23621SOL     OW71112   4.761  10.499   0.645
23621SOL    HW171113   4.799  10.499   0.733
23621SOL    HW271114   4.734  10.589   0.630
23622SOL     OW71115   2.322   4.936   2.202
23622SOL    HW171116   2.311   4.869   2.269
23622SOL    HW271117   2.397   4.907   2.151
23623SOL     OW71118   6.216   2.633   2.883
23623SOL    HW171119   6.247   2.677   2.962
23623SOL    HW271120   6.278   2.659   2.814
23624SOL     OW71121   6.126   7.641   1.447
23624SOL    HW171122   6.090   7.727   1.428
23624SOL    HW271123   6.220   7.649   1.427
23625SOL     OW71124   5.118   2.235   2.491
23625SOL    HW171125   5.080   2.276   2.413
23625SOL    HW271126   5.162   2.306   2.536
23626SOL     OW71127   3.606   9.648   1.867
23626SOL    HW171128   3.615   9.561   1.907
23626SOL    HW271129   3.661   9.704   1.921
23627SOL     OW71130   9.209   9.983   0.710
23627SOL    HW171131   9.145   9.954   0.645
23627SOL    HW271132   9.272   9.912   0.714
23628SOL     OW71133   8.717   4.453   0.019
23628SOL    HW171134  14.097   9.926   7.595
23628SOL    HW271135   8.783   4.467   0.087
23629SOL     OW71136  10.910  12.168   7.285
23629SOL    HW171137  10.970  12.119   7.342
23629SOL    HW271138  10.965  12.199   7.213
23630SOL     OW71139  12.885  13.744   6.365
23630SOL    HW171140  12.813  13.718   6.423
23630SOL    HW271141  12.901  13.836   6.386
23631SOL     OW71142   4.534   7.994   2.592
23631SOL    HW171143   4.566   7.904   2.580
23631SOL    HW271144   4.542   8.034   2.505
23632SOL     OW71145   7.364  11.241   7.149
23632SOL    HW171146   7.413  11.291   7.084
23632SOL    HW271147   7.273  11.266   7.135
23633SOL     OW71148   3.326   9.442   4.367
23633SOL    HW171149   3.232   9.443   4.349
23633SOL    HW271150   3.352   9.534   4.366
23634SOL     OW71151   7.809   5.116   4.260
23634SOL    HW171152   7.867   5.119   4.184
23634SOL    HW271153   7.819   5.202   4.300
23635SOL     OW71154   5.443   3.987   2.930
23635SOL    HW171155   5.430   3.947   2.845
23635SOL    HW271156   5.537   3.977   2.948
23636SOL     OW71157  11.059  14.319   5.583
23636SOL    HW171158  11.125  14.373   5.626
23636SOL    HW271159  11.067  14.233   5.624
23637SOL     OW71160  12.702   5.754   6.651
23637SOL    HW171161  12.610   5.776   6.668
23637SOL    HW271162  12.751   5.831   6.682
23638SOL     OW71163  10.083  10.130   2.179
23638SOL    HW171164  10.156  10.076   2.151
23638SOL    HW271165  10.117  10.220   2.177
23639SOL     OW71166   7.637   0.747   0.278
23639SOL    HW171167   7.598   0.834   0.286
23639SOL    HW271168   7.730   0.761   0.292
23640SOL     OW71169   1.457   4.635   2.017
23640SOL    HW171170   1.475   4.616   1.924
23640SOL    HW271171  12.159   4.577   2.039
23641SOL     OW71172   2.183   3.117   2.411
23641SOL    HW171173   2.270   3.095   2.379
23641SOL    HW271174   2.129   3.121   2.332
23642SOL     OW71175   7.562   3.479   1.478
23642SOL    HW171176   7.611   3.484   1.560
23642SOL    HW271177   7.624   3.440   1.416
23643SOL     OW71178   8.875  12.118   6.588
23643SOL    HW171179   8.804  12.066   6.551
23643SOL    HW271180   8.951  12.099   6.533
23644SOL     OW71181  10.947  10.849   3.863
23644SOL    HW171182  10.996  10.931   3.870
23644SOL    HW271183  10.969  10.801   3.943
23645SOL     OW71184  11.482   6.703   1.534
23645SOL    HW171185  11.473   6.798   1.541
23645SOL    HW271186  11.401   6.669   1.572
23646SOL     OW71187   6.744   7.177   1.751
23646SOL    HW171188   6.818   7.127   1.716
23646SOL    HW271189   6.690   7.111   1.794
23647SOL     OW71190   3.507   5.990   0.271
23647SOL    HW171191   3.490   5.898   0.291
23647SOL    HW271192   3.599   6.003   0.296
23648SOL     OW71193   4.179   6.198   3.778
23648SOL    HW171194   4.213   6.109   3.790
23648SOL    HW271195   4.254   6.255   3.795
23649SOL     OW71196   2.426   6.072   2.818
23649SOL    HW171197   2.496   6.088   2.754
23649SOL    HW271198   2.352   6.040   2.766
23650SOL     OW71199   5.869   6.508   5.450
23650SOL    HW171200   5.787   6.480   5.410
23650SOL    HW271201   5.913   6.427   5.475
23651SOL     OW71202   3.506   9.185   2.095
23651SOL    HW171203   3.595   9.202   2.127
23651SOL    HW271204   3.461   9.144   2.169
23652SOL     OW71205  12.687   3.421   4.136
23652SOL    HW171206  12.714   3.511   4.121
23652SOL    HW271207  12.756   3.368   4.096
23653SOL     OW71208   9.599  12.455   7.593
23653SOL    HW171209   9.602  12.395   7.518
23653SOL    HW271210   9.589  12.542   7.553
23654SOL     OW71211   8.635  13.679   4.354
23654SOL    HW171212   8.676  13.650   4.273
23654SOL    HW271213   8.555  13.627   4.362
23655SOL     OW71214  11.551  11.192   1.306
23655SOL    HW171215  11.543  11.101   1.278
23655SOL    HW271216  11.462  11.217   1.331
23656SOL     OW71217   6.711  12.367   3.093
23656SOL    HW171218   6.686  12.459   3.089
23656SOL    HW271219   6.635  12.320   3.059
23657SOL     OW71220   8.752   4.777   4.952
23657SOL    HW171221   8.841   4.744   4.947
23657SOL    HW271222   8.762   4.871   4.964
23658SOL     OW71223   6.339  10.130   5.866
23658SOL    HW171224   6.309  10.055   5.917
23658SOL    HW271225   6.359  10.094   5.780
23659SOL     OW71226   3.664   6.786   3.865
23659SOL    HW171227   3.607   6.735   3.808
23659SOL    HW271228   3.750   6.743   3.857
23660SOL     OW71229  11.624  13.963   5.633
23660SOL    HW171230  11.639  14.036   5.694
23660SOL    HW271231  11.646  13.885   5.684
23661SOL     OW71232   1.991   9.853   1.563
23661SOL    HW171233   1.903   9.822   1.586
23661SOL    HW271234   2.034   9.777   1.524
23662SOL     OW71235   8.124  10.235   0.852
23662SOL    HW171236   8.125  10.157   0.796
23662SOL    HW271237   8.151  10.306   0.794
23663SOL     OW71238  10.329   5.180   7.201
23663SOL    HW171239  10.325   5.183   7.296
23663SOL    HW271240  10.247   5.221   7.172
23664SOL     OW71241  10.685   5.206   5.469
23664SOL    HW171242  10.780   5.197   5.465
23664SOL    HW271243  10.671   5.293   5.508
23665SOL     OW71244  10.848   9.408   6.538
23665SOL    HW171245  10.818   9.357   6.613
23665SOL    HW271246  10.770   9.453   6.506
23666SOL     OW71247  11.661   5.432   3.564
23666SOL    HW171248  11.613   5.420   3.482
23666SOL    HW271249  11.715   5.510   3.550
23667SOL     OW71250   1.559   7.652   0.369
23667SOL    HW171251   1.618   7.618   0.302
23667SOL    HW271252   1.471   7.629   0.337
23668SOL     OW71253  11.020  13.960   6.092
23668SOL    HW171254  11.030  13.866   6.075
23668SOL    HW271255  11.026  14.001   6.006
23669SOL     OW71256   8.797  13.725   7.452
23669SOL    HW171257   8.785  13.707   7.359
23669SOL    HW271258   8.755  13.651   7.496
23670SOL     OW71259   7.059  12.821   5.122
23670SOL    HW171260   7.151  12.839   5.141
23670SOL    HW271261   7.012  12.847   5.201
23671SOL     OW71262   0.489   9.913   0.236
23671SOL    HW171263   0.418   9.963   0.275
23671SOL    HW271264   0.487   9.828   0.281
23672SOL     OW71265   8.602   4.168   0.377
23672SOL    HW171266   8.624   4.183   0.469
23672SOL    HW271267   8.564   4.251   0.348
23673SOL     OW71268   7.826   5.548   0.450
23673SOL    HW171269   7.920   5.561   0.437
23673SOL    HW271270   7.785   5.622   0.405
23674SOL     OW71271  11.213   5.538   4.747
23674SOL    HW171272  11.121   5.516   4.734
23674SOL    HW271273  11.211   5.626   4.785
23675SOL     OW71274   5.025   8.567   5.095
23675SOL    HW171275   5.052   8.624   5.023
23675SOL    HW271276   5.059   8.481   5.071
23676SOL     OW71277   0.586   1.144   0.247
23676SOL    HW171278   0.624   1.181   0.168
23676SOL    HW271279   0.492   1.138   0.228
23677SOL     OW71280  10.265   7.211   0.541
23677SOL    HW171281  10.346   7.184   0.498
23677SOL    HW271282  10.291   7.232   0.630
23678SOL     OW71283  11.317  10.095   4.334
23678SOL    HW171284  11.321  10.154   4.258
23678SOL    HW271285  11.391  10.035   4.320
23679SOL     OW71286   6.457   8.421   0.492
23679SOL    HW171287   6.499   8.350   0.541
23679SOL    HW271288   6.490   8.501   0.533
23680SOL     OW71289   5.598   6.686   2.397
23680SOL    HW171290   5.603   6.774   2.435
23680SOL    HW271291   5.597   6.701   2.302
23681SOL     OW71292   6.187   9.381   3.315
23681SOL    HW171293   6.258   9.346   3.261
23681SOL    HW271294   6.204   9.475   3.319
23682SOL     OW71295  10.067   3.236   2.677
23682SOL    HW171296  10.051   3.159   2.732
23682SOL    HW271297   9.987   3.288   2.684
23683SOL     OW71298   6.251   0.025   0.005
23683SOL    HW171299   6.309   0.093   0.040
23683SOL    HW271300   6.305  10.721   0.001
23684SOL     OW71301   7.260   5.689   2.361
23684SOL    HW171302   7.205   5.754   2.404
23684SOL    HW271303   7.348   5.725   2.367
23685SOL     OW71304   4.833   4.165   0.722
23685SOL    HW171305   4.926   4.173   0.743
23685SOL    HW271306   4.814   4.242   0.668
23686SOL     OW71307  11.763  10.933   3.972
23686SOL    HW171308  11.811  10.990   4.033
23686SOL    HW271309  11.830  10.902   3.911
23687SOL     OW71310   6.704   3.662   1.595
23687SOL    HW171311   6.792   3.657   1.632
23687SOL    HW271312   6.664   3.578   1.616
23688SOL     OW71313   4.389   4.951   6.017
23688SOL    HW171314   4.373   5.045   6.008
23688SOL    HW271315   4.481   4.940   5.994
23689SOL     OW71316   8.888   9.423   5.278
23689SOL    HW171317   8.960   9.485   5.290
23689SOL    HW271318   8.863   9.433   5.186
23690SOL     OW71319   5.320   4.859   5.525
23690SOL    HW171320   5.410   4.828   5.512
23690SOL    HW271321   5.265   4.785   5.501
23691SOL     OW71322  12.482   5.093   3.600
23691SOL    HW171323  12.491   5.107   3.694
23691SOL    HW271324  12.437   5.008   3.593
23692SOL     OW71325   2.524   7.358   1.050
23692SOL    HW171326   2.506   7.402   1.133
23692SOL    HW271327   2.619   7.368   1.038
23693SOL     OW71328   6.693   5.726   1.792
23693SOL    HW171329   6.636   5.681   1.854
23693SOL    HW271330   6.657   5.706   1.706
23694SOL     OW71331  12.695  14.122   7.126
23694SOL    HW171332  12.711  14.187   7.194
23694SOL    HW271333  12.768  14.133   7.064
23695SOL     OW71334  10.499   6.651   1.217
23695SOL    HW171335  10.509   6.638   1.123
23695SOL    HW271336  10.588   6.645   1.252
23696SOL     OW71337   4.448   3.717   1.008
23696SOL    HW171338   4.361   3.719   1.047
23696SOL    HW271339   4.496   3.787   1.053
23697SOL     OW71340   1.098   5.516   1.293
23697SOL    HW171341   1.148   5.475   1.223
23697SOL    HW271342   1.164   5.566   1.343
23698SOL     OW71343   5.555   6.420   2.510
23698SOL    HW171344   5.586   6.502   2.470
23698SOL    HW271345   5.522   6.369   2.436
23699SOL     OW71346  10.665   2.730   0.065
23699SOL    HW171347  10.738   2.681   0.103
23699SOL    HW271348  10.588   2.677   0.086
23700SOL     OW71349   7.622   5.925   1.857
23700SOL    HW171350   7.617   5.962   1.945
23700SOL    HW271351   7.716   5.915   1.840
23701SOL     OW71352   4.063   8.931   4.781
23701SOL    HW171353   4.050   8.913   4.687
23701SOL    HW271354   4.143   8.983   4.784
23702SOL     OW71355  12.815  15.687   7.484
23702SOL    HW171356  12.749  15.721   7.423
23702SOL    HW271357  12.794  15.728   7.568
23703SOL     OW71358   5.146   2.164   2.058
23703SOL    HW171359   5.157   2.161   1.963
23703SOL    HW271360   5.127   2.073   2.082
23704SOL     OW71361  16.010  14.053   7.535
23704SOL    HW171362  15.951  13.985   7.567
23704SOL    HW271363  16.031  14.026   7.445
23705SOL     OW71364   5.385  14.113   7.023
23705SOL    HW171365   5.393  14.021   7.049
23705SOL    HW271366   5.391  14.111   6.927
23706SOL     OW71367   2.826   4.108   1.874
23706SOL    HW171368   2.908   4.104   1.923
23706SOL    HW271369   2.806   4.201   1.868
23707SOL     OW71370   8.896   9.456   5.019
23707SOL    HW171371   8.906   9.542   4.979
23707SOL    HW271372   8.963   9.402   4.978
23708SOL     OW71373  11.200   6.059   7.154
23708SOL    HW171374  11.159   5.973   7.143
23708SOL    HW271375  11.145   6.118   7.102
23709SOL     OW71376   8.437   6.661   0.498
23709SOL    HW171377   8.351   6.634   0.530
23709SOL    HW271378   8.495   6.653   0.573
23710SOL     OW71379   7.881  11.352   5.581
23710SOL    HW171380   7.790  11.344   5.611
23710SOL    HW271381   7.921  11.268   5.603
23711SOL     OW71382  11.892  11.493   6.936
23711SOL    HW171383  11.932  11.577   6.914
23711SOL    HW271384  11.952  11.428   6.898
23712SOL     OW71385   5.108   4.790   0.778
23712SOL    HW171386   5.099   4.859   0.713
23712SOL    HW271387   5.080   4.710   0.732
23713SOL     OW71388   3.856   6.331   1.676
23713SOL    HW171389   3.927   6.396   1.677
23713SOL    HW271390   3.844   6.308   1.768
23714SOL     OW71391  10.300  12.468   4.698
23714SOL    HW171392  10.300  12.379   4.661
23714SOL    HW271393  10.392  12.487   4.715
23715SOL     OW71394   6.771   0.059   0.064
23715SOL    HW171395   6.862   0.086   0.051
23715SOL    HW271396   6.725   0.139   0.085
23716SOL     OW71397   7.144   4.916   4.825
23716SOL    HW171398   7.173   4.838   4.871
23716SOL    HW271399   7.199   4.986   4.859
23717SOL     OW71400  10.950   4.616   2.513
23717SOL    HW171401  10.906   4.532   2.528
23717SOL    HW271402  10.916   4.673   2.582
23718SOL     OW71403   4.538   2.441   1.720
23718SOL    HW171404   4.493   2.411   1.641
23718SOL    HW271405   4.527   2.369   1.782
23719SOL     OW71406   3.511   6.229   4.962
23719SOL    HW171407  14.230   6.300   4.996
23719SOL    HW271408   3.595   6.272   4.945
23720SOL     OW71409   8.818   5.775   6.483
23720SOL    HW171410   8.852   5.785   6.394
23720SOL    HW271411   8.846   5.688   6.510
23721SOL     OW71412   2.441   8.270   2.070
23721SOL    HW171413   2.405   8.255   1.983
23721SOL    HW271414   2.470   8.183   2.099
23722SOL     OW71415   6.211   3.507   3.027
23722SOL    HW171416   6.133   3.544   2.985
23722SOL    HW271417   6.232   3.430   2.974
23723SOL     OW71418   9.378   9.814   5.639
23723SOL    HW171419   9.434   9.819   5.561
23723SOL    HW271420   9.410   9.885   5.695
23724SOL     OW71421   0.888   5.400   0.851
23724SOL    HW171422   0.834   5.339   0.902
23724SOL    HW271423   0.848   5.400   0.764
23725SOL     OW71424  10.947   8.815   3.681
23725SOL    HW171425  10.902   8.861   3.753
23725SOL    HW271426  11.001   8.883   3.640
23726SOL     OW71427   9.737   7.338   5.358
23726SOL    HW171428   9.758   7.258   5.406
23726SOL    HW271429   9.784   7.329   5.275
23727SOL     OW71430   7.912  12.132   7.481
23727SOL    HW171431   7.900  12.211   7.535
23727SOL    HW271432   7.855  12.146   7.406
23728SOL     OW71433   2.916   9.099   3.397
23728SOL    HW171434   2.979   9.028   3.383
23728SOL    HW271435   2.873   9.110   3.312
23729SOL     OW71436   4.372   2.946   0.919
23729SOL    HW171437   4.298   2.945   0.980
23729SOL    HW271438   4.447   2.969   0.974
23730SOL     OW71439  13.877  10.023   7.067
23730SOL    HW171440  13.863   9.951   7.005
23730SOL    HW271441  13.824  10.001   7.143
23731SOL     OW71442   8.853   2.217   2.434
23731SOL    HW171443   8.870   2.167   2.354
23731SOL    HW271444   8.780   2.171   2.476
23732SOL     OW71445   6.817   5.971   7.549
23732SOL    HW171446   6.905   5.982   7.513
23732SOL    HW271447   1.443   0.536   0.012
23733SOL     OW71448  13.933   7.160   6.491
23733SOL    HW171449  13.967   7.137   6.405
23733SOL    HW271450  13.959   7.251   6.504
23734SOL     OW71451   7.095   6.277   6.515
23734SOL    HW171452   7.093   6.341   6.443
23734SOL    HW271453   7.025   6.303   6.573
23735SOL     OW71454  10.909   3.773   5.143
23735SOL    HW171455  10.923   3.785   5.049
23735SOL    HW271456  10.977   3.712   5.170
23736SOL     OW71457   6.003   2.632   2.578
23736SOL    HW171458   5.981   2.570   2.647
23736SOL    HW271459   5.926   2.689   2.572
23737SOL     OW71460   4.497   7.130   4.086
23737SOL    HW171461   4.565   7.143   4.020
23737SOL    HW271462   4.415   7.142   4.038
23738SOL     OW71463   5.223  10.739   5.329
23738SOL    HW171464   5.189  10.671   5.387
23738SOL    HW271465   5.167  10.815   5.346
23739SOL     OW71466   7.031   6.518   2.520
23739SOL    HW171467   7.049   6.568   2.600
23739SOL    HW271468   6.937   6.529   2.505
23740SOL     OW71469  12.605   9.313   5.928
23740SOL    HW171470  12.591   9.249   5.858
23740SOL    HW271471  12.684   9.282   5.973
23741SOL     OW71472   9.959   2.393   2.536
23741SOL    HW171473   9.953   2.444   2.456
23741SOL    HW271474   9.944   2.303   2.508
23742SOL     OW71475   8.548  13.426   4.553
23742SOL    HW171476   8.538  13.520   4.568
23742SOL    HW271477   8.499  13.409   4.473
23743SOL     OW71478   5.492   6.898   1.612
23743SOL    HW171479   5.416   6.881   1.668
23743SOL    HW271480   5.459   6.889   1.523
23744SOL     OW71481  10.655   3.172   1.654
23744SOL    HW171482  10.578   3.139   1.607
23744SOL    HW271483  10.694   3.235   1.593
23745SOL     OW71484  13.933  12.055   6.980
23745SOL    HW171485  14.011  12.102   7.011
23745SOL    HW271486  13.937  11.971   7.026
23746SOL     OW71487  13.122  13.845   4.475
23746SOL    HW171488  13.114  13.849   4.570
23746SOL    HW271489  13.097   3.158   4.445
23747SOL     OW71490   3.968   5.741   0.672
23747SOL    HW171491   4.007   5.679   0.734
23747SOL    HW271492   4.000   5.712   0.586
23748SOL     OW71493  11.626   2.065   2.327
23748SOL    HW171494  11.667   2.096   2.246
23748SOL    HW271495  11.534   2.092   2.319
23749SOL     OW71496   7.762  14.453   7.569
23749SOL    HW171497   2.347   8.998   0.011
23749SOL    HW271498   7.736  14.420   7.483
23750SOL     OW71499   6.898   7.122   1.380
23750SOL    HW171500   6.828   7.177   1.344
23750SOL    HW271501   6.951   7.099   1.304
23751SOL     OW71502  13.957   8.553   6.101
23751SOL    HW171503  13.932   8.639   6.068
23751SOL    HW271504  13.885   8.528   6.160
23752SOL     OW71505   6.711   7.648   4.395
23752SOL    HW171506   6.637   7.618   4.447
23752SOL    HW271507   6.774   7.682   4.459
23753SOL     OW71508   2.973   3.062   2.680
23753SOL    HW171509   3.004   3.097   2.596
23753SOL    HW271510   2.925   3.134   2.720
23754SOL     OW71511   6.574   3.451   4.181
23754SOL    HW171512   6.582   3.455   4.085
23754SOL    HW271513   6.507   3.517   4.202
23755SOL     OW71514   5.275   8.392   6.149
23755SOL    HW171515   5.228   8.371   6.068
23755SOL    HW271516   5.314   8.478   6.134
23756SOL     OW71517   3.801   9.108   2.130
23756SOL    HW171518   3.797   9.015   2.108
23756SOL    HW271519   3.836   9.110   2.219
23757SOL     OW71520   7.255   9.303   2.336
23757SOL    HW171521   7.174   9.289   2.386
23757SOL    HW271522   7.247   9.392   2.302
23758SOL     OW71523   3.600   6.393   3.156
23758SOL    HW171524   3.692   6.399   3.182
23758SOL    HW271525   3.575   6.302   3.173
23759SOL     OW71526  11.738   3.745   1.708
23759SOL    HW171527  11.652   3.787   1.698
23759SOL    HW271528  11.729   3.691   1.786
23760SOL     OW71529  11.088   7.093   3.296
23760SOL    HW171530  11.011   7.077   3.241
23760SOL    HW271531  11.056   7.082   3.385
23761SOL     OW71532   9.400  10.685   3.154
23761SOL    HW171533   9.402  10.668   3.248
23761SOL    HW271534   9.452  10.614   3.115
23762SOL     OW71535   8.349   8.745   3.014
23762SOL    HW171536   8.277   8.792   2.973
23762SOL    HW271537   8.424   8.805   3.010
23763SOL     OW71538   9.420  10.257   5.130
23763SOL    HW171539   9.326  10.252   5.116
23763SOL    HW271540   9.438  10.194   5.200
23764SOL     OW71541   1.490   8.391   1.181
23764SOL    HW171542   1.469   8.433   1.264
23764SOL    HW271543   1.420   8.417   1.121
23765SOL     OW71544   5.946   7.858   4.782
23765SOL    HW171545   6.014   7.820   4.837
23765SOL    HW271546   5.886   7.900   4.843
23766SOL     OW71547   5.187   3.362   0.951
23766SOL    HW171548   5.138   3.284   0.976
23766SOL    HW271549   5.132   3.405   0.886
23767SOL     OW71550   2.040  11.823   1.976
23767SOL    HW171551   2.109  11.765   2.008
23767SOL    HW271552   2.083  11.908   1.966
23768SOL     OW71553   9.330  11.634   6.086
23768SOL    HW171554   9.400  11.623   6.151
23768SOL    HW271555   9.315  11.728   6.082
23769SOL     OW71556   9.940  12.342   2.690
23769SOL    HW171557   9.869  12.279   2.682
23769SOL    HW271558   9.903  12.413   2.743
23770SOL     OW71559  11.103   2.746   2.465
23770SOL    HW171560  11.023   2.754   2.517
23770SOL    HW271561  11.107   2.653   2.441
23771SOL     OW71562   3.345  12.717   4.541
23771SOL    HW171563   3.418  12.737   4.481
23771SOL    HW271564   3.267  12.722   4.486
23772SOL     OW71565  10.065   6.202   6.488
23772SOL    HW171566   9.998   6.145   6.449
23772SOL    HW271567  10.126   6.220   6.417
23773SOL     OW71568   9.910  13.160   6.096
23773SOL    HW171569   9.825  13.202   6.114
23773SOL    HW271570   9.963  13.229   6.058
23774SOL     OW71571   6.097   6.897   1.678
23774SOL    HW171572   6.174   6.948   1.654
23774SOL    HW271573   6.089   6.831   1.609
23775SOL     OW71574  10.471  11.581   3.605
23775SOL    HW171575  10.523  11.655   3.573
23775SOL    HW271576  10.523  11.504   3.583
23776SOL     OW71577   7.037   3.815   4.451
23776SOL    HW171578   6.975   3.745   4.430
23776SOL    HW271579   6.988   3.896   4.440
23777SOL     OW71580   5.906   3.275   2.389
23777SOL    HW171581   5.927   3.354   2.440
23777SOL    HW271582   5.833   3.235   2.435
23778SOL     OW71583  11.929  10.502   6.761
23778SOL    HW171584  11.852  10.558   6.760
23778SOL    HW271585  11.911  10.437   6.829
23779SOL     OW71586  12.547   4.605   5.405
23779SOL    HW171587  12.469   4.578   5.356
23779SOL    HW271588  12.552   4.543   5.478
23780SOL     OW71589   3.021  11.139   0.998
23780SOL    HW171590   2.994  11.154   0.907
23780SOL    HW271591   2.954  11.080   1.033
23781SOL     OW71592  10.172  12.204   4.692
23781SOL    HW171593  10.148  12.142   4.624
23781SOL    HW271594  10.243  12.162   4.740
23782SOL     OW71595   4.533   9.581   3.443
23782SOL    HW171596   4.536   9.486   3.448
23782SOL    HW271597   4.525   9.609   3.534
23783SOL     OW71598   2.059   1.805   1.184
23783SOL    HW171599   2.121   1.780   1.116
23783SOL    HW271600   2.023   1.888   1.153
23784SOL     OW71601  11.807  11.600   2.227
23784SOL    HW171602  11.900  11.612   2.244
23784SOL    HW271603  11.778  11.683   2.190
23785SOL     OW71604   8.242   9.449   3.084
23785SOL    HW171605   8.314   9.511   3.094
23785SOL    HW271606   8.263   9.399   3.005
23786SOL     OW71607  10.979   4.035   2.650
23786SOL    HW171608  11.026   3.969   2.700
23786SOL    HW271609  10.888   4.006   2.651
23787SOL     OW71610  10.424   2.669   1.223
23787SOL    HW171611  10.371   2.632   1.152
23787SOL    HW271612  10.412   2.608   1.296
23788SOL     OW71613   6.427   5.394   2.977
23788SOL    HW171614   6.509   5.376   3.023
23788SOL    HW271615   6.454   5.442   2.899
23789SOL     OW71616   8.008   7.680   7.038
23789SOL    HW171617   8.014   7.599   6.988
23789SOL    HW271618   8.045   7.659   7.124
23790SOL     OW71619  10.108  14.514   6.278
23790SOL    HW171620  10.055  14.584   6.239
23790SOL    HW271621  10.048  14.468   6.336
23791SOL     OW71622   9.336   6.794   0.949
23791SOL    HW171623   9.316   6.715   0.898
23791SOL    HW271624   9.251   6.828   0.975
23792SOL     OW71625  12.518   9.355   4.310
23792SOL    HW171626  12.479   9.352   4.398
23792SOL    HW271627  12.532   9.448   4.293
23793SOL     OW71628   5.537   5.816   4.308
23793SOL    HW171629   5.590   5.786   4.235
23793SOL    HW271630   5.597   5.819   4.382
23794SOL     OW71631   5.683   8.133   7.513
23794SOL    HW171632   5.698   8.216   7.558
23794SOL    HW271633   5.742   8.071   7.558
23795SOL     OW71634  15.827  10.480   7.553
23795SOL    HW171635  15.849  10.554   7.496
23795SOL    HW271636  10.442   5.129   0.023
23796SOL     OW71637   4.608   9.025   0.653
23796SOL    HW171638   4.605   9.109   0.608
23796SOL    HW271639   4.604   8.960   0.583
23797SOL     OW71640  12.267  12.114   6.615
23797SOL    HW171641  12.184  12.066   6.623
23797SOL    HW271642  12.334  12.048   6.633
23798SOL     OW71643   9.009  11.595   4.220
23798SOL    HW171644   8.966  11.585   4.135
23798SOL    HW271645   8.937  11.592   4.284
23799SOL     OW71646  12.050   4.802   3.472
23799SOL    HW171647  12.026   4.805   3.565
23799SOL    HW271648  11.973   4.764   3.429
23800SOL     OW71649  13.132  12.970   5.214
23800SOL    HW171650  13.217  12.942   5.247
23800SOL    HW271651  13.115  13.054   5.258
23801SOL     OW71652  10.963   4.671   3.091
23801SOL    HW171653  10.938   4.594   3.141
23801SOL    HW271654  10.892   4.733   3.106
23802SOL     OW71655  12.604  13.512   7.183
23802SOL    HW171656  12.527  13.456   7.196
23802SOL    HW271657  12.650  13.509   7.267
23803SOL     OW71658  12.027  10.051   6.684
23803SOL    HW171659  11.963  10.106   6.639
23803SOL    HW271660  12.105  10.106   6.689
23804SOL     OW71661  10.539  10.024   1.175
23804SOL    HW171662  10.624   9.985   1.196
23804SOL    HW271663  10.489   9.951   1.136
23805SOL     OW71664   1.559  10.802   0.109
23805SOL    HW171665   1.581  10.709   0.122
23805SOL    HW271666   1.617  10.848   0.169
23806SOL     OW71667   6.552   6.041   2.480
23806SOL    HW171668   6.641   6.067   2.505
23806SOL    HW271669   6.495   6.102   2.527
23807SOL     OW71670  15.763  11.002   7.299
23807SOL    HW171671  15.685  10.981   7.350
23807SOL    HW271672  15.748  11.090   7.265
23808SOL     OW71673   9.872  10.300   4.039
23808SOL    HW171674   9.908  10.300   3.950
23808SOL    HW271675   9.777  10.309   4.026
23809SOL     OW71676   9.843   8.415   5.369
23809SOL    HW171677   9.900   8.404   5.293
23809SOL    HW271678   9.776   8.347   5.358
23810SOL     OW71679   8.993   3.379   2.453
23810SOL    HW171680   9.088   3.392   2.464
23810SOL    HW271681   8.984   3.287   2.428
23811SOL     OW71682  11.266   8.283   5.648
23811SOL    HW171683  11.294   8.355   5.591
23811SOL    HW271684  11.186   8.250   5.607
23812SOL     OW71685   6.092  12.823   6.461
23812SOL    HW171686   6.167  12.841   6.518
23812SOL    HW271687   6.039  12.903   6.466
23813SOL     OW71688  12.911  11.782   7.377
23813SOL    HW171689  12.896  11.687   7.386
23813SOL    HW271690  12.824  11.820   7.384
23814SOL     OW71691   7.032   1.376   1.673
23814SOL    HW171692   6.973   1.304   1.649
23814SOL    HW271693   6.986   1.455   1.644
23815SOL     OW71694  12.182   7.341   3.825
23815SOL    HW171695  12.257   7.392   3.791
23815SOL    HW271696  12.199   7.252   3.796
23816SOL     OW71697  13.016   7.463   7.415
23816SOL    HW171698  13.025   7.499   7.327
23816SOL    HW271699  12.934   7.501   7.447
23817SOL     OW71700   2.676   5.389   3.223
23817SOL    HW171701   2.739   5.319   3.205
23817SOL    HW271702   2.691   5.453   3.153
23818SOL     OW71703  10.773   4.456   0.247
23818SOL    HW171704  10.787   4.512   0.324
23818SOL    HW271705  10.839   4.387   0.255
23819SOL     OW71706   5.978   3.065   0.830
23819SOL    HW171707   5.971   3.005   0.904
23819SOL    HW271708   5.898   3.051   0.780
23820SOL     OW71709   4.590   3.953   1.075
23820SOL    HW171710   4.606   4.039   1.111
23820SOL    HW271711   4.532   3.968   1.000
23821SOL     OW71712  13.498   9.956   5.572
23821SOL    HW171713  13.426  10.018   5.564
23821SOL    HW271714  13.515   9.951   5.666
23822SOL     OW71715   8.858   4.002   0.255
23822SOL    HW171716   8.805   3.979   0.331
23822SOL    HW271717   8.802   4.062   0.205
23823SOL     OW71718   9.421  11.629   5.594
23823SOL    HW171719   9.349  11.692   5.595
23823SOL    HW271720   9.429  11.602   5.502
23824SOL     OW71721   6.910  15.043   7.478
23824SOL    HW171722   6.835  15.094   7.507
23824SOL    HW271723   6.873  14.958   7.453
23825SOL     OW71724   3.976   6.471   3.512
23825SOL    HW171725   3.978   6.456   3.607
23825SOL    HW271726   4.056   6.520   3.493
23826SOL     OW71727   9.503   3.448   0.179
23826SOL    HW171728   9.445   3.503   0.126
23826SOL    HW271729   9.534   3.507   0.248
23827SOL     OW71730  12.386   6.074   5.479
23827SOL    HW171731  12.423   6.150   5.526
23827SOL    HW271732  12.346   6.021   5.548
23828SOL     OW71733  11.741   3.434   1.583
23828SOL    HW171734  11.727   3.344   1.554
23828SOL    HW271735  11.791   3.425   1.664
23829SOL     OW71736   5.821   5.382   5.482
23829SOL    HW171737   5.784   5.409   5.398
23829SOL    HW271738   5.912   5.413   5.479
23830SOL     OW71739   3.978   4.749   1.853
23830SOL    HW171740   3.936   4.666   1.879
23830SOL    HW271741   4.031   4.726   1.776
23831SOL     OW71742   5.572   4.350   5.171
23831SOL    HW171743   5.482   4.341   5.204
23831SOL    HW271744   5.622   4.383   5.246
23832SOL     OW71745   8.338  12.854   5.532
23832SOL    HW171746   8.379  12.936   5.559
23832SOL    HW271747   8.350  12.850   5.437
23833SOL     OW71748   9.266   9.276   1.760
23833SOL    HW171749   9.309   9.348   1.713
23833SOL    HW271750   9.175   9.282   1.733
23834SOL     OW71751   5.896   8.609   2.341
23834SOL    HW171752   5.977   8.575   2.377
23834SOL    HW271753   5.922   8.689   2.295
23835SOL     OW71754   2.199   3.042   1.126
23835SOL    HW171755   2.237   3.129   1.117
23835SOL    HW271756   2.128   3.054   1.189
23836SOL     OW71757   5.805  13.084   5.562
23836SOL    HW171758   5.900  13.073   5.556
23836SOL    HW271759   5.772  12.997   5.584
23837SOL     OW71760   5.186   7.239   0.938
23837SOL    HW171761   5.094   7.215   0.935
23837SOL    HW271762   5.186   7.332   0.959
23838SOL     OW71763   6.161   1.374   1.298
23838SOL    HW171764   6.075   1.336   1.281
23838SOL    HW271765   6.218   1.300   1.316
23839SOL     OW71766  12.046   3.113   3.632
23839SOL    HW171767  12.017   3.067   3.553
23839SOL    HW271768  11.966   3.134   3.679
23840SOL     OW71769   7.154   7.603   6.486
23840SOL    HW171770   7.085   7.537   6.493
23840SOL    HW271771   7.127   7.672   6.547
23841SOL     OW71772   7.359   7.877   5.006
23841SOL    HW171773   7.452   7.885   5.026
23841SOL    HW271774   7.321   7.961   5.033
23842SOL     OW71775   1.973   4.491   2.116
23842SOL    HW171776   1.951   4.521   2.205
23842SOL    HW271777   1.901   4.522   2.062
23843SOL     OW71778   5.093   6.373   3.734
23843SOL    HW171779   5.168   6.316   3.748
23843SOL    HW271780   5.045   6.371   3.817
23844SOL     OW71781  13.021  11.129   4.709
23844SOL    HW171782  13.032  11.056   4.771
23844SOL    HW271783  13.058  11.205   4.754
23845SOL     OW71784   2.065   5.290   2.496
23845SOL    HW171785   2.112   5.264   2.417
23845SOL    HW271786   2.071   5.385   2.498
23846SOL     OW71787   8.849   9.034   6.677
23846SOL    HW171788   8.835   9.055   6.585
23846SOL    HW271789   8.901   9.107   6.711
23847SOL     OW71790  12.237   5.173   3.544
23847SOL    HW171791  12.304   5.227   3.501
23847SOL    HW271792  12.282   5.092   3.566
23848SOL     OW71793   9.779  12.262   2.228
23848SOL    HW171794   9.764  12.319   2.304
23848SOL    HW271795   9.864  12.290   2.193
23849SOL     OW71796   8.912  12.939   6.733
23849SOL    HW171797   9.003  12.941   6.701
23849SOL    HW271798   8.906  12.856   6.781
23850SOL     OW71799   8.120  10.658   2.048
23850SOL    HW171800   8.212  10.639   2.068
23850SOL    HW271801   8.116  10.754   2.046
23851SOL     OW71802   6.888   8.365   2.579
23851SOL    HW171803   6.883   8.342   2.671
23851SOL    HW271804   6.981   8.354   2.557
23852SOL     OW71805  13.937  14.245   5.280
23852SOL    HW171806  14.025  14.221   5.252
23852SOL    HW271807  13.882  14.229   5.202
23853SOL     OW71808   9.724   2.227   1.884
23853SOL    HW171809   9.765   2.266   1.807
23853SOL    HW271810   9.630   2.233   1.867
23854SOL     OW71811   6.477   9.295   5.932
23854SOL    HW171812   6.552   9.348   5.958
23854SOL    HW271813   6.466   9.232   6.003
23855SOL     OW71814   7.152   8.147   6.798
23855SOL    HW171815   7.136   8.110   6.711
23855SOL    HW271816   7.119   8.237   6.793
23856SOL     OW71817   6.991   9.422   0.652
23856SOL    HW171818   7.057   9.466   0.706
23856SOL    HW271819   7.037   9.348   0.613
23857SOL     OW71820   1.094   3.861   1.162
23857SOL    HW171821   1.043   3.796   1.210
23857SOL    HW271822   1.172   3.875   1.216
23858SOL     OW71823   5.580   6.753   0.629
23858SOL    HW171824   5.496   6.713   0.651
23858SOL    HW271825   5.564   6.847   0.637
23859SOL     OW71826   9.223   8.391   2.453
23859SOL    HW171827   9.148   8.333   2.469
23859SOL    HW271828   9.246   8.376   2.362
23860SOL     OW71829   5.195   7.452   1.709
23860SOL    HW171830   5.170   7.531   1.755
23860SOL    HW271831   5.283   7.470   1.676
23861SOL     OW71832  11.819   8.756   3.221
23861SOL    HW171833  11.804   8.836   3.271
23861SOL    HW271834  11.914   8.743   3.225
23862SOL     OW71835  11.041   8.166   4.305
23862SOL    HW171836  10.952   8.140   4.281
23862SOL    HW271837  11.033   8.203   4.393
23863SOL     OW71838   8.239   6.063   1.124
23863SOL    HW171839   8.146   6.084   1.115
23863SOL    HW271840   8.264   6.103   1.208
23864SOL     OW71841  12.751   6.538   6.667
23864SOL    HW171842  12.773   6.542   6.574
23864SOL    HW271843  12.834   6.522   6.711
23865SOL     OW71844   7.086   9.596   6.273
23865SOL    HW171845   7.032   9.518   6.285
23865SOL    HW271846   7.143   9.597   6.350
23866SOL     OW71847   7.015  12.370   7.543
23866SOL    HW171848   6.946  12.307   7.523
23866SOL    HW271849   6.968  12.452   7.560
23867SOL     OW71850   5.172  12.358   4.511
23867SOL    HW171851   5.191  12.266   4.497
23867SOL    HW271852   5.123  12.384   4.433
23868SOL     OW71853   6.343   9.469   0.308
23868SOL    HW171854   6.351   9.561   0.333
23868SOL    HW271855   6.432   9.442   0.284
23869SOL     OW71856  10.798  14.538   7.254
23869SOL    HW171857  10.880  14.554   7.207
23869SOL    HW271858  10.761  14.461   7.210
23870SOL     OW71859   7.363  13.830   6.590
23870SOL    HW171860   7.427  13.857   6.656
23870SOL    HW271861   7.379  13.736   6.578
23871SOL     OW71862   8.023   7.832   5.319
23871SOL    HW171863   8.096   7.875   5.364
23871SOL    HW271864   7.945   7.876   5.351
23872SOL     OW71865  13.078  10.596   6.062
23872SOL    HW171866  12.997  10.624   6.020
23872SOL    HW271867  13.126  10.678   6.077
23873SOL     OW71868  10.148  11.646   1.892
23873SOL    HW171869  10.109  11.721   1.936
23873SOL    HW271870  10.227  11.681   1.850
23874SOL     OW71871   4.961  10.253   6.252
23874SOL    HW171872   5.025  10.184   6.271
23874SOL    HW271873   5.013  10.324   6.214
23875SOL     OW71874   6.122   4.201   1.798
23875SOL    HW171875   6.077   4.269   1.848
23875SOL    HW271876   6.144   4.134   1.862
23876SOL     OW71877   6.836   6.175   0.173
23876SOL    HW171878   6.896   6.120   0.224
23876SOL    HW271879   6.779   6.216   0.238
23877SOL     OW71880   2.994   7.057   0.684
23877SOL    HW171881   2.985   6.980   0.741
23877SOL    HW271882   2.967   7.130   0.739
23878SOL     OW71883   6.810   7.361   1.158
23878SOL    HW171884   6.882   7.423   1.150
23878SOL    HW271885   6.736   7.404   1.114
23879SOL     OW71886  10.505   3.040   0.180
23879SOL    HW171887  10.484   2.984   0.255
23879SOL    HW271888  10.473   2.990   0.105
23880SOL     OW71889  11.146  10.659   5.148
23880SOL    HW171890  11.185  10.683   5.232
23880SOL    HW271891  11.110  10.740   5.114
23881SOL     OW71892  12.995  10.584   3.986
23881SOL    HW171893  12.996  10.641   4.063
23881SOL    HW271894  12.943  10.632   3.921
23882SOL     OW71895   6.339  12.595   7.155
23882SOL    HW171896   6.364  12.639   7.236
23882SOL    HW271897   6.281  12.524   7.183
23883SOL     OW71898   4.664   9.043   3.720
23883SOL    HW171899   4.686   8.987   3.794
23883SOL    HW271900   4.690   9.131   3.748
23884SOL     OW71901   6.159   3.810   4.194
23884SOL    HW171902   6.189   3.885   4.247
23884SOL    HW271903   6.240   3.765   4.169
23885SOL     OW71904  12.924  10.069   5.943
23885SOL    HW171905  13.005  10.064   5.892
23885SOL    HW271906  12.858  10.029   5.886
23886SOL     OW71907   4.180   9.045   1.758
23886SOL    HW171908   4.172   8.950   1.747
23886SOL    HW271909   4.092   9.074   1.781
23887SOL     OW71910   0.895   7.800   0.598
23887SOL    HW171911   0.801   7.782   0.588
23887SOL    HW271912   0.931   7.720   0.635
23888SOL     OW71913   8.108   7.551   2.963
23888SOL    HW171914   8.092   7.522   3.052
23888SOL    HW271915   8.033   7.607   2.942
23889SOL     OW71916   8.365  10.795   2.027
23889SOL    HW171917   8.431  10.726   2.039
23889SOL    HW271918   8.409  10.875   2.055
23890SOL     OW71919   2.286   7.324   2.814
23890SOL    HW171920   2.297   7.237   2.854
23890SOL    HW271921   2.208   7.360   2.857
23891SOL     OW71922   7.718   7.573   2.557
23891SOL    HW171923   7.740   7.539   2.470
23891SOL    HW271924   7.626   7.549   2.570
23892SOL     OW71925   3.900   3.541   3.585
23892SOL    HW171926   3.847   3.463   3.602
23892SOL    HW271927   3.847   3.613   3.618
23893SOL     OW71928   4.454   5.357   0.341
23893SOL    HW171929   4.502   5.291   0.392
23893SOL    HW271930   4.479   5.340   0.250
23894SOL     OW71931   9.328   7.801   0.817
23894SOL    HW171932   9.377   7.741   0.872
23894SOL    HW271933   9.292   7.746   0.747
23895SOL     OW71934   7.047   8.870   3.101
23895SOL    HW171935   7.137   8.839   3.087
23895SOL    HW271936   7.052   8.925   3.178
23896SOL     OW71937  12.099  11.963   7.478
23896SOL    HW171938  12.097  11.902   7.404
23896SOL    HW271939  12.149  11.917   7.545
23897SOL     OW71940   8.896  12.811   3.711
23897SOL    HW171941   8.979  12.765   3.724
23897SOL    HW271942   8.869  12.787   3.623
23898SOL     OW71943   9.368   8.216   4.434
23898SOL    HW171944   9.366   8.294   4.490
23898SOL    HW271945   9.301   8.233   4.367
23899SOL     OW71946   6.049   7.766   3.948
23899SOL    HW171947   6.121   7.722   3.994
23899SOL    HW271948   6.089   7.802   3.869
23900SOL     OW71949   8.181  10.351   2.170
23900SOL    HW171950   8.165  10.335   2.263
23900SOL    HW271951   8.244  10.423   2.167
23901SOL     OW71952   3.408   7.483   4.140
23901SOL    HW171953   3.404   7.501   4.046
23901SOL    HW271954   3.467   7.550   4.175
23902SOL     OW71955   1.821   9.621   1.561
23902SOL    HW171956   1.726   9.620   1.551
23902SOL    HW271957   1.849   9.532   1.540
23903SOL     OW71958  14.351  10.197   5.555
23903SOL    HW171959  14.273  10.154   5.591
23903SOL    HW271960  14.408  10.126   5.529
23904SOL     OW71961   6.497   5.475   3.562
23904SOL    HW171962   6.527   5.400   3.614
23904SOL    HW271963   6.576   5.505   3.516
23905SOL     OW71964   9.818   6.070   2.404
23905SOL    HW171965   9.759   6.145   2.403
23905SOL    HW271966   9.803   6.029   2.489
23906SOL     OW71967  13.000   8.761   6.962
23906SOL    HW171968  12.962   8.718   6.885
23906SOL    HW271969  13.070   8.702   6.989
23907SOL     OW71970  15.195   5.511   7.440
23907SOL    HW171971  15.163   5.508   7.531
23907SOL    HW271972  15.256   5.585   7.439
23908SOL     OW71973   9.234  10.521   3.571
23908SOL    HW171974   9.200  10.431   3.564
23908SOL    HW271975   9.313  10.512   3.624
23909SOL     OW71976  10.793   8.095   6.653
23909SOL    HW171977  10.762   8.094   6.562
23909SOL    HW271978  10.847   8.017   6.661
23910SOL     OW71979  10.154   8.294   5.832
23910SOL    HW171980  10.247   8.277   5.817
23910SOL    HW271981  10.120   8.319   5.746
23911SOL     OW71982   4.534   7.670   6.047
23911SOL    HW171983   4.570   7.694   6.133
23911SOL    HW271984   4.603   7.617   6.007
23912SOL     OW71985   4.606   2.595   1.945
23912SOL    HW171986   4.579   2.552   1.864
23912SOL    HW271987   4.664   2.666   1.916
23913SOL     OW71988   8.541   7.163   6.922
23913SOL    HW171989   8.609   7.175   6.856
23913SOL    HW271990   8.481   7.098   6.884
23914SOL     OW71991  10.935  10.330   4.908
23914SOL    HW171992  11.029  10.316   4.905
23914SOL    HW271993  10.898  10.242   4.908
23915SOL     OW71994   2.780  11.402   3.762
23915SOL    HW171995   2.756  11.397   3.670
23915SOL    HW271996   2.729  11.475   3.797
23916SOL     OW71997   8.767  10.128   2.056
23916SOL    HW171998   8.741  10.042   2.089
23916SOL    HW271999   8.688  10.181   2.062
23917SOL     OW72000   9.806   9.236   5.275
23917SOL    HW172001   9.728   9.195   5.238
23917SOL    HW272002   9.791   9.235   5.370
23918SOL     OW72003   2.440   7.430   2.347
23918SOL    HW172004   2.356   7.394   2.319
23918SOL    HW272005   2.447   7.514   2.302
23919SOL     OW72006   8.909   3.348   2.091
23919SOL    HW172007   8.858   3.282   2.043
23919SOL    HW272008   8.858   3.428   2.083
23920SOL     OW72009   8.746   2.994   1.769
23920SOL    HW172010   8.802   2.918   1.785
23920SOL    HW272011   8.664   2.973   1.814
23921SOL     OW72012  10.262   7.828   3.563
23921SOL    HW172013  10.332   7.805   3.623
23921SOL    HW272014  10.183   7.795   3.604
23922SOL     OW72015  11.058  14.732   5.609
23922SOL    HW172016  11.014   3.938   5.526
23922SOL    HW272017  10.991  14.776   5.662
23923SOL     OW72018  10.427  11.225   1.387
23923SOL    HW172019  10.445  11.139   1.426
23923SOL    HW272020  10.458  11.287   1.452
23924SOL     OW72021   8.598   6.592   3.822
23924SOL    HW172022   8.542   6.635   3.887
23924SOL    HW272023   8.685   6.627   3.839
23925SOL     OW72024   1.277   9.352   1.679
23925SOL    HW172025   1.265   9.257   1.682
23925SOL    HW272026   1.364   9.367   1.715
23926SOL     OW72027  14.350  13.317   6.929
23926SOL    HW172028  14.343  13.403   6.888
23926SOL    HW272029  14.376  13.258   6.858
23927SOL     OW72030  11.992   4.785   6.707
23927SOL    HW172031  12.018   4.747   6.623
23927SOL    HW272032  12.064   4.845   6.729
23928SOL     OW72033   5.468   9.766   3.884
23928SOL    HW172034   5.425   9.716   3.953
23928SOL    HW272035   5.510   9.839   3.930
23929SOL     OW72036   2.965   2.771   1.453
23929SOL    HW172037   2.983   2.686   1.414
23929SOL    HW272038   2.875   2.764   1.486
23930SOL     OW72039   6.742   3.566   3.019
23930SOL    HW172040   6.831   3.584   3.051
23930SOL    HW272041   6.718   3.645   2.971
23931SOL     OW72042   5.232   6.313   5.154
23931SOL    HW172043   5.318   6.288   5.120
23931SOL    HW272044   5.173   6.308   5.079
23932SOL     OW72045  10.268   4.090   1.198
23932SOL    HW172046  10.354   4.097   1.156
23932SOL    HW272047  10.277   4.018   1.260
23933SOL     OW72048  12.407   5.577   6.649
23933SOL    HW172049  12.314   5.599   6.650
23933SOL    HW272050  12.426   5.543   6.736
23934SOL     OW72051  11.021   8.972   7.546
23934SOL    HW172052  10.932   8.986   7.513
23934SOL    HW272053  11.020   8.884   7.582
23935SOL     OW72054   3.869  11.295   3.522
23935SOL    HW172055   3.922  11.344   3.459
23935SOL    HW272056   3.864  11.207   3.486
23936SOL     OW72057   5.527   9.775   0.623
23936SOL    HW172058   5.604   9.814   0.665
23936SOL    HW272059   5.496   9.709   0.685
23937SOL     OW72060   8.353   5.212   0.193
23937SOL    HW172061   8.389   5.294   0.227
23937SOL    HW272062   8.302   5.239   0.116
23938SOL     OW72063  13.103  11.722   4.224
23938SOL    HW172064  13.139  11.788   4.165
23938SOL    HW272065  13.009  11.736   4.221
23939SOL     OW72066  11.044  10.334   6.527
23939SOL    HW172067  11.030  10.240   6.524
23939SOL    HW272068  10.981  10.370   6.465
23940SOL     OW72069   3.436  11.001   3.096
23940SOL    HW172070   3.463  10.910   3.106
23940SOL    HW272071   3.449  11.040   3.182
23941SOL     OW72072   6.188  12.756   5.840
23941SOL    HW172073   6.201  12.664   5.817
23941SOL    HW272074   6.232  12.766   5.924
23942SOL     OW72075  11.722   6.904   2.672
23942SOL    HW172076  11.810   6.938   2.685
23942SOL    HW272077  11.719   6.880   2.579
23943SOL     OW72078   6.270  10.643   2.385
23943SOL    HW172079   6.291  10.606   2.299
23943SOL    HW272080   6.241  10.567   2.437
23944SOL     OW72081  12.837   6.903   2.971
23944SOL    HW172082  12.824   6.811   2.994
23944SOL    HW272083  12.766   6.949   3.015
23945SOL     OW72084   7.727   9.960   2.427
23945SOL    HW172085   7.658  10.020   2.399
23945SOL    HW272086   7.792   9.963   2.357
23946SOL     OW72087  13.725  12.992   5.225
23946SOL    HW172088  13.737  13.071   5.172
23946SOL    HW272089  13.712  13.024   5.314
23947SOL     OW72090   2.024   3.111   1.319
23947SOL    HW172091   1.951   3.168   1.345
23947SOL    HW272092   1.987   3.023   1.319
23948SOL     OW72093   8.764  15.940   7.361
23948SOL    HW172094   8.779   5.258   7.380
23948SOL    HW272095   8.699  15.912   7.425
23949SOL     OW72096   6.963   4.792   0.761
23949SOL    HW172097   7.055   4.773   0.741
23949SOL    HW272098   6.966   4.870   0.817
23950SOL     OW72099   5.514  14.606   6.679
23950SOL    HW172100   5.432  14.642   6.647
23950SOL    HW272101   5.527  14.649   6.764
23951SOL     OW72102   5.145   5.292   5.633
23951SOL    HW172103   5.190   5.373   5.659
23951SOL    HW272104   5.192   5.223   5.679
23952SOL     OW72105   8.861   9.163   0.902
23952SOL    HW172106   8.865   9.132   0.993
23952SOL    HW272107   8.939   9.127   0.861
23953SOL     OW72108   5.098  12.978   3.523
23953SOL    HW172109   5.112  13.072   3.520
23953SOL    HW272110   5.038  12.965   3.597
23954SOL     OW72111   9.064   8.219   0.598
23954SOL    HW172112   8.969   8.227   0.600
23954SOL    HW272113   9.080   8.125   0.585
23955SOL     OW72114   2.671   5.834   2.870
23955SOL    HW172115   2.682   5.922   2.835
23955SOL    HW272116   2.621   5.846   2.951
23956SOL     OW72117   5.149  14.586   6.757
23956SOL    HW172118   5.166  14.676   6.788
23956SOL    HW272119   5.081  14.554   6.817
23957SOL     OW72120  12.049   5.745   5.559
23957SOL    HW172121  11.954   5.762   5.556
23957SOL    HW272122  12.072   5.756   5.652
23958SOL     OW72123   4.675   4.154   0.488
23958SOL    HW172124   4.693   4.248   0.484
23958SOL    HW272125   4.761   4.112   0.479
23959SOL     OW72126   3.058   2.504   0.605
23959SOL    HW172127   3.149   2.488   0.581
23959SOL    HW272128   3.056   2.598   0.626
23960SOL     OW72129   5.530   6.522   0.207
23960SOL    HW172130   5.517   6.614   0.230
23960SOL    HW272131   5.593   6.491   0.272
23961SOL     OW72132   7.747   3.940   3.483
23961SOL    HW172133   7.812   3.940   3.413
23961SOL    HW272134   7.697   3.859   3.470
23962SOL     OW72135   5.632  10.017   3.138
23962SOL    HW172136   5.578  10.006   3.060
23962SOL    HW272137   5.654   9.928   3.165
23963SOL     OW72138   5.159   3.588   3.319
23963SOL    HW172139   5.226   3.527   3.350
23963SOL    HW272140   5.104   3.605   3.395
23964SOL     OW72141   4.862   7.243   4.041
23964SOL    HW172142   4.814   7.191   3.976
23964SOL    HW272143   4.938   7.189   4.063
23965SOL     OW72144  11.797   7.166   2.519
23965SOL    HW172145  11.741   7.228   2.473
23965SOL    HW272146  11.742   7.130   2.588
23966SOL     OW72147   2.539   7.801   1.950
23966SOL    HW172148   2.623   7.846   1.956
23966SOL    HW272149   2.557   7.721   1.902
23967SOL     OW72150  11.631   6.168   1.893
23967SOL    HW172151  11.619   6.075   1.874
23967SOL    HW272152  11.586   6.213   1.822
23968SOL     OW72153   0.953   8.875   0.904
23968SOL    HW172154   0.882   8.889   0.842
23968SOL    HW272155   0.911   8.838   0.982
23969SOL     OW72156   3.938  12.828   3.879
23969SOL    HW172157   3.901  12.768   3.815
23969SOL    HW272158   3.959  12.907   3.829
23970SOL     OW72159  11.614  12.532   3.124
23970SOL    HW172160  11.647  12.493   3.205
23970SOL    HW272161  11.596  12.457   3.067
23971SOL     OW72162   5.181  11.002   3.537
23971SOL    HW172163   5.154  10.926   3.589
23971SOL    HW272164   5.253  11.041   3.588
23972SOL     OW72165   5.193   8.252   0.940
23972SOL    HW172166   5.223   8.233   0.852
23972SOL    HW272167   5.220   8.343   0.956
23973SOL     OW72168   4.380   8.514   3.842
23973SOL    HW172169   4.321   8.588   3.829
23973SOL    HW272170   4.352   8.475   3.925
23974SOL     OW72171   7.410  15.056   6.815
23974SOL    HW172172   7.409  15.001   6.893
23974SOL    HW272173   7.413  15.146   6.847
23975SOL     OW72174  11.155  11.713   4.381
23975SOL    HW172175  11.197  11.644   4.329
23975SOL    HW272176  11.109  11.665   4.450
23976SOL     OW72177   7.003   9.323   2.903
23976SOL    HW172178   6.944   9.326   2.978
23976SOL    HW272179   6.957   9.372   2.835
23977SOL     OW72180   9.002   4.161   0.784
23977SOL    HW172181   9.035   4.124   0.701
23977SOL    HW272182   9.052   4.115   0.852
23978SOL     OW72183  10.391   7.975   1.470
23978SOL    HW172184  10.406   8.069   1.467
23978SOL    HW272185  10.342   7.961   1.551
23979SOL     OW72186  13.841   9.352   7.242
23979SOL    HW172187  13.777   9.377   7.310
23979SOL    HW272188  13.873   9.266   7.270
23980SOL     OW72189   4.190   7.371   5.478
23980SOL    HW172190   4.269   7.369   5.533
23980SOL    HW272191   4.222   7.351   5.390
23981SOL     OW72192   7.184   6.654   3.783
23981SOL    HW172193   7.134   6.735   3.772
23981SOL    HW272194   7.241   6.650   3.707
23982SOL     OW72195   9.829  11.415   1.361
23982SOL    HW172196   9.912  11.460   1.345
23982SOL    HW272197   9.771  11.484   1.394
23983SOL     OW72198   8.880   5.766   0.145
23983SOL    HW172199   8.955   5.748   0.088
23983SOL    HW272200   8.826   5.826   0.094
23984SOL     OW72201  14.371  11.441   7.395
23984SOL    HW172202  14.333  11.529   7.389
23984SOL    HW272203  14.369  11.408   7.306
23985SOL     OW72204   9.624  10.574   7.089
23985SOL    HW172205   9.675  10.603   7.165
23985SOL    HW272206   9.568  10.505   7.123
23986SOL     OW72207   6.515   6.322   5.289
23986SOL    HW172208   6.596   6.300   5.243
23986SOL    HW272209   6.543   6.361   5.371
23987SOL     OW72210   8.574  11.602   6.311
23987SOL    HW172211   8.607  11.540   6.377
23987SOL    HW272212   8.652  11.635   6.268
23988SOL     OW72213  10.137   1.594   0.819
23988SOL    HW172214  10.209   1.530   0.823
23988SOL    HW272215  10.106   1.599   0.910
23989SOL     OW72216   0.156   1.901   0.076
23989SOL    HW172217   5.544   7.254   7.605
23989SOL    HW272218   0.087   1.967   0.075
23990SOL     OW72219   5.339   3.676   3.125
23990SOL    HW172220   5.276   3.717   3.066
23990SOL    HW272221   5.286   3.646   3.199
23991SOL     OW72222   5.221   5.961   4.336
23991SOL    HW172223   5.209   5.984   4.244
23991SOL    HW272224   5.249   6.043   4.377
23992SOL     OW72225  10.750  11.144   4.419
23992SOL    HW172226  10.792  11.098   4.347
23992SOL    HW272227  10.723  11.076   4.480
23993SOL     OW72228   7.589   2.981   3.663
23993SOL    HW172229   7.499   3.013   3.650
23993SOL    HW272230   7.625   2.975   3.574
23994SOL     OW72231   7.999   6.493   2.667
23994SOL    HW172232   7.957   6.417   2.627
23994SOL    HW272233   7.993   6.562   2.601
23995SOL     OW72234  14.200  10.282   6.127
23995SOL    HW172235  14.114  10.320   6.144
23995SOL    HW272236  14.248  10.293   6.209
23996SOL     OW72237  10.937   1.350   0.372
23996SOL    HW172238  11.008   1.412   0.355
23996SOL    HW272239  10.930   1.348   0.467
23997SOL     OW72240  13.655   5.553   4.308
23997SOL    HW172241  13.725   5.617   4.313
23997SOL    HW272242  13.595   5.576   4.379
23998SOL     OW72243   3.503   3.974   0.434
23998SOL    HW172244   3.541   3.914   0.498
23998SOL    HW272245   3.442   3.921   0.383
23999SOL     OW72246  11.640  12.542   5.956
23999SOL    HW172247  11.602  12.488   6.025
23999SOL    HW272248  11.728  12.507   5.944
24000SOL     OW72249   1.802   7.098   1.749
24000SOL    HW172250   1.896   7.111   1.752
24000SOL    HW272251   1.773   7.153   1.675
24001SOL     OW72252   4.878   9.498   4.718
24001SOL    HW172253   4.957   9.454   4.751
24001SOL    HW272254   4.909   9.584   4.691
24002SOL     OW72255  10.527   9.886   2.947
24002SOL    HW172256  10.596   9.820   2.937
24002SOL    HW272257  10.510   9.890   3.041
24003SOL     OW72258   7.589  12.659   7.373
24003SOL    HW172259   7.623  12.660   7.284
24003SOL    HW272260   7.606  12.748   7.406
24004SOL     OW72261  10.773   3.168   4.114
24004SOL    HW172262  10.762   3.131   4.202
24004SOL    HW272263  10.840   3.112   4.073
24005SOL     OW72264   3.053   3.224   3.140
24005SOL    HW172265   3.137   3.245   3.181
24005SOL    HW272266   2.996   3.297   3.164
24006SOL     OW72267   6.719  12.731   2.843
24006SOL    HW172268   6.718  12.645   2.802
24006SOL    HW272269   6.727  12.713   2.937
24007SOL     OW72270  10.451  12.920   5.504
24007SOL    HW172271  10.451  13.012   5.475
24007SOL    HW272272  10.376  12.914   5.563
24008SOL     OW72273  11.203   9.840   2.476
24008SOL    HW172274  11.164   9.921   2.508
24008SOL    HW272275  11.269   9.817   2.542
24009SOL     OW72276   8.206   7.472   5.096
24009SOL    HW172277   8.181   7.439   5.009
24009SOL    HW272278   8.199   7.567   5.088
24010SOL     OW72279   7.119  10.368   3.082
24010SOL    HW172280   7.088  10.284   3.050
24010SOL    HW272281   7.200  10.348   3.128
24011SOL     OW72282   9.335   2.277   2.255
24011SOL    HW172283   9.414   2.328   2.272
24011SOL    HW272284   9.263   2.338   2.271
24012SOL     OW72285  13.019  13.950   7.250
24012SOL    HW172286  13.043  14.042   7.248
24012SOL    HW272287  13.008  13.930   7.342
24013SOL     OW72288   2.849   4.803   0.179
24013SOL    HW172289   2.823   4.811   0.271
24013SOL    HW272290   2.842   4.892   0.145
24014SOL     OW72291  11.136  14.350   6.863
24014SOL    HW172292  11.096  14.380   6.782
24014SOL    HW272293  11.169  14.263   6.842
24015SOL     OW72294  12.207  11.724   2.651
24015SOL    HW172295  12.225  11.803   2.599
24015SOL    HW272296  12.294  11.692   2.675
24016SOL     OW72297  12.642  12.816   5.757
24016SOL    HW172298  12.598  12.756   5.697
24016SOL    HW272299  12.576  12.837   5.823
24017SOL     OW72300   2.062   7.404   0.585
24017SOL    HW172301   2.011   7.323   0.592
24017SOL    HW272302   2.010   7.459   0.526
24018SOL     OW72303  12.131   7.020   3.772
24018SOL    HW172304  12.202   7.006   3.710
24018SOL    HW272305  12.088   6.934   3.779
24019SOL     OW72306   4.313   8.588   2.736
24019SOL    HW172307   4.338   8.551   2.652
24019SOL    HW272308   4.395   8.622   2.773
24020SOL     OW72309   9.046   5.231   6.523
24020SOL    HW172310   8.977   5.230   6.589
24020SOL    HW272311   9.117   5.180   6.561
24021SOL     OW72312  12.355   9.594   3.536
24021SOL    HW172313  12.340   9.683   3.502
24021SOL    HW272314  12.267   9.562   3.559
24022SOL     OW72315   5.897   9.101   2.085
24022SOL    HW172316   5.855   9.041   2.024
24022SOL    HW272317   5.987   9.070   2.091
24023SOL     OW72318   1.081  10.354   0.038
24023SOL    HW172319   1.064  10.264   0.012
24023SOL    HW272320   0.993  10.392   0.051
24024SOL     OW72321   1.945   4.272   1.822
24024SOL    HW172322   1.931   4.181   1.795
24024SOL    HW272323   1.893   4.282   1.902
24025SOL     OW72324   9.700   8.141   6.825
24025SOL    HW172325   9.654   8.080   6.883
24025SOL    HW272326   9.637   8.213   6.811
24026SOL     OW72327  11.913  14.037   6.979
24026SOL    HW172328  11.941  14.128   6.974
24026SOL    HW272329  11.961  14.002   7.055
24027SOL     OW72330  11.968   9.572   5.124
24027SOL    HW172331  12.021   9.620   5.060
24027SOL    HW272332  12.024   9.499   5.152
24028SOL     OW72333  11.993   7.732   2.022
24028SOL    HW172334  11.995   7.638   2.041
24028SOL    HW272335  11.983   7.738   1.927
24029SOL     OW72336  10.707   4.486   2.272
24029SOL    HW172337  10.669   4.516   2.355
24029SOL    HW272338  10.773   4.552   2.250
24030SOL     OW72339   4.018   4.068   3.484
24030SOL    HW172340   3.923   4.062   3.479
24030SOL    HW272341   4.036   4.160   3.504
24031SOL     OW72342   7.677   3.097   3.957
24031SOL    HW172343   7.704   3.183   3.926
24031SOL    HW272344   7.669   3.044   3.878
24032SOL     OW72345   6.574  11.924   4.009
24032SOL    HW172346   6.605  11.856   4.070
24032SOL    HW272347   6.621  11.906   3.928
24033SOL     OW72348   5.408   8.926   0.665
24033SOL    HW172349   5.469   8.871   0.714
24033SOL    HW272350   5.457   9.005   0.645
24034SOL     OW72351  10.412   8.509   3.289
24034SOL    HW172352  10.330   8.527   3.244
24034SOL    HW272353  10.385   8.472   3.374
24035SOL     OW72354   8.166  15.523   7.413
24035SOL    HW172355   8.074  15.544   7.395
24035SOL    HW272356   8.212  15.606   7.400
24036SOL     OW72357   9.094  12.797   6.024
24036SOL    HW172358   9.116  12.887   6.000
24036SOL    HW272359   9.150  12.778   6.100
24037SOL     OW72360   7.088  11.296   3.270
24037SOL    HW172361   7.180  11.273   3.285
24037SOL    HW272362   7.041  11.212   3.276
24038SOL     OW72363   4.052   8.268   1.606
24038SOL    HW172364   4.105   8.312   1.539
24038SOL    HW272365   4.073   8.176   1.596
24039SOL     OW72366   1.510   6.587   0.352
24039SOL    HW172367   1.469   6.501   0.349
24039SOL    HW272368   1.445   6.647   0.315
24040SOL     OW72369   6.925  12.201   6.343
24040SOL    HW172370   6.949  12.263   6.274
24040SOL    HW272371   6.977  12.123   6.324
24041SOL     OW72372   6.124   9.067   6.036
24041SOL    HW172373   6.104   9.154   6.069
24041SOL    HW272374   6.201   9.080   5.980
24042SOL     OW72375   8.363  11.155   3.011
24042SOL    HW172376   8.309  11.144   2.932
24042SOL    HW272377   8.311  11.210   3.068
24043SOL     OW72378   9.648  11.535   3.023
24043SOL    HW172379   9.656  11.625   3.055
24043SOL    HW272380   9.615  11.486   3.098
24044SOL     OW72381   5.628   5.949   2.361
24044SOL    HW172382   5.678   6.031   2.368
24044SOL    HW272383   5.694   5.881   2.354
24045SOL     OW72384  10.075   8.186   3.149
24045SOL    HW172385  10.070   8.211   3.241
24045SOL    HW272386   9.986   8.194   3.117
24046SOL     OW72387  13.836   9.092   4.434
24046SOL    HW172388   3.088   9.148   4.361
24046SOL    HW272389  13.740   9.093   4.431
24047SOL     OW72390   5.798   6.032   1.884
24047SOL    HW172391   5.841   6.032   1.798
24047SOL    HW272392   5.768   6.122   1.895
24048SOL     OW72393  11.794  13.231   5.845
24048SOL    HW172394  11.710  13.275   5.856
24048SOL    HW272395  11.835  13.275   5.770
24049SOL     OW72396  10.946   6.457   5.936
24049SOL    HW172397  10.942   6.541   5.981
24049SOL    HW272398  11.040   6.441   5.925
24050SOL     OW72399   4.467   4.854   1.301
24050SOL    HW172400   4.552   4.866   1.258
24050SOL    HW272401   4.477   4.772   1.349
24051SOL     OW72402  11.927   8.399   6.414
24051SOL    HW172403  11.935   8.320   6.360
24051SOL    HW272404  12.013   8.411   6.453
24052SOL     OW72405   2.612   4.889   2.170
24052SOL    HW172406   2.625   4.983   2.186
24052SOL    HW272407   2.610   4.850   2.258
24053SOL     OW72408   3.484  12.500   2.512
24053SOL    HW172409   3.431   1.727   2.432
24053SOL    HW272410   3.439  12.437   2.569
24054SOL     OW72411  12.917   9.821   3.591
24054SOL    HW172412  12.944   9.912   3.585
24054SOL    HW272413  12.874   9.814   3.676
24055SOL     OW72414   5.936   1.226   1.271
24055SOL    HW172415   5.878   1.204   1.344
24055SOL    HW272416   5.885   1.209   1.193
24056SOL     OW72417   1.582   3.128   0.483
24056SOL    HW172418   1.519   3.154   0.416
24056SOL    HW272419   1.547   3.047   0.519
24057SOL     OW72420   9.822   8.857   0.216
24057SOL    HW172421   9.818   8.863   0.121
24057SOL    HW272422   9.853   8.768   0.233
24058SOL     OW72423  10.623   4.561   3.767
24058SOL    HW172424  10.625   4.471   3.734
24058SOL    HW272425  10.615   4.551   3.862
24059SOL     OW72426  13.093   4.462   4.637
24059SOL    HW172427  13.176   4.415   4.644
24059SOL    HW272428  13.075   4.492   4.726
24060SOL     OW72429   7.610   4.773   2.894
24060SOL    HW172430   7.563   4.847   2.931
24060SOL    HW272431   7.618   4.711   2.967
24061SOL     OW72432   2.210   7.325   1.098
24061SOL    HW172433   2.154   7.355   1.169
24061SOL    HW272434   2.217   7.231   1.110
24062SOL     OW72435  13.044   8.952   5.529
24062SOL    HW172436  13.062   8.915   5.616
24062SOL    HW272437  13.052   9.046   5.541
24063SOL     OW72438   4.039   6.712   1.924
24063SOL    HW172439   4.084   6.765   1.990
24063SOL    HW272440   3.947   6.716   1.949
24064SOL     OW72441   1.844   0.273   0.077
24064SOL    HW172442   1.895   0.343   0.119
24064SOL    HW272443   1.838   0.205   0.144
24065SOL     OW72444  14.310  14.438   5.674
24065SOL    HW172445  14.359  14.411   5.597
24065SOL    HW272446  14.326  14.369   5.738
24066SOL     OW72447   7.641  15.223   7.440
24066SOL    HW172448   7.709  15.291   7.438
24066SOL    HW272449   7.678  15.154   7.495
24067SOL     OW72450  10.763   6.797   4.409
24067SOL    HW172451  10.696   6.728   4.407
24067SOL    HW272452  10.813   6.780   4.489
24068SOL     OW72453   7.510  12.334   2.515
24068SOL    HW172454   7.557  12.418   2.518
24068SOL    HW272455   7.516  12.300   2.604
24069SOL     OW72456   8.504  13.821   5.430
24069SOL    HW172457   8.510  13.753   5.497
24069SOL    HW272458   8.520  13.776   5.347
24070SOL     OW72459  11.610   7.847   3.411
24070SOL    HW172460  11.571   7.781   3.469
24070SOL    HW272461  11.640   7.916   3.469
24071SOL     OW72462   4.766   2.787   1.841
24071SOL    HW172463   4.785   2.874   1.877
24071SOL    HW272464   4.833   2.774   1.774
24072SOL     OW72465  13.291  10.400   4.533
24072SOL    HW172466  13.312  10.425   4.623
24072SOL    HW272467  13.371  10.420   4.484
24073SOL     OW72468   5.078   3.939   3.355
24073SOL    HW172469   5.147   3.918   3.293
24073SOL    HW272470   5.058   4.031   3.338
24074SOL     OW72471  10.596   7.165   5.413
24074SOL    HW172472  10.594   7.093   5.475
24074SOL    HW272473  10.553   7.131   5.335
24075SOL     OW72474   8.355  11.485   3.542
24075SOL    HW172475   8.367  11.516   3.452
24075SOL    HW272476   8.287  11.418   3.535
24076SOL     OW72477  12.484   5.032   3.919
24076SOL    HW172478  12.507   4.942   3.942
24076SOL    HW272479  12.495   5.081   4.000
24077SOL     OW72480   6.194  10.951   6.429
24077SOL    HW172481   6.240  10.996   6.500
24077SOL    HW272482   6.174  10.865   6.465
24078SOL     OW72483   8.796   7.535   5.923
24078SOL    HW172484   8.786   7.449   5.880
24078SOL    HW272485   8.885   7.561   5.902
24079SOL     OW72486  11.106  11.805   1.705
24079SOL    HW172487  11.173  11.796   1.773
24079SOL    HW272488  11.028  11.767   1.743
24080SOL     OW72489   7.748   7.329   6.906
24080SOL    HW172490   7.838   7.339   6.937
24080SOL    HW272491   7.753   7.349   6.812
24081SOL     OW72492   6.563   8.515   4.044
24081SOL    HW172493   6.520   8.449   3.989
24081SOL    HW272494   6.491   8.562   4.086
24082SOL     OW72495   3.560   8.544   0.481
24082SOL    HW172496   3.515   8.563   0.563
24082SOL    HW272497   3.527   8.608   0.419
24083SOL     OW72498   6.983  12.608   2.790
24083SOL    HW172499   7.000  12.684   2.845
24083SOL    HW272500   6.893  12.583   2.810
24084SOL     OW72501  11.647   2.361   3.236
24084SOL    HW172502  11.730   2.397   3.268
24084SOL    HW272503  11.592   2.356   3.314
24085SOL     OW72504  11.873   4.173   4.186
24085SOL    HW172505  11.927   4.250   4.171
24085SOL    HW272506  11.934   4.099   4.182
24086SOL     OW72507   4.732  11.224   5.938
24086SOL    HW172508   4.766  11.310   5.960
24086SOL    HW272509   4.643  11.241   5.905
24087SOL     OW72510  10.796  14.064   7.527
24087SOL    HW172511  10.877  14.073   7.576
24087SOL    HW272512  10.801  14.131   7.459
24088SOL     OW72513   7.756   7.875   6.127
24088SOL    HW172514   7.750   7.822   6.206
24088SOL    HW272515   7.796   7.957   6.157
24089SOL     OW72516   4.839   8.794   5.634
24089SOL    HW172517   4.848   8.884   5.603
24089SOL    HW272518   4.751   8.790   5.671
24090SOL     OW72519  12.107  13.724   5.765
24090SOL    HW172520  12.196  13.755   5.746
24090SOL    HW272521  12.056  13.752   5.690
24091SOL     OW72522   2.444   1.608   1.502
24091SOL    HW172523   2.420   1.547   1.432
24091SOL    HW272524   2.539   1.598   1.510
24092SOL     OW72525   7.871  10.351   7.273
24092SOL    HW172526   7.920  10.321   7.350
24092SOL    HW272527   7.816  10.277   7.249
24093SOL     OW72528   7.423   6.579   3.239
24093SOL    HW172529   7.370   6.576   3.160
24093SOL    HW272530   7.462   6.492   3.245
24094SOL     OW72531   9.248   0.924   0.564
24094SOL    HW172532   9.225   0.851   0.507
24094SOL    HW272533   9.343   0.922   0.568
24095SOL     OW72534   9.001   5.060   2.719
24095SOL    HW172535   9.039   5.144   2.691
24095SOL    HW272536   8.975   5.074   2.810
24096SOL     OW72537  10.019  13.819   6.485
24096SOL    HW172538  10.008  13.914   6.484
24096SOL    HW272539  10.033  13.795   6.393
24097SOL     OW72540  11.552  10.339   7.202
24097SOL    HW172541  11.600  10.303   7.276
24097SOL    HW272542  11.527  10.262   7.150
24098SOL     OW72543   1.876   3.902   2.653
24098SOL    HW172544  12.629   3.994   2.636
24098SOL    HW272545   1.941   3.905   2.724
24099SOL     OW72546   9.423   7.302   1.779
24099SOL    HW172547   9.437   7.299   1.874
24099SOL    HW272548   9.328   7.299   1.769
24100SOL     OW72549   9.441   9.384   5.537
24100SOL    HW172550   9.517   9.379   5.478
24100SOL    HW272551   9.479   9.405   5.622
24101SOL     OW72552  11.957  11.996   3.637
24101SOL    HW172553  11.888  12.026   3.578
24101SOL    HW272554  11.923  11.915   3.676
24102SOL     OW72555   0.972   4.732   0.112
24102SOL    HW172556   0.885   4.745   0.150
24102SOL    HW272557   0.973   4.789   0.036
24103SOL     OW72558  13.934   5.062   4.672
24103SOL    HW172559  13.862   5.094   4.728
24103SOL    HW272560  13.955   4.976   4.708
24104SOL     OW72561   2.691   5.995   1.949
24104SOL    HW172562   2.683   6.029   1.859
24104SOL    HW272563   2.700   5.901   1.938
24105SOL     OW72564   1.739   5.451   2.433
24105SOL    HW172565  12.528   5.506   2.509
24105SOL    HW272566   1.802   5.482   2.368
24106SOL     OW72567   9.395   7.167   1.461
24106SOL    HW172568   9.318   7.216   1.489
24106SOL    HW272569   9.361   7.100   1.401
24107SOL     OW72570   5.279   8.071   0.257
24107SOL    HW172571   5.318   7.998   0.209
24107SOL    HW272572   5.354   8.122   0.288
24108SOL     OW72573  10.647  11.587   4.677
24108SOL    HW172574  10.671  11.655   4.741
24108SOL    HW272575  10.612  11.637   4.603
24109SOL     OW72576  11.580  12.162   7.457
24109SOL    HW172577  11.535  12.090   7.502
24109SOL    HW272578  11.664  12.170   7.502
24110SOL     OW72579  11.193   6.054   7.414
24110SOL    HW172580  11.144   5.989   7.464
24110SOL    HW272581  11.192   6.021   7.324
24111SOL     OW72582  10.387   4.233   4.026
24111SOL    HW172583  10.329   4.234   3.950
24111SOL    HW272584  10.329   4.217   4.100
24112SOL     OW72585   1.896  11.037   2.173
24112SOL    HW172586   1.927  11.120   2.136
24112SOL    HW272587   1.809  11.057   2.208
24113SOL     OW72588   7.742  11.005   5.422
24113SOL    HW172589   7.756  11.009   5.328
24113SOL    HW272590   7.664  10.952   5.433
24114SOL     OW72591  11.436  11.003   2.077
24114SOL    HW172592  11.501  11.071   2.056
24114SOL    HW272593  11.403  10.975   1.993
24115SOL     OW72594   7.343   1.829   0.804
24115SOL    HW172595   7.318   1.920   0.819
24115SOL    HW272596   7.374   1.798   0.889
24116SOL     OW72597   9.592   6.553   2.816
24116SOL    HW172598   9.657   6.596   2.760
24116SOL    HW272599   9.629   6.557   2.904
24117SOL     OW72600   1.974   3.494   1.639
24117SOL    HW172601   2.044   3.558   1.648
24117SOL    HW272602   1.939   3.484   1.728
24118SOL     OW72603   4.004   8.684   5.623
24118SOL    HW172604  14.699   8.725   5.589
24118SOL    HW272605   4.071   8.703   5.557
24119SOL     OW72606   1.509  10.240   2.057
24119SOL    HW172607   1.604  10.231   2.063
24119SOL    HW272608   1.483  10.175   1.992
24120SOL     OW72609   8.249   7.603   0.030
24120SOL    HW172610   8.166   7.571   0.066
24120SOL    HW272611  13.610  13.055   7.583
24121SOL     OW72612  14.815  13.519   6.905
24121SOL    HW172613  14.832  13.459   6.978
24121SOL    HW272614  14.722  13.540   6.912
24122SOL     OW72615  10.367   3.437   2.274
24122SOL    HW172616  10.312   3.385   2.216
24122SOL    HW272617  10.402   3.507   2.219
24123SOL     OW72618   3.507   2.059   1.046
24123SOL    HW172619   3.418   2.027   1.033
24123SOL    HW272620   3.549   1.992   1.100
24124SOL     OW72621   5.278   4.388   3.987
24124SOL    HW172622   5.266   4.460   3.926
24124SOL    HW272623   5.346   4.334   3.947
24125SOL     OW72624   1.505   3.359   1.269
24125SOL    HW172625   1.500   3.452   1.248
24125SOL    HW272626   1.531   3.317   1.187
24126SOL     OW72627  11.353   8.172   2.762
24126SOL    HW172628  11.275   8.154   2.815
24126SOL    HW272629  11.319   8.184   2.673
24127SOL     OW72630   7.973   7.825   0.950
24127SOL    HW172631   7.915   7.832   1.026
24127SOL    HW272632   7.939   7.751   0.900
24128SOL     OW72633   5.339   8.047   2.747
24128SOL    HW172634   5.246   8.065   2.730
24128SOL    HW272635   5.339   8.001   2.831
24129SOL     OW72636   9.376  11.347   6.480
24129SOL    HW172637   9.449  11.303   6.525
24129SOL    HW272638   9.382  11.316   6.390
24130SOL     OW72639   4.834  11.236   5.362
24130SOL    HW172640   4.817  11.323   5.399
24130SOL    HW272641   4.752  11.188   5.376
24131SOL     OW72642   6.571   8.493   6.730
24131SOL    HW172643   6.525   8.572   6.758
24131SOL    HW272644   6.501   8.433   6.703
24132SOL     OW72645   9.287   5.730   6.322
24132SOL    HW172646   9.278   5.635   6.336
24132SOL    HW272647   9.379   5.742   6.298
24133SOL     OW72648   3.118   5.815   0.790
24133SOL    HW172649   3.069   5.813   0.873
24133SOL    HW272650   3.192   5.756   0.805
24134SOL     OW72651  10.868   2.044   0.632
24134SOL    HW172652  10.909   2.048   0.546
24134SOL    HW272653  10.774   2.043   0.614
24135SOL     OW72654   8.450   9.948   5.946
24135SOL    HW172655   8.480  10.038   5.935
24135SOL    HW272656   8.492   9.918   6.027
24136SOL     OW72657   7.974   5.639   4.815
24136SOL    HW172658   7.950   5.652   4.907
24136SOL    HW272659   7.966   5.726   4.775
24137SOL     OW72660  11.773  12.101   3.439
24137SOL    HW172661  11.684  12.125   3.464
24137SOL    HW272662  11.762  12.025   3.381
24138SOL     OW72663   3.055  11.240   2.440
24138SOL    HW172664   2.982  11.265   2.383
24138SOL    HW272665   3.087  11.158   2.403
24139SOL     OW72666  11.995   7.221   5.636
24139SOL    HW172667  12.061   7.161   5.601
24139SOL    HW272668  11.913   7.190   5.598
24140SOL     OW72669  11.825   2.837   2.708
24140SOL    HW172670  11.890   2.794   2.764
24140SOL    HW272671  11.875   2.867   2.632
24141SOL     OW72672   8.158   8.886   4.897
24141SOL    HW172673   8.130   8.975   4.875
24141SOL    HW272674   8.079   8.843   4.928
24142SOL     OW72675  12.033   6.613   4.799
24142SOL    HW172676  12.103   6.661   4.844
24142SOL    HW272677  11.983   6.681   4.754
24143SOL     OW72678   3.243   6.335   1.451
24143SOL    HW172679   3.315   6.379   1.497
24143SOL    HW272680   3.258   6.357   1.359
24144SOL     OW72681   7.954   7.092   1.360
24144SOL    HW172682   7.919   7.030   1.424
24144SOL    HW272683   7.878   7.117   1.307
24145SOL     OW72684   9.236   5.189   5.872
24145SOL    HW172685   9.328   5.195   5.847
24145SOL    HW272686   9.235   5.130   5.948
24146SOL     OW72687  11.709   9.279   5.181
24146SOL    HW172688  11.622   9.300   5.213
24146SOL    HW272689  11.765   9.284   5.259
24147SOL     OW72690   8.248   5.527   2.270
24147SOL    HW172691   8.198   5.597   2.228
24147SOL    HW272692   8.212   5.446   2.232
24148SOL     OW72693   4.339   4.351   4.036
24148SOL    HW172694   4.264   4.402   4.006
24148SOL    HW272695   4.405   4.416   4.058
24149SOL     OW72696   5.223   5.556   0.329
24149SOL    HW172697   5.196   5.512   0.410
24149SOL    HW272698   5.156   5.623   0.315
24150SOL     OW72699   9.432   6.163   2.535
24150SOL    HW172700   9.362   6.222   2.508
24150SOL    HW272701   9.510   6.196   2.490
24151SOL     OW72702   9.234   7.821   0.147
24151SOL    HW172703   9.289   7.899   0.144
24151SOL    HW272704   9.154   7.846   0.100
24152SOL     OW72705   7.231  12.906   4.476
24152SOL    HW172706   7.145  12.905   4.519
24152SOL    HW272707   7.287  12.955   4.536
24153SOL     OW72708   9.701   8.701   3.553
24153SOL    HW172709   9.630   8.728   3.612
24153SOL    HW272710   9.779   8.744   3.589
24154SOL     OW72711  11.384   7.382   3.508
24154SOL    HW172712  11.322   7.451   3.487
24154SOL    HW272713  11.357   7.349   3.594
24155SOL     OW72714   3.445   1.935   1.846
24155SOL    HW172715   3.436   2.016   1.795
24155SOL    HW272716   3.421   1.961   1.936
24156SOL     OW72717   6.423   3.996   1.736
24156SOL    HW172718   6.465   4.069   1.691
24156SOL    HW272719   6.343   3.980   1.686
24157SOL     OW72720   8.264   5.125   6.983
24157SOL    HW172721   8.329   5.190   6.957
24157SOL    HW272722   8.315   5.050   7.012
24158SOL     OW72723  10.204   4.365   5.094
24158SOL    HW172724  10.164   4.300   5.152
24158SOL    HW272725  10.193   4.448   5.141
24159SOL     OW72726  10.444   1.767   0.761
24159SOL    HW172727  10.440   1.673   0.743
24159SOL    HW272728  10.394   1.808   0.690
24160SOL     OW72729  11.034  12.287   4.025
24160SOL    HW172730  11.057  12.355   3.961
24160SOL    HW272731  11.047  12.204   3.978
24161SOL     OW72732   1.811  10.029   1.274
24161SOL    HW172733   1.768   9.946   1.252
24161SOL    HW272734   1.904  10.009   1.275
24162SOL     OW72735   9.524   6.821   6.990
24162SOL    HW172736   9.517   6.841   7.084
24162SOL    HW272737   9.440   6.849   6.954
24163SOL     OW72738   7.604  12.421   6.484
24163SOL    HW172739   7.666  12.473   6.535
24163SOL    HW272740   7.654  12.345   6.455
24164SOL     OW72741  11.292  10.176   2.351
24164SOL    HW172742  11.212  10.136   2.385
24164SOL    HW272743  11.363  10.133   2.397
24165SOL     OW72744   9.044   5.462   2.984
24165SOL    HW172745   9.094   5.422   3.056
24165SOL    HW272746   8.957   5.424   2.992
24166SOL     OW72747  14.425   4.151   5.839
24166SOL    HW172748  14.366  14.851   5.837
24166SOL    HW272749  14.381   4.215   5.895
24167SOL     OW72750   6.346   5.902   5.039
24167SOL    HW172751   6.315   5.985   5.075
24167SOL    HW272752   6.376   5.924   4.950
24168SOL     OW72753  11.486  13.261   5.786
24168SOL    HW172754  11.517  13.186   5.836
24168SOL    HW272755  11.401  13.235   5.751
24169SOL     OW72756  14.796  10.832   5.764
24169SOL    HW172757  14.752  10.778   5.830
24169SOL    HW272758  14.818  10.913   5.810
24170SOL     OW72759   5.767  10.584   5.314
24170SOL    HW172760   5.795  10.621   5.398
24170SOL    HW272761   5.720  10.655   5.271
24171SOL     OW72762   4.390  10.069   4.400
24171SOL    HW172763   4.450  10.118   4.344
24171SOL    HW272764   4.309  10.063   4.350
24172SOL     OW72765  11.439   6.295   6.307
24172SOL    HW172766  11.345   6.302   6.323
24172SOL    HW272767  11.474   6.253   6.386
24173SOL     OW72768   3.878   4.622   3.993
24173SOL    HW172769   3.919   4.662   4.070
24173SOL    HW272770   3.836   4.543   4.026
24174SOL     OW72771   7.197   7.045   6.569
24174SOL    HW172772   7.168   6.981   6.633
24174SOL    HW272773   7.116   7.074   6.526
24175SOL     OW72774   8.273   9.209   2.390
24175SOL    HW172775   8.245   9.251   2.471
24175SOL    HW272776   8.195   9.165   2.357
24176SOL     OW72777   7.192   9.456   5.946
24176SOL    HW172778   7.230   9.370   5.927
24176SOL    HW272779   7.251   9.494   6.011
24177SOL     OW72780  11.768  10.809   2.920
24177SOL    HW172781  11.852  10.764   2.919
24177SOL    HW272782  11.769  10.862   2.840
24178SOL     OW72783   5.498   6.243   3.883
24178SOL    HW172784   5.535   6.260   3.796
24178SOL    HW272785   5.499   6.329   3.926
24179SOL     OW72786   4.657   0.605   0.087
24179SOL    HW172787   4.709   0.610   0.006
24179SOL    HW272788   4.608   0.687   0.088
24180SOL     OW72789  13.965   7.161   4.758
24180SOL    HW172790  13.951   7.215   4.835
24180SOL    HW272791  13.877   7.146   4.722
24181SOL     OW72792   8.930  11.100   6.932
24181SOL    HW172793   8.928  11.177   6.989
24181SOL    HW272794   9.019  11.099   6.897
24182SOL     OW72795   6.291   7.367   0.456
24182SOL    HW172796   6.307   7.312   0.379
24182SOL    HW272797   6.352   7.440   0.447
24183SOL     OW72798  12.540  13.968   6.110
24183SOL    HW172799  12.563  13.880   6.138
24183SOL    HW272800  12.617  14.021   6.131
24184SOL     OW72801   6.700   5.873   5.188
24184SOL    HW172802   6.765   5.902   5.123
24184SOL    HW272803   6.670   5.954   5.229
24185SOL     OW72804   3.202  12.452   3.184
24185SOL    HW172805   3.259  12.472   3.258
24185SOL    HW272806   3.151  12.533   3.171
24186SOL     OW72807   9.653  14.849   6.680
24186SOL    HW172808   9.687  14.885   6.762
24186SOL    HW272809   9.585  14.787   6.707
24187SOL     OW72810   2.631   1.660   1.154
24187SOL    HW172811   2.653   1.589   1.215
24187SOL    HW272812   2.629   1.738   1.209
24188SOL     OW72813   6.904   9.491   4.030
24188SOL    HW172814   6.937   9.564   3.979
24188SOL    HW272815   6.976   9.428   4.032
24189SOL     OW72816   5.475   6.908   6.890
24189SOL    HW172817   5.567   6.885   6.902
24189SOL    HW272818   5.476   7.000   6.863
24190SOL     OW72819   7.945  13.989   7.580
24190SOL    HW172820   2.497   8.644   0.021
24190SOL    HW272821   7.919  13.897   7.579
24191SOL     OW72822   3.823   4.954   2.793
24191SOL    HW172823   3.764   5.026   2.812
24191SOL    HW272824   3.903   4.974   2.842
24192SOL     OW72825   4.339   9.916   5.966
24192SOL    HW172826   4.370   9.902   5.877
24192SOL    HW272827   4.330   9.828   6.003
24193SOL     OW72828  15.262  13.723   7.020
24193SOL    HW172829  15.197  13.779   6.979
24193SOL    HW272830  15.314  13.689   6.948
24194SOL     OW72831   8.007  11.184   2.415
24194SOL    HW172832   8.049  11.208   2.332
24194SOL    HW272833   7.915  11.208   2.404
24195SOL     OW72834   8.738   1.498   1.457
24195SOL    HW172835   8.737   1.591   1.433
24195SOL    HW272836   8.770   1.454   1.378
24196SOL     OW72837   7.661   3.762   1.342
24196SOL    HW172838   7.643   3.695   1.409
24196SOL    HW272839   7.579   3.771   1.294
24197SOL     OW72840   9.170   3.925   3.378
24197SOL    HW172841   9.214   3.842   3.356
24197SOL    HW272842   9.213   3.990   3.323
24198SOL     OW72843   4.924  14.161   5.194
24198SOL    HW172844   4.898  14.248   5.225
24198SOL    HW272845   4.959  14.176   5.107
24199SOL     OW72846  13.651  13.928   7.352
24199SOL    HW172847  13.650  13.955   7.444
24199SOL    HW272848  13.737  13.887   7.341
24200SOL     OW72849   8.245   4.521   0.802
24200SOL    HW172850   8.203   4.595   0.847
24200SOL    HW272851   8.291   4.561   0.728
24201SOL     OW72852   1.309   6.354   1.525
24201SOL    HW172853   1.223   6.313   1.527
24201SOL    HW272854   1.291   6.447   1.510
24202SOL     OW72855   5.876   6.992   5.046
24202SOL    HW172856   5.970   6.991   5.063
24202SOL    HW272857   5.868   6.985   4.951
24203SOL     OW72858   4.334  12.423   3.300
24203SOL    HW172859   4.279  12.485   3.252
24203SOL    HW272860   4.307  12.337   3.268
24204SOL     OW72861  11.326  13.282   7.287
24204SOL    HW172862  11.253  13.231   7.323
24204SOL    HW272863  11.402  13.224   7.295
24205SOL     OW72864   2.160   7.592   2.694
24205SOL    HW172865   2.217   7.667   2.710
24205SOL    HW272866   2.090   7.602   2.758
24206SOL     OW72867   9.615   2.606   1.290
24206SOL    HW172868   9.558   2.681   1.308
24206SOL    HW272869   9.621   2.603   1.195
24207SOL     OW72870   6.392   6.739   4.401
24207SOL    HW172871   6.341   6.696   4.470
24207SOL    HW272872   6.474   6.763   4.444
24208SOL     OW72873  10.362  14.339   7.564
24208SOL    HW172874  10.350  14.341   7.469
24208SOL    HW272875  10.278  14.370   7.598
24209SOL     OW72876   7.450  14.969   6.314
24209SOL    HW172877   7.410  15.007   6.393
24209SOL    HW272878   7.416  15.023   6.242
24210SOL     OW72879   2.483  10.414   2.956
24210SOL    HW172880   2.536  10.422   2.877
24210SOL    HW272881   2.546  10.414   3.028
24211SOL     OW72882   4.252  11.872   4.719
24211SOL    HW172883   4.218  11.841   4.802
24211SOL    HW272884   4.219  11.809   4.654
24212SOL     OW72885  10.625  11.594   5.802
24212SOL    HW172886  10.529  11.596   5.801
24212SOL    HW272887  10.650  11.634   5.719
24213SOL     OW72888  13.494  14.703   6.601
24213SOL    HW172889  13.412  14.724   6.556
24213SOL    HW272890  13.559  14.761   6.560
24214SOL     OW72891  11.294   6.159   1.646
24214SOL    HW172892  11.278   6.153   1.740
24214SOL    HW272893  11.234   6.227   1.615
24215SOL     OW72894   7.162  12.957   7.549
24215SOL    HW172895   7.220  13.005   7.490
24215SOL    HW272896   7.110  13.026   7.593
24216SOL     OW72897   5.260   6.812   3.115
24216SOL    HW172898   5.356   6.814   3.109
24216SOL    HW272899   5.232   6.891   3.068
24217SOL     OW72900   9.563   4.210   3.592
24217SOL    HW172901   9.647   4.173   3.621
24217SOL    HW272902   9.546   4.169   3.507
24218SOL     OW72903  10.412   9.323   2.680
24218SOL    HW172904  10.334   9.379   2.686
24218SOL    HW272905  10.485   9.382   2.700
24219SOL     OW72906  11.373   5.269   6.850
24219SOL    HW172907  11.465   5.290   6.865
24219SOL    HW272908  11.330   5.355   6.843
24220SOL     OW72909  10.614   6.367   6.374
24220SOL    HW172910  10.538   6.357   6.317
24220SOL    HW272911  10.584   6.335   6.459
24221SOL     OW72912   7.571  10.874   2.133
24221SOL    HW172913   7.592  10.956   2.177
24221SOL    HW272914   7.645  10.859   2.074
24222SOL     OW72915   8.686   2.924   0.776
24222SOL    HW172916   8.736   2.998   0.809
24222SOL    HW272917   8.594   2.949   0.789
24223SOL     OW72918   8.882  12.779   3.147
24223SOL    HW172919   8.887  12.864   3.191
24223SOL    HW272920   8.922  12.795   3.061
24224SOL     OW72921   3.516   1.211   1.264
24224SOL    HW172922   3.495   1.296   1.226
24224SOL    HW272923   3.441   1.191   1.319
24225SOL     OW72924  14.159   7.363   5.745
24225SOL    HW172925  14.073   7.345   5.706
24225SOL    HW272926  14.198   7.430   5.688
24226SOL     OW72927   3.084   5.575   3.983
24226SOL    HW172928   3.070   5.587   3.889
24226SOL    HW272929   3.120   5.486   3.990
24227SOL     OW72930   9.126   7.907   6.210
24227SOL    HW172931   9.213   7.945   6.197
24227SOL    HW272932   9.138   7.839   6.275
24228SOL     OW72933   6.844   9.770   7.050
24228SOL    HW172934   6.778   9.757   6.982
24228SOL    HW272935   6.842   9.864   7.068
24229SOL     OW72936  12.123   9.910   5.217
24229SOL    HW172937  12.105   9.999   5.247
24229SOL    HW272938  12.203   9.885   5.264
24230SOL     OW72939   8.725   7.305   4.764
24230SOL    HW172940   8.810   7.347   4.769
24230SOL    HW272941   8.739   7.229   4.707
24231SOL     OW72942   4.508  12.498   5.524
24231SOL    HW172943   4.528  12.413   5.562
24231SOL    HW272944   4.414  12.508   5.535
24232SOL     OW72945   8.328   7.106   0.959
24232SOL    HW172946   8.321   7.196   0.928
24232SOL    HW272947   8.347   7.114   1.052
24233SOL     OW72948   8.054   9.653   3.135
24233SOL    HW172949   8.127   9.709   3.108
24233SOL    HW272950   8.084   9.564   3.117
24234SOL     OW72951   9.923   5.142   5.434
24234SOL    HW172952   9.832   5.171   5.446
24234SOL    HW272953   9.931   5.126   5.340
24235SOL     OW72954  12.619   2.943   2.822
24235SOL    HW172955  12.547   2.970   2.764
24235SOL    HW272956  12.636   3.020   2.876
24236SOL     OW72957   9.589  11.968   6.304
24236SOL    HW172958   9.583  12.042   6.365
24236SOL    HW272959   9.516  11.911   6.329
24237SOL     OW72960  13.553   9.902   7.225
24237SOL    HW172961  13.534   9.833   7.289
24237SOL    HW272962  13.516   9.981   7.265
24238SOL     OW72963   6.402   3.294   0.750
24238SOL    HW172964   6.374   3.203   0.739
24238SOL    HW272965   6.347   3.343   0.689
24239SOL     OW72966   4.833   8.107   2.610
24239SOL    HW172967   4.819   8.121   2.517
24239SOL    HW272968   4.913   8.156   2.630
24240SOL     OW72969   8.240   6.694   1.553
24240SOL    HW172970   8.153   6.716   1.585
24240SOL    HW272971   8.226   6.619   1.495
24241SOL     OW72972   5.374   9.679   3.199
24241SOL    HW172973   5.412   9.746   3.256
24241SOL    HW272974   5.309   9.636   3.254
24242SOL     OW72975   9.579   3.654   0.334
24242SOL    HW172976   9.585   3.640   0.429
24242SOL    HW272977   9.565   3.748   0.324
24243SOL     OW72978  11.905   8.172   7.300
24243SOL    HW172979  11.952   8.163   7.217
24243SOL    HW272980  11.966   8.217   7.358
24244SOL     OW72981   7.279   5.698   4.857
24244SOL    HW172982   7.201   5.752   4.842
24244SOL    HW272983   7.247   5.625   4.911
24245SOL     OW72984  10.688  10.702   5.638
24245SOL    HW172985  10.649  10.747   5.563
24245SOL    HW272986  10.622  10.639   5.665
24246SOL     OW72987   1.631   5.643   1.043
24246SOL    HW172988   1.697   5.710   1.060
24246SOL    HW272989   1.631   5.632   0.948
24247SOL     OW72990  10.146   5.877   2.577
24247SOL    HW172991  10.234   5.849   2.601
24247SOL    HW272992  10.093   5.858   2.654
24248SOL     OW72993   8.150  10.698   3.624
24248SOL    HW172994   8.187  10.754   3.692
24248SOL    HW272995   8.217  10.631   3.609
24249SOL     OW72996   7.488  11.362   2.947
24249SOL    HW172997   7.522  11.287   2.899
24249SOL    HW272998   7.524  11.438   2.902
24250SOL     OW72999  11.894   3.429   3.323
24250SOL    HW173000  11.839   3.502   3.351
24250SOL    HW273001  11.888   3.430   3.227
24251SOL     OW73002   6.002   2.580   0.405
24251SOL    HW173003   6.069   2.557   0.341
24251SOL    HW273004   6.051   2.593   0.486
24252SOL     OW73005   9.243  14.474   7.196
24252SOL    HW173006   9.329  14.516   7.199
24252SOL    HW273007   9.227  14.458   7.103
24253SOL     OW73008   6.847  10.923   3.965
24253SOL    HW173009   6.933  10.916   3.922
24253SOL    HW273010   6.821  10.832   3.980
24254SOL     OW73011   8.985   8.836   4.913
24254SOL    HW173012   8.946   8.851   4.827
24254SOL    HW273013   8.919   8.867   4.975
24255SOL     OW73014   7.150   2.633   3.577
24255SOL    HW173015   7.147   2.725   3.602
24255SOL    HW273016   7.100   2.628   3.495
24256SOL     OW73017   0.331   6.071   0.008
24256SOL    HW173018   5.766  11.533   7.592
24256SOL    HW273019   0.247   6.107   0.036
24257SOL     OW73020   3.187   3.320   1.185
24257SOL    HW173021   3.248   3.261   1.140
24257SOL    HW273022   3.224   3.407   1.173
24258SOL     OW73023  13.687   6.523   6.455
24258SOL    HW173024  13.641   6.440   6.444
24258SOL    HW273025  13.754   6.522   6.387
24259SOL     OW73026   2.732   7.488   1.203
24259SOL    HW173027   2.774   7.570   1.177
24259SOL    HW273028   2.657   7.516   1.256
24260SOL     OW73029   8.291   4.464   4.952
24260SOL    HW173030   8.263   4.387   5.002
24260SOL    HW273031   8.386   4.455   4.947
24261SOL     OW73032   7.625   4.369   1.350
24261SOL    HW173033   7.632   4.324   1.266
24261SOL    HW273034   7.563   4.316   1.401
24262SOL     OW73035  14.586  12.619   6.112
24262SOL    HW173036  14.638  12.578   6.181
24262SOL    HW273037  14.520  12.554   6.089
24263SOL     OW73038   7.037   5.931   1.293
24263SOL    HW173039   7.107   5.995   1.285
24263SOL    HW273040   6.975   5.954   1.224
24264SOL     OW73041   5.651   6.524   1.939
24264SOL    HW173042   5.720   6.508   1.875
24264SOL    HW273043   5.687   6.590   1.998
24265SOL     OW73044  13.016  11.050   3.938
24265SOL    HW173045  13.033  11.138   3.974
24265SOL    HW273046  13.099  11.004   3.949
24266SOL     OW73047   9.053  10.725   2.291
24266SOL    HW173048   8.996  10.649   2.277
24266SOL    HW273049   8.995  10.790   2.332
24267SOL     OW73050  12.588   4.728   5.767
24267SOL    HW173051  12.522   4.722   5.837
24267SOL    HW273052  12.668   4.695   5.806
24268SOL     OW73053   6.395  14.939   5.957
24268SOL    HW173054   6.398  14.846   5.980
24268SOL    HW273055   6.476   4.179   5.908
24269SOL     OW73056  10.102   2.260   2.897
24269SOL    HW173057  10.008   2.242   2.893
24269SOL    HW273058  10.107   2.350   2.930
24270SOL     OW73059   7.052  10.558   6.217
24270SOL    HW173060   7.011  10.534   6.299
24270SOL    HW273061   7.146  10.550   6.233
24271SOL     OW73062   7.411  10.175   3.866
24271SOL    HW173063   7.335  10.204   3.815
24271SOL    HW273064   7.483  10.175   3.804
24272SOL     OW73065   3.489   7.452   4.498
24272SOL    HW173066   3.478   7.389   4.569
24272SOL    HW273067   3.477   7.400   4.418
24273SOL     OW73068   5.074   9.305   4.650
24273SOL    HW173069   5.030   9.234   4.697
24273SOL    HW273070   5.006   9.342   4.594
24274SOL     OW73071   5.614   4.296   3.612
24274SOL    HW173072   5.709   4.297   3.600
24274SOL    HW273073   5.596   4.213   3.657
24275SOL     OW73074   5.023   7.105   0.007
24275SOL    HW173075  10.374  12.410   7.592
24275SOL    HW273076  10.400  12.554   7.553
24276SOL     OW73077   7.788  12.291   7.169
24276SOL    HW173078   7.757  12.213   7.122
24276SOL    HW273079   7.868  12.317   7.122
24277SOL     OW73080   7.709   2.856   2.333
24277SOL    HW173081   7.788   2.842   2.386
24277SOL    HW273082   7.737   2.915   2.263
24278SOL     OW73083   1.529   8.691   0.919
24278SOL    HW173084   1.588   8.690   0.844
24278SOL    HW273085   1.497   8.601   0.927
24279SOL     OW73086  11.920  12.186   4.080
24279SOL    HW173087  11.952  12.119   4.142
24279SOL    HW273088  11.825  12.176   4.081
24280SOL     OW73089   6.299   6.152   5.169
24280SOL    HW173090   6.248   6.226   5.135
24280SOL    HW273091   6.283   6.152   5.263
24281SOL     OW73092   8.724   6.233   1.037
24281SOL    HW173093   8.710   6.172   0.965
24281SOL    HW273094   8.638   6.246   1.075
24282SOL     OW73095   6.390  10.581   1.647
24282SOL    HW173096   6.455  10.543   1.587
24282SOL    HW273097   6.339  10.641   1.592
24283SOL     OW73098   4.821   2.895   4.016
24283SOL    HW173099   4.821   2.921   3.924
24283SOL    HW273100   4.830  13.574   4.013
24284SOL     OW73101   7.491  10.016   1.355
24284SOL    HW173102   7.433   9.950   1.316
24284SOL    HW273103   7.557   9.965   1.402
24285SOL     OW73104   5.828   4.086   3.805
24285SOL    HW173105   5.752   4.040   3.839
24285SOL    HW273106   5.903   4.038   3.839
24286SOL     OW73107  12.076  11.582   7.461
24286SOL    HW173108  12.108  11.500   7.499
24286SOL    HW273109  12.064  11.562   7.368
24287SOL     OW73110  11.759   6.934   3.306
24287SOL    HW173111  11.829   6.986   3.346
24287SOL    HW273112  11.695   6.999   3.277
24288SOL     OW73113   4.407   7.281   2.995
24288SOL    HW173114   4.480   7.324   3.039
24288SOL    HW273115   4.438   7.265   2.907
24289SOL     OW73116   4.314   9.027   4.801
24289SOL    HW173117   4.375   8.957   4.823
24289SOL    HW273118   4.320   9.089   4.873
24290SOL     OW73119   4.875   3.259   2.566
24290SOL    HW173120   4.966   3.243   2.541
24290SOL    HW273121   4.856   3.346   2.530
24291SOL     OW73122  10.857   6.162   5.942
24291SOL    HW173123  10.761   6.171   5.936
24291SOL    HW273124  10.890   6.247   5.913
24292SOL     OW73125  11.273   4.184   4.466
24292SOL    HW173126  11.239   4.129   4.396
24292SOL    HW273127  11.299   4.122   4.535
24293SOL     OW73128   7.460   6.562   0.767
24293SOL    HW173129   7.399   6.629   0.737
24293SOL    HW273130   7.483   6.589   0.856
24294SOL     OW73131   6.135   3.956   5.199
24294SOL    HW173132   6.162   4.019   5.132
24294SOL    HW273133   6.063   3.908   5.159
24295SOL     OW73134   0.550   6.601   0.008
24295SOL    HW173135   6.007  11.967   7.565
24295SOL    HW273136   5.875  11.916   7.618
24296SOL     OW73137   8.602   8.885   7.504
24296SOL    HW173138   8.519   8.889   7.456
24296SOL    HW273139   8.578   8.858   7.592
24297SOL     OW73140  11.918   8.480   4.344
24297SOL    HW173141  11.965   8.563   4.347
24297SOL    HW273142  11.869   8.478   4.426
24298SOL     OW73143   3.854   5.396   3.451
24298SOL    HW173144   3.905   5.315   3.456
24298SOL    HW273145   3.810   5.401   3.536
24299SOL     OW73146   2.236   2.763   1.221
24299SOL    HW173147   2.324   2.787   1.251
24299SOL    HW273148   2.203   2.841   1.177
24300SOL     OW73149   8.696  13.089   5.436
24300SOL    HW173150   8.745  13.171   5.430
24300SOL    HW273151   8.754  13.030   5.484
24301SOL     OW73152   0.968   7.587   0.882
24301SOL    HW173153   1.004   7.605   0.969
24301SOL    HW273154   1.034   7.622   0.822
24302SOL     OW73155  13.435  10.849   5.166
24302SOL    HW173156  13.498  10.918   5.145
24302SOL    HW273157  13.362  10.865   5.106
24303SOL     OW73158   6.149   3.699   1.913
24303SOL    HW173159   6.061   3.696   1.875
24303SOL    HW273160   6.183   3.611   1.901
24304SOL     OW73161   9.698  10.706   5.018
24304SOL    HW173162   9.710  10.673   4.929
24304SOL    HW273163   9.729  10.636   5.074
24305SOL     OW73164  10.755   7.198   5.731
24305SOL    HW173165  10.835   7.250   5.721
24305SOL    HW273166  10.770   7.121   5.677
24306SOL     OW73167   5.137  12.461   4.907
24306SOL    HW173168   5.087  12.544   4.904
24306SOL    HW273169   5.189  12.467   4.987
24307SOL     OW73170  14.282  13.722   5.511
24307SOL    HW173171  14.355  13.708   5.572
24307SOL    HW273172  14.211  13.754   5.566
24308SOL     OW73173   4.931  13.183   5.952
24308SOL    HW173174   4.856  13.208   5.898
24308SOL    HW273175   4.921  13.089   5.965
24309SOL     OW73176  15.542   8.154   6.865
24309SOL    HW173177  15.495   8.124   6.788
24309SOL    HW273178  15.590   8.078   6.896
24310SOL     OW73179   8.842   7.980   1.874
24310SOL    HW173180   8.822   8.007   1.964
24310SOL    HW273181   8.788   8.035   1.819
24311SOL     OW73182  10.397   4.724   5.322
24311SOL    HW173183  10.491   4.704   5.312
24311SOL    HW273184  10.368   4.665   5.392
24312SOL     OW73185  11.435  10.848   3.527
24312SOL    HW173186  11.484  10.926   3.556
24312SOL    HW273187  11.503  10.786   3.501
24313SOL     OW73188   1.406   3.495   0.179
24313SOL    HW173189   1.502   3.501   0.183
24313SOL    HW273190   1.386   3.497   0.086
24314SOL     OW73191   8.257   6.295   3.965
24314SOL    HW173192   8.200   6.300   4.041
24314SOL    HW273193   8.255   6.383   3.927
24315SOL     OW73194   6.579   6.433   2.875
24315SOL    HW173195   6.563   6.344   2.905
24315SOL    HW273196   6.667   6.454   2.909
24316SOL     OW73197  11.198   5.208   3.720
24316SOL    HW173198  11.213   5.205   3.625
24316SOL    HW273199  11.281   5.179   3.758
24317SOL     OW73200   5.897   8.689   6.528
24317SOL    HW173201   5.833   8.618   6.519
24317SOL    HW273202   5.844   8.766   6.547
24318SOL     OW73203  10.954   9.527   2.002
24318SOL    HW173204  10.893   9.552   1.933
24318SOL    HW273205  10.910   9.553   2.083
24319SOL     OW73206   1.322   4.818   1.575
24319SOL    HW173207   1.369   4.736   1.595
24319SOL    HW273208   1.382   4.866   1.518
24320SOL     OW73209  15.989  13.171   7.453
24320SOL    HW173210  16.067  13.125   7.485
24320SOL    HW273211   5.250  13.243   7.400
24321SOL     OW73212   8.008  12.778   5.431
24321SOL    HW173213   7.968  12.856   5.391
24321SOL    HW273214   8.098  12.778   5.399
24322SOL     OW73215   8.543   9.246   6.068
24322SOL    HW173216   8.485   9.176   6.097
24322SOL    HW273217   8.574   9.287   6.148
24323SOL     OW73218   6.550   9.368   0.057
24323SOL    HW173219   6.518   9.457   0.042
24323SOL    HW273220   6.472   9.319   0.085
24324SOL     OW73221   8.997  15.139   6.753
24324SOL    HW173222   9.069  15.197   6.727
24324SOL    HW273223   8.919  15.192   6.740
24325SOL     OW73224  11.437  10.060   1.483
24325SOL    HW173225  11.425  10.154   1.474
24325SOL    HW273226  11.422  10.025   1.396
24326SOL     OW73227  12.361  11.397   7.098
24326SOL    HW173228  12.346  11.414   7.191
24326SOL    HW273229  12.376  11.303   7.093
24327SOL     OW73230  10.041   3.819   4.059
24327SOL    HW173231  10.068   3.800   4.149
24327SOL    HW273232  10.039   3.733   4.016
24328SOL     OW73233  13.470  11.941   5.246
24328SOL    HW173234  13.389  11.928   5.296
24328SOL    HW273235  13.524  11.997   5.302
24329SOL     OW73236  14.872  13.728   6.264
24329SOL    HW173237  14.930  13.716   6.339
24329SOL    HW273238  14.924  13.702   6.188
24330SOL     OW73239   4.239   7.908   5.761
24330SOL    HW173240   4.162   7.852   5.750
24330SOL    HW273241   4.292   7.891   5.683
24331SOL     OW73242  10.718  11.866   5.399
24331SOL    HW173243  10.801  11.844   5.441
24331SOL    HW273244  10.743  11.921   5.325
24332SOL     OW73245  11.406   3.395   3.053
24332SOL    HW173246  11.420   3.355   3.139
24332SOL    HW273247  11.318   3.431   3.057
24333SOL     OW73248   0.444   5.463   0.516
24333SOL    HW173249   0.471   5.396   0.453
24333SOL    HW273250   0.454   5.546   0.469
24334SOL     OW73251   5.927  11.054   7.431
24334SOL    HW173252   5.899  11.105   7.507
24334SOL    HW273253   5.936  11.118   7.361
24335SOL     OW73254   4.950   4.213   2.302
24335SOL    HW173255   4.909   4.299   2.291
24335SOL    HW273256   4.968   4.184   2.212
24336SOL     OW73257   8.852   9.138   2.176
24336SOL    HW173258   8.836   9.202   2.106
24336SOL    HW273259   8.928   9.172   2.222
24337SOL     OW73260   6.620  11.183   7.071
24337SOL    HW173261   6.616  11.163   6.978
24337SOL    HW273262   6.711  11.164   7.096
24338SOL     OW73263   2.745   4.675   3.517
24338SOL    HW173264   2.673   4.617   3.494
24338SOL    HW273265   2.729   4.699   3.608
24339SOL     OW73266   2.832   8.656   0.803
24339SOL    HW173267   2.795   8.732   0.848
24339SOL    HW273268   2.814   8.582   0.860
24340SOL     OW73269  10.566   4.814   6.802
24340SOL    HW173270  10.572  15.594   6.898
24340SOL    HW273271  10.634   4.873   6.771
24341SOL     OW73272   7.347   9.490   0.600
24341SOL    HW173273   7.411   9.470   0.531
24341SOL    HW273274   7.288   9.414   0.600
24342SOL     OW73275  10.424   5.376   4.698
24342SOL    HW173276  10.356   5.391   4.763
24342SOL    HW273277  10.447   5.284   4.708
24343SOL     OW73278   8.040  11.869   4.276
24343SOL    HW173279   7.986  11.790   4.285
24343SOL    HW273280   8.019  11.902   4.188
24344SOL     OW73281   7.139   9.846   2.834
24344SOL    HW173282   7.090   9.781   2.783
24344SOL    HW273283   7.216   9.798   2.864
24345SOL     OW73284   3.937   6.115   2.544
24345SOL    HW173285   4.021   6.070   2.553
24345SOL    HW273286   3.898   6.110   2.631
24346SOL     OW73287   6.172  13.259   4.312
24346SOL    HW173288   6.188  13.171   4.276
24346SOL    HW273289   6.252  13.280   4.360
24347SOL     OW73290  14.480  10.381   7.415
24347SOL    HW173291  14.476  10.474   7.433
24347SOL    HW273292  14.542  10.346   7.480
24348SOL     OW73293   4.091   9.479   3.781
24348SOL    HW173294   4.102   9.551   3.843
24348SOL    HW273295   4.112   9.400   3.831
24349SOL     OW73296   5.737   5.155   3.854
24349SOL    HW173297   5.698   5.230   3.897
24349SOL    HW273298   5.786   5.192   3.780
24350SOL     OW73299   7.018  10.162   6.201
24350SOL    HW173300   7.100  10.195   6.164
24350SOL    HW273301   6.988  10.097   6.137
24351SOL     OW73302   5.839   9.992   0.731
24351SOL    HW173303   5.748   9.990   0.701
24351SOL    HW273304   5.882  10.057   0.675
24352SOL     OW73305   4.161   5.699   0.342
24352SOL    HW173306   4.120   5.635   0.400
24352SOL    HW273307   4.223   5.746   0.397
24353SOL     OW73308  14.578   8.326   6.951
24353SOL    HW173309  14.504   8.385   6.941
24353SOL    HW273310  14.586   8.283   6.865
24354SOL     OW73311  14.505  13.605   6.900
24354SOL    HW173312  14.482  13.529   6.953
24354SOL    HW273313  14.424  13.631   6.857
24355SOL     OW73314   7.805   9.554   4.976
24355SOL    HW173315   7.774   9.483   5.032
24355SOL    HW273316   7.892   9.575   5.009
24356SOL     OW73317  10.175  11.582   5.194
24356SOL    HW173318  10.201  11.510   5.136
24356SOL    HW273319  10.175  11.660   5.138
24357SOL     OW73320   9.562  10.436   4.293
24357SOL    HW173321   9.546  10.496   4.366
24357SOL    HW273322   9.619  10.369   4.330
24358SOL     OW73323  11.686   7.081   1.881
24358SOL    HW173324  11.607   7.057   1.833
24358SOL    HW273325  11.654   7.129   1.958
24359SOL     OW73326   4.476  14.076   5.375
24359SOL    HW173327   4.524  14.144   5.424
24359SOL    HW273328   4.489  14.100   5.283
24360SOL     OW73329   9.060  10.391   1.355
24360SOL    HW173330   9.100  10.377   1.269
24360SOL    HW273331   8.969  10.362   1.344
24361SOL     OW73332  12.681  14.273   5.888
24361SOL    HW173333  12.755  14.322   5.852
24361SOL    HW273334  12.653  14.324   5.964
24362SOL     OW73335   7.896   7.810   4.930
24362SOL    HW173336   7.880   7.719   4.906
24362SOL    HW273337   7.884   7.859   4.849
24363SOL     OW73338  12.009  11.391   4.313
24363SOL    HW173339  11.923  11.352   4.297
24363SOL    HW273340  12.001  11.432   4.399
24364SOL     OW73341   8.180   4.560   2.459
24364SOL    HW173342   8.273   4.576   2.447
24364SOL    HW273343   8.173   4.524   2.548
24365SOL     OW73344   9.463  11.047   7.130
24365SOL    HW173345   9.439  11.002   7.211
24365SOL    HW273346   9.544  11.006   7.102
24366SOL     OW73347  11.973   1.644   2.170
24366SOL    HW173348  11.877   1.644   2.173
24366SOL    HW273349  11.999   1.699   2.244
24367SOL     OW73350   7.534   8.364   7.176
24367SOL    HW173351   7.563   8.453   7.155
24367SOL    HW273352   7.442   8.362   7.150
24368SOL     OW73353   3.283   0.398   0.502
24368SOL    HW173354   3.363   0.404   0.450
24368SOL    HW273355   3.313  11.176   0.593
24369SOL     OW73356   4.247   2.513   1.878
24369SOL    HW173357   4.257   2.522   1.783
24369SOL    HW273358   4.154   2.527   1.894
24370SOL     OW73359   7.175  11.679   3.708
24370SOL    HW173360   7.206  11.741   3.774
24370SOL    HW273361   7.083  11.664   3.731
24371SOL     OW73362   4.747  14.869   6.490
24371SOL    HW173363   4.836  14.905   6.490
24371SOL    HW273364   4.756  14.786   6.537
24372SOL     OW73365   8.882   7.387   2.468
24372SOL    HW173366   8.899   7.332   2.392
24372SOL    HW273367   8.795   7.424   2.452
24373SOL     OW73368   4.963   8.344   1.047
24373SOL    HW173369   5.019   8.289   0.993
24373SOL    HW273370   4.931   8.286   1.116
24374SOL     OW73371   9.920  14.134   6.606
24374SOL    HW173372  10.000  14.186   6.606
24374SOL    HW273373   9.867  14.170   6.677
24375SOL     OW73374   9.879   6.458   6.262
24375SOL    HW173375   9.847   6.458   6.352
24375SOL    HW273376   9.882   6.551   6.238
24376SOL     OW73377  12.464   7.083   5.808
24376SOL    HW173378  12.394   7.102   5.870
24376SOL    HW273379  12.492   7.168   5.776
24377SOL     OW73380  12.162  11.058   5.162
24377SOL    HW173381  12.127  10.979   5.120
24377SOL    HW273382  12.087  11.118   5.167
24378SOL     OW73383   8.635  14.334   6.764
24378SOL    HW173384   8.569  14.382   6.714
24378SOL    HW273385   8.614  14.352   6.855
24379SOL     OW73386   3.673  13.622   4.719
24379SOL    HW173387   3.601  13.561   4.699
24379SOL    HW273388   3.629  13.698   4.756
24380SOL     OW73389   7.832  10.392   6.015
24380SOL    HW173390   7.763  10.449   5.981
24380SOL    HW273391   7.831  10.407   6.110
24381SOL     OW73392  12.720  10.040   7.526
24381SOL    HW173393  12.641  10.030   7.472
24381SOL    HW273394  12.783  10.082   7.468
24382SOL     OW73395   6.799   3.821   4.154
24382SOL    HW173396   6.880   3.859   4.118
24382SOL    HW273397   6.797   3.849   4.245
24383SOL     OW73398  14.802   8.612   6.768
24383SOL    HW173399  14.774   8.521   6.764
24383SOL    HW273400  14.854   8.617   6.849
24384SOL     OW73401   9.437   4.364   3.332
24384SOL    HW173402   9.449   4.448   3.287
24384SOL    HW273403   9.395   4.387   3.415
24385SOL     OW73404  11.320   6.105   0.820
24385SOL    HW173405  11.248   6.138   0.873
24385SOL    HW273406  11.282   6.092   0.733
24386SOL     OW73407   6.803  13.633   7.236
24386SOL    HW173408   6.714  13.646   7.202
24386SOL    HW273409   6.858  13.627   7.159
24387SOL     OW73410   9.337   9.641   4.442
24387SOL    HW173411   9.249   9.652   4.478
24387SOL    HW273412   9.373   9.730   4.439
24388SOL     OW73413  10.984   6.833   2.541
24388SOL    HW173414  10.911   6.825   2.603
24388SOL    HW273415  11.039   6.902   2.577
24389SOL     OW73416  11.415   3.936   4.895
24389SOL    HW173417  11.378   3.859   4.851
24389SOL    HW273418  11.510   3.922   4.892
24390SOL     OW73419  12.689   4.661   3.693
24390SOL    HW173420  12.716   4.750   3.718
24390SOL    HW273421  12.601   4.652   3.728
24391SOL     OW73422   8.442  10.029   6.329
24391SOL    HW173423   8.502  10.102   6.313
24391SOL    HW273424   8.365  10.049   6.275
24392SOL     OW73425   5.834   5.783   2.003
24392SOL    HW173426   5.799   5.731   1.931
24392SOL    HW273427   5.842   5.871   1.967
24393SOL     OW73428  13.466  11.035   6.439
24393SOL    HW173429  13.477  11.127   6.415
24393SOL    HW273430  13.403  11.036   6.510
24394SOL     OW73431  14.254  10.910   7.252
24394SOL    HW173432  14.190  10.850   7.290
24394SOL    HW273433  14.217  10.935   7.168
24395SOL     OW73434  11.775  11.583   1.738
24395SOL    HW173435  11.794  11.661   1.790
24395SOL    HW273436  11.832  11.590   1.662
24396SOL     OW73437   3.157   5.656   0.039
24396SOL    HW173438   3.066   5.628   0.034
24396SOL    HW273439   8.578  11.031   7.569
24397SOL     OW73440  11.612   8.650   3.572
24397SOL    HW173441  11.647   8.565   3.601
24397SOL    HW273442  11.583   8.634   3.483
24398SOL     OW73443   8.487   5.949   3.461
24398SOL    HW173444   8.575   5.930   3.428
24398SOL    HW273445   8.470   5.882   3.527
24399SOL     OW73446   3.132   0.829   0.800
24399SOL    HW173447   3.167   0.743   0.777
24399SOL    HW273448   3.075   0.813   0.876
24400SOL     OW73449   8.448   9.592   0.551
24400SOL    HW173450   8.498   9.614   0.473
24400SOL    HW273451   8.506   9.536   0.602
24401SOL     OW73452   6.978   9.815   3.264
24401SOL    HW173453   7.068   9.810   3.232
24401SOL    HW273454   6.961   9.728   3.302
24402SOL     OW73455   9.769  13.441   5.216
24402SOL    HW173456   9.732  13.381   5.280
24402SOL    HW273457   9.861  13.449   5.239
24403SOL     OW73458   8.107   7.654   4.269
24403SOL    HW173459   8.148   7.640   4.183
24403SOL    HW273460   8.013   7.650   4.251
24404SOL     OW73461  12.256  15.182   7.426
24404SOL    HW173462  12.324  15.114   7.422
24404SOL    HW273463  12.283  15.247   7.362
24405SOL     OW73464   9.860  10.416   5.974
24405SOL    HW173465   9.886  10.496   6.019
24405SOL    HW273466   9.941  10.381   5.937
24406SOL     OW73467  10.264   6.871   2.482
24406SOL    HW173468  10.357   6.885   2.462
24406SOL    HW273469  10.220   6.872   2.397
24407SOL     OW73470  11.280   6.441   7.492
24407SOL    HW173471  11.204   6.412   7.541
24407SOL    HW273472  11.304   6.525   7.532
24408SOL     OW73473   9.432  14.917   6.341
24408SOL    HW173474   9.494  14.845   6.350
24408SOL    HW273475   9.346  14.876   6.345
24409SOL     OW73476   8.441   9.992   1.111
24409SOL    HW173477   8.360  10.038   1.132
24409SOL    HW273478   8.467   9.950   1.193
24410SOL     OW73479  11.860  12.942   6.175
24410SOL    HW173480  11.817  12.918   6.093
24410SOL    HW273481  11.945  12.977   6.148
24411SOL     OW73482  11.266   4.272   2.218
24411SOL    HW173483  11.241   4.334   2.149
24411SOL    HW273484  11.344   4.311   2.258
24412SOL     OW73485   9.138  10.922   1.346
24412SOL    HW173486   9.171  10.838   1.312
24412SOL    HW273487   9.142  10.913   1.441
24413SOL     OW73488   6.974  10.387   0.674
24413SOL    HW173489   6.911  10.344   0.732
24413SOL    HW273490   7.041  10.422   0.733
24414SOL     OW73491   9.892   8.317   1.182
24414SOL    HW173492   9.893   8.233   1.138
24414SOL    HW273493   9.985   8.338   1.195
24415SOL     OW73494  14.580  10.100   5.911
24415SOL    HW173495  14.499  10.117   5.958
24415SOL    HW273496  14.640  10.169   5.940
24416SOL     OW73497   9.094   7.516   5.867
24416SOL    HW173498   9.070   7.484   5.781
24416SOL    HW273499   9.098   7.438   5.922
24417SOL     OW73500   8.389  11.083   5.441
24417SOL    HW173501   8.298  11.061   5.461
24417SOL    HW273502   8.432  10.999   5.428
24418SOL     OW73503  11.115  10.392   3.843
24418SOL    HW173504  11.167  10.458   3.796
24418SOL    HW273505  11.026  10.407   3.813
24419SOL     OW73506   5.007  12.987   4.047
24419SOL    HW173507   4.946  12.961   3.977
24419SOL    HW273508   5.090  12.947   4.022
24420SOL     OW73509   5.295   4.899   0.355
24420SOL    HW173510   5.235   4.966   0.388
24420SOL    HW273511   5.266   4.883   0.266
24421SOL     OW73512  13.107  12.887   6.451
24421SOL    HW173513  13.092  12.925   6.538
24421SOL    HW273514  13.090  12.958   6.390
24422SOL     OW73515  10.592   9.885   6.386
24422SOL    HW173516  10.599   9.861   6.293
24422SOL    HW273517  10.525   9.825   6.421
24423SOL     OW73518   7.251  13.766   5.030
24423SOL    HW173519   7.222  13.826   4.961
24423SOL    HW273520   7.331  13.728   4.996
24424SOL     OW73521   9.940   5.030   5.182
24424SOL    HW173522   9.961   4.963   5.116
24424SOL    HW273523   9.851   5.057   5.161
24425SOL     OW73524   6.864   2.614   0.083
24425SOL    HW173525   6.932   2.588   0.020
24425SOL    HW273526   6.869   2.548   0.152
24426SOL     OW73527   2.188   8.129   0.631
24426SOL    HW173528   2.209   8.179   0.710
24426SOL    HW273529   2.145   8.050   0.663
24427SOL     OW73530  12.317   5.727   5.209
24427SOL    HW173531  12.305   5.641   5.169
24427SOL    HW273532  12.228   5.763   5.215
24428SOL     OW73533   8.202  11.347   1.281
24428SOL    HW173534   8.177  11.312   1.367
24428SOL    HW273535   8.250  11.427   1.301
24429SOL     OW73536   2.440  11.041   1.876
24429SOL    HW173537   2.361  11.089   1.853
24429SOL    HW273538   2.409  10.954   1.902
24430SOL     OW73539   4.497  10.778   6.135
24430SOL    HW173540   4.422  10.758   6.080
24430SOL    HW273541   4.534  10.858   6.097
24431SOL     OW73542  12.566   3.651   3.584
24431SOL    HW173543  12.571   3.556   3.583
24431SOL    HW273544  12.569   3.675   3.677
24432SOL     OW73545   5.362   7.191   1.732
24432SOL    HW173546   5.434   7.198   1.669
24432SOL    HW273547   5.403   7.208   1.817
24433SOL     OW73548  10.117  12.888   5.277
24433SOL    HW173549  10.054  12.845   5.335
24433SOL    HW273550  10.146  12.965   5.326
24434SOL     OW73551   0.727   5.705   0.605
24434SOL    HW173552   0.810   5.735   0.567
24434SOL    HW273553   0.663   5.717   0.535
24435SOL     OW73554   7.602   7.610   4.633
24435SOL    HW173555   7.525   7.664   4.651
24435SOL    HW273556   7.587   7.577   4.544
24436SOL     OW73557   8.258   4.382   3.670
24436SOL    HW173558   8.333   4.334   3.707
24436SOL    HW273559   8.285   4.474   3.674
24437SOL     OW73560   5.643  13.836   6.322
24437SOL    HW173561   5.695  13.916   6.321
24437SOL    HW273562   5.666  13.790   6.241
24438SOL     OW73563   4.135   8.018   1.657
24438SOL    HW173564   4.139   8.066   1.740
24438SOL    HW273565   4.225   8.018   1.625
24439SOL     OW73566   5.461   2.884   3.228
24439SOL    HW173567   5.378   2.924   3.255
24439SOL    HW273568   5.435   2.812   3.170
24440SOL     OW73569  12.313  11.616   4.226
24440SOL    HW173570  12.374  11.640   4.295
24440SOL    HW273571  12.276  11.699   4.196
24441SOL     OW73572  12.358  11.349   4.329
24441SOL    HW173573  12.352  11.440   4.301
24441SOL    HW273574  12.283  11.306   4.289
24442SOL     OW73575  13.617   6.973   5.151
24442SOL    HW173576  13.552   6.909   5.179
24442SOL    HW273577  13.593   7.054   5.196
24443SOL     OW73578  11.690   6.951   3.752
24443SOL    HW173579  11.660   6.910   3.671
24443SOL    HW273580  11.767   7.002   3.725
24444SOL     OW73581   8.817  12.231   3.864
24444SOL    HW173582   8.883  12.163   3.853
24444SOL    HW273583   8.782  12.246   3.776
24445SOL     OW73584   5.005  13.847   5.119
24445SOL    HW173585   5.000  13.930   5.072
24445SOL    HW273586   4.988  13.869   5.210
24446SOL     OW73587  10.609  14.213   5.354
24446SOL    HW173588  10.540  14.274   5.380
24446SOL    HW273589  10.685  14.239   5.406
24447SOL     OW73590   6.342   7.673   2.116
24447SOL    HW173591   6.413   7.692   2.056
24447SOL    HW273592   6.366   7.590   2.157
24448SOL     OW73593   8.363  11.556   4.680
24448SOL    HW173594   8.452  11.524   4.671
24448SOL    HW273595   8.341  11.589   4.593
24449SOL     OW73596   7.647  15.220   7.158
24449SOL    HW173597   7.618  15.138   7.196
24449SOL    HW273598   7.698  15.262   7.227
24450SOL     OW73599   2.083   9.941   1.295
24450SOL    HW173600   2.053   9.852   1.314
24450SOL    HW273601   2.173   9.931   1.265
24451SOL     OW73602  14.252  11.719   5.943
24451SOL    HW173603  14.248  11.782   5.871
24451SOL    HW273604  14.295  11.642   5.906
24452SOL     OW73605   1.257  10.545   1.481
24452SOL    HW173606   1.213  10.626   1.452
24452SOL    HW273607   1.277  10.560   1.573
24453SOL     OW73608   8.280   9.068   5.840
24453SOL    HW173609   8.196   9.023   5.834
24453SOL    HW273610   8.285   9.096   5.932
24454SOL     OW73611   2.957  11.585   1.744
24454SOL    HW173612   2.913  11.508   1.781
24454SOL    HW273613   2.943  11.654   1.809
24455SOL     OW73614  14.950  11.674   5.931
24455SOL    HW173615  14.970  11.696   6.022
24455SOL    HW273616   4.260  11.670   5.888
24456SOL     OW73617   4.039   9.236   1.562
24456SOL    HW173618   4.002   9.150   1.543
24456SOL    HW273619   4.001   9.260   1.646
24457SOL     OW73620   8.718   8.292   2.328
24457SOL    HW173621   8.687   8.382   2.336
24457SOL    HW273622   8.638   8.239   2.327
24458SOL     OW73623  13.995   8.227   7.555
24458SOL    HW173624  13.960   8.228   7.466
24458SOL    HW273625  14.044   8.309   7.562
24459SOL     OW73626   3.303   5.079   2.908
24459SOL    HW173627   3.297   5.028   2.828
24459SOL    HW273628   3.393   5.064   2.939
24460SOL     OW73629  10.278   5.831   2.155
24460SOL    HW173630  10.241   5.866   2.074
24460SOL    HW273631  10.203   5.817   2.212
24461SOL     OW73632  12.942   8.807   6.195
24461SOL    HW173633  12.861   8.855   6.212
24461SOL    HW273634  12.989   8.809   6.279
24462SOL     OW73635  10.305   3.052   2.284
24462SOL    HW173636  10.278   3.090   2.368
24462SOL    HW273637  10.265   2.965   2.283
24463SOL     OW73638  10.370  10.921   2.103
24463SOL    HW173639  10.302  10.931   2.169
24463SOL    HW273640  10.411  11.007   2.098
24464SOL     OW73641   5.285  14.707   6.478
24464SOL    HW173642   5.336  14.662   6.411
24464SOL    HW273643   5.214  14.646   6.500
24465SOL     OW73644  12.780   7.003   6.877
24465SOL    HW173645  12.832   7.076   6.911
24465SOL    HW273646  12.818   6.925   6.916
24466SOL     OW73647   5.122  11.080   1.322
24466SOL    HW173648   5.155  11.140   1.389
24466SOL    HW273649   5.199  11.060   1.269
24467SOL     OW73650   4.009   9.255   2.622
24467SOL    HW173651   4.047   9.266   2.709
24467SOL    HW273652   3.952   9.331   2.610
24468SOL     OW73653   2.250   6.789   1.178
24468SOL    HW173654   2.278   6.723   1.241
24468SOL    HW273655   2.274   6.754   1.092
24469SOL     OW73656  10.504   7.397   3.105
24469SOL    HW173657  10.460   7.315   3.129
24469SOL    HW273658  10.525   7.438   3.189
24470SOL     OW73659   9.201   8.062   3.304
24470SOL    HW173660   9.284   8.102   3.330
24470SOL    HW273661   9.177   8.006   3.377
24471SOL     OW73662  10.258  11.750   7.354
24471SOL    HW173663  10.224  11.676   7.403
24471SOL    HW273664  10.320  11.711   7.292
24472SOL     OW73665   7.688  10.339   7.007
24472SOL    HW173666   7.729  10.329   6.921
24472SOL    HW273667   7.711  10.429   7.033
24473SOL     OW73668  10.799   9.574   1.208
24473SOL    HW173669  10.709   9.557   1.180
24473SOL    HW273670  10.843   9.605   1.129
24474SOL     OW73671   6.228   5.225   3.056
24474SOL    HW173672   6.139   5.255   3.074
24474SOL    HW273673   6.274   5.303   3.027
24475SOL     OW73674   9.955  10.190   6.182
24475SOL    HW173675   9.863  10.162   6.180
24475SOL    HW273676   9.976  10.209   6.090
24476SOL     OW73677  10.189   3.427   3.370
24476SOL    HW173678  10.163   3.394   3.284
24476SOL    HW273679  10.243   3.357   3.406
24477SOL     OW73680  12.171  11.000   7.211
24477SOL    HW173681  12.169  11.056   7.133
24477SOL    HW273682  12.182  10.912   7.178
24478SOL     OW73683   9.888   9.653   1.948
24478SOL    HW173684   9.921   9.743   1.944
24478SOL    HW273685   9.962   9.599   1.919
24479SOL     OW73686  13.159   4.929   5.416
24479SOL    HW173687  13.172   4.925   5.511
24479SOL    HW273688  13.223   4.993   5.385
24480SOL     OW73689  13.513  12.265   6.933
24480SOL    HW173690  13.428  12.303   6.952
24480SOL    HW273691  13.576  12.333   6.959
24481SOL     OW73692   8.703   5.188   1.352
24481SOL    HW173693   8.732   5.208   1.441
24481SOL    HW273694   8.608   5.185   1.358
24482SOL     OW73695  14.981  11.764   6.558
24482SOL    HW173696  15.049  11.827   6.534
24482SOL    HW273697  14.982  11.763   6.654
24483SOL     OW73698   4.586  11.042   3.928
24483SOL    HW173699   4.681  11.052   3.941
24483SOL    HW273700   4.571  11.079   3.841
24484SOL     OW73701   1.418   1.470   1.238
24484SOL    HW173702   1.449   1.561   1.231
24484SOL    HW273703   1.406   1.442   1.147
24485SOL     OW73704   5.515   5.822   6.347
24485SOL    HW173705   5.508   5.767   6.425
24485SOL    HW273706   5.604   5.806   6.315
24486SOL     OW73707  12.166   6.594   2.613
24486SOL    HW173708  12.194   6.547   2.691
24486SOL    HW273709  12.079   6.628   2.634
24487SOL     OW73710  15.251  10.848   6.420
24487SOL    HW173711  15.242  10.815   6.331
24487SOL    HW273712  15.161  10.849   6.455
24488SOL     OW73713   1.143   8.771   0.712
24488SOL    HW173714   1.234   8.800   0.720
24488SOL    HW273715   1.092   8.844   0.748
24489SOL     OW73716   8.258   9.085   1.029
24489SOL    HW173717   8.347   9.053   1.018
24489SOL    HW273718   8.243   9.085   1.123
24490SOL     OW73719  12.265   7.085   2.664
24490SOL    HW173720  12.312   7.010   2.628
24490SOL    HW273721  12.210   7.115   2.591
24491SOL     OW73722   7.096   8.001   4.885
24491SOL    HW173723   7.179   8.046   4.899
24491SOL    HW273724   7.083   7.949   4.964
24492SOL     OW73725  10.393   9.546   3.852
24492SOL    HW173726  10.316   9.603   3.857
24492SOL    HW273727  10.376   9.490   3.776
24493SOL     OW73728  10.155   9.465   6.576
24493SOL    HW173729  10.227   9.470   6.639
24493SOL    HW273730  10.194   9.493   6.493
24494SOL     OW73731  14.163   9.149   6.648
24494SOL    HW173732  14.093   9.105   6.599
24494SOL    HW273733  14.121   9.226   6.686
24495SOL     OW73734  10.502   9.410   5.875
24495SOL    HW173735  10.429   9.469   5.891
24495SOL    HW273736  10.462   9.332   5.838
24496SOL     OW73737  11.425   9.576   5.008
24496SOL    HW173738  11.339   9.542   4.987
24496SOL    HW273739  11.457   9.519   5.078
24497SOL     OW73740   2.706   7.261   2.346
24497SOL    HW173741   2.760   7.339   2.353
24497SOL    HW273742   2.664   7.253   2.431
24498SOL     OW73743   5.247  14.851   6.775
24498SOL    HW173744   5.295  14.827   6.695
24498SOL    HW273745   5.246  14.947   6.774
24499SOL     OW73746  14.406  10.911   6.281
24499SOL    HW173747  14.474  10.854   6.319
24499SOL    HW273748  14.455  10.972   6.226
24500SOL     OW73749   9.942   3.772   0.366
24500SOL    HW173750   9.990   3.745   0.288
24500SOL    HW273751   9.853   3.787   0.335
24501SOL     OW73752   6.596   7.947   1.568
24501SOL    HW173753   6.616   7.870   1.514
24501SOL    HW273754   6.510   7.927   1.605
24502SOL     OW73755  11.318   8.982   2.541
24502SOL    HW173756  11.334   9.068   2.501
24502SOL    HW273757  11.254   8.940   2.485
24503SOL     OW73758  11.255   7.048   7.163
24503SOL    HW173759  11.307   7.081   7.237
24503SOL    HW273760  11.260   6.953   7.171
24504SOL     OW73761  11.119  11.607   1.469
24504SOL    HW173762  11.209  11.623   1.441
24504SOL    HW273763  11.122  11.617   1.564
24505SOL     OW73764   3.253   4.782   4.469
24505SOL    HW173765   3.284   4.827   4.391
24505SOL    HW273766   3.190   4.717   4.437
24506SOL     OW73767   7.604   7.778   0.539
24506SOL    HW173768   7.658   7.856   0.529
24506SOL    HW273769   7.622   7.748   0.628
24507SOL     OW73770   9.905  10.718   6.694
24507SOL    HW173771   9.985  10.754   6.732
24507SOL    HW273772   9.931  10.686   6.608
24508SOL     OW73773   2.285   5.106   0.340
24508SOL    HW173774   2.237   5.150   0.411
24508SOL    HW273775   2.280   5.013   0.362
24509SOL     OW73776  12.671  13.469   5.657
24509SOL    HW173777  12.585  13.453   5.618
24509SOL    HW273778  12.653  13.515   5.738
24510SOL     OW73779   5.119   9.678   0.232
24510SOL    HW173780   5.042   9.703   0.180
24510SOL    HW273781   5.083   9.649   0.315
24511SOL     OW73782   9.583  15.781   7.404
24511SOL    HW173783   9.615  15.693   7.382
24511SOL    HW273784   9.535  15.769   7.486
24512SOL     OW73785   7.160   1.919   0.274
24512SOL    HW173786   7.252   1.945   0.273
24512SOL    HW273787   7.125   1.958   0.354
24513SOL     OW73788   6.905   9.845   0.464
24513SOL    HW173789   6.920   9.811   0.552
24513SOL    HW273790   6.872   9.934   0.478
24514SOL     OW73791  12.896   9.353   5.841
24514SOL    HW173792  12.970   9.409   5.865
24514SOL    HW273793  12.821   9.412   5.838
24515SOL     OW73794   8.344  15.272   7.399
24515SOL    HW173795   8.367  15.294   7.309
24515SOL    HW273796   8.263  15.319   7.416
24516SOL     OW73797  11.584  10.812   2.222
24516SOL    HW173798  11.511  10.854   2.175
24516SOL    HW273799  11.611  10.740   2.165
24517SOL     OW73800   6.444   9.993   2.773
24517SOL    HW173801   6.362   9.978   2.821
24517SOL    HW273802   6.494  10.053   2.829
24518SOL     OW73803   7.122  10.720   7.590
24518SOL    HW173804   7.143  10.752   7.502
24518SOL    HW273805   1.817   5.335   0.019
24519SOL     OW73806   5.563   6.079   6.272
24519SOL    HW173807   5.483   6.131   6.279
24519SOL    HW273808   5.536   5.990   6.297
24520SOL     OW73809  10.120   3.000   2.058
24520SOL    HW173810  10.200   2.950   2.047
24520SOL    HW273811  10.149   3.088   2.082
24521SOL     OW73812   9.923   5.789   0.754
24521SOL    HW173813  10.012   5.800   0.720
24521SOL    HW273814   9.867   5.832   0.689
24522SOL     OW73815   7.377   5.784   1.383
24522SOL    HW173816   7.393   5.869   1.423
24522SOL    HW273817   7.346   5.804   1.294
24523SOL     OW73818   5.663  10.331   1.485
24523SOL    HW173819   5.643  10.276   1.561
24523SOL    HW273820   5.642  10.275   1.409
24524SOL     OW73821   2.639   2.278   1.787
24524SOL    HW173822   2.677   2.364   1.768
24524SOL    HW273823   2.581   2.261   1.713
24525SOL     OW73824   9.372  11.408   5.439
24525SOL    HW173825   9.408  11.329   5.479
24525SOL    HW273826   9.288  11.421   5.482
24526SOL     OW73827   8.835  11.131   5.792
24526SOL    HW173828   8.894  11.191   5.748
24526SOL    HW273829   8.809  11.068   5.725
24527SOL     OW73830   7.892   6.039   3.410
24527SOL    HW173831   7.814   6.054   3.463
24527SOL    HW273832   7.953   6.108   3.437
24528SOL     OW73833   6.063   7.587   3.207
24528SOL    HW173834   6.090   7.573   3.116
24528SOL    HW273835   5.997   7.656   3.202
24529SOL     OW73836   2.454   4.687   0.855
24529SOL    HW173837   2.474   4.759   0.915
24529SOL    HW273838   2.443   4.611   0.912
24530SOL     OW73839   7.679  14.988   6.681
24530SOL    HW173840   7.679  15.084   6.683
24530SOL    HW273841   7.614  14.962   6.746
24531SOL     OW73842   5.388  12.161   6.553
24531SOL    HW173843   5.399  12.240   6.607
24531SOL    HW273844   5.398  12.193   6.463
24532SOL     OW73845   2.526   9.475   3.162
24532SOL    HW173846   2.514   9.539   3.231
24532SOL    HW273847   2.439   9.438   3.148
24533SOL     OW73848  10.412   1.592   1.541
24533SOL    HW173849  10.404   1.667   1.482
24533SOL    HW273850  10.506   1.582   1.554
24534SOL     OW73851  10.325   6.869   1.259
24534SOL    HW173852  10.255   6.819   1.301
24534SOL    HW273853  10.397   6.806   1.250
24535SOL     OW73854   5.049   9.683   7.038
24535SOL    HW173855   5.084   9.702   7.125
24535SOL    HW273856   5.099   9.607   7.009
24536SOL     OW73857   6.672  11.725   2.239
24536SOL    HW173858   6.598  11.731   2.300
24536SOL    HW273859   6.633  11.736   2.152
24537SOL     OW73860   7.759   5.095   2.663
24537SOL    HW173861   7.722   5.141   2.738
24537SOL    HW273862   7.825   5.037   2.700
24538SOL     OW73863   5.801   2.173   2.512
24538SOL    HW173864   5.804   2.266   2.488
24538SOL    HW273865   5.883   2.158   2.560
24539SOL     OW73866   9.626   9.172   3.035
24539SOL    HW173867   9.647   9.084   3.002
24539SOL    HW273868   9.649   9.231   2.963
24540SOL     OW73869  10.242   6.980   7.197
24540SOL    HW173870  10.247   7.063   7.149
24540SOL    HW273871  10.205   6.918   7.134
24541SOL     OW73872   8.654   5.021   6.930
24541SOL    HW173873   8.729   5.011   6.989
24541SOL    HW273874   8.689   4.999   6.844
24542SOL     OW73875   7.429  11.058   2.761
24542SOL    HW173876   7.381  11.100   2.833
24542SOL    HW273877   7.390  10.972   2.752
24543SOL     OW73878  13.660  10.795   6.432
24543SOL    HW173879  13.577  10.843   6.434
24543SOL    HW273880  13.675  10.777   6.340
24544SOL     OW73881   7.112   7.858   3.450
24544SOL    HW173882   7.139   7.821   3.534
24544SOL    HW273883   7.187   7.842   3.392
24545SOL     OW73884   6.198   3.652   3.251
24545SOL    HW173885   6.270   3.628   3.309
24545SOL    HW273886   6.209   3.595   3.175
24546SOL     OW73887   5.220   9.447   3.062
24546SOL    HW173888   5.253   9.528   3.100
24546SOL    HW273889   5.236   9.380   3.128
24547SOL     OW73890   1.332   4.997   1.142
24547SOL    HW173891   1.368   4.970   1.057
24547SOL    HW273892   1.238   4.985   1.133
24548SOL     OW73893  15.529  10.385   7.059
24548SOL    HW173894  15.557  10.293   7.058
24548SOL    HW273895  15.464  10.391   6.989
24549SOL     OW73896   4.202   6.642   5.260
24549SOL    HW173897   4.179   6.595   5.179
24549SOL    HW273898   4.278   6.595   5.295
24550SOL     OW73899   2.417   2.880   0.105
24550SOL    HW173900   2.419   2.954   0.045
24550SOL    HW273901   2.462   2.911   0.183
24551SOL     OW73902   0.563   8.944   0.341
24551SOL    HW173903   0.658   8.943   0.332
24551SOL    HW273904   0.544   8.873   0.403
24552SOL     OW73905   3.369   9.090   3.426
24552SOL    HW173906   3.463   9.103   3.412
24552SOL    HW273907   3.356   9.104   3.520
24553SOL     OW73908   4.426   9.539   4.720
24553SOL    HW173909   4.390   9.462   4.675
24553SOL    HW273910   4.479   9.582   4.653
24554SOL     OW73911  10.553   8.219   6.797
24554SOL    HW173912  10.558   8.125   6.811
24554SOL    HW273913  10.470   8.232   6.750
24555SOL     OW73914   6.988   5.922   0.313
24555SOL    HW173915   7.083   5.914   0.309
24555SOL    HW273916   6.957   5.870   0.239
24556SOL     OW73917   8.930   4.956   5.809
24556SOL    HW173918   8.914   5.034   5.862
24556SOL    HW273919   8.896   4.884   5.862
24557SOL     OW73920  12.697  10.486   3.324
24557SOL    HW173921  12.641  10.458   3.397
24557SOL    HW273922  12.759  10.413   3.313
24558SOL     OW73923  15.564   9.348   7.428
24558SOL    HW173924  15.472   9.328   7.412
24558SOL    HW273925  15.571   9.442   7.414
24559SOL     OW73926   8.340   3.901   5.217
24559SOL    HW173927   8.390   3.911   5.298
24559SOL    HW273928   8.253   3.873   5.246
24560SOL     OW73929   9.084  14.638   6.438
24560SOL    HW173930   9.110  14.709   6.498
24560SOL    HW273931   8.988  14.642   6.438
24561SOL     OW73932   7.914   6.377   1.921
24561SOL    HW173933   7.838   6.347   1.871
24561SOL    HW273934   7.989   6.338   1.877
24562SOL     OW73935   8.837  11.338   3.099
24562SOL    HW173936   8.833  11.242   3.103
24562SOL    HW273937   8.752  11.364   3.064
24563SOL     OW73938   1.536   2.337   1.560
24563SOL    HW173939   1.495   2.272   1.503
24563SOL    HW273940   1.594   2.285   1.617
24564SOL     OW73941  12.572  14.581   5.655
24564SOL    HW173942  12.645  14.609   5.710
24564SOL    HW273943  12.608  14.580   5.566
24565SOL     OW73944  12.819  15.604   6.859
24565SOL    HW173945  12.791   4.820   6.768
24565SOL    HW273946  12.895   4.888   6.855
24566SOL     OW73947   7.272   8.378   5.010
24566SOL    HW173948   7.197   8.375   5.069
24566SOL    HW273949   7.321   8.456   5.036
24567SOL     OW73950   6.433   4.506   6.204
24567SOL    HW173951   6.488   4.526   6.280
24567SOL    HW273952   6.430   4.411   6.199
24568SOL     OW73953   3.362   9.170   3.978
24568SOL    HW173954   3.300   9.192   4.048
24568SOL    HW273955   3.385   9.078   3.994
24569SOL     OW73956   3.781   7.693   0.741
24569SOL    HW173957   3.754   7.601   0.732
24569SOL    HW273958   3.706   7.735   0.784
24570SOL     OW73959  11.035   8.686   6.974
24570SOL    HW173960  11.001   8.703   7.062
24570SOL    HW273961  11.125   8.657   6.989
24571SOL     OW73962   7.920   4.159   3.256
24571SOL    HW173963   7.982   4.220   3.215
24571SOL    HW273964   7.917   4.186   3.347
24572SOL     OW73965   9.375   7.687   4.487
24572SOL    HW173966   9.389   7.738   4.407
24572SOL    HW273967   9.393   7.748   4.558
24573SOL     OW73968   4.706   6.714   4.318
24573SOL    HW173969   4.665   6.688   4.401
24573SOL    HW273970   4.712   6.810   4.323
24574SOL     OW73971   5.136   2.614   2.486
24574SOL    HW173972   5.181   2.698   2.493
24574SOL    HW273973   5.135   2.595   2.392
24575SOL     OW73974   6.505  11.883   1.655
24575SOL    HW173975   6.473   1.137   1.569
24575SOL    HW273976   6.523  11.964   1.702
24576SOL     OW73977  10.830  13.037   4.237
24576SOL    HW173978  10.770  13.074   4.302
24576SOL    HW273979  10.856  12.953   4.275
24577SOL     OW73980   2.629   2.050   0.776
24577SOL    HW173981   2.552   2.108   0.775
24577SOL    HW273982   2.642   2.030   0.868
24578SOL     OW73983   6.790  10.491   0.514
24578SOL    HW173984   6.857  10.472   0.580
24578SOL    HW273985   6.708  10.492   0.563
24579SOL     OW73986   5.022  11.392   1.208
24579SOL    HW173987   5.031  11.432   1.295
24579SOL    HW273988   4.965  11.317   1.222
24580SOL     OW73989   4.645   5.090   6.086
24580SOL    HW173990   4.584   5.161   6.069
24580SOL    HW273991   4.653   5.043   6.003
24581SOL     OW73992   3.858  10.730   0.661
24581SOL    HW173993   3.815  10.810   0.633
24581SOL    HW273994   3.825  10.714   0.749
24582SOL     OW73995  11.641  10.953   5.706
24582SOL    HW173996  11.679  10.884   5.652
24582SOL    HW273997  11.551  10.960   5.675
24583SOL     OW73998   3.536   5.488   2.117
24583SOL    HW173999   3.528   5.477   2.211
24583SOL    HW274000   3.536   5.583   2.104
24584SOL     OW74001   9.395  11.262   4.979
24584SOL    HW174002   9.469  11.289   4.924
24584SOL    HW274003   9.348  11.198   4.925
24585SOL     OW74004   5.824  14.537   6.311
24585SOL    HW174005   5.795  14.456   6.353
24585SOL    HW274006   5.918  14.525   6.297
24586SOL     OW74007  12.617  15.664   7.119
24586SOL    HW174008  12.590  15.720   7.192
24586SOL    HW274009  12.711  15.653   7.130
24587SOL     OW74010   8.802   6.317   0.254
24587SOL    HW174011   8.733   6.372   0.217
24587SOL    HW274012   8.882   6.367   0.242
24588SOL     OW74013   1.685   3.533   0.644
24588SOL    HW174014   1.600   3.497   0.619
24588SOL    HW274015   1.689   3.618   0.600
24589SOL     OW74016  10.962   4.032   2.193
24589SOL    HW174017  10.936   4.114   2.234
24589SOL    HW274018  10.903   4.022   2.118
24590SOL     OW74019   7.040  14.372   6.733
24590SOL    HW174020   7.111  14.337   6.787
24590SOL    HW274021   6.965  14.317   6.753
24591SOL     OW74022  12.245  10.821   3.182
24591SOL    HW174023  12.328  10.868   3.175
24591SOL    HW274024  12.208  10.823   3.094
24592SOL     OW74025  13.861  11.000   6.930
24592SOL    HW174026  13.777  10.972   6.966
24592SOL    HW274027  13.843  11.021   6.838
24593SOL     OW74028   8.319   5.502   0.245
24593SOL    HW174029   8.313   5.576   0.305
24593SOL    HW274030   8.235   5.502   0.199
24594SOL     OW74031  14.794  14.005   6.179
24594SOL    HW174032  14.819  14.036   6.266
24594SOL    HW274033  14.777  13.911   6.192
24595SOL     OW74034   4.665   7.394   6.415
24595SOL    HW174035   4.664   7.422   6.506
24595SOL    HW274036   4.581   7.425   6.379
24596SOL     OW74037  11.328   8.096   1.122
24596SOL    HW174038  11.385   8.157   1.074
24596SOL    HW274039  11.243   8.140   1.124
24597SOL     OW74040   6.602   5.876   4.347
24597SOL    HW174041   6.563   5.821   4.415
24597SOL    HW274042   6.556   5.852   4.267
24598SOL     OW74043   7.590   6.892   0.026
24598SOL    HW174044   7.600   6.931   0.113
24598SOL    HW274045  12.910  12.332   7.602
24599SOL     OW74046   6.866   4.474   2.460
24599SOL    HW174047   6.912   4.436   2.536
24599SOL    HW274048   6.932   4.529   2.417
24600SOL     OW74049   6.989   2.859   1.618
24600SOL    HW174050   6.927   2.785   1.618
24600SOL    HW274051   7.052   2.837   1.687
24601SOL     OW74052   7.395   4.942   3.912
24601SOL    HW174053   7.369   5.031   3.936
24601SOL    HW274054   7.365   4.931   3.822
24602SOL     OW74055  10.297   2.007   2.218
24602SOL    HW174056  10.297   1.920   2.178
24602SOL    HW274057  10.293   1.990   2.312
24603SOL     OW74058   6.340   6.906   5.343
24603SOL    HW174059   6.355   6.851   5.420
24603SOL    HW274060   6.310   6.845   5.275
24604SOL     OW74061   0.745   3.217   0.657
24604SOL    HW174062   0.707   3.236   0.743
24604SOL    HW274063   0.746   3.301   0.612
24605SOL     OW74064   7.982   9.107   3.132
24605SOL    HW174065   7.982   9.097   3.227
24605SOL    HW274066   7.904   9.160   3.114
24606SOL     OW74067   9.312  10.032   4.523
24606SOL    HW174068   9.397  10.032   4.479
24606SOL    HW274069   9.334  10.037   4.616
24607SOL     OW74070  11.815   2.703   3.140
24607SOL    HW174071  11.840   2.711   3.232
24607SOL    HW274072  11.720   2.717   3.140
24608SOL     OW74073   4.683  11.635   5.145
24608SOL    HW174074   4.613  11.699   5.137
24608SOL    HW274075   4.664  11.570   5.077
24609SOL     OW74076   9.753   5.688   6.682
24609SOL    HW174077   9.683   5.625   6.697
24609SOL    HW274078   9.818   5.669   6.751
24610SOL     OW74079   7.153  10.796   1.013
24610SOL    HW174080   7.066  10.836   1.009
24610SOL    HW274081   7.214  10.867   0.993
24611SOL     OW74082  13.341   5.454   5.562
24611SOL    HW174083  13.365   5.545   5.578
24611SOL    HW274084  13.356   5.441   5.468
24612SOL     OW74085   7.508   9.291   0.976
24612SOL    HW174086   7.572   9.230   1.012
24612SOL    HW274087   7.425   9.243   0.979
24613SOL     OW74088  15.278  14.047   7.481
24613SOL    HW174089  15.351  14.044   7.544
24613SOL    HW274090  15.319  14.074   7.399
24614SOL     OW74091   6.699   7.681   6.284
24614SOL    HW174092   6.728   7.761   6.329
24614SOL    HW274093   6.636   7.713   6.218
24615SOL     OW74094   5.293   8.962   2.058
24615SOL    HW174095   5.332   8.968   1.971
24615SOL    HW274096   5.274   8.868   2.069
24616SOL     OW74097   7.257   7.350   1.325
24616SOL    HW174098   7.290   7.432   1.361
24616SOL    HW274099   7.288   7.349   1.234
24617SOL     OW74100   5.495   3.033   1.237
24617SOL    HW174101   5.435   2.991   1.299
24617SOL    HW274102   5.526   3.111   1.284
24618SOL     OW74103   9.970  10.057   3.309
24618SOL    HW174104   9.941  10.126   3.249
24618SOL    HW274105   9.905   9.988   3.299
24619SOL     OW74106   7.188   1.138   1.074
24619SOL    HW174107   7.145   1.193   1.008
24619SOL    HW274108   7.260   1.097   1.028
24620SOL     OW74109  13.709   8.620   4.704
24620SOL    HW174110  13.728   8.685   4.636
24620SOL    HW274111  13.623   8.585   4.680
24621SOL     OW74112   0.807   6.682   0.367
24621SOL    HW174113   0.797   6.777   0.367
24621SOL    HW274114   0.790   6.655   0.457
24622SOL     OW74115   8.097  14.683   6.996
24622SOL    HW174116   8.134  14.703   7.082
24622SOL    HW274117   8.147  14.737   6.935
24623SOL     OW74118  11.927   9.874   3.013
24623SOL    HW174119  11.896   9.882   3.103
24623SOL    HW274120  11.998   9.810   3.018
24624SOL     OW74121   2.736   3.981   1.660
24624SOL    HW174122   2.815   3.932   1.641
24624SOL    HW274123   2.758   4.034   1.737
24625SOL     OW74124   9.370   6.527   2.649
24625SOL    HW174125   9.314   6.510   2.725
24625SOL    HW274126   9.458   6.506   2.678
24626SOL     OW74127   6.404  10.025   4.711
24626SOL    HW174128   6.401   9.991   4.801
24626SOL    HW274129   6.495  10.052   4.699
24627SOL     OW74130   3.726   5.450   0.004
24627SOL    HW174131   3.811   5.462   0.047
24627SOL    HW274132   3.686   5.537   0.005
24628SOL     OW74133   4.469   3.108   2.094
24628SOL    HW174134   4.425   3.055   2.028
24628SOL    HW274135   4.562   3.089   2.083
24629SOL     OW74136   3.134   4.093   4.030
24629SOL    HW174137   3.152   3.999   4.038
24629SOL    HW274138   3.059   4.099   3.972
24630SOL     OW74139   5.198   4.421   5.009
24630SOL    HW174140   5.135   4.396   5.076
24630SOL    HW274141   5.150   4.410   4.926
24631SOL     OW74142  12.474  13.083   6.518
24631SOL    HW174143  12.481  13.152   6.584
24631SOL    HW274144  12.509  13.005   6.561
24632SOL     OW74145   8.391   6.010   6.455
24632SOL    HW174146   8.370   6.007   6.548
24632SOL    HW274147   8.454   6.081   6.447
24633SOL     OW74148  11.605  13.907   6.376
24633SOL    HW174149  11.621  13.960   6.298
24633SOL    HW274150  11.592  13.818   6.343
24634SOL     OW74151  11.157   4.097   2.373
24634SOL    HW174152  11.195   4.137   2.294
24634SOL    HW274153  11.078   4.053   2.342
24635SOL     OW74154  11.585   8.703   6.940
24635SOL    HW174155  11.557   8.723   7.029
24635SOL    HW274156  11.667   8.750   6.930
24636SOL     OW74157   3.728   8.654   2.384
24636SOL    HW174158   3.687   8.625   2.302
24636SOL    HW274159   3.670   8.620   2.453
24637SOL     OW74160   6.028   3.997   5.437
24637SOL    HW174161   5.935   3.979   5.443
24637SOL    HW274162   6.057   3.950   5.359
24638SOL     OW74163  14.528   3.921   5.383
24638SOL    HW174164  14.504   3.961   5.467
24638SOL    HW274165  14.501   3.986   5.318
24639SOL     OW74166  10.778  13.699   6.750
24639SOL    HW174167  10.830  13.687   6.671
24639SOL    HW274168  10.792  13.618   6.800
24640SOL     OW74169  11.045   6.427   1.601
24640SOL    HW174170  11.084   6.473   1.528
24640SOL    HW274171  10.952   6.449   1.597
24641SOL     OW74172   7.498  13.784   6.297
24641SOL    HW174173   7.580  13.781   6.347
24641SOL    HW274174   7.467  13.694   6.296
24642SOL     OW74175   5.955   3.264   0.571
24642SOL    HW174176   5.897   3.212   0.625
24642SOL    HW274177   5.930   3.242   0.481
24643SOL     OW74178  11.110  11.620   4.026
24643SOL    HW174179  11.178  11.627   4.093
24643SOL    HW274180  11.058  11.700   4.035
24644SOL     OW74181  11.333  10.676   2.057
24644SOL    HW174182  11.326  10.581   2.055
24644SOL    HW274183  11.260  10.707   2.004
24645SOL     OW74184   6.185  10.681   1.476
24645SOL    HW174185   6.103  10.727   1.456
24645SOL    HW274186   6.220  10.656   1.390
24646SOL     OW74187  10.290  10.833   4.626
24646SOL    HW174188  10.275  10.824   4.720
24646SOL    HW274189  10.360  10.770   4.606
24647SOL     OW74190  10.004  14.247   5.666
24647SOL    HW174191   9.963  14.214   5.746
24647SOL    HW274192   9.937  14.238   5.598
24648SOL     OW74193   0.669   3.904   0.007
24648SOL    HW174194   5.996   9.220   7.604
24648SOL    HW274195   0.664   3.911   0.102
24649SOL     OW74196   5.721   8.450   5.293
24649SOL    HW174197   5.794   8.511   5.305
24649SOL    HW274198   5.686   8.473   5.207
24650SOL     OW74199  14.147   7.905   6.741
24650SOL    HW174200  14.119   7.950   6.661
24650SOL    HW274201  14.185   7.974   6.795
24651SOL     OW74202   9.118   3.329   4.302
24651SOL    HW174203   9.128   3.286   4.387
24651SOL    HW274204   9.189   3.394   4.300
24652SOL     OW74205   8.554   9.861   6.505
24652SOL    HW174206   8.632   9.843   6.453
24652SOL    HW274207   8.502   9.919   6.451
24653SOL     OW74208   7.778   7.417   7.239
24653SOL    HW174209   7.753   7.341   7.186
24653SOL    HW274210   7.718   7.487   7.211
24654SOL     OW74211   6.249  10.192   2.530
24654SOL    HW174212   6.342  10.191   2.510
24654SOL    HW274213   6.206  10.174   2.446
24655SOL     OW74214  14.085   9.912   5.209
24655SOL    HW174215  14.078   9.905   5.114
24655SOL    HW274216  14.000   9.881   5.242
24656SOL     OW74217  11.028  12.463   4.273
24656SOL    HW174218  11.043  12.424   4.186
24656SOL    HW274219  10.939  12.435   4.296
24657SOL     OW74220   3.568   8.276   4.360
24657SOL    HW174221   3.602   8.319   4.439
24657SOL    HW274222   3.645   8.241   4.316
24658SOL     OW74223   3.983   3.357   3.228
24658SOL    HW174224   3.979   3.453   3.227
24658SOL    HW274225   4.049   3.335   3.162
24659SOL     OW74226   3.395   6.308   2.584
24659SOL    HW174227   3.454   6.373   2.546
24659SOL    HW274228   3.408   6.316   2.678
24660SOL     OW74229  14.441   8.574   6.584
24660SOL    HW174230  14.480   8.652   6.625
24660SOL    HW274231  14.347   8.589   6.589
24661SOL     OW74232   4.095  10.431   4.276
24661SOL    HW174233   4.177  10.398   4.313
24661SOL    HW274234   4.028  10.406   4.340
24662SOL     OW74235   6.186   7.207   5.370
24662SOL    HW174236   6.166   7.133   5.428
24662SOL    HW274237   6.238   7.266   5.424
24663SOL     OW74238   6.280   7.278   5.623
24663SOL    HW174239   6.252   7.317   5.706
24663SOL    HW274240   6.374   7.294   5.619
24664SOL     OW74241  10.023  10.608   5.685
24664SOL    HW174242   9.936  10.643   5.704
24664SOL    HW274243  10.079  10.649   5.750
24665SOL     OW74244   3.154  10.259   3.706
24665SOL    HW174245   3.148  10.336   3.650
24665SOL    HW274246   3.248  10.249   3.723
24666SOL     OW74247  10.086  10.299   3.283
24666SOL    HW174248  10.128  10.299   3.198
24666SOL    HW274249  10.155  10.276   3.345
24667SOL     OW74250   5.790   6.843   1.627
24667SOL    HW174251   5.781   6.775   1.693
24667SOL    HW274252   5.709   6.893   1.634
24668SOL     OW74253   6.868  10.231   7.351
24668SOL    HW174254   6.834  10.231   7.440
24668SOL    HW274255   6.864  10.139   7.323
24669SOL     OW74256   7.916   8.768   6.016
24669SOL    HW174257   7.854   8.836   5.991
24669SOL    HW274258   7.947   8.731   5.933
24670SOL     OW74259  10.963   2.308   1.118
24670SOL    HW174260  10.926   2.396   1.115
24670SOL    HW274261  11.058   2.322   1.125
24671SOL     OW74262   6.687   8.658   6.969
24671SOL    HW174263   6.654   8.578   6.927
24671SOL    HW274264   6.659   8.729   6.911
24672SOL     OW74265   9.810  13.903   4.460
24672SOL    HW174266   9.724  13.893   4.419
24672SOL    HW274267   9.820  13.825   4.515
24673SOL     OW74268   7.212  11.116   1.363
24673SOL    HW174269   7.159  11.037   1.372
24673SOL    HW274270   7.289  11.099   1.417
24674SOL     OW74271   5.086   2.238   1.570
24674SOL    HW174272   5.089   2.307   1.636
24674SOL    HW274273   5.014   2.182   1.597
24675SOL     OW74274   1.418   2.862   1.252
24675SOL    HW174275   1.385   2.936   1.201
24675SOL    HW274276   1.390   2.881   1.342
24676SOL     OW74277   3.213   5.468   3.713
24676SOL    HW174278   3.151   5.501   3.649
24676SOL    HW274279   3.209   5.373   3.704
24677SOL     OW74280   0.748   7.375   0.021
24677SOL    HW174281   0.788   7.462   0.017
24677SOL    HW274282   0.663   7.390   0.064
24678SOL     OW74283   2.552   9.434   2.820
24678SOL    HW174284   2.553   9.354   2.767
24678SOL    HW274285   2.530   9.404   2.908
24679SOL     OW74286   1.721   2.798   0.242
24679SOL    HW174287   1.631   2.830   0.244
24679SOL    HW274288   1.765   2.848   0.310
24680SOL     OW74289   7.874   4.742   1.317
24680SOL    HW174290   7.870   4.708   1.227
24680SOL    HW274291   7.936   4.815   1.312
24681SOL     OW74292   3.088   9.835   1.967
24681SOL    HW174293   3.136   9.802   2.043
24681SOL    HW274294   3.018   9.889   2.004
24682SOL     OW74295   8.654  10.549   4.839
24682SOL    HW174296   8.666  10.458   4.864
24682SOL    HW274297   8.741  10.579   4.814
24683SOL     OW74298   8.033  14.387   7.458
24683SOL    HW174299   7.948  14.427   7.477
24683SOL    HW274300   8.086  14.459   7.424
24684SOL     OW74301   9.381  11.338   2.343
24684SOL    HW174302   9.370  11.295   2.428
24684SOL    HW274303   9.305  11.396   2.335
24685SOL     OW74304   8.847   5.962   3.017
24685SOL    HW174305   8.911   5.961   2.946
24685SOL    HW274306   8.900   5.954   3.097
24686SOL     OW74307   9.654   5.468   0.054
24686SOL    HW174308   9.580   5.411   0.076
24686SOL    HW274309  15.019  10.888   7.585
24687SOL     OW74310   5.908   1.574   1.749
24687SOL    HW174311   5.872   1.529   1.825
24687SOL    HW274312   5.979   1.628   1.784
24688SOL     OW74313   3.477   6.964   0.611
24688SOL    HW174314   3.409   6.953   0.545
24688SOL    HW274315   3.559   6.959   0.562
24689SOL     OW74316  10.106   7.728   1.846
24689SOL    HW174317  10.052   7.802   1.874
24689SOL    HW274318  10.140   7.755   1.761
24690SOL     OW74319  12.142  12.245   7.048
24690SOL    HW174320  12.087  12.169   7.029
24690SOL    HW274321  12.090  12.320   7.020
24691SOL     OW74322   8.806  10.218   3.655
24691SOL    HW174323   8.839  10.293   3.703
24691SOL    HW274324   8.820  10.143   3.713
24692SOL     OW74325   2.293   5.811   1.814
24692SOL    HW174326   2.290   5.735   1.873
24692SOL    HW274327   2.231   5.789   1.744
24693SOL     OW74328   3.507   8.158   0.097
24693SOL    HW174329   3.502   8.098   0.172
24693SOL    HW274330   3.549   8.237   0.133
24694SOL     OW74331  13.580   9.067   7.538
24694SOL    HW174332  13.500   9.082   7.587
24694SOL    HW274333  13.636   9.143   7.558
24695SOL     OW74334   9.879   5.734   1.022
24695SOL    HW174335   9.901   5.714   0.931
24695SOL    HW274336   9.917   5.662   1.072
24696SOL     OW74337   7.406   5.653   0.959
24696SOL    HW174338   7.465   5.603   0.902
24696SOL    HW274339   7.395   5.598   1.036
24697SOL     OW74340   3.639  11.504   1.871
24697SOL    HW174341   3.639  11.598   1.858
24697SOL    HW274342   3.616  11.493   1.964
24698SOL     OW74343  11.630  13.655   7.386
24698SOL    HW174344  11.595  13.741   7.364
24698SOL    HW274345  11.621  13.604   7.306
24699SOL     OW74346   2.629  10.403   0.005
24699SOL    HW174347   2.543  10.443   0.014
24699SOL    HW274348   2.614  10.309   0.015
24700SOL     OW74349  12.174   8.813   5.676
24700SOL    HW174350  12.225   8.860   5.610
24700SOL    HW274351  12.107   8.766   5.626
24701SOL     OW74352  13.691  12.583   4.675
24701SOL    HW174353  13.728  12.522   4.611
24701SOL    HW274354  13.671  12.529   4.751
24702SOL     OW74355  11.386   7.274   0.980
24702SOL    HW174356   0.671   7.330   0.930
24702SOL    HW274357  11.362   7.204   0.919
24703SOL     OW74358   2.578  10.072   1.043
24703SOL    HW174359   2.545  10.152   1.001
24703SOL    HW274360   2.643  10.038   0.982
24704SOL     OW74361   8.232   2.248   0.379
24704SOL    HW174362   8.318   2.253   0.421
24704SOL    HW274363   8.211   2.339   0.358
24705SOL     OW74364  14.674  12.290   6.322
24705SOL    HW174365  14.587  12.329   6.312
24705SOL    HW274366  14.659  12.196   6.325
24706SOL     OW74367   3.549   9.612   4.912
24706SOL    HW174368  14.311   9.632   5.005
24706SOL    HW274369   3.471   9.563   4.887
24707SOL     OW74370   8.028   3.148   0.706
24707SOL    HW174371   8.025   3.112   0.795
24707SOL    HW274372   8.119   3.138   0.680
24708SOL     OW74373  11.984   8.372   3.182
24708SOL    HW174374  12.009   8.285   3.152
24708SOL    HW274375  11.895   8.384   3.148
24709SOL     OW74376  12.369   9.018   5.606
24709SOL    HW174377  12.460   9.003   5.631
24709SOL    HW274378  12.358   8.970   5.525
24710SOL     OW74379   4.027   7.772   1.076
24710SOL    HW174380   4.022   7.865   1.056
24710SOL    HW274381   4.121   7.752   1.072
24711SOL     OW74382  10.054   3.871   0.600
24711SOL    HW174383  10.022   3.838   0.515
24711SOL    HW274384   9.979   3.917   0.638
24712SOL     OW74385   5.907   3.158   2.055
24712SOL    HW174386   5.890   3.209   1.976
24712SOL    HW274387   5.990   3.114   2.037
24713SOL     OW74388  10.184   6.809   0.249
24713SOL    HW174389  10.161   6.887   0.198
24713SOL    HW274390  10.189   6.739   0.184
24714SOL     OW74391  14.664  15.869   7.368
24714SOL    HW174392  14.689  15.783   7.333
24714SOL    HW274393  14.723  15.884   7.441
24715SOL     OW74394  13.503   9.732   7.437
24715SOL    HW174395  13.469   9.713   7.524
24715SOL    HW274396  13.598   9.727   7.446
24716SOL     OW74397   7.112   7.811   0.249
24716SOL    HW174398   7.053   7.740   0.274
24716SOL    HW274399   7.117   7.806   0.153
24717SOL     OW74400   8.167  11.475   5.663
24717SOL    HW174401   8.073  11.458   5.672
24717SOL    HW274402   8.172  11.557   5.614
24718SOL     OW74403   6.125  10.569   7.060
24718SOL    HW174404   6.205  10.622   7.060
24718SOL    HW274405   6.054  10.633   7.067
24719SOL     OW74406   5.334   6.738   2.585
24719SOL    HW174407   5.376   6.811   2.540
24719SOL    HW274408   5.334   6.666   2.521
24720SOL     OW74409   7.007  11.032   0.629
24720SOL    HW174410   6.944  11.003   0.695
24720SOL    HW274411   6.956  11.087   0.570
24721SOL     OW74412   4.181   5.430   5.336
24721SOL    HW174413   4.239   5.498   5.371
24721SOL    HW274414   4.094   5.455   5.365
24722SOL     OW74415   9.864   4.513   0.058
24722SOL    HW174416  15.318   9.866   7.617
24722SOL    HW274417   9.790   4.453   0.048
24723SOL     OW74418  11.205  13.172   3.771
24723SOL    HW174419  11.116  13.203   3.753
24723SOL    HW274420  11.209  13.166   3.866
24724SOL     OW74421   8.971  12.666   2.841
24724SOL    HW174422   8.968  12.706   2.754
24724SOL    HW274423   9.065  12.658   2.860
24725SOL     OW74424  13.504   8.094   5.265
24725SOL    HW174425  13.580   8.121   5.317
24725SOL    HW274426  13.429   8.108   5.324
24726SOL     OW74427   5.183  14.540   7.105
24726SOL    HW174428   5.229  14.614   7.143
24726SOL    HW274429   5.091  14.567   7.103
24727SOL     OW74430  11.717  15.780   7.553
24727SOL    HW174431  11.734  15.698   7.505
24727SOL    HW274432   6.311  10.364   0.024
24728SOL     OW74433   3.889   5.965   5.468
24728SOL    HW174434  14.612   5.967   5.549
24728SOL    HW274435   3.835   5.917   5.406
24729SOL     OW74436   7.936   8.696   5.518
24729SOL    HW174437   7.965   8.787   5.513
24729SOL    HW274438   7.984   8.651   5.449
24730SOL     OW74439   5.027  10.849   1.369
24730SOL    HW174440   5.108  10.798   1.372
24730SOL    HW274441   5.054  10.936   1.340
24731SOL     OW74442   5.433   9.248   3.275
24731SOL    HW174443   5.370   9.225   3.206
24731SOL    HW274444   5.477   9.166   3.296
24732SOL     OW74445   1.615   2.331   0.256
24732SOL    HW174446   1.532   2.336   0.303
24732SOL    HW274447   1.660   2.256   0.295
24733SOL     OW74448  10.468  11.355   1.141
24733SOL    HW174449  10.469  11.337   1.235
24733SOL    HW274450  10.548  11.315   1.109
24734SOL     OW74451   8.000   7.329   5.335
24734SOL    HW174452   8.013   7.255   5.276
24734SOL    HW274453   8.070   7.319   5.400
24735SOL     OW74454   9.781  13.996   4.764
24735SOL    HW174455   9.784  13.960   4.675
24735SOL    HW274456   9.846  14.067   4.763
24736SOL     OW74457   8.555   2.908   2.128
24736SOL    HW174458   8.594   2.994   2.140
24736SOL    HW274459   8.526   2.907   2.036
24737SOL     OW74460   4.703   6.297   5.416
24737SOL    HW174461   4.796   6.315   5.427
24737SOL    HW274462   4.670   6.287   5.506
24738SOL     OW74463   5.163   5.511   3.561
24738SOL    HW174464   5.251   5.550   3.562
24738SOL    HW274465   5.135   5.518   3.470
24739SOL     OW74466  11.661  12.250   7.127
24739SOL    HW174467  11.589  12.189   7.111
24739SOL    HW274468  11.633  12.331   7.086
24740SOL     OW74469  10.755   1.779   1.899
24740SOL    HW174470  10.677   1.756   1.948
24740SOL    HW274471  10.827   1.767   1.961
24741SOL     OW74472   9.001   8.693   3.571
24741SOL    HW174473   9.020   8.786   3.587
24741SOL    HW274474   8.988   8.688   3.477
24742SOL     OW74475   2.991   8.191   1.774
24742SOL    HW174476   2.962   8.257   1.836
24742SOL    HW274477   3.087   8.192   1.781
24743SOL     OW74478   8.780   7.285   7.221
24743SOL    HW174479   8.705   7.271   7.278
24743SOL    HW274480   8.776   7.213   7.158
24744SOL     OW74481   2.268  10.568   1.992
24744SOL    HW174482   2.350  10.520   1.983
24744SOL    HW274483   2.264  10.590   2.085
24745SOL     OW74484   9.953   2.316   1.973
24745SOL    HW174485   9.860   2.311   1.952
24745SOL    HW274486   9.958   2.284   2.064
24746SOL     OW74487  12.918   6.885   5.523
24746SOL    HW174488  12.882   6.934   5.448
24746SOL    HW274489  12.917   6.793   5.494
24747SOL     OW74490   5.849   8.667   5.444
24747SOL    HW174491   5.903   8.671   5.523
24747SOL    HW274492   5.791   8.744   5.451
24748SOL     OW74493   9.693   7.815   1.008
24748SOL    HW174494   9.695   7.734   0.957
24748SOL    HW274495   9.698   7.787   1.099
24749SOL     OW74496   9.448   5.068   2.679
24749SOL    HW174497   9.504   5.000   2.642
24749SOL    HW274498   9.509   5.140   2.698
24750SOL     OW74499  11.057   9.910   7.503
24750SOL    HW174500  11.041   9.824   7.543
24750SOL    HW274501  10.980   9.926   7.450
24751SOL     OW74502  10.445   3.848   2.065
24751SOL    HW174503  10.416   3.937   2.046
24751SOL    HW274504  10.526   3.860   2.116
24752SOL     OW74505  15.256   5.873   6.544
24752SOL    HW174506  15.230   5.920   6.465
24752SOL    HW274507  15.280   5.786   6.513
24753SOL     OW74508  12.309   6.243   3.160
24753SOL    HW174509  12.257   6.302   3.106
24753SOL    HW274510  12.340   6.176   3.099
24754SOL     OW74511   8.457   8.966   2.899
24754SOL    HW174512   8.394   9.013   2.954
24754SOL    HW274513   8.434   8.991   2.810
24755SOL     OW74514   3.740   2.254   0.167
24755SOL    HW174515   3.710   2.340   0.139
24755SOL    HW274516   3.833   2.266   0.185
24756SOL     OW74517   9.694  14.299   5.214
24756SOL    HW174518   9.775  14.335   5.177
24756SOL    HW274519   9.649  14.260   5.140
24757SOL     OW74520   9.481  10.590   5.967
24757SOL    HW174521   9.426  10.577   6.044
24757SOL    HW274522   9.498  10.501   5.935
24758SOL     OW74523  11.177  11.624   5.350
24758SOL    HW174524  11.226  11.632   5.432
24758SOL    HW274525  11.086  11.640   5.374
24759SOL     OW74526   2.004   1.949   2.363
24759SOL    HW174527   1.993   2.005   2.286
24759SOL    HW274528   1.965   1.865   2.337
24760SOL     OW74529   8.451   9.312   0.917
24760SOL    HW174530   8.462   9.220   0.941
24760SOL    HW274531   8.356   9.326   0.921
24761SOL     OW74532   8.887   5.905   2.063
24761SOL    HW174533   8.868   5.828   2.116
24761SOL    HW274534   8.982   5.906   2.053
24762SOL     OW74535   7.324   4.148   0.037
24762SOL    HW174536   7.363   4.235   0.050
24762SOL    HW274537   7.242   4.151   0.087
24763SOL     OW74538  12.868   5.127   6.035
24763SOL    HW174539  12.878   5.060   6.104
24763SOL    HW274540  12.783   5.108   5.996
24764SOL     OW74541  14.256  15.733   7.149
24764SOL    HW174542  14.270  15.666   7.215
24764SOL    HW274543  14.315  15.805   7.173
24765SOL     OW74544   4.365   5.507   0.755
24765SOL    HW174545   4.406   5.468   0.832
24765SOL    HW274546   4.271   5.505   0.774
24766SOL     OW74547   2.866   4.363   0.718
24766SOL    HW174548   2.840   4.272   0.708
24766SOL    HW274549   2.927   4.363   0.792
24767SOL     OW74550  13.493   8.942   5.858
24767SOL    HW174551  13.556   8.959   5.787
24767SOL    HW274552  13.493   9.023   5.909
24768SOL     OW74553   4.313  10.951   1.879
24768SOL    HW174554   4.322  10.868   1.926
24768SOL    HW274555   4.396  10.996   1.894
24769SOL     OW74556  10.850   6.545   7.046
24769SOL    HW174557  10.877   6.633   7.022
24769SOL    HW274558  10.928   6.491   7.035
24770SOL     OW74559   8.326   6.068   0.280
24770SOL    HW174560   8.379   6.077   0.359
24770SOL    HW274561   8.378   6.014   0.221
24771SOL     OW74562   8.010   6.840   3.091
24771SOL    HW174563   8.096   6.876   3.113
24771SOL    HW274564   7.962   6.913   3.053
24772SOL     OW74565   4.332   7.581   1.601
24772SOL    HW174566   4.313   7.496   1.560
24772SOL    HW274567   4.401   7.619   1.546
24773SOL     OW74568   4.005   8.936   3.476
24773SOL    HW174569   3.936   8.869   3.481
24773SOL    HW274570   3.961   9.013   3.440
24774SOL     OW74571  11.274   4.619   3.366
24774SOL    HW174572  11.333   4.547   3.346
24774SOL    HW274573  11.301   4.690   3.306
24775SOL     OW74574   6.442   3.145   3.941
24775SOL    HW174575   6.380   3.081   3.976
24775SOL    HW274576   6.431   3.222   3.996
24776SOL     OW74577   2.819   4.621   0.951
24776SOL    HW174578   2.753   4.673   0.904
24776SOL    HW274579   2.881   4.686   0.984
24777SOL     OW74580  10.321   6.650   7.040
24777SOL    HW174581  10.284   6.579   6.987
24777SOL    HW274582  10.416   6.635   7.037
24778SOL     OW74583   8.943  13.276   5.350
24778SOL    HW174584   9.011  13.321   5.299
24778SOL    HW274585   8.897  13.221   5.286
24779SOL     OW74586   8.330  10.546   0.359
24779SOL    HW174587   8.362  10.544   0.449
24779SOL    HW274588   8.387  10.609   0.315
24780SOL     OW74589   7.110  10.988   4.449
24780SOL    HW174590   7.094  10.983   4.355
24780SOL    HW274591   7.205  10.992   4.457
24781SOL     OW74592   2.255  10.330   2.391
24781SOL    HW174593   2.205  10.251   2.369
24781SOL    HW274594   2.196  10.380   2.448
24782SOL     OW74595   1.729  10.333   1.574
24782SOL    HW174596   1.669  10.388   1.625
24782SOL    HW274597   1.801  10.313   1.634
24783SOL     OW74598   4.507   5.344   5.324
24783SOL    HW174599   4.427   5.396   5.315
24783SOL    HW274600   4.568   5.384   5.262
24784SOL     OW74601   6.252   3.102   0.714
24784SOL    HW174602   6.160   3.102   0.742
24784SOL    HW274603   6.286   3.018   0.745
24785SOL     OW74604  10.868   6.814   7.015
24785SOL    HW174605  10.950   6.812   7.065
24785SOL    HW274606  10.882   6.882   6.948
24786SOL     OW74607   6.428   2.717   3.345
24786SOL    HW174608   6.403   2.754   3.430
24786SOL    HW274609   6.438   2.623   3.362
24787SOL     OW74610  11.537   9.765   2.235
24787SOL    HW174611  11.467   9.828   2.220
24787SOL    HW274612  11.552   9.726   2.149
24788SOL     OW74613  13.923  13.958   5.728
24788SOL    HW174614  14.004  13.923   5.766
24788SOL    HW274615  13.865  13.882   5.722
24789SOL     OW74616   5.730   3.535   4.807
24789SOL    HW174617   5.767   3.600   4.747
24789SOL    HW274618   5.712   3.459   4.751
24790SOL     OW74619   4.993  15.008   6.467
24790SOL    HW174620   4.987  15.080   6.530
24790SOL    HW274621   5.077  15.021   6.422
24791SOL     OW74622   9.933   4.892   6.684
24791SOL    HW174623  10.022   4.905   6.652
24791SOL    HW274624   9.936   4.808   6.730
24792SOL     OW74625   1.865   9.797   0.343
24792SOL    HW174626   1.822   9.878   0.371
24792SOL    HW274627   1.805   9.728   0.371
24793SOL     OW74628   8.696   8.606   2.274
24793SOL    HW174629   8.675   8.630   2.364
24793SOL    HW274630   8.642   8.664   2.220
24794SOL     OW74631  12.371   7.430   2.478
24794SOL    HW174632  12.276   7.442   2.481
24794SOL    HW274633  12.406   7.517   2.458
24795SOL     OW74634  10.996   9.094   6.176
24795SOL    HW174635  11.027   9.061   6.091
24795SOL    HW274636  11.072   9.139   6.213
24796SOL     OW74637   4.692  13.065   5.210
24796SOL    HW174638   4.650  13.145   5.241
24796SOL    HW274639   4.724  13.087   5.122
24797SOL     OW74640  11.721   4.985   6.065
24797SOL    HW174641  11.661   5.058   6.051
24797SOL    HW274642  11.781   4.989   5.991
24798SOL     OW74643   3.254  11.308   3.059
24798SOL    HW174644   3.173  11.279   3.017
24798SOL    HW274645   3.302  11.227   3.078
24799SOL     OW74646  11.424   5.561   1.256
24799SOL    HW174647  11.384   5.474   1.254
24799SOL    HW274648  11.382   5.605   1.329
24800SOL     OW74649   3.582   7.173   1.972
24800SOL    HW174650   3.628   7.220   1.903
24800SOL    HW274651   3.576   7.235   2.045
24801SOL     OW74652   5.668   9.089   1.395
24801SOL    HW174653   5.729   9.145   1.443
24801SOL    HW274654   5.632   9.146   1.327
24802SOL     OW74655   8.857   9.620   1.951
24802SOL    HW174656   8.855   9.589   1.860
24802SOL    HW274657   8.936   9.675   1.955
24803SOL     OW74658   7.771   7.625   3.665
24803SOL    HW174659   7.735   7.563   3.601
24803SOL    HW274660   7.758   7.582   3.749
24804SOL     OW74661  12.095   1.850   2.296
24804SOL    HW174662  12.070   1.898   2.217
24804SOL    HW274663  12.129   1.917   2.356
24805SOL     OW74664  11.441   7.492   6.760
24805SOL    HW174665  11.440   7.471   6.854
24805SOL    HW274666  11.475   7.413   6.718
24806SOL     OW74667  14.777   7.886   7.124
24806SOL    HW174668  14.737   7.804   7.152
24806SOL    HW274669  14.704   7.947   7.117
24807SOL     OW74670   1.750   2.732   2.265
24807SOL    HW174671   1.818   2.759   2.327
24807SOL    HW274672   1.709   2.656   2.306
24808SOL     OW74673   8.803   7.086   4.583
24808SOL    HW174674   8.877   7.026   4.588
24808SOL    HW274675   8.752   7.055   4.508
24809SOL     OW74676  11.379  10.509   5.083
24809SOL    HW174677  11.288  10.515   5.054
24809SOL    HW274678  11.398  10.596   5.120
24810SOL     OW74679   5.036   6.479   2.179
24810SOL    HW174680   4.952   6.441   2.205
24810SOL    HW274681   5.037   6.565   2.221
24811SOL     OW74682  10.377   9.865   2.671
24811SOL    HW174683  10.341   9.901   2.590
24811SOL    HW274684  10.302   9.864   2.732
24812SOL     OW74685   2.691   6.989   3.417
24812SOL    HW174686   2.726   6.914   3.467
24812SOL    HW274687   2.767   7.047   3.406
24813SOL     OW74688  13.340   4.937   6.409
24813SOL    HW174689  13.282   4.887   6.466
24813SOL    HW274690  13.388   4.994   6.469
24814SOL     OW74691   8.787   1.780   1.620
24814SOL    HW174692   8.788   1.748   1.530
24814SOL    HW274693   8.715   1.731   1.661
24815SOL     OW74694  13.471   8.446   5.619
24815SOL    HW174695  13.551   8.477   5.661
24815SOL    HW274696  13.502   8.396   5.543
24816SOL     OW74697   6.920  11.559   5.375
24816SOL    HW174698   6.959  11.472   5.365
24816SOL    HW274699   6.830  11.549   5.345
24817SOL     OW74700   5.892   8.137   1.923
24817SOL    HW174701   5.921   8.225   1.900
24817SOL    HW274702   5.954   8.079   1.879
24818SOL     OW74703  10.038  11.956   5.903
24818SOL    HW174704  10.073  11.923   5.986
24818SOL    HW274705  10.113  11.956   5.844
24819SOL     OW74706   6.983   4.686   3.224
24819SOL    HW174707   6.968   4.780   3.215
24819SOL    HW274708   6.906   4.646   3.184
24820SOL     OW74709   4.735   5.412   5.178
24820SOL    HW174710   4.723   5.497   5.221
24820SOL    HW274711   4.735   5.432   5.085
24821SOL     OW74712   4.178   3.648   1.321
24821SOL    HW174713   4.193   3.706   1.246
24821SOL    HW274714   4.266   3.619   1.346
24822SOL     OW74715  11.929   9.557   7.406
24822SOL    HW174716  11.951   9.637   7.358
24822SOL    HW274717  11.988   9.557   7.481
24823SOL     OW74718   7.581   8.083   6.075
24823SOL    HW174719   7.628   8.002   6.095
24823SOL    HW274720   7.640   8.153   6.101
24824SOL     OW74721  10.151  11.109   3.435
24824SOL    HW174722  10.069  11.140   3.475
24824SOL    HW274723  10.144  11.014   3.437
24825SOL     OW74724  11.080   6.195   2.005
24825SOL    HW174725  11.133   6.268   2.037
24825SOL    HW274726  11.139   6.119   2.008
24826SOL     OW74727   8.401   4.871   1.258
24826SOL    HW174728   8.490   4.859   1.292
24826SOL    HW274729   8.363   4.938   1.315
24827SOL     OW74730   6.264   8.050   6.635
24827SOL    HW174731   6.188   8.049   6.577
24827SOL    HW274732   6.301   7.962   6.627
24828SOL     OW74733   6.516  12.106   5.007
24828SOL    HW174734   6.583  12.042   5.031
24828SOL    HW274735   6.553  12.153   4.932
24829SOL     OW74736   3.078   5.087   0.966
24829SOL    HW174737   2.984   5.100   0.968
24829SOL    HW274738   3.089   4.992   0.974
24830SOL     OW74739  13.913  12.907   6.246
24830SOL    HW174740  13.864  12.832   6.279
24830SOL    HW274741  13.890  12.979   6.304
24831SOL     OW74742   4.410   8.247   1.316
24831SOL    HW174743   4.462   8.167   1.310
24831SOL    HW274744   4.319   8.217   1.320
24832SOL     OW74745   8.970   9.331   1.822
24832SOL    HW174746   8.888   9.371   1.850
24832SOL    HW274747   8.972   9.342   1.727
24833SOL     OW74748  12.921   6.558   7.587
24833SOL    HW174749  12.887   6.573   7.499
24833SOL    HW274750  12.999   6.613   7.593
24834SOL     OW74751   7.527  12.787   3.914
24834SOL    HW174752   7.530  12.879   3.889
24834SOL    HW274753   7.582  12.781   3.992
24835SOL     OW74754  11.265   8.685   5.246
24835SOL    HW174755  11.182   8.687   5.199
24835SOL    HW274756  11.269   8.770   5.290
24836SOL     OW74757  12.074   7.442   2.504
24836SOL    HW174758  12.041   7.517   2.453
24836SOL    HW274759  12.032   7.452   2.589
24837SOL     OW74760  11.567   8.901   6.563
24837SOL    HW174761  11.507   8.826   6.567
24837SOL    HW274762  11.524   8.964   6.506
24838SOL     OW74763   4.996   9.217   3.860
24838SOL    HW174764   4.927   9.261   3.910
24838SOL    HW274765   4.965   9.221   3.769
24839SOL     OW74766   8.643   4.615   1.820
24839SOL    HW174767   8.570   4.645   1.874
24839SOL    HW274768   8.646   4.520   1.835
24840SOL     OW74769   7.573   4.838   6.751
24840SOL    HW174770   7.664   4.824   6.723
24840SOL    HW274771   7.521   4.818   6.674
24841SOL     OW74772   5.327   5.016   3.297
24841SOL    HW174773   5.290   5.075   3.363
24841SOL    HW274774   5.365   5.075   3.231
24842SOL     OW74775   8.597   7.917   3.409
24842SOL    HW174776   8.514   7.890   3.447
24842SOL    HW274777   8.646   7.835   3.398
24843SOL     OW74778   6.941   6.307   0.832
24843SOL    HW174779   7.000   6.306   0.907
24843SOL    HW274780   6.951   6.220   0.794
24844SOL     OW74781   5.379   8.754   5.705
24844SOL    HW174782   5.322   8.813   5.656
24844SOL    HW274783   5.464   8.759   5.661
24845SOL     OW74784   5.859  11.720   7.431
24845SOL    HW174785   5.947  11.684   7.414
24845SOL    HW274786   5.800  11.655   7.394
24846SOL     OW74787   9.507   5.279   7.399
24846SOL    HW174788   9.415   5.290   7.425
24846SOL    HW274789   9.518  15.959   7.392
24847SOL     OW74790  13.759  13.021   5.776
24847SOL    HW174791  13.736  12.975   5.695
24847SOL    HW274792  13.835  13.075   5.752
24848SOL     OW74793   9.574  11.749   4.381
24848SOL    HW174794   9.602  11.671   4.333
24848SOL    HW274795   9.483  11.761   4.354
24849SOL     OW74796   1.831  11.755   2.192
24849SOL    HW174797   1.811  11.849   2.189
24849SOL    HW274798   1.905  11.745   2.132
24850SOL     OW74799   5.163   3.572   3.673
24850SOL    HW174800   5.185   3.616   3.755
24850SOL    HW274801   5.075   3.603   3.652
24851SOL     OW74802  10.648   8.082   3.223
24851SOL    HW174803  10.563   8.123   3.207
24851SOL    HW274804  10.679   8.055   3.137
24852SOL     OW74805  13.223  14.145   5.268
24852SOL    HW174806  13.168  14.167   5.193
24852SOL    HW274807  13.292  14.211   5.267
24853SOL     OW74808  13.265   7.879   5.263
24853SOL    HW174809  13.357   7.870   5.287
24853SOL    HW274810  13.218   7.877   5.347
24854SOL     OW74811  10.771   6.460   2.230
24854SOL    HW174812  10.823   6.539   2.243
24854SOL    HW274813  10.815   6.415   2.157
24855SOL     OW74814   5.083   3.611   2.118
24855SOL    HW174815   5.043   3.695   2.142
24855SOL    HW274816   5.169   3.613   2.159
24856SOL     OW74817  14.696   6.428   7.097
24856SOL    HW174818  14.611   6.407   7.058
24856SOL    HW274819  14.730   6.344   7.128
24857SOL     OW74820  10.905  11.596   3.261
24857SOL    HW174821  10.947  11.620   3.344
24857SOL    HW274822  10.835  11.536   3.287
24858SOL     OW74823  12.541   4.740   5.000
24858SOL    HW174824  12.543   4.833   5.021
24858SOL    HW274825  12.499   4.735   4.914
24859SOL     OW74826  11.214   9.157   5.522
24859SOL    HW174827  11.305   9.135   5.506
24859SOL    HW274828  11.215   9.215   5.598
24860SOL     OW74829   5.031   8.704   6.260
24860SOL    HW174830   4.960   8.645   6.232
24860SOL    HW274831   4.994   8.752   6.334
24861SOL     OW74832   8.024   5.776   0.862
24861SOL    HW174833   7.955   5.729   0.908
24861SOL    HW274834   7.985   5.800   0.778
24862SOL     OW74835   4.541   5.329   2.773
24862SOL    HW174836   4.589   5.405   2.739
24862SOL    HW274837   4.449   5.354   2.763
24863SOL     OW74838   1.920   5.238   2.192
24863SOL    HW174839   1.975   5.288   2.252
24863SOL    HW274840   1.926   5.148   2.223
24864SOL     OW74841   8.053  11.241   5.126
24864SOL    HW174842   8.006  11.307   5.176
24864SOL    HW274843   8.145  11.253   5.151
24865SOL     OW74844   7.763   5.174   2.390
24865SOL    HW174845   7.681   5.156   2.344
24865SOL    HW274846   7.741   5.166   2.483
24866SOL     OW74847   9.878   6.507   7.391
24866SOL    HW174848   9.911   6.451   7.321
24866SOL    HW274849   9.790   6.532   7.364
24867SOL     OW74850   1.792   4.070   0.795
24867SOL    HW174851   1.843   4.128   0.852
24867SOL    HW274852   1.776   4.122   0.716
24868SOL     OW74853  11.838  11.753   7.505
24868SOL    HW174854  11.795  11.779   7.424
24868SOL    HW274855  11.919  11.710   7.477
24869SOL     OW74856   1.446   7.940   0.173
24869SOL    HW174857   1.355   7.919   0.150
24869SOL    HW274858   1.498   7.905   0.101
24870SOL     OW74859   7.491   4.318   4.175
24870SOL    HW174860   7.527   4.240   4.218
24870SOL    HW274861   7.566   4.364   4.139
24871SOL     OW74862   4.692  12.503   2.643
24871SOL    HW174863   4.742  12.538   2.569
24871SOL    HW274864   4.671  12.413   2.617
24872SOL     OW74865   4.028   5.537   4.357
24872SOL    HW174866   4.024   5.445   4.330
24872SOL    HW274867   4.121   5.555   4.371
24873SOL     OW74868   5.616   6.802   7.550
24873SOL    HW174869   5.605   6.736   7.617
24873SOL    HW274870   5.593   6.758   7.468
24874SOL     OW74871   8.285   9.397   2.151
24874SOL    HW174872   8.217   9.463   2.140
24874SOL    HW274873   8.298   9.391   2.246
24875SOL     OW74874  12.439   6.914   6.327
24875SOL    HW174875  12.507   6.860   6.289
24875SOL    HW274876  12.486   6.985   6.371
24876SOL     OW74877   8.013   7.497   7.420
24876SOL    HW174878   8.016   7.472   7.512
24876SOL    HW274879   7.920   7.508   7.400
24877SOL     OW74880   5.382   5.278   4.867
24877SOL    HW174881   5.374   5.330   4.946
24877SOL    HW274882   5.313   5.212   4.874
24878SOL     OW74883  11.480  11.827   4.260
24878SOL    HW174884  11.548  11.887   4.290
24878SOL    HW274885  11.439  11.795   4.341
24879SOL     OW74886  13.568   4.493   5.448
24879SOL    HW174887  13.537   4.582   5.465
24879SOL    HW274888  13.503   4.437   5.490
24880SOL     OW74889   5.023   5.273   6.557
24880SOL    HW174890   5.051   5.278   6.649
24880SOL    HW274891   4.944   5.220   6.559
24881SOL     OW74892   9.566   3.985   4.619
24881SOL    HW174893   9.551   3.983   4.714
24881SOL    HW274894   9.545   3.897   4.589
24882SOL     OW74895   8.424   1.666   0.392
24882SOL    HW174896   8.473   1.745   0.413
24882SOL    HW274897   8.469   1.596   0.440
24883SOL     OW74898   4.502   5.993   6.090
24883SOL    HW174899   4.425   5.953   6.130
24883SOL    HW274900   4.563   6.008   6.163
24884SOL     OW74901   8.109   8.133   3.562
24884SOL    HW174902   8.037   8.187   3.594
24884SOL    HW274903   8.188   8.175   3.596
24885SOL     OW74904   3.432   0.878   0.132
24885SOL    HW174905   3.412   0.848   0.221
24885SOL    HW274906   3.526   0.899   0.135
24886SOL     OW74907   2.209  10.472   0.016
24886SOL    HW174908   2.156  10.494   0.092
24886SOL    HW274909   2.233  10.380   0.029
24887SOL     OW74910  11.528   5.879   5.168
24887SOL    HW174911  11.582   5.885   5.247
24887SOL    HW274912  11.561   5.949   5.112
24888SOL     OW74913   4.316  11.279   0.894
24888SOL    HW174914   4.277  11.228   0.823
24888SOL    HW274915   4.242  11.306   0.948
24889SOL     OW74916   9.926   5.687   6.107
24889SOL    HW174917   9.916   5.600   6.068
24889SOL    HW274918   9.955   5.670   6.197
24890SOL     OW74919  12.237  10.425   2.357
24890SOL    HW174920  12.292  10.470   2.293
24890SOL    HW274921  12.213  10.342   2.315
24891SOL     OW74922   7.336  13.572   4.108
24891SOL    HW174923   7.271  13.507   4.135
24891SOL    HW274924   7.374  13.602   4.191
24892SOL     OW74925   5.679   1.660   1.624
24892SOL    HW174926   5.756   1.625   1.669
24892SOL    HW274927   5.688   1.755   1.632
24893SOL     OW74928   5.260   4.855   2.345
24893SOL    HW174929   5.300   4.928   2.298
24893SOL    HW274930   5.255   4.785   2.280
24894SOL     OW74931  13.616   7.708   7.452
24894SOL    HW174932  13.599   7.664   7.535
24894SOL    HW274933  13.646   7.639   7.393
24895SOL     OW74934   7.244  13.117   7.344
24895SOL    HW174935   7.165  13.139   7.296
24895SOL    HW274936   7.309  13.180   7.314
24896SOL     OW74937   6.741  14.305   7.197
24896SOL    HW174938   6.680  14.281   7.127
24896SOL    HW274939   6.814  14.348   7.152
24897SOL     OW74940   8.247   8.439   6.278
24897SOL    HW174941   8.261   8.409   6.368
24897SOL    HW274942   8.179   8.506   6.285
24898SOL     OW74943   2.842  12.301   2.284
24898SOL    HW174944   2.762  12.249   2.291
24898SOL    HW274945   2.812  12.392   2.295
24899SOL     OW74946   6.338   5.527   5.862
24899SOL    HW174947   6.361   5.453   5.806
24899SOL    HW274948   6.324   5.488   5.949
24900SOL     OW74949  10.582  10.976   6.517
24900SOL    HW174950  10.546  10.933   6.440
24900SOL    HW274951  10.568  11.069   6.501
24901SOL     OW74952   6.439   8.778   7.478
24901SOL    HW174953   6.529   8.804   7.460
24901SOL    HW274954   6.433   8.776   7.573
24902SOL     OW74955  11.159   5.650   6.295
24902SOL    HW174956  11.198   5.619   6.376
24902SOL    HW274957  11.173   5.745   6.297
24903SOL     OW74958   3.403   5.222   4.021
24903SOL    HW174959   3.315   5.247   4.047
24903SOL    HW274960   3.450   5.305   4.012
24904SOL     OW74961   3.613  10.326   4.062
24904SOL    HW174962   3.566  10.243   4.049
24904SOL    HW274963   3.556  10.377   4.118
24905SOL     OW74964  10.075   1.074   0.339
24905SOL    HW174965  10.006   1.007   0.347
24905SOL    HW274966  10.077   1.116   0.425
24906SOL     OW74967   3.729  10.033   0.861
24906SOL    HW174968   3.757   9.990   0.942
24906SOL    HW274969   3.642   9.997   0.843
24907SOL     OW74970   2.917  12.527   3.132
24907SOL    HW174971   2.911  12.592   3.062
24907SOL    HW274972   2.867  12.566   3.205
24908SOL     OW74973   5.024   8.157   1.649
24908SOL    HW174974   5.013   8.208   1.729
24908SOL    HW274975   4.958   8.088   1.655
24909SOL     OW74976   5.151   6.639   5.564
24909SOL    HW174977   5.222   6.590   5.522
24909SOL    HW274978   5.184   6.728   5.570
24910SOL     OW74979  13.379   6.679   3.755
24910SOL    HW174980  13.291   6.645   3.770
24910SOL    HW274981   2.611   6.686   3.659
24911SOL     OW74982  11.387   3.172   1.206
24911SOL    HW174983  11.391   3.096   1.148
24911SOL    HW274984  11.427   3.243   1.156
24912SOL     OW74985  11.185   3.035   3.640
24912SOL    HW174986  11.223   2.987   3.713
24912SOL    HW274987  11.259   3.082   3.601
24913SOL     OW74988  11.690   6.947   2.208
24913SOL    HW174989  11.617   7.009   2.211
24913SOL    HW274990  11.673   6.894   2.130
24914SOL     OW74991  11.319   8.654   6.874
24914SOL    HW174992  11.308   8.674   6.782
24914SOL    HW274993  11.405   8.689   6.896
24915SOL     OW74994   4.351  13.133   4.581
24915SOL    HW174995   4.257  13.116   4.571
24915SOL    HW274996   4.383  13.143   4.491
24916SOL     OW74997   5.883  10.502   2.438
24916SOL    HW174998   5.819  10.573   2.448
24916SOL    HW274999   5.854  10.435   2.500
24917SOL     OW75000  11.105   8.730   3.217
24917SOL    HW175001  11.168   8.663   3.243
24917SOL    HW275002  11.087   8.779   3.297
24918SOL     OW75003  10.919  13.980   6.523
24918SOL    HW175004  10.864  14.058   6.514
24918SOL    HW275005  10.931  13.948   6.434
24919SOL     OW75006   8.543   7.471   2.457
24919SOL    HW175007   8.556   7.433   2.544
24919SOL    HW275008   8.508   7.398   2.405
24920SOL     OW75009   5.074   9.560   6.644
24920SOL    HW175010   5.105   9.628   6.704
24920SOL    HW275011   5.008   9.604   6.590
24921SOL     OW75012   2.074   1.521   1.473
24921SOL    HW175013   2.156   1.504   1.428
24921SOL    HW275014   2.018   1.446   1.451
24922SOL     OW75015   7.854   4.803   6.689
24922SOL    HW175016   7.867   4.894   6.716
24922SOL    HW275017   7.890   4.799   6.600
24923SOL     OW75018   9.941   6.603   1.806
24923SOL    HW175019   9.957   6.602   1.900
24923SOL    HW275020   9.863   6.659   1.795
24924SOL     OW75021   6.987   6.792   5.668
24924SOL    HW175022   6.960   6.715   5.717
24924SOL    HW275023   7.060   6.829   5.718
24925SOL     OW75024  10.221  13.265   6.740
24925SOL    HW175025  10.204  13.343   6.793
24925SOL    HW275026  10.316  13.261   6.733
24926SOL     OW75027  10.040   8.208   6.430
24926SOL    HW175028   9.999   8.216   6.517
24926SOL    HW275029  10.133   8.197   6.448
24927SOL     OW75030   7.742   3.520   1.695
24927SOL    HW175031   7.691   3.482   1.766
24927SOL    HW275032   7.818   3.559   1.738
24928SOL     OW75033   4.500  10.451   1.450
24928SOL    HW175034   4.568  10.500   1.495
24928SOL    HW275035   4.537  10.431   1.364
24929SOL     OW75036   7.998  10.097   7.057
24929SOL    HW175037   7.996  10.190   7.080
24929SOL    HW275038   8.053  10.093   6.979
24930SOL     OW75039   5.976   5.762   0.871
24930SOL    HW175040   5.960   5.704   0.946
24930SOL    HW275041   6.023   5.837   0.909
24931SOL     OW75042  11.338   7.159   3.162
24931SOL    HW175043  11.256   7.143   3.208
24931SOL    HW275044  11.403   7.109   3.211
24932SOL     OW75045   7.317   3.492   2.712
24932SOL    HW175046   7.250   3.424   2.699
24932SOL    HW275047   7.390   3.465   2.656
24933SOL     OW75048   3.276  11.163   2.633
24933SOL    HW175049   3.300  11.236   2.576
24933SOL    HW275050   3.237  11.099   2.574
24934SOL     OW75051   3.262   7.925   1.804
24934SOL    HW175052   3.250   8.020   1.806
24934SOL    HW275053   3.313   7.908   1.725
24935SOL     OW75054   5.907   5.051   3.387
24935SOL    HW175055   5.932   5.095   3.305
24935SOL    HW275056   5.844   4.984   3.360
24936SOL     OW75057   0.967   6.560   0.594
24936SOL    HW175058   0.950   6.654   0.595
24936SOL    HW275059   1.060   6.553   0.571
24937SOL     OW75060   7.268   7.496   7.055
24937SOL    HW175061   7.325   7.549   7.112
24937SOL    HW275062   7.212   7.560   7.012
24938SOL     OW75063   8.798   8.468   7.606
24938SOL    HW175064   3.407   3.156   0.045
24938SOL    HW275065   3.471   3.020   0.031
24939SOL     OW75066  13.739  13.703   7.149
24939SOL    HW175067  13.658  13.744   7.119
24939SOL    HW275068  13.715  13.660   7.231
24940SOL     OW75069   5.431  11.655   5.725
24940SOL    HW175070   5.419  11.577   5.671
24940SOL    HW275071   5.355  11.655   5.784
24941SOL     OW75072   7.172  11.667   1.348
24941SOL    HW175073   7.240  11.685   1.413
24941SOL    HW275074   7.161  11.572   1.349
24942SOL     OW75075   8.945   8.466   6.213
24942SOL    HW175076   9.019   8.408   6.197
24942SOL    HW275077   8.885   8.449   6.141
24943SOL     OW75078   3.501   4.837   3.326
24943SOL    HW175079   3.476   4.781   3.400
24943SOL    HW275080   3.564   4.899   3.363
24944SOL     OW75081   3.300  11.358   2.044
24944SOL    HW175082   3.330  11.315   1.964
24944SOL    HW275083   3.296  11.451   2.022
24945SOL     OW75084   3.650   4.201   4.407
24945SOL    HW175085   3.665   4.294   4.423
24945SOL    HW275086   3.599   4.199   4.326
24946SOL     OW75087  10.172   4.686   1.379
24946SOL    HW175088  10.248   4.720   1.426
24946SOL    HW275089  10.207   4.618   1.321
24947SOL     OW75090   7.435  10.688   7.404
24947SOL    HW175091   7.368  10.620   7.411
24947SOL    HW275092   7.426  10.721   7.314
24948SOL     OW75093   5.838  11.021   0.815
24948SOL    HW175094   5.869  11.111   0.829
24948SOL    HW275095   5.743  11.027   0.818
24949SOL     OW75096   9.435   7.936   2.225
24949SOL    HW175097   9.520   7.962   2.260
24949SOL    HW275098   9.375   8.006   2.253
24950SOL     OW75099   8.138   7.135   1.606
24950SOL    HW175100   8.122   7.127   1.512
24950SOL    HW275101   8.072   7.198   1.636
24951SOL     OW75102  10.000   2.060   1.300
24951SOL    HW175103  10.013   2.150   1.271
24951SOL    HW275104  10.085   2.033   1.335
24952SOL     OW75105  12.172   3.280   4.585
24952SOL    HW175106  12.196  13.964   4.605
24952SOL    HW275107  12.247   3.315   4.537
24953SOL     OW75108   7.729   5.715   3.783
24953SOL    HW175109   7.761   5.805   3.775
24953SOL    HW275110   7.635   5.721   3.764
24954SOL     OW75111   2.316   6.849   2.063
24954SOL    HW175112   2.337   6.942   2.063
24954SOL    HW275113   2.401   6.805   2.064
24955SOL     OW75114   5.151   8.062   3.795
24955SOL    HW175115   5.225   8.005   3.817
24955SOL    HW275116   5.190   8.148   3.783
24956SOL     OW75117   7.511  12.935   7.192
24956SOL    HW175118   7.432  12.884   7.176
24956SOL    HW275119   7.539  12.964   7.106
24957SOL     OW75120  10.919   5.474   4.723
24957SOL    HW175121  10.872   5.485   4.805
24957SOL    HW275122  10.956   5.386   4.728
24958SOL     OW75123   6.192   6.106   1.794
24958SOL    HW175124   6.211   6.128   1.885
24958SOL    HW275125   6.266   6.142   1.745
24959SOL     OW75126   7.726   3.149   2.606
24959SOL    HW175127   7.696   3.064   2.636
24959SOL    HW275128   7.721   3.144   2.510
24960SOL     OW75129  13.892   6.270   5.285
24960SOL    HW175130  13.840   6.253   5.207
24960SOL    HW275131  13.850   6.217   5.353
24961SOL     OW75132   9.238  10.253   0.844
24961SOL    HW175133   9.205  10.279   0.759
24961SOL    HW275134   9.200  10.167   0.860
24962SOL     OW75135  12.719  14.086   5.287
24962SOL    HW175136  12.742  14.160   5.344
24962SOL    HW275137  12.635  14.054   5.321
24963SOL     OW75138   6.515  10.991   0.702
24963SOL    HW175139   6.607  10.976   0.683
24963SOL    HW275140   6.501  10.953   0.788
24964SOL     OW75141   6.303   4.212   2.647
24964SOL    HW175142   6.310   4.220   2.742
24964SOL    HW275143   6.276   4.121   2.632
24965SOL     OW75144   8.333   2.596   2.010
24965SOL    HW175145   8.377   2.633   2.086
24965SOL    HW275146   8.244   2.629   2.015
24966SOL     OW75147  14.454   4.538   6.238
24966SOL    HW175148  14.544   4.571   6.241
24966SOL    HW275149  14.400   4.617   6.239
24967SOL     OW75150   4.312   4.700   2.020
24967SOL    HW175151   4.363   4.759   2.075
24967SOL    HW275152   4.350   4.613   2.037
24968SOL     OW75153  12.378  14.828   6.196
24968SOL    HW175154  12.313  14.776   6.149
24968SOL    HW275155  12.380  14.789   6.284
24969SOL     OW75156   6.487   6.757   2.584
24969SOL    HW175157   6.501   6.752   2.679
24969SOL    HW275158   6.399   6.721   2.571
24970SOL     OW75159  10.586   5.483   0.325
24970SOL    HW175160  10.659   5.498   0.385
24970SOL    HW275161  10.627   5.453   0.244
24971SOL     OW75162   6.902   8.394   1.573
24971SOL    HW175163   6.958   8.354   1.641
24971SOL    HW275164   6.827   8.335   1.566
24972SOL     OW75165   7.129  11.867   3.334
24972SOL    HW175166   7.201  11.851   3.395
24972SOL    HW275167   7.169  11.915   3.262
24973SOL     OW75168   7.190  14.205   7.400
24973SOL    HW175169   7.250  14.191   7.474
24973SOL    HW275170   7.103  14.203   7.439
24974SOL     OW75171   8.338   6.049   2.808
24974SOL    HW175172   8.357   6.017   2.896
24974SOL    HW275173   8.293   6.132   2.821
24975SOL     OW75174   6.591  12.399   5.639
24975SOL    HW175175   6.599  12.368   5.549
24975SOL    HW275176   6.497  12.397   5.657
24976SOL     OW75177   7.729   0.706   0.003
24976SOL    HW175178   7.736   0.800   0.017
24976SOL    HW275179   7.673   0.675   0.074
24977SOL     OW75180   2.781   7.785   3.575
24977SOL    HW175181   2.824   7.763   3.657
24977SOL    HW275182   2.805   7.877   3.560
24978SOL     OW75183   2.055   7.070   2.634
24978SOL    HW175184   2.035   7.152   2.588
24978SOL    HW275185   2.077   7.008   2.564
24979SOL     OW75186   5.379   4.472   4.636
24979SOL    HW175187   5.468   4.455   4.604
24979SOL    HW275188   5.384   4.458   4.730
24980SOL     OW75189  11.795   3.233   2.615
24980SOL    HW175190  11.701   3.233   2.636
24980SOL    HW275191  11.820   3.141   2.622
24981SOL     OW75192   3.560   4.633   4.318
24981SOL    HW175193   3.480   4.595   4.355
24981SOL    HW275194   3.583   4.703   4.379
24982SOL     OW75195  12.187  13.471   4.117
24982SOL    HW175196  12.179  13.430   4.031
24982SOL    HW275197  12.196  13.564   4.099
24983SOL     OW75198   9.796   2.611   1.669
24983SOL    HW175199   9.768   2.520   1.674
24983SOL    HW275200   9.729   2.659   1.718
24984SOL     OW75201   5.321   8.109   6.233
24984SOL    HW175202   5.367   8.094   6.150
24984SOL    HW275203   5.265   8.185   6.216
24985SOL     OW75204   5.024  13.566   5.133
24985SOL    HW175205   5.046  13.657   5.151
24985SOL    HW275206   5.027  13.523   5.218
24986SOL     OW75207   7.956  10.116   6.510
24986SOL    HW175208   8.030  10.117   6.570
24986SOL    HW275209   7.943  10.024   6.489
24987SOL     OW75210  13.106   9.030   7.461
24987SOL    HW175211  13.135   9.075   7.540
24987SOL    HW275212  13.034   8.974   7.490
24988SOL     OW75213  15.258   8.025   6.922
24988SOL    HW175214  15.337   8.007   6.973
24988SOL    HW275215  15.245   7.946   6.869
24989SOL     OW75216  10.470   9.681   3.470
24989SOL    HW175217  10.486   9.619   3.541
24989SOL    HW275218  10.378   9.667   3.447
24990SOL     OW75219  11.601   8.296   2.590
24990SOL    HW175220  11.577   8.246   2.512
24990SOL    HW275221  11.692   8.322   2.574
24991SOL     OW75222  10.247  10.786   1.633
24991SOL    HW175223  10.186  10.746   1.694
24991SOL    HW275224  10.230  10.880   1.641
24992SOL     OW75225   7.353   8.121   1.273
24992SOL    HW175226   7.355   8.082   1.186
24992SOL    HW275227   7.292   8.194   1.266
24993SOL     OW75228   7.988   7.714   4.535
24993SOL    HW175229   7.970   7.739   4.444
24993SOL    HW275230   7.911   7.744   4.584
24994SOL     OW75231   7.051  10.758   3.789
24994SOL    HW175232   7.079  10.787   3.702
24994SOL    HW275233   7.020  10.668   3.776
24995SOL     OW75234   7.057   5.178   1.371
24995SOL    HW175235   7.102   5.257   1.401
24995SOL    HW275236   6.998   5.156   1.442
24996SOL     OW75237   7.506   6.570   3.789
24996SOL    HW175238   7.435   6.595   3.729
24996SOL    HW275239   7.538   6.487   3.754
24997SOL     OW75240   4.734   7.967   3.391
24997SOL    HW175241   4.752   8.058   3.366
24997SOL    HW275242   4.690   7.930   3.315
24998SOL     OW75243   5.773   7.859   3.204
24998SOL    HW175244   5.718   7.821   3.273
24998SOL    HW275245   5.780   7.951   3.226
24999SOL     OW75246   7.563  10.535   3.026
24999SOL    HW175247   7.579  10.454   2.979
24999SOL    HW275248   7.471  10.555   3.009
25000SOL     OW75249   9.707   3.088   0.066
25000SOL    HW175250   9.688   3.172   0.025
25000SOL    HW275251   9.715   3.107   0.159
25001SOL     OW75252   8.545   6.916   0.788
25001SOL    HW175253   8.504   6.993   0.825
25001SOL    HW275254   8.485   6.844   0.806
25002SOL     OW75255   6.478  11.841   6.283
25002SOL    HW175256   6.564  11.805   6.305
25002SOL    HW275257   6.432  11.770   6.239
25003SOL     OW75258   1.965   4.828   1.183
25003SOL    HW175259   2.010   4.871   1.255
25003SOL    HW275260   1.900   4.892   1.154
25004SOL     OW75261   3.036  10.516   0.627
25004SOL    HW175262   3.084  10.496   0.707
25004SOL    HW275263   3.086  10.586   0.585
25005SOL     OW75264   5.630  11.870   7.602
25005SOL    HW175265   5.550  11.820   7.586
25005SOL    HW275266   0.299   6.421   0.031
25006SOL     OW75267   7.770   0.933   0.151
25006SOL    HW175268   7.695   0.987   0.176
25006SOL    HW275269   7.844   0.994   0.153
25007SOL     OW75270   2.014   8.876   1.843
25007SOL    HW175271   2.040   8.788   1.817
25007SOL    HW275272   1.948   8.862   1.911
25008SOL     OW75273   8.847   6.057   5.086
25008SOL    HW175274   8.776   6.064   5.021
25008SOL    HW275275   8.926   6.081   5.038
25009SOL     OW75276   3.943   7.271   3.740
25009SOL    HW175277   3.901   7.198   3.785
25009SOL    HW275278   3.904   7.349   3.781
25010SOL     OW75279  15.016   8.774   6.655
25010SOL    HW175280  15.028   8.855   6.705
25010SOL    HW275281  14.923   8.753   6.667
25011SOL     OW75282   7.146   2.468   3.325
25011SOL    HW175283   7.193   2.445   3.245
25011SOL    HW275284   7.201   2.436   3.396
25012SOL     OW75285  13.381  10.614   4.986
25012SOL    HW175286  13.465  10.575   4.963
25012SOL    HW275287  13.403  10.683   5.049
25013SOL     OW75288   9.198   4.535   3.009
25013SOL    HW175289   9.284   4.507   3.038
25013SOL    HW275290   9.215   4.607   2.948
25014SOL     OW75291   5.224  11.898   5.633
25014SOL    HW175292   5.202  11.984   5.598
25014SOL    HW275293   5.258  11.916   5.721
25015SOL     OW75294   5.692  11.586   2.625
25015SOL    HW175295   5.660  11.576   2.715
25015SOL    HW275296   5.757  11.516   2.615
25016SOL     OW75297   5.376  12.905   6.394
25016SOL    HW175298   5.385  12.833   6.331
25016SOL    HW275299   5.369  12.983   6.339
25017SOL     OW75300   7.595   6.038   0.233
25017SOL    HW175301   7.690   6.052   0.226
25017SOL    HW275302   7.564   6.117   0.278
25018SOL     OW75303  10.000   8.820   4.009
25018SOL    HW175304   9.949   8.813   3.928
25018SOL    HW275305  10.024   8.912   4.014
25019SOL     OW75306   4.283   3.190   2.361
25019SOL    HW175307   4.252   3.124   2.300
25019SOL    HW275308   4.278   3.148   2.447
25020SOL     OW75309   8.905  16.078   7.596
25020SOL    HW175310   8.934   5.349   7.517
25020SOL    HW275311   3.508  10.761   0.042
25021SOL     OW75312   3.481   6.914   2.858
25021SOL    HW175313   3.443   6.827   2.874
25021SOL    HW275314   3.548   6.922   2.925
25022SOL     OW75315   6.291  12.017   4.743
25022SOL    HW175316   6.303  11.924   4.722
25022SOL    HW275317   6.222  12.018   4.809
25023SOL     OW75318   4.242  12.648   2.749
25023SOL    HW175319   4.309  12.684   2.807
25023SOL    HW275320   4.227  12.559   2.782
25024SOL     OW75321   1.976   2.370   0.274
25024SOL    HW175322   1.912   2.442   0.280
25024SOL    HW275323   1.937   2.307   0.215
25025SOL     OW75324  12.149  15.495   7.035
25025SOL    HW175325  12.125  15.403   7.052
25025SOL    HW275326  12.069  15.544   7.057
25026SOL     OW75327  10.115  10.544   3.023
25026SOL    HW175328  10.144  10.603   3.092
25026SOL    HW275329  10.137  10.457   3.055
25027SOL     OW75330  11.717   8.500   1.894
25027SOL    HW175331  11.742   8.409   1.881
25027SOL    HW275332  11.776   8.550   1.838
25028SOL     OW75333   4.657   5.812   3.944
25028SOL    HW175334   4.624   5.785   4.030
25028SOL    HW275335   4.585   5.861   3.905
25029SOL     OW75336   5.877   7.577   0.245
25029SOL    HW175337   5.796   7.531   0.223
25029SOL    HW275338   5.947   7.519   0.214
25030SOL     OW75339   6.872   7.079   3.711
25030SOL    HW175340   6.953   7.120   3.743
25030SOL    HW275341   6.887   6.985   3.721
25031SOL     OW75342  12.682   9.979   4.340
25031SOL    HW175343  12.734   9.906   4.374
25031SOL    HW275344  12.708   9.988   4.249
25032SOL     OW75345   2.365   6.100   3.115
25032SOL    HW175346   2.374   6.097   3.020
25032SOL    HW275347   2.287   6.047   3.133
25033SOL     OW75348   6.801  10.311   2.765
25033SOL    HW175349   6.816  10.258   2.844
25033SOL    HW275350   6.849  10.392   2.781
25034SOL     OW75351  10.212   4.608   6.437
25034SOL    HW175352  10.182   4.675   6.376
25034SOL    HW275353  10.252   4.657   6.509
25035SOL     OW75354  11.429  13.508   6.017
25035SOL    HW175355  11.524  13.516   6.021
25035SOL    HW275356  11.413  13.415   6.000
25036SOL     OW75357   8.517   9.381   3.598
25036SOL    HW175358   8.462   9.418   3.667
25036SOL    HW275359   8.457   9.362   3.527
25037SOL     OW75360   4.081   6.880   5.292
25037SOL    HW175361   4.161   6.905   5.338
25037SOL    HW275362   4.105   6.802   5.243
25038SOL     OW75363   7.065   3.889   3.685
25038SOL    HW175364   7.000   3.942   3.730
25038SOL    HW275365   7.123   3.952   3.642
25039SOL     OW75366   9.596   4.956   4.562
25039SOL    HW175367   9.510   4.942   4.602
25039SOL    HW275368   9.594   4.904   4.482
25040SOL     OW75369   6.092   7.920   5.469
25040SOL    HW175370   6.061   8.003   5.432
25040SOL    HW275371   6.079   7.857   5.398
25041SOL     OW75372  15.066   8.017   7.456
25041SOL    HW175373  15.080   7.971   7.373
25041SOL    HW275374  15.044   7.947   7.518
25042SOL     OW75375  13.295   5.141   4.049
25042SOL    HW175376  13.276   5.148   3.956
25042SOL    HW275377  13.214   5.169   4.093
25043SOL     OW75378   8.689   8.802   3.804
25043SOL    HW175379   8.694   8.711   3.775
25043SOL    HW275380   8.658   8.850   3.726
25044SOL     OW75381  11.446  13.281   4.272
25044SOL    HW175382  11.513  13.319   4.329
25044SOL    HW275383  11.496  13.240   4.201
25045SOL     OW75384   9.025   4.490   4.515
25045SOL    HW175385   8.961   4.558   4.496
25045SOL    HW275386   8.996   4.415   4.462
25046SOL     OW75387  10.976   8.109   5.465
25046SOL    HW175388  10.934   8.169   5.403
25046SOL    HW275389  11.068   8.112   5.442
25047SOL     OW75390  15.497  13.731   7.559
25047SOL    HW175391  15.480  13.653   7.506
25047SOL    HW275392  15.510  13.801   7.496
25048SOL     OW75393   7.468  14.778   7.485
25048SOL    HW175394   7.453  14.717   7.557
25048SOL    HW275395   7.380  14.808   7.460
25049SOL     OW75396   9.513   5.609   4.337
25049SOL    HW175397   9.444   5.567   4.286
25049SOL    HW275398   9.560   5.664   4.273
25050SOL     OW75399   3.523   6.474   2.072
25050SOL    HW175400   3.566   6.421   2.139
25050SOL    HW275401   3.468   6.412   2.024
25051SOL     OW75402  10.663  14.430   7.531
25051SOL    HW175403  10.598  14.381   7.481
25051SOL    HW275404  10.614  14.467   7.604
25052SOL     OW75405  15.587   9.115   7.231
25052SOL    HW175406  15.668   9.162   7.213
25052SOL    HW275407  15.531   9.132   7.155
25053SOL     OW75408   0.465   2.579   0.079
25053SOL    HW175409   0.448   2.535   0.162
25053SOL    HW275410   0.461   2.510   0.013
25054SOL     OW75411   8.775  11.999   7.043
25054SOL    HW175412   8.693  12.003   6.994
25054SOL    HW275413   8.787  12.087   7.078
25055SOL     OW75414   2.914   7.523   3.085
25055SOL    HW175415   2.838   7.580   3.089
25055SOL    HW275416   2.889   7.452   3.026
25056SOL     OW75417  10.932   8.940   3.257
25056SOL    HW175418  10.856   8.998   3.244
25056SOL    HW275419  10.970   8.970   3.340
25057SOL     OW75420   5.186   2.514   1.561
25057SOL    HW175421   5.165   2.443   1.500
25057SOL    HW275422   5.260   2.481   1.611
25058SOL     OW75423  10.522  14.751   6.777
25058SOL    HW175424  10.544  14.658   6.783
25058SOL    HW275425  10.588  14.787   6.718
25059SOL     OW75426   8.954   4.811   0.253
25059SOL    HW175427   9.046   4.791   0.235
25059SOL    HW275428   8.907   4.733   0.224
25060SOL     OW75429   6.632  14.087   5.932
25060SOL    HW175430   6.702  14.143   5.965
25060SOL    HW275431   6.556  14.144   5.926
25061SOL     OW75432   0.677   2.497   0.288
25061SOL    HW175433   0.605   2.485   0.350
25061SOL    HW275434   0.728   2.569   0.325
25062SOL     OW75435  12.609   4.713   2.753
25062SOL    HW175436  12.666   4.650   2.709
25062SOL    HW275437  12.544   4.737   2.686
25063SOL     OW75438   5.250   7.148   6.619
25063SOL    HW175439   5.236   7.213   6.688
25063SOL    HW275440   5.168   7.100   6.614
25064SOL     OW75441   4.076   4.978   4.173
25064SOL    HW175442   4.078   4.999   4.080
25064SOL    HW275443   4.030   4.894   4.178
25065SOL     OW75444   9.940  12.559   5.871
25065SOL    HW175445  10.033  12.540   5.880
25065SOL    HW275446   9.905  12.481   5.827
25066SOL     OW75447   7.564  10.967   3.552
25066SOL    HW175448   7.549  10.909   3.478
25066SOL    HW275449   7.529  11.051   3.524
25067SOL     OW75450   7.758  10.108   0.182
25067SOL    HW175451   7.728  10.047   0.249
25067SOL    HW275452   7.688  10.173   0.176
25068SOL     OW75453   5.689   8.920   1.129
25068SOL    HW175454   5.754   8.928   1.198
25068SOL    HW275455   5.738   8.886   1.054
25069SOL     OW75456   8.415   7.502   3.933
25069SOL    HW175457   8.330   7.527   3.895
25069SOL    HW275458   8.393   7.460   4.015
25070SOL     OW75459   6.744   3.809   1.275
25070SOL    HW175460   6.680   3.740   1.260
25070SOL    HW275461   6.764   3.803   1.369
25071SOL     OW75462   9.186   9.800   7.454
25071SOL    HW175463   9.272   9.841   7.457
25071SOL    HW275464   9.190   9.730   7.519
25072SOL     OW75465  11.042   8.269   5.115
25072SOL    HW175466  11.033   8.178   5.145
25072SOL    HW275467  11.130   8.295   5.142
25073SOL     OW75468   9.491   6.541   3.133
25073SOL    HW175469   9.468   6.633   3.148
25073SOL    HW275470   9.418   6.506   3.083
25074SOL     OW75471   5.497  11.034   2.125
25074SOL    HW175472   5.483  11.028   2.030
25074SOL    HW275473   5.461  11.119   2.149
25075SOL     OW75474  13.376  10.096   5.307
25075SOL    HW175475  13.307  10.160   5.287
25075SOL    HW275476  13.336  10.011   5.286
25076SOL     OW75477  12.087   9.060   7.413
25076SOL    HW175478  12.157   9.113   7.451
25076SOL    HW275479  12.006   9.104   7.441
25077SOL     OW75480   9.327  10.033   4.809
25077SOL    HW175481   9.393   9.968   4.831
25077SOL    HW275482   9.375  10.115   4.797
25078SOL     OW75483   1.127   7.608   0.593
25078SOL    HW175484   1.217   7.635   0.577
25078SOL    HW275485   1.122   7.518   0.560
25079SOL     OW75486   7.250   7.630   5.645
25079SOL    HW175487   7.179   7.607   5.585
25079SOL    HW275488   7.278   7.717   5.616
25080SOL     OW75489   4.701   8.452   2.916
25080SOL    HW175490   4.692   8.393   2.842
25080SOL    HW275491   4.630   8.427   2.975
25081SOL     OW75492  11.931  11.011   1.842
25081SOL    HW175493  11.865  10.968   1.897
25081SOL    HW275494  11.913  10.980   1.753
25082SOL     OW75495   7.421   4.975   5.191
25082SOL    HW175496   7.438   4.883   5.171
25082SOL    HW275497   7.424   5.019   5.106
25083SOL     OW75498   7.332  12.100   2.135
25083SOL    HW175499   7.308  12.179   2.183
25083SOL    HW275500   7.294  12.112   2.048
25084SOL     OW75501  11.893   3.806   5.173
25084SOL    HW175502  11.979   3.764   5.182
25084SOL    HW275503  11.855   3.801   5.261
25085SOL     OW75504   5.122   9.285   6.713
25085SOL    HW175505   5.034   9.257   6.738
25085SOL    HW275506   5.107   9.364   6.660
25086SOL     OW75507  10.134   4.288   4.230
25086SOL    HW175508  10.093   4.329   4.306
25086SOL    HW275509  10.073   4.304   4.158
25087SOL     OW75510   7.340  13.824   7.021
25087SOL    HW175511   7.323  13.751   6.961
25087SOL    HW275512   7.418  13.867   6.986
25088SOL     OW75513  12.128   8.744   6.338
25088SOL    HW175514  12.122   8.787   6.423
25088SOL    HW275515  12.055   8.778   6.288
25089SOL     OW75516   4.137   4.565   3.314
25089SOL    HW175517   4.091   4.630   3.368
25089SOL    HW275518   4.081   4.487   3.318
25090SOL     OW75519   1.021   9.717   0.710
25090SOL    HW175520   1.100   9.756   0.673
25090SOL    HW275521   1.020   9.627   0.677
25091SOL     OW75522   3.049   7.445   1.167
25091SOL    HW175523   3.077   7.394   1.091
25091SOL    HW275524   3.064   7.387   1.242
25092SOL     OW75525   5.896   4.932   0.044
25092SOL    HW175526  11.331  10.256   7.609
25092SOL    HW275527   5.813   4.889   0.064
25093SOL     OW75528   4.832   5.475   3.922
25093SOL    HW175529   4.764   5.414   3.891
25093SOL    HW275530   4.870   5.432   3.998
25094SOL     OW75531   2.794   9.704   1.619
25094SOL    HW175532   2.800   9.666   1.706
25094SOL    HW275533   2.862   9.771   1.617
25095SOL     OW75534   1.674   8.873   2.128
25095SOL    HW175535   1.665   8.811   2.055
25095SOL    HW275536   1.760   8.854   2.165
25096SOL     OW75537   1.192   1.528   0.374
25096SOL    HW175538   1.261   1.502   0.313
25096SOL    HW275539   1.112   1.532   0.321
25097SOL     OW75540   7.861   2.112   1.761
25097SOL    HW175541   7.956   2.114   1.749
25097SOL    HW275542   7.830   2.045   1.699
25098SOL     OW75543   7.933  12.518   2.631
25098SOL    HW175544   7.980  12.599   2.650
25098SOL    HW275545   7.947  12.504   2.538
25099SOL     OW75546   6.054   6.509   0.609
25099SOL    HW175547   6.052   6.519   0.704
25099SOL    HW275548   6.040   6.598   0.575
25100SOL     OW75549   3.338   9.904   3.290
25100SOL    HW175550   3.331   9.949   3.206
25100SOL    HW275551   3.276   9.949   3.347
25101SOL     OW75552  11.930   6.173   3.567
25101SOL    HW175553  11.894   6.110   3.629
25101SOL    HW275554  11.901   6.143   3.481
25102SOL     OW75555  12.019  13.583   6.617
25102SOL    HW175556  12.001  13.546   6.531
25102SOL    HW275557  11.944  13.557   6.670
25103SOL     OW75558   4.449  11.580   3.984
25103SOL    HW175559   4.413  11.496   4.009
25103SOL    HW275560   4.417  11.594   3.894
25104SOL     OW75561   4.437   4.871   0.108
25104SOL    HW175562   4.481   4.834   0.031
25104SOL    HW275563   4.432   4.798   0.170
25105SOL     OW75564   8.769   5.103   1.108
25105SOL    HW175565   8.776   5.120   1.202
25105SOL    HW275566   8.681   5.132   1.084
25106SOL     OW75567  12.486   8.928   3.310
25106SOL    HW175568  12.461   8.848   3.357
25106SOL    HW275569  12.511   8.897   3.223
25107SOL     OW75570   8.151   8.033   3.087
25107SOL    HW175571   8.229   8.036   3.031
25107SOL    HW275572   8.081   8.002   3.030
25108SOL     OW75573   5.711  14.863   5.916
25108SOL    HW175574   5.728   4.128   5.830
25108SOL    HW275575   5.672  14.933   5.967
25109SOL     OW75576   6.350   4.417   2.458
25109SOL    HW175577   6.434   4.405   2.413
25109SOL    HW275578   6.350   4.352   2.528
25110SOL     OW75579   4.231  12.903   3.732
25110SOL    HW175580   4.145  12.867   3.712
25110SOL    HW275581   4.213  12.978   3.788
25111SOL     OW75582  10.013  14.037   5.043
25111SOL    HW175583  10.056  13.954   5.023
25111SOL    HW275584  10.026  14.048   5.138
25112SOL     OW75585   3.717  12.098   4.050
25112SOL    HW175586   3.747  12.138   4.132
25112SOL    HW275587   3.684  12.012   4.076
25113SOL     OW75588   8.577   9.692   4.388
25113SOL    HW175589   8.527   9.770   4.414
25113SOL    HW275590   8.654   9.726   4.343
25114SOL     OW75591   0.583   9.626   0.242
25114SOL    HW175592   0.650   9.693   0.245
25114SOL    HW275593   0.597   9.582   0.158
25115SOL     OW75594   4.129   7.068   5.600
25115SOL    HW175595   4.190   6.999   5.575
25115SOL    HW275596   4.155   7.093   5.688
25116SOL     OW75597   3.901   8.019   1.017
25116SOL    HW175598   3.827   7.963   1.038
25116SOL    HW275599   3.888   8.097   1.070
25117SOL     OW75600   6.202   4.638   0.477
25117SOL    HW175601   6.211   4.613   0.569
25117SOL    HW275602   6.288   4.620   0.439
25118SOL     OW75603  10.387   8.162   3.208
25118SOL    HW175604  10.303   8.201   3.184
25118SOL    HW275605  10.365   8.075   3.239
25119SOL     OW75606   3.782   7.564   3.667
25119SOL    HW175607   3.721   7.503   3.626
25119SOL    HW275608   3.731   7.644   3.679
25120SOL     OW75609  11.795   4.751   3.496
25120SOL    HW175610  11.746   4.761   3.414
25120SOL    HW275611  11.757   4.815   3.555
25121SOL     OW75612   6.552   9.516   1.249
25121SOL    HW175613   6.644   9.522   1.224
25121SOL    HW275614   6.514   9.452   1.189
25122SOL     OW75615  11.410   3.687   4.746
25122SOL    HW175616  11.398   3.611   4.689
25122SOL    HW275617  11.470   3.657   4.815
25123SOL     OW75618   8.879   6.655   7.465
25123SOL    HW175619   8.925   6.626   7.387
25123SOL    HW275620   8.789   6.624   7.453
25124SOL     OW75621  10.184  12.661   4.833
25124SOL    HW175622  10.217  12.578   4.799
25124SOL    HW275623  10.215  12.664   4.923
25125SOL     OW75624  12.036   5.461   5.382
25125SOL    HW175625  12.127   5.488   5.397
25125SOL    HW275626  11.984   5.534   5.414
25126SOL     OW75627   6.813  14.154   5.109
25126SOL    HW175628   6.751  14.098   5.156
25126SOL    HW275629   6.866  14.195   5.177
25127SOL     OW75630   6.699  10.178   4.684
25127SOL    HW175631   6.749  10.225   4.617
25127SOL    HW275632   6.658  10.247   4.736
25128SOL     OW75633  10.807  13.489   5.077
25128SOL    HW175634  10.816  13.402   5.039
25128SOL    HW275635  10.867  13.490   5.151
25129SOL     OW75636   8.806   8.065   4.812
25129SOL    HW175637   8.860   8.140   4.787
25129SOL    HW275638   8.749   8.099   4.881
25130SOL     OW75639  11.891  10.642   3.549
25130SOL    HW175640  11.856  10.604   3.468
25130SOL    HW275641  11.813  10.664   3.601
25131SOL     OW75642  10.321   5.337   4.422
25131SOL    HW175643  10.267   5.371   4.350
25131SOL    HW275644  10.368   5.414   4.454
25132SOL     OW75645   4.913  11.943   5.910
25132SOL    HW175646   4.996  11.908   5.877
25132SOL    HW275647   4.846  11.889   5.868
25133SOL     OW75648   6.239   9.994   2.200
25133SOL    HW175649   6.204   9.908   2.180
25133SOL    HW275650   6.238  10.041   2.117
25134SOL     OW75651  10.589   8.782   5.412
25134SOL    HW175652  10.618   8.777   5.321
25134SOL    HW275653  10.496   8.804   5.407
25135SOL     OW75654   3.086   4.882   3.038
25135SOL    HW175655   3.164   4.882   2.983
25135SOL    HW275656   3.058   4.790   3.041
25136SOL     OW75657   3.317   4.185   2.914
25136SOL    HW175658   3.303   4.243   2.988
25136SOL    HW275659   3.270   4.105   2.936
25137SOL     OW75660   4.716  12.806   6.492
25137SOL    HW175661   4.646  12.852   6.446
25137SOL    HW275662   4.671  12.740   6.545
25138SOL     OW75663   9.945   1.767   2.112
25138SOL    HW175664   9.971   1.788   2.202
25138SOL    HW275665   9.935   1.671   2.111
25139SOL     OW75666   4.732   4.928   0.601
25139SOL    HW175667   4.745   4.971   0.516
25139SOL    HW275668   4.638   4.909   0.604
25140SOL     OW75669   6.748   8.338   5.446
25140SOL    HW175670   6.804   8.416   5.454
25140SOL    HW275671   6.731   8.312   5.536
25141SOL     OW75672  10.954  15.231   6.793
25141SOL    HW175673  11.029  15.178   6.819
25141SOL    HW275674  10.951  15.223   6.697
25142SOL     OW75675  10.990   2.738   1.625
25142SOL    HW175676  10.944   2.684   1.560
25142SOL    HW275677  11.011   2.678   1.696
25143SOL     OW75678   3.049   6.438   1.135
25143SOL    HW175679   3.099   6.385   1.197
25143SOL    HW275680   3.048   6.386   1.054
25144SOL     OW75681   4.415   3.921   2.309
25144SOL    HW175682   4.363   3.853   2.353
25144SOL    HW275683   4.385   4.003   2.349
25145SOL     OW75684  11.325   5.331   1.182
25145SOL    HW175685  11.291   5.288   1.260
25145SOL    HW275686  11.389   5.269   1.146
25146SOL     OW75687  10.063  11.635   3.821
25146SOL    HW175688  10.004  11.561   3.803
25146SOL    HW275689  10.026  11.676   3.899
25147SOL     OW75690   7.174  11.189   1.046
25147SOL    HW175691   7.094  11.140   1.067
25147SOL    HW275692   7.168  11.207   0.952
25148SOL     OW75693   2.626   8.479   2.066
25148SOL    HW175694   2.600   8.396   2.107
25148SOL    HW275695   2.632   8.458   1.973
25149SOL     OW75696   8.879  10.407   5.562
25149SOL    HW175697   8.863  10.364   5.479
25149SOL    HW275698   8.914  10.339   5.619
25150SOL     OW75699   6.763   6.509   6.044
25150SOL    HW175700   6.856   6.507   6.024
25150SOL    HW275701   6.752   6.586   6.100
25151SOL     OW75702   9.202   6.008   3.143
25151SOL    HW175703   9.195   6.103   3.136
25151SOL    HW275704   9.112   5.979   3.161
25152SOL     OW75705   7.268   3.157   1.838
25152SOL    HW175706   7.330   3.218   1.878
25152SOL    HW275707   7.290   3.158   1.745
25153SOL     OW75708   7.557   7.850   4.468
25153SOL    HW175709   7.619   7.922   4.458
25153SOL    HW275710   7.598   7.777   4.420
25154SOL     OW75711   6.721   6.922   1.502
25154SOL    HW175712   6.795   6.965   1.458
25154SOL    HW275713   6.695   6.984   1.570
25155SOL     OW75714   4.268   4.007   2.867
25155SOL    HW175715   4.238   4.097   2.849
25155SOL    HW275716   4.363   4.011   2.858
25156SOL     OW75717  11.254   8.588   1.410
25156SOL    HW175718  11.207   8.548   1.483
25156SOL    HW275719  11.208   8.671   1.395
25157SOL     OW75720   4.444  14.265   5.159
25157SOL    HW175721   4.527  14.305   5.185
25157SOL    HW275722   4.378  14.312   5.210
25158SOL     OW75723   7.728   9.111   6.622
25158SOL    HW175724   7.646   9.140   6.582
25158SOL    HW275725   7.707   9.024   6.658
25159SOL     OW75726   2.396   4.571   2.621
25159SOL    HW175727   2.432   4.650   2.662
25159SOL    HW275728   2.342   4.604   2.550
25160SOL     OW75729  10.539  14.581   7.304
25160SOL    HW175730  10.560  14.656   7.248
25160SOL    HW275731  10.624  14.548   7.334
25161SOL     OW75732  12.401   9.097   7.513
25161SOL    HW175733  12.475   9.058   7.560
25161SOL    HW275734  12.438   9.173   7.468
25162SOL     OW75735   2.769   2.513   1.714
25162SOL    HW175736   2.684   2.528   1.673
25162SOL    HW275737   2.753   2.529   1.807
25163SOL     OW75738   7.437   4.099   5.271
25163SOL    HW175739   7.514   4.139   5.232
25163SOL    HW275740   7.421   4.151   5.350
25164SOL     OW75741   2.269   6.644   0.481
25164SOL    HW175742   2.310   6.730   0.466
25164SOL    HW275743   2.218   6.656   0.562
25165SOL     OW75744  10.822   5.871   3.544
25165SOL    HW175745  10.883   5.884   3.616
25165SOL    HW275746  10.739   5.847   3.586
25166SOL     OW75747  11.732   9.875   5.901
25166SOL    HW175748  11.689   9.790   5.909
25166SOL    HW275749  11.701   9.910   5.817
25167SOL     OW75750  12.913  12.458   6.900
25167SOL    HW175751  12.991  12.434   6.949
25167SOL    HW275752  12.927  12.550   6.876
25168SOL     OW75753   4.406   5.381   1.393
25168SOL    HW175754   4.465   5.308   1.375
25168SOL    HW275755   4.452   5.459   1.362
25169SOL     OW75756   7.360  11.817   2.640
25169SOL    HW175757   7.362  11.721   2.648
25169SOL    HW275758   7.272  11.841   2.668
25170SOL     OW75759   5.510   9.146   5.372
25170SOL    HW175760   5.482   9.162   5.462
25170SOL    HW275761   5.605   9.150   5.376
25171SOL     OW75762   2.424   8.120   0.845
25171SOL    HW175763   2.364   8.195   0.841
25171SOL    HW275764   2.415   8.087   0.934
25172SOL     OW75765  11.893   5.474   5.726
25172SOL    HW175766  11.959   5.432   5.780
25172SOL    HW275767  11.836   5.519   5.788
25173SOL     OW75768   5.364   8.121   4.967
25173SOL    HW175769   5.314   8.044   4.942
25173SOL    HW275770   5.430   8.088   5.028
25174SOL     OW75771   4.085   7.121   0.565
25174SOL    HW175772   4.032   7.186   0.519
25174SOL    HW275773   4.132   7.075   0.496
25175SOL     OW75774   5.768  12.915   3.233
25175SOL    HW175775   5.833  12.959   3.178
25175SOL    HW275776   5.724  12.855   3.174
25176SOL     OW75777   6.892   9.615   5.540
25176SOL    HW175778   6.960   9.549   5.553
25176SOL    HW275779   6.849   9.623   5.625
25177SOL     OW75780   7.522  13.024   3.798
25177SOL    HW175781   7.577  13.078   3.855
25177SOL    HW275782   7.531  13.062   3.711
25178SOL     OW75783   7.236   6.048   0.291
25178SOL    HW175784   7.295   6.109   0.246
25178SOL    HW275785   7.265   5.961   0.263
25179SOL     OW75786   9.212   1.965   2.076
25179SOL    HW175787   9.276   1.910   2.032
25179SOL    HW275788   9.211   1.934   2.167
25180SOL     OW75789  11.495   4.547   2.160
25180SOL    HW175790  11.559   4.597   2.109
25180SOL    HW275791  11.431   4.612   2.189
25181SOL     OW75792  12.958  14.703   6.835
25181SOL    HW175793  12.992  14.644   6.902
25181SOL    HW275794  12.995  14.788   6.856
25182SOL     OW75795  13.781   7.466   6.812
25182SOL    HW175796  13.690   7.476   6.783
25182SOL    HW275797  13.832   7.464   6.731
25183SOL     OW75798   2.561   8.466   1.796
25183SOL    HW175799   2.584   8.554   1.825
25183SOL    HW275800   2.608   8.454   1.713
25184SOL     OW75801  13.730   4.173   5.038
25184SOL    HW175802  13.719   4.252   5.090
25184SOL    HW275803  13.741   4.103   5.103
25185SOL     OW75804   6.526   7.462   3.996
25185SOL    HW175805   6.442   7.418   3.982
25185SOL    HW275806   6.573   7.405   4.057
25186SOL     OW75807   9.731   9.937   0.268
25186SOL    HW175808   9.690   9.961   0.351
25186SOL    HW275809   9.695   9.851   0.248
25187SOL     OW75810  11.892   5.433   6.319
25187SOL    HW175811  11.971   5.429   6.265
25187SOL    HW275812  11.918   5.392   6.402
25188SOL     OW75813   2.351   6.510   2.151
25188SOL    HW175814   2.352   6.441   2.217
25188SOL    HW275815   2.273   6.492   2.098
25189SOL     OW75816   4.845   9.161   2.885
25189SOL    HW175817   4.934   9.192   2.902
25189SOL    HW275818   4.830   9.179   2.793
25190SOL     OW75819   6.627  13.103   4.973
25190SOL    HW175820   6.680  13.027   4.951
25190SOL    HW275821   6.630  13.108   5.068
25191SOL     OW75822   4.574   6.911   4.946
25191SOL    HW175823   4.581   6.970   4.871
25191SOL    HW275824   4.662   6.876   4.959
25192SOL     OW75825  13.021  13.027   6.715
25192SOL    HW175826  12.972  13.016   6.796
25192SOL    HW275827  13.009  13.120   6.693
25193SOL     OW75828  10.177  11.130   3.171
25193SOL    HW175829  10.119  11.204   3.150
25193SOL    HW275830  10.175  11.125   3.266
25194SOL     OW75831   2.053   7.398   1.636
25194SOL    HW175832   2.058   7.306   1.663
25194SOL    HW275833   2.042   7.446   1.718
25195SOL     OW75834   2.924   3.846   0.067
25195SOL    HW175835   2.984   3.914   0.037
25195SOL    HW275836   2.955   3.824   0.155
25196SOL     OW75837  14.505  11.025   5.358
25196SOL    HW175838   3.763  11.042   5.269
25196SOL    HW275839  14.553  10.947   5.385
25197SOL     OW75840   5.251   6.590   0.466
25197SOL    HW175841   5.170   6.599   0.416
25197SOL    HW275842   5.298   6.671   0.451
25198SOL     OW75843   5.767   5.156   0.276
25198SOL    HW175844   5.791   5.099   0.349
25198SOL    HW275845   5.686   5.199   0.304
25199SOL     OW75846   7.860  11.316   3.734
25199SOL    HW175847   7.769  11.340   3.717
25199SOL    HW275848   7.856  11.224   3.759
25200SOL     OW75849  14.106   9.020   5.274
25200SOL    HW175850  14.012   9.032   5.290
25200SOL    HW275851  14.143   9.004   5.361
25201SOL     OW75852   9.652   7.500   3.360
25201SOL    HW175853   9.597   7.429   3.392
25201SOL    HW275854   9.739   7.481   3.395
25202SOL     OW75855   8.101  10.744   0.654
25202SOL    HW175856   8.041  10.809   0.690
25202SOL    HW275857   8.047  10.667   0.640
25203SOL     OW75858   5.646   2.291   2.889
25203SOL    HW175859   5.641   2.199   2.912
25203SOL    HW275860   5.594   2.336   2.956
25204SOL     OW75861  12.263  11.804   7.099
25204SOL    HW175862  12.273  11.795   7.004
25204SOL    HW275863  12.169  11.808   7.113
25205SOL     OW75864   7.863   6.330   5.843
25205SOL    HW175865   7.789   6.323   5.782
25205SOL    HW275866   7.823   6.353   5.927
25206SOL     OW75867   6.737  12.488   2.741
25206SOL    HW175868   6.718  12.409   2.791
25206SOL    HW275869   6.741  12.458   2.650
25207SOL     OW75870  13.348   3.812   4.465
25207SOL    HW175871  13.410   3.882   4.445
25207SOL    HW275872  13.275   3.857   4.507
25208SOL     OW75873  10.349  12.087   3.244
25208SOL    HW175874  10.303  12.008   3.272
25208SOL    HW275875  10.286  12.158   3.257
25209SOL     OW75876   5.405   6.872   6.452
25209SOL    HW175877   5.398   6.781   6.423
25209SOL    HW275878   5.364   6.873   6.538
25210SOL     OW75879  10.072   3.743   2.961
25210SOL    HW175880  10.164   3.728   2.983
25210SOL    HW275881  10.068   3.739   2.866
25211SOL     OW75882   8.524  11.528   1.205
25211SOL    HW175883   8.510  11.593   1.273
25211SOL    HW275884   8.521  11.444   1.251
25212SOL     OW75885  12.690   8.363   3.813
25212SOL    HW175886  12.671   8.276   3.779
25212SOL    HW275887  12.645   8.366   3.898
25213SOL     OW75888   4.207   8.949   2.826
25213SOL    HW175889   4.152   8.871   2.840
25213SOL    HW275890   4.161   8.997   2.758
25214SOL     OW75891   8.070   7.300   4.925
25214SOL    HW175892   7.986   7.272   4.961
25214SOL    HW275893   8.132   7.234   4.955
25215SOL     OW75894   5.253   9.433   3.716
25215SOL    HW175895   5.219   9.424   3.627
25215SOL    HW275896   5.175   9.440   3.771
25216SOL     OW75897   5.535   3.164   3.909
25216SOL    HW175898   5.626   3.193   3.911
25216SOL    HW275899   5.529   3.102   3.982
25217SOL     OW75900   0.504  10.841   0.682
25217SOL    HW175901   0.531  10.907   0.747
25217SOL    HW275902   0.582  10.826   0.629
25218SOL     OW75903   4.850  11.702   3.293
25218SOL    HW175904   4.932  11.725   3.335
25218SOL    HW275905   4.792  11.678   3.365
25219SOL     OW75906   6.431   7.017   7.502
25219SOL    HW175907   6.406   7.009   7.409
25219SOL    HW275908   6.517   7.060   7.499
25220SOL     OW75909   9.900   6.925   5.127
25220SOL    HW175910   9.905   6.978   5.048
25220SOL    HW275911   9.889   6.988   5.199
25221SOL     OW75912   6.045  10.877   6.213
25221SOL    HW175913   5.960  10.897   6.253
25221SOL    HW275914   6.109  10.909   6.277
25222SOL     OW75915   2.488   8.899   2.603
25222SOL    HW175916   2.575   8.914   2.567
25222SOL    HW275917   2.450   8.987   2.611
25223SOL     OW75918  12.202  13.564   5.124
25223SOL    HW175919  12.269  13.616   5.169
25223SOL    HW275920  12.234  13.474   5.127
25224SOL     OW75921   7.149  14.406   6.342
25224SOL    HW175922   7.168  14.489   6.299
25224SOL    HW275923   7.214  14.345   6.308
25225SOL     OW75924   9.094  11.285   5.879
25225SOL    HW175925   9.060  11.373   5.895
25225SOL    HW275926   9.111  11.282   5.785
25226SOL     OW75927   8.245   5.060   6.374
25226SOL    HW175928   8.263   5.084   6.283
25226SOL    HW275929   8.287   4.975   6.385
25227SOL     OW75930   1.302   4.718   0.587
25227SOL    HW175931   1.208   4.735   0.590
25227SOL    HW275932   1.320   4.699   0.495
25228SOL     OW75933   5.968   6.820   2.455
25228SOL    HW175934   5.924   6.757   2.398
25228SOL    HW275935   6.014   6.879   2.395
25229SOL     OW75936   2.879   0.658   0.756
25229SOL    HW175937   2.811   0.591   0.768
25229SOL    HW275938   2.830   0.740   0.749
25230SOL     OW75939   2.864   2.303   0.274
25230SOL    HW175940   2.820   2.337   0.352
25230SOL    HW275941   2.901   2.219   0.301
25231SOL     OW75942   4.047   7.675   4.859
25231SOL    HW175943   3.955   7.676   4.887
25231SOL    HW275944   4.051   7.740   4.789
25232SOL     OW75945   2.787   8.386   0.049
25232SOL    HW175946   2.774   8.292   0.049
25232SOL    HW275947   8.208  13.794   7.581
25233SOL     OW75948   9.289   9.291   7.140
25233SOL    HW175949   9.297   9.210   7.191
25233SOL    HW275950   9.304   9.361   7.203
25234SOL     OW75951   7.394  11.321   5.298
25234SOL    HW175952   7.313  11.364   5.269
25234SOL    HW275953   7.463  11.365   5.248
25235SOL     OW75954   8.965  13.014   6.379
25235SOL    HW175955   9.029  13.061   6.327
25235SOL    HW275956   9.006  12.930   6.400
25236SOL     OW75957   6.302   1.353   0.603
25236SOL    HW175958   6.291   1.363   0.698
25236SOL    HW275959   6.387   1.393   0.585
25237SOL     OW75960   5.642   8.430   0.483
25237SOL    HW175961   5.631   8.414   0.577
25237SOL    HW275962   5.553   8.433   0.448
25238SOL     OW75963  10.278   6.265   1.911
25238SOL    HW175964  10.245   6.354   1.918
25238SOL    HW275965  10.280   6.248   1.816
25239SOL     OW75966   0.850   8.533   0.717
25239SOL    HW175967   0.760   8.499   0.724
25239SOL    HW275968   0.841   8.612   0.663
25240SOL     OW75969  10.575   9.996   2.080
25240SOL    HW175970  10.650  10.056   2.073
25240SOL    HW275971  10.593   9.946   2.160
25241SOL     OW75972  14.632   9.482   6.819
25241SOL    HW175973  14.640   9.448   6.730
25241SOL    HW275974  14.581   9.562   6.810
25242SOL     OW75975   3.492   5.772   4.496
25242SOL    HW175976   3.484   5.868   4.494
25242SOL    HW275977   3.417   5.741   4.446
25243SOL     OW75978  11.272   6.986   1.968
25243SOL    HW175979  11.284   7.079   1.948
25243SOL    HW275980  11.338   6.942   1.916
25244SOL     OW75981   8.018   3.123   1.076
25244SOL    HW175982   8.106   3.134   1.039
25244SOL    HW275983   7.977   3.209   1.067
25245SOL     OW75984   6.236   8.628   4.423
25245SOL    HW175985   6.249   8.702   4.482
25245SOL    HW275986   6.238   8.551   4.480
25246SOL     OW75987   4.952   8.077   5.323
25246SOL    HW175988   5.020   8.033   5.272
25246SOL    HW275989   4.939   8.019   5.398
25247SOL     OW75990   2.365  10.861   0.835
25247SOL    HW175991   2.412  10.904   0.906
25247SOL    HW275992   2.371  10.768   0.854
25248SOL     OW75993   7.737  10.464   0.020
25248SOL    HW175994   7.722  10.510   0.103
25248SOL    HW275995  13.207  15.887   7.606
25249SOL     OW75996   2.607   2.340   1.119
25249SOL    HW175997   2.687   2.288   1.112
25249SOL    HW275998   2.601   2.363   1.212
25250SOL     OW75999   4.614  13.469   6.330
25250SOL    HW176000   4.707  13.485   6.345
25250SOL    HW276001   4.573  13.556   6.336
25251SOL     OW76002   6.687   8.142   2.590
25251SOL    HW176003   6.764   8.200   2.593
25251SOL    HW276004   6.691   8.094   2.673
25252SOL     OW76005  10.536  11.290   6.882
25252SOL    HW176006  10.529  11.201   6.846
25252SOL    HW276007  10.612  11.287   6.939
25253SOL     OW76008  10.540   5.338   7.135
25253SOL    HW176009  10.500   5.390   7.065
25253SOL    HW276010  10.481   5.264   7.147
25254SOL     OW76011   6.462   8.133   3.707
25254SOL    HW176012   6.512   8.181   3.641
25254SOL    HW276013   6.475   8.183   3.788
25255SOL     OW76014   5.070   6.444   1.317
25255SOL    HW176015   5.128   6.410   1.385
25255SOL    HW276016   5.100   6.534   1.302
25256SOL     OW76017  11.810   5.989   3.777
25256SOL    HW176018  11.852   6.057   3.829
25256SOL    HW276019  11.789   5.920   3.839
25257SOL     OW76020   5.428   8.617   5.954
25257SOL    HW176021   5.369   8.652   5.888
25257SOL    HW276022   5.384   8.636   6.037
25258SOL     OW76023   3.598   6.199   4.713
25258SOL    HW176024   3.550   6.216   4.795
25258SOL    HW276025   3.686   6.176   4.742
25259SOL     OW76026   5.282   2.840   2.429
25259SOL    HW176027   5.316   2.882   2.350
25259SOL    HW276028   5.267   2.913   2.490
25260SOL     OW76029  13.072   5.310   6.518
25260SOL    HW176030  13.042   5.221   6.499
25260SOL    HW276031  13.158   5.315   6.475
25261SOL     OW76032   8.712   5.802   3.827
25261SOL    HW176033   8.741   5.757   3.748
25261SOL    HW276034   8.668   5.734   3.879
25262SOL     OW76035   9.576  13.035   4.160
25262SOL    HW176036   9.512  13.002   4.223
25262SOL    HW276037   9.636  13.087   4.212
25263SOL     OW76038  14.751  12.887   7.477
25263SOL    HW176039  14.659  12.860   7.485
25263SOL    HW276040  14.755  12.931   7.392
25264SOL     OW76041   2.602   1.666   1.809
25264SOL    HW176042   2.637   1.587   1.768
25264SOL    HW276043   2.678   1.724   1.818
25265SOL     OW76044  11.630   6.612   5.205
25265SOL    HW176045  11.725   6.617   5.211
25265SOL    HW276046  11.600   6.618   5.296
25266SOL     OW76047   5.678   7.987   5.599
25266SOL    HW176048   5.714   8.060   5.650
25266SOL    HW276049   5.594   8.020   5.565
25267SOL     OW76050  11.306   8.656   6.588
25267SOL    HW176051  11.224   8.609   6.569
25267SOL    HW276052  11.301   8.735   6.534
25268SOL     OW76053   5.193   9.296   1.874
25268SOL    HW176054   5.220   9.387   1.882
25268SOL    HW276055   5.109   9.300   1.828
25269SOL     OW76056   4.522   7.363   5.329
25269SOL    HW176057   4.545   7.287   5.276
25269SOL    HW276058   4.570   7.350   5.411
25270SOL     OW76059   7.316   9.847   4.270
25270SOL    HW176060   7.412   9.850   4.269
25270SOL    HW276061   7.289   9.924   4.219
25271SOL     OW76062  13.645  12.716   5.775
25271SOL    HW176063  13.714  12.704   5.841
25271SOL    HW276064  13.667  12.652   5.707
25272SOL     OW76065   5.282   7.696   5.977
25272SOL    HW176066   5.268   7.790   5.986
25272SOL    HW276067   5.256   7.659   6.061
25273SOL     OW76068   4.219   7.682   2.460
25273SOL    HW176069   4.295   7.628   2.437
25273SOL    HW276070   4.257   7.765   2.488
25274SOL     OW76071   7.565   5.053   4.156
25274SOL    HW176072   7.588   4.989   4.088
25274SOL    HW276073   7.648   5.098   4.176
25275SOL     OW76074  10.703  10.464   0.207
25275SOL    HW176075  10.718  10.442   0.299
25275SOL    HW276076  10.627  10.412   0.181
25276SOL     OW76077  11.868  10.029   6.385
25276SOL    HW176078  11.908   9.976   6.316
25276SOL    HW276079  11.939  10.082   6.420
25277SOL     OW76080   9.531  11.380   1.226
25277SOL    HW176081   9.574  11.466   1.225
25277SOL    HW276082   9.560  11.339   1.144
25278SOL     OW76083   9.567   2.142   1.654
25278SOL    HW176084   9.551   2.210   1.589
25278SOL    HW276085   9.657   2.114   1.639
25279SOL     OW76086   3.475   6.671   2.261
25279SOL    HW176087   3.453   6.601   2.199
25279SOL    HW276088   3.450   6.752   2.216
25280SOL     OW76089  10.733  14.876   6.628
25280SOL    HW176090  10.703  14.853   6.540
25280SOL    HW276091  10.672  14.946   6.655
25281SOL     OW76092  11.977   8.402   3.508
25281SOL    HW176093  11.943   8.422   3.421
25281SOL    HW276094  12.066   8.371   3.493
25282SOL     OW76095   9.520  12.533   2.997
25282SOL    HW176096   9.530  12.608   3.054
25282SOL    HW276097   9.426  12.515   2.997
25283SOL     OW76098  10.806   2.805   0.323
25283SOL    HW176099  10.750   2.853   0.262
25283SOL    HW276100  10.882   2.780   0.270
25284SOL     OW76101   7.974  12.299   4.694
25284SOL    HW176102   7.905  12.310   4.760
25284SOL    HW276103   8.000  12.389   4.673
25285SOL     OW76104   6.745   5.261   2.411
25285SOL    HW176105   6.801   5.329   2.449
25285SOL    HW276106   6.680   5.242   2.480
25286SOL     OW76107   3.390   3.271   0.328
25286SOL    HW176108   3.345   3.249   0.410
25286SOL    HW276109   3.458   3.333   0.354
25287SOL     OW76110   7.375   5.649   6.824
25287SOL    HW176111   7.326   5.569   6.840
25287SOL    HW276112   7.312   5.719   6.839
25288SOL     OW76113   3.705  13.521   4.448
25288SOL    HW176114   3.675  13.587   4.510
25288SOL    HW276115   3.715  13.569   4.366
25289SOL     OW76116   7.889   8.126   3.180
25289SOL    HW176117   7.967   8.098   3.132
25289SOL    HW276118   7.817   8.106   3.120
25290SOL     OW76119   9.548   2.414   0.265
25290SOL    HW176120   9.548   2.319   0.277
25290SOL    HW276121   9.457   2.440   0.278
25291SOL     OW76122   9.100  13.543   7.290
25291SOL    HW176123   9.106  13.639   7.293
25291SOL    HW276124   9.007  13.525   7.297
25292SOL     OW76125   3.626  11.275   3.826
25292SOL    HW176126   3.614  11.369   3.832
25292SOL    HW276127   3.570  11.238   3.894
25293SOL     OW76128   1.984   9.508   0.627
25293SOL    HW176129   1.915   9.520   0.692
25293SOL    HW276130   2.046   9.579   0.644
25294SOL     OW76131   5.259  15.125   6.727
25294SOL    HW176132   5.221  15.200   6.681
25294SOL    HW276133   5.353  15.141   6.724
25295SOL     OW76134  10.294   6.091   3.642
25295SOL    HW176135  10.274   6.173   3.595
25295SOL    HW276136  10.359   6.048   3.587
25296SOL     OW76137   7.573   9.159   6.110
25296SOL    HW176138   7.502   9.099   6.089
25296SOL    HW276139   7.634   9.151   6.037
25297SOL     OW76140  12.706   6.247   7.347
25297SOL    HW176141  12.648   6.318   7.321
25297SOL    HW276142  12.648   6.181   7.386
25298SOL     OW76143  14.065  11.643   6.667
25298SOL    HW176144  14.035  11.625   6.577
25298SOL    HW276145  14.089  11.558   6.702
25299SOL     OW76146  13.355   8.681   3.714
25299SOL    HW176147  13.296   8.606   3.710
25299SOL    HW276148  13.338   8.729   3.633
25300SOL     OW76149   8.114   6.087   5.552
25300SOL    HW176150   8.020   6.095   5.537
25300SOL    HW276151   8.154   6.110   5.467
25301SOL     OW76152   3.630  13.238   3.703
25301SOL    HW176153   3.589  13.167   3.655
25301SOL    HW276154   3.637  13.310   3.640
25302SOL     OW76155   8.665   9.206   6.541
25302SOL    HW176156   8.619   9.124   6.558
25302SOL    HW276157   8.703   9.230   6.625
25303SOL     OW76158  12.972   8.160   3.405
25303SOL    HW176159  12.925   8.128   3.482
25303SOL    HW276160  13.033   8.225   3.439
25304SOL     OW76161   5.657   5.402   4.516
25304SOL    HW176162   5.703   5.387   4.433
25304SOL    HW276163   5.590   5.333   4.518
25305SOL     OW76164  12.845   9.114   7.179
25305SOL    HW176165  12.929   9.153   7.202
25305SOL    HW276166  12.862   9.020   7.178
25306SOL     OW76167   9.792   9.696   3.750
25306SOL    HW176168   9.818   9.776   3.796
25306SOL    HW276169   9.702   9.680   3.779
25307SOL     OW76170  10.502   8.934   4.962
25307SOL    HW176171  10.533   8.982   4.885
25307SOL    HW276172  10.409   8.955   4.968
25308SOL     OW76173  10.852   7.031   4.988
25308SOL    HW176174  10.907   7.107   5.004
25308SOL    HW276175  10.765   7.057   5.019
25309SOL     OW76176   6.364   8.682   6.734
25309SOL    HW176177   6.281   8.679   6.782
25309SOL    HW276178   6.347   8.631   6.655
25310SOL     OW76179  12.571  13.553   5.010
25310SOL    HW176180  12.484  13.516   4.996
25310SOL    HW276181  12.562  13.645   4.985
25311SOL     OW76182   9.277   1.379   1.614
25311SOL    HW176183   9.247   1.423   1.534
25311SOL    HW276184   9.228   1.297   1.616
25312SOL     OW76185   8.142   5.928   2.524
25312SOL    HW176186   8.217   5.984   2.503
25312SOL    HW276187   8.098   5.915   2.440
25313SOL     OW76188  13.575  13.872   6.628
25313SOL    HW176189  13.608  13.939   6.569
25313SOL    HW276190  13.483  13.895   6.643
25314SOL     OW76191  13.561  11.029   5.581
25314SOL    HW176192  13.640  11.060   5.625
25314SOL    HW276193  13.489  11.072   5.627
25315SOL     OW76194   9.562  13.382   4.987
25315SOL    HW176195   9.642  13.429   5.010
25315SOL    HW276196   9.583  13.290   5.004
25316SOL     OW76197   9.119  12.325   6.462
25316SOL    HW176198   9.029  12.325   6.430
25316SOL    HW276199   9.172  12.324   6.383
25317SOL     OW76200   2.284   9.980   3.000
25317SOL    HW176201   2.283  10.070   3.033
25317SOL    HW276202   2.242   9.986   2.914
25318SOL     OW76203  13.810   6.499   7.185
25318SOL    HW176204  13.867   6.424   7.200
25318SOL    HW276205  13.858   6.554   7.123
25319SOL     OW76206   8.200  13.102   5.398
25319SOL    HW176207   8.255  13.092   5.320
25319SOL    HW276208   8.110  13.095   5.364
25320SOL     OW76209  11.887   2.915   1.765
25320SOL    HW176210  11.817   2.945   1.823
25320SOL    HW276211  11.958   2.890   1.825
25321SOL     OW76212  11.275   7.910   0.819
25321SOL    HW176213  11.224   7.855   0.759
25321SOL    HW276214  11.322   7.848   0.875
25322SOL     OW76215   8.603  10.120   7.062
25322SOL    HW176216   8.587  10.078   7.147
25322SOL    HW276217   8.674  10.182   7.079
25323SOL     OW76218   8.582  11.847   6.879
25323SOL    HW176219   8.505  11.793   6.855
25323SOL    HW276220   8.651  11.817   6.820
25324SOL     OW76221   0.863   5.982   0.602
25324SOL    HW176222   0.839   5.908   0.659
25324SOL    HW276223   0.952   6.004   0.628
25325SOL     OW76224   7.026   5.343   3.873
25325SOL    HW176225   7.030   5.256   3.834
25325SOL    HW276226   7.013   5.326   3.966
25326SOL     OW76227  13.640  11.535   6.698
25326SOL    HW176228  13.702  11.602   6.671
25326SOL    HW276229  13.598  11.506   6.617
25327SOL     OW76230   6.653   2.152   1.805
25327SOL    HW176231   6.605   2.086   1.754
25327SOL    HW276232   6.587   2.191   1.862
25328SOL     OW76233   7.885   9.766   2.535
25328SOL    HW176234   7.818   9.835   2.527
25328SOL    HW276235   7.890   9.728   2.448
25329SOL     OW76236   6.217  10.809   5.230
25329SOL    HW176237   6.156  10.807   5.157
25329SOL    HW276238   6.198  10.892   5.275
25330SOL     OW76239  10.438  11.729   1.993
25330SOL    HW176240  10.455  11.658   2.056
25330SOL    HW276241  10.463  11.809   2.039
25331SOL     OW76242   3.277   9.541   1.906
25331SOL    HW176243   3.222   9.561   1.830
25331SOL    HW276244   3.315   9.455   1.886
25332SOL     OW76245   9.308   9.497   7.327
25332SOL    HW176246   9.303   9.589   7.352
25332SOL    HW276247   9.402   9.478   7.324
25333SOL     OW76248   4.474  13.685   6.147
25333SOL    HW176249   4.526  13.757   6.111
25333SOL    HW276250   4.383  13.712   6.134
25334SOL     OW76251   8.492   3.633   1.628
25334SOL    HW176252   8.466   3.709   1.679
25334SOL    HW276253   8.587   3.628   1.640
25335SOL     OW76254   5.437   7.824   2.379
25335SOL    HW176255   5.383   7.798   2.305
25335SOL    HW276256   5.464   7.914   2.359
25336SOL     OW76257   8.432   8.171   7.028
25336SOL    HW176258   8.511   8.208   6.989
25336SOL    HW276259   8.428   8.081   6.993
25337SOL     OW76260  13.112   3.776   5.259
25337SOL    HW176261  13.153  14.511   5.337
25337SOL    HW276262  13.186   3.811   5.209
25338SOL     OW76263   5.640  12.556   3.965
25338SOL    HW176264   5.725  12.599   3.971
25338SOL    HW276265   5.617  12.535   4.056
25339SOL     OW76266   8.575   8.583   3.706
25339SOL    HW176267   8.605   8.499   3.740
25339SOL    HW276268   8.480   8.581   3.719
25340SOL     OW76269   7.900  14.395   6.613
25340SOL    HW176270   7.905  14.486   6.644
25340SOL    HW276271   7.992  14.369   6.603
25341SOL     OW76272   9.679   4.783   1.813
25341SOL    HW176273   9.632   4.702   1.835
25341SOL    HW276274   9.677   4.787   1.717
25342SOL     OW76275   9.406   9.035   7.409
25342SOL    HW176276   9.437   8.948   7.433
25342SOL    HW276277   9.337   9.020   7.344
25343SOL     OW76278  10.433   6.546   5.153
25343SOL    HW176279  10.441   6.455   5.126
25343SOL    HW276280  10.524   6.574   5.169
25344SOL     OW76281   6.107   8.964   7.456
25344SOL    HW176282   6.053   9.016   7.397
25344SOL    HW276283   6.196   8.975   7.423
25345SOL     OW76284  11.533  11.472   3.984
25345SOL    HW176285  11.439  11.459   3.973
25345SOL    HW276286  11.569  11.462   3.896
25346SOL     OW76287   6.309   5.303   4.059
25346SOL    HW176288   6.368   5.231   4.082
25346SOL    HW276289   6.223   5.263   4.055
25347SOL     OW76290  12.095   4.620   4.453
25347SOL    HW176291  12.095   4.529   4.482
25347SOL    HW276292  12.164   4.662   4.504
25348SOL     OW76293  10.687  12.301   7.254
25348SOL    HW176294  10.758  12.253   7.297
25348SOL    HW276295  10.668  12.374   7.314
25349SOL     OW76296   7.625   2.343   2.031
25349SOL    HW176297   7.609   2.334   1.937
25349SOL    HW276298   7.663   2.430   2.041
25350SOL     OW76299  10.522   9.154   7.075
25350SOL    HW176300  10.544   9.067   7.107
25350SOL    HW276301  10.580   9.213   7.123
25351SOL     OW76302   4.435   6.408   0.954
25351SOL    HW176303   4.397   6.430   0.869
25351SOL    HW276304   4.376   6.342   0.990
25352SOL     OW76305  12.561   5.991   4.366
25352SOL    HW176306  12.525   5.913   4.325
25352SOL    HW276307  12.653   5.969   4.383
25353SOL     OW76308   2.026   6.855   1.501
25353SOL    HW176309   2.006   6.791   1.433
25353SOL    HW276310   2.118   6.838   1.523
25354SOL     OW76311  12.301  11.001   3.626
25354SOL    HW176312  12.335  11.059   3.694
25354SOL    HW276313  12.238  10.945   3.672
25355SOL     OW76314   0.586   7.511   0.644
25355SOL    HW176315   0.518   7.484   0.705
25355SOL    HW276316   0.539   7.556   0.574
25356SOL     OW76317   3.537   8.098   3.677
25356SOL    HW176318   3.540   8.107   3.772
25356SOL    HW276319   3.546   8.004   3.661
25357SOL     OW76320   7.091   2.885   0.652
25357SOL    HW176321   7.050   2.843   0.576
25357SOL    HW276322   7.032   2.864   0.725
25358SOL     OW76323   9.916   9.389   1.373
25358SOL    HW176324   9.969   9.421   1.446
25358SOL    HW276325   9.840   9.446   1.372
25359SOL     OW76326  10.546   6.916   2.455
25359SOL    HW176327  10.575   6.830   2.424
25359SOL    HW276328  10.555   6.973   2.379
25360SOL     OW76329   1.580   9.312   0.124
25360SOL    HW176330   1.598   9.278   0.037
25360SOL    HW276331   1.507   9.373   0.112
25361SOL     OW76332  11.744   9.049   6.020
25361SOL    HW176333  11.757   9.143   6.038
25361SOL    HW276334  11.776   9.005   6.099
25362SOL     OW76335   7.543   3.889   2.727
25362SOL    HW176336   7.611   3.895   2.794
25362SOL    HW276337   7.545   3.973   2.682
25363SOL     OW76338   4.500   7.220   1.624
25363SOL    HW176339   4.517   7.283   1.554
25363SOL    HW276340   4.574   7.159   1.620
25364SOL     OW76341   3.000   8.801   2.742
25364SOL    HW176342   3.052   8.854   2.803
25364SOL    HW276343   2.946   8.746   2.798
25365SOL     OW76344   5.181   9.630   0.629
25365SOL    HW176345   5.210   9.614   0.719
25365SOL    HW276346   5.260   9.617   0.576
25366SOL     OW76347   2.961   5.611   2.818
25366SOL    HW176348   3.042   5.563   2.802
25366SOL    HW276349   2.940   5.651   2.733
25367SOL     OW76350   7.782   5.313   6.869
25367SOL    HW176351   7.694   5.346   6.849
25367SOL    HW276352   7.840   5.387   6.853
25368SOL     OW76353  14.070   9.045   6.888
25368SOL    HW176354  14.021   8.963   6.885
25368SOL    HW276355  14.093   9.063   6.797
25369SOL     OW76356  10.780  10.601   4.927
25369SOL    HW176357  10.799  10.510   4.905
25369SOL    HW276358  10.784  10.603   5.023
25370SOL     OW76359   8.511  12.447   2.872
25370SOL    HW176360   8.499  12.370   2.818
25370SOL    HW276361   8.605  12.467   2.865
25371SOL     OW76362  12.302   6.149   4.244
25371SOL    HW176363  12.216   6.160   4.204
25371SOL    HW276364  12.362   6.191   4.182
25372SOL     OW76365  13.926   8.377   5.158
25372SOL    HW176366  13.935   8.410   5.069
25372SOL    HW276367  14.007   8.403   5.202
25373SOL     OW76368   5.308   4.402   5.273
25373SOL    HW176369   5.230   4.385   5.325
25373SOL    HW276370   5.301   4.494   5.248
25374SOL     OW76371   8.421  12.566   6.444
25374SOL    HW176372   8.440  12.648   6.491
25374SOL    HW276373   8.505  12.521   6.440
25375SOL     OW76374   7.925  11.086   6.304
25375SOL    HW176375   7.906  11.151   6.371
25375SOL    HW276376   8.020  11.078   6.305
25376SOL     OW76377   0.595  10.019   0.563
25376SOL    HW176378   0.597   9.935   0.609
25376SOL    HW276379   0.502  10.043   0.562
25377SOL     OW76380  10.625  12.715   4.056
25377SOL    HW176381  10.630  12.627   4.019
25377SOL    HW276382  10.716  12.743   4.064
25378SOL     OW76383  12.887  10.800   6.967
25378SOL    HW176384  12.811  10.858   6.968
25378SOL    HW276385  12.872  10.742   6.892
25379SOL     OW76386  10.996  13.529   7.203
25379SOL    HW176387  10.923  13.525   7.265
25379SOL    HW276388  10.987  13.450   7.150
25380SOL     OW76389   7.406   5.679   2.611
25380SOL    HW176390   7.351   5.751   2.581
25380SOL    HW276391   7.376   5.603   2.561
25381SOL     OW76392  12.825   7.145   6.567
25381SOL    HW176393  12.887   7.141   6.641
25381SOL    HW276394  12.792   7.234   6.569
25382SOL     OW76395   1.547   4.974   1.554
25382SOL    HW176396   1.508   5.049   1.509
25382SOL    HW276397   1.524   4.986   1.646
25383SOL     OW76398   9.125  13.893   7.558
25383SOL    HW176399   9.176  13.815   7.580
25383SOL    HW276400   9.034  13.868   7.574
25384SOL     OW76401   9.643  13.934   5.830
25384SOL    HW176402   9.692  14.016   5.818
25384SOL    HW276403   9.563  13.947   5.779
25385SOL     OW76404   5.184   6.608   4.193
25385SOL    HW176405   5.139   6.659   4.261
25385SOL    HW276406   5.209   6.674   4.127
25386SOL     OW76407  11.311   3.250   1.666
25386SOL    HW176408  11.275   3.198   1.738
25386SOL    HW276409  11.280   3.206   1.587
25387SOL     OW76410   8.694  11.030   6.045
25387SOL    HW176411   8.611  11.020   5.999
25387SOL    HW276412   8.742  11.096   5.995
25388SOL     OW76413   9.923   8.704   5.318
25388SOL    HW176414   9.904   8.653   5.239
25388SOL    HW276415   9.920   8.640   5.389
25389SOL     OW76416   7.246   4.694   2.136
25389SOL    HW176417   7.231   4.613   2.184
25389SOL    HW276418   7.161   4.715   2.098
25390SOL     OW76419   9.842   2.028   1.641
25390SOL    HW176420   9.906   1.981   1.588
25390SOL    HW276421   9.862   2.120   1.627
25391SOL     OW76422   5.985   1.014   0.533
25391SOL    HW176423   6.033   1.070   0.471
25391SOL    HW276424   6.038   1.017   0.613
25392SOL     OW76425   7.308   7.940   1.062
25392SOL    HW176426   7.369   7.930   0.989
25392SOL    HW276427   7.221   7.936   1.021
25393SOL     OW76428   6.908   0.823   0.106
25393SOL    HW176429   6.918   0.866   0.191
25393SOL    HW276430   6.833   0.765   0.117
25394SOL     OW76431  11.975   5.630   3.396
25394SOL    HW176432  12.005   5.694   3.331
25394SOL    HW276433  11.915   5.573   3.347
25395SOL     OW76434   5.780   8.013   2.424
25395SOL    HW176435   5.741   8.098   2.443
25395SOL    HW276436   5.817   8.023   2.336
25396SOL     OW76437   9.961   9.311   3.729
25396SOL    HW176438   9.900   9.343   3.663
25396SOL    HW276439  10.040   9.363   3.717
25397SOL     OW76440  10.357  10.316   1.305
25397SOL    HW176441  10.300  10.307   1.382
25397SOL    HW276442  10.426  10.376   1.333
25398SOL     OW76443  14.193   5.115   5.512
25398SOL    HW176444  14.202   5.180   5.442
25398SOL    HW276445  14.266   5.133   5.571
25399SOL     OW76446  11.380   3.107   4.321
25399SOL    HW176447  11.395  13.834   4.403
25399SOL    HW276448  11.321   3.178   4.346
25400SOL     OW76449   5.892   1.990   1.182
25400SOL    HW176450   5.874   1.925   1.250
25400SOL    HW276451   5.946   2.056   1.225
25401SOL     OW76452  12.791   5.183   4.749
25401SOL    HW176453  12.781   5.188   4.654
25401SOL    HW276454  12.720   5.237   4.784
25402SOL     OW76455  12.039  12.201   3.110
25402SOL    HW176456  12.128  12.168   3.107
25402SOL    HW276457  12.046  12.286   3.153
25403SOL     OW76458   4.454   8.822   3.777
25403SOL    HW176459   4.364   8.822   3.742
25403SOL    HW276460   4.490   8.906   3.749
25404SOL     OW76461  10.725   4.792   3.070
25404SOL    HW176462  10.716   4.823   2.980
25404SOL    HW276463  10.668   4.715   3.075
25405SOL     OW76464   7.718  10.796   1.677
25405SOL    HW176465   7.756  10.868   1.727
25405SOL    HW276466   7.623  10.807   1.688
25406SOL     OW76467   5.627   3.094   4.340
25406SOL    HW176468   5.679  13.874   4.420
25406SOL    HW276469   5.652   3.171   4.289
25407SOL     OW76470   1.774  10.375   2.489
25407SOL    HW176471  12.488  10.316   2.444
25407SOL    HW276472   1.820  10.318   2.552
25408SOL     OW76473   3.414   8.016   0.634
25408SOL    HW176474   3.394   7.929   0.599
25408SOL    HW276475   3.490   8.003   0.690
25409SOL     OW76476   8.630   1.110   1.530
25409SOL    HW176477   8.622   1.205   1.532
25409SOL    HW276478   8.717   1.093   1.494
25410SOL     OW76479   6.404  12.160   3.443
25410SOL    HW176480   6.419  12.244   3.399
25410SOL    HW276481   6.444  12.096   3.385
25411SOL     OW76482   4.353   9.118   5.164
25411SOL    HW176483   4.388   9.187   5.108
25411SOL    HW276484   4.425   9.096   5.223
25412SOL     OW76485   6.554  13.440   5.961
25412SOL    HW176486   6.597  13.361   5.930
25412SOL    HW276487   6.620  13.484   6.015
25413SOL     OW76488  11.540   9.811   2.511
25413SOL    HW176489  11.600   9.755   2.561
25413SOL    HW276490  11.539   9.773   2.423
25414SOL     OW76491   3.064  10.585   2.623
25414SOL    HW176492   2.998  10.541   2.570
25414SOL    HW276493   3.042  10.562   2.714
25415SOL     OW76494  10.082   8.478   4.163
25415SOL    HW176495  10.056   8.561   4.204
25415SOL    HW276496  10.167   8.495   4.124
25416SOL     OW76497   9.445  11.387   3.159
25416SOL    HW176498   9.392  11.332   3.101
25416SOL    HW276499   9.529  11.342   3.165
25417SOL     OW76500  11.115   5.749   2.738
25417SOL    HW176501  11.104   5.833   2.784
25417SOL    HW276502  11.091   5.683   2.803
25418SOL     OW76503  11.173   5.705   5.472
25418SOL    HW176504  11.249   5.675   5.421
25418SOL    HW276505  11.170   5.799   5.459
25419SOL     OW76506   3.906   4.254   4.913
25419SOL    HW176507   3.997   4.279   4.929
25419SOL    HW276508   3.912   4.166   4.876
25420SOL     OW76509   7.118   3.421   1.530
25420SOL    HW176510   7.076   3.341   1.562
25420SOL    HW276511   7.045   3.482   1.514
25421SOL     OW76512  10.663   3.175   3.693
25421SOL    HW176513  10.702   3.208   3.612
25421SOL    HW276514  10.697   3.232   3.761
25422SOL     OW76515   9.818   9.438   4.182
25422SOL    HW176516   9.867   9.510   4.141
25422SOL    HW276517   9.736   9.478   4.211
25423SOL     OW76518   9.236   7.004   4.587
25423SOL    HW176519   9.210   7.086   4.630
25423SOL    HW276520   9.185   6.937   4.632
25424SOL     OW76521   8.533   3.471   3.159
25424SOL    HW176522   8.589   3.456   3.083
25424SOL    HW276523   8.591   3.457   3.234
25425SOL     OW76524   9.721  11.979   7.576
25425SOL    HW176525   9.649  12.040   7.559
25425SOL    HW276526   4.331   6.578   0.052
25426SOL     OW76527  12.503   8.287   5.859
25426SOL    HW176528  12.529   8.202   5.894
25426SOL    HW276529  12.571   8.308   5.794
25427SOL     OW76530   9.271   1.614   0.013
25427SOL    HW176531   9.196   1.554   0.019
25427SOL    HW276532  14.696   6.981   7.546
25428SOL     OW76533  13.163   9.215   5.584
25428SOL    HW176534  13.258   9.207   5.590
25428SOL    HW276535  13.149   9.308   5.566
25429SOL     OW76536   7.689   5.239   4.893
25429SOL    HW176537   7.639   5.283   4.961
25429SOL    HW276538   7.778   5.235   4.927
25430SOL     OW76539   9.355  11.676   3.217
25430SOL    HW176540   9.387  11.599   3.172
25430SOL    HW276541   9.281  11.644   3.270
25431SOL     OW76542   4.142   3.157   3.030
25431SOL    HW176543   4.119   3.249   3.020
25431SOL    HW276544   4.071   3.110   2.987
25432SOL     OW76545   6.921  12.356   3.741
25432SOL    HW176546   6.864  12.283   3.767
25432SOL    HW276547   6.883  12.433   3.785
25433SOL     OW76548   5.803   4.850   2.511
25433SOL    HW176549   5.893   4.849   2.478
25433SOL    HW276550   5.787   4.941   2.534
25434SOL     OW76551  10.285  13.143   5.275
25434SOL    HW176552  10.312  13.235   5.270
25434SOL    HW276553  10.319  13.103   5.194
25435SOL     OW76554   7.358   5.314   5.180
25435SOL    HW176555   7.435   5.315   5.123
25435SOL    HW276556   7.351   5.404   5.212
25436SOL     OW76557  15.081  11.332   7.302
25436SOL    HW176558  15.163  11.358   7.261
25436SOL    HW276559  15.020  11.403   7.283
25437SOL     OW76560  14.430  13.146   6.690
25437SOL    HW176561  14.518  13.111   6.707
25437SOL    HW276562  14.396  13.092   6.619
25438SOL     OW76563  10.905   1.117   1.016
25438SOL    HW176564  10.966   1.179   0.974
25438SOL    HW276565  10.822   1.164   1.019
25439SOL     OW76566   8.667   4.532   4.101
25439SOL    HW176567   8.738   4.595   4.115
25439SOL    HW276568   8.620   4.567   4.025
25440SOL     OW76569   5.895   7.724   3.007
25440SOL    HW176570   5.861   7.807   3.039
25440SOL    HW276571   5.991   7.735   3.009
25441SOL     OW76572  12.677   6.655   7.086
25441SOL    HW176573  12.761   6.690   7.054
25441SOL    HW276574  12.631   6.628   7.007
25442SOL     OW76575  12.747   4.521   4.719
25442SOL    HW176576  12.839   4.518   4.744
25442SOL    HW276577  12.709   4.440   4.755
25443SOL     OW76578  11.992  12.991   7.261
25443SOL    HW176579  11.999  12.895   7.262
25443SOL    HW276580  11.917  13.010   7.318
25444SOL     OW76581   6.569   7.896   2.462
25444SOL    HW176582   6.658   7.872   2.488
25444SOL    HW276583   6.566   7.991   2.472
25445SOL     OW76584   4.579  12.459   3.960
25445SOL    HW176585   4.544  12.409   4.034
25445SOL    HW276586   4.502  12.502   3.921
25446SOL     OW76587   4.315   6.045   0.363
25446SOL    HW176588   4.401   6.004   0.354
25446SOL    HW276589   4.285   6.020   0.450
25447SOL     OW76590   3.734   2.669   0.659
25447SOL    HW176591   3.814   2.628   0.690
25447SOL    HW276592   3.664   2.626   0.708
25448SOL     OW76593   7.404   3.506   3.427
25448SOL    HW176594   7.464   3.468   3.363
25448SOL    HW276595   7.319   3.507   3.384
25449SOL     OW76596   9.160  13.773   5.095
25449SOL    HW176597   9.183  13.721   5.018
25449SOL    HW276598   9.137  13.859   5.060
25450SOL     OW76599   7.257   9.245   2.752
25450SOL    HW176600   7.175   9.271   2.794
25450SOL    HW276601   7.261   9.299   2.673
25451SOL     OW76602   4.725   4.908   1.009
25451SOL    HW176603   4.792   4.841   0.998
25451SOL    HW276604   4.666   4.896   0.934
25452SOL     OW76605   5.357   5.313   0.484
25452SOL    HW176606   5.380   5.371   0.557
25452SOL    HW276607   5.440   5.300   0.437
25453SOL     OW76608  12.093   7.639   6.553
25453SOL    HW176609  12.156   7.570   6.574
25453SOL    HW276610  12.054   7.612   6.470
25454SOL     OW76611  14.330  11.209   5.638
25454SOL    HW176612  14.313  11.242   5.726
25454SOL    HW276613  14.405  11.151   5.648
25455SOL     OW76614  10.431   7.840   5.229
25455SOL    HW176615  10.487   7.837   5.151
25455SOL    HW276616  10.462   7.916   5.277
25456SOL     OW76617  10.394   4.424   5.828
25456SOL    HW176618  10.438   4.439   5.912
25456SOL    HW276619  10.393   4.510   5.786
25457SOL     OW76620  11.795  13.442   6.390
25457SOL    HW176621  11.874  13.426   6.441
25457SOL    HW276622  11.731  13.380   6.425
25458SOL     OW76623   5.720  10.878   7.429
25458SOL    HW176624   5.638  10.926   7.418
25458SOL    HW276625   5.788  10.946   7.424
25459SOL     OW76626   2.694   3.963   0.843
25459SOL    HW176627   2.649   3.912   0.776
25459SOL    HW276628   2.645   3.945   0.924
25460SOL     OW76629   9.898  12.983   4.069
25460SOL    HW176630   9.897  13.057   4.008
25460SOL    HW276631   9.920  12.908   4.015
25461SOL     OW76632  14.155  14.626   6.903
25461SOL    HW176633  14.112  14.655   6.823
25461SOL    HW276634  14.196  14.705   6.939
25462SOL     OW76635   8.753  10.479   2.197
25462SOL    HW176636   8.844  10.493   2.224
25462SOL    HW276637   8.716  10.424   2.266
25463SOL     OW76638  14.396   9.652   6.486
25463SOL    HW176639  14.477   9.643   6.537
25463SOL    HW276640  14.329   9.610   6.540
25464SOL     OW76641  14.871  12.427   6.021
25464SOL    HW176642  14.909  12.359   6.077
25464SOL    HW276643  14.852  12.499   6.080
25465SOL     OW76644   3.989  11.790   2.346
25465SOL    HW176645   3.979  11.881   2.320
25465SOL    HW276646   4.036  11.793   2.429
25466SOL     OW76647  12.184   4.509   5.593
25466SOL    HW176648  12.177   4.600   5.620
25466SOL    HW276649  12.097   4.472   5.610
25467SOL     OW76650   8.016   2.906   3.027
25467SOL    HW176651   8.013   2.866   2.940
25467SOL    HW276652   8.102   2.949   3.030
25468SOL     OW76653  12.667   8.103   6.844
25468SOL    HW176654  12.684   8.189   6.807
25468SOL    HW276655  12.609   8.060   6.781
25469SOL     OW76656   3.593  12.310   2.958
25469SOL    HW176657   3.652  12.277   3.025
25469SOL    HW276658   3.583  12.403   2.978
25470SOL     OW76659   9.483   9.445   3.640
25470SOL    HW176660   9.553   9.382   3.625
25470SOL    HW276661   9.431   9.406   3.710
25471SOL     OW76662  10.044   5.261   3.951
25471SOL    HW176663  10.117   5.310   3.914
25471SOL    HW276664   9.966   5.308   3.920
25472SOL     OW76665   5.440   1.395   1.120
25472SOL    HW176666   5.394   1.392   1.035
25472SOL    HW276667   5.413   1.478   1.159
25473SOL     OW76668  14.141   7.463   6.904
25473SOL    HW176669  14.080   7.396   6.875
25473SOL    HW276670  14.216   7.415   6.938
25474SOL     OW76671   9.805  12.876   7.192
25474SOL    HW176672   9.860  12.904   7.118
25474SOL    HW276673   9.782  12.957   7.237
25475SOL     OW76674   7.180  12.474   2.599
25475SOL    HW176675   7.260  12.436   2.635
25475SOL    HW276676   7.130  12.501   2.676
25476SOL     OW76677   5.915   8.712   7.185
25476SOL    HW176678   5.881   8.792   7.226
25476SOL    HW276679   5.914   8.647   7.255
25477SOL     OW76680  14.705  10.696   6.441
25477SOL    HW176681  14.693  10.686   6.347
25477SOL    HW276682  14.654  10.624   6.479
25478SOL     OW76683  10.107   4.264   3.855
25478SOL    HW176684  10.173   4.328   3.829
25478SOL    HW276685  10.029   4.287   3.805
25479SOL     OW76686  10.011   6.633   3.452
25479SOL    HW176687   9.998   6.726   3.465
25479SOL    HW276688  10.107   6.622   3.449
25480SOL     OW76689  11.512  14.081   5.117
25480SOL    HW176690  11.491  13.992   5.089
25480SOL    HW276691  11.565  14.069   5.196
25481SOL     OW76692   5.895   2.390   2.396
25481SOL    HW176693   5.963   2.456   2.385
25481SOL    HW276694   5.881   2.356   2.308
25482SOL     OW76695   4.266   5.119   1.013
25482SOL    HW176696   4.250   5.203   0.970
25482SOL    HW276697   4.359   5.121   1.036
25483SOL     OW76698   5.407  11.538   4.195
25483SOL    HW176699   5.427  11.449   4.223
25483SOL    HW276700   5.487  11.569   4.153
25484SOL     OW76701   9.720   3.858   0.187
25484SOL    HW176702   9.637   3.884   0.147
25484SOL    HW276703   9.747   3.780   0.138
25485SOL     OW76704   0.562   2.954   0.480
25485SOL    HW176705   0.615   2.924   0.554
25485SOL    HW276706   0.532   2.873   0.438
25486SOL     OW76707   9.677  14.342   5.696
25486SOL    HW176708   9.687  14.435   5.715
25486SOL    HW276709   9.655  14.302   5.780
25487SOL     OW76710   9.406   2.169   1.995
25487SOL    HW176711   9.429   2.223   2.071
25487SOL    HW276712   9.337   2.111   2.027
25488SOL     OW76713  10.393   9.188   3.297
25488SOL    HW176714  10.465   9.206   3.237
25488SOL    HW276715  10.314   9.196   3.244
25489SOL     OW76716   8.972   5.207   5.478
25489SOL    HW176717   8.934   5.285   5.439
25489SOL    HW276718   8.906   5.138   5.464
25490SOL     OW76719   8.594  10.895   6.642
25490SOL    HW176720   8.646  10.867   6.567
25490SOL    HW276721   8.658  10.924   6.707
25491SOL     OW76722   6.511   7.122   2.615
25491SOL    HW176723   6.550   7.163   2.692
25491SOL    HW276724   6.440   7.180   2.590
25492SOL     OW76725   4.323   9.787   5.200
25492SOL    HW176726   4.399   9.757   5.251
25492SOL    HW276727   4.304   9.714   5.141
25493SOL     OW76728   2.907   3.790   2.765
25493SOL    HW176729   2.830   3.745   2.801
25493SOL    HW276730   2.911   3.759   2.674
25494SOL     OW76731   4.442   9.694   2.356
25494SOL    HW176732   4.523   9.693   2.407
25494SOL    HW276733   4.420   9.601   2.345
25495SOL     OW76734  10.780   2.437   1.810
25495SOL    HW176735  10.687   2.424   1.828
25495SOL    HW276736  10.782   2.488   1.729
25496SOL     OW76737   9.491  14.329   6.288
25496SOL    HW176738   9.559  14.382   6.247
25496SOL    HW276739   9.412  14.383   6.281
25497SOL     OW76740  12.218  13.829   6.145
25497SOL    HW176741  12.256  13.770   6.211
25497SOL    HW276742  12.136  13.785   6.119
25498SOL     OW76743   1.277   9.829   0.669
25498SOL    HW176744   1.287   9.844   0.763
25498SOL    HW276745   1.326   9.900   0.628
25499SOL     OW76746   8.708   1.878   1.024
25499SOL    HW176747   8.658   1.817   1.078
25499SOL    HW276748   8.783   1.826   0.993
25500SOL     OW76749   3.076   8.726   2.265
25500SOL    HW176750   2.997   8.673   2.273
25500SOL    HW276751   3.084   8.770   2.350
25501SOL     OW76752   7.124   6.713   0.571
25501SOL    HW176753   7.118   6.743   0.480
25501SOL    HW276754   7.033   6.707   0.599
25502SOL     OW76755  12.975  11.286   6.725
25502SOL    HW176756  12.932  11.363   6.689
25502SOL    HW276757  13.024  11.318   6.801
25503SOL     OW76758   2.533  10.459   2.293
25503SOL    HW176759   2.541  10.439   2.386
25503SOL    HW276760   2.456  10.410   2.264
25504SOL     OW76761   2.566   2.736   2.898
25504SOL    HW176762   2.506   2.797   2.941
25504SOL    HW276763   2.590   2.780   2.816
25505SOL     OW76764   9.293  11.548   4.718
25505SOL    HW176765   9.232  11.546   4.644
25505SOL    HW276766   9.361  11.609   4.691
25506SOL     OW76767   5.851  10.805   7.184
25506SOL    HW176768   5.821  10.797   7.274
25506SOL    HW276769   5.775  10.841   7.137
25507SOL     OW76770   3.444   9.790   1.166
25507SOL    HW176771   3.538   9.788   1.146
25507SOL    HW276772   3.432   9.721   1.231
25508SOL     OW76773   6.261  10.685   6.522
25508SOL    HW176774   6.339  10.637   6.548
25508SOL    HW276775   6.228  10.637   6.446
25509SOL     OW76776  13.852   6.207   4.980
25509SOL    HW176777  13.826   6.216   4.889
25509SOL    HW276778  13.943   6.235   4.982
25510SOL     OW76779  11.521   9.779   5.150
25510SOL    HW176780  11.442   9.754   5.101
25510SOL    HW276781  11.573   9.699   5.154
25511SOL     OW76782   2.659   9.614   2.203
25511SOL    HW176783   2.622   9.653   2.124
25511SOL    HW276784   2.681   9.689   2.258
25512SOL     OW76785  11.207  12.828   4.513
25512SOL    HW176786  11.249  12.857   4.594
25512SOL    HW276787  11.225  12.898   4.450
25513SOL     OW76788  13.200  14.966   6.170
25513SOL    HW176789  13.287  14.927   6.170
25513SOL    HW276790  13.178  14.977   6.078
25514SOL     OW76791   2.510  10.345   2.637
25514SOL    HW176792   2.503  10.281   2.565
25514SOL    HW276793   2.429  10.333   2.686
25515SOL     OW76794   6.255   9.670   3.767
25515SOL    HW176795   6.276   9.621   3.846
25515SOL    HW276796   6.177   9.721   3.790
25516SOL     OW76797  11.845   4.586   3.739
25516SOL    HW176798  11.752   4.579   3.762
25516SOL    HW276799  11.851   4.665   3.686
25517SOL     OW76800   5.418  11.128   7.485
25517SOL    HW176801   5.456  11.059   7.432
25517SOL    HW276802   5.419  11.206   7.429
25518SOL     OW76803  12.360  14.324   6.541
25518SOL    HW176804  12.450  14.297   6.556
25518SOL    HW276805  12.338  14.290   6.454
25519SOL     OW76806   1.905   8.165   2.177
25519SOL    HW176807   1.814   8.195   2.165
25519SOL    HW276808   1.949   8.190   2.096
25520SOL     OW76809   8.414  11.916   3.432
25520SOL    HW176810   8.456  11.994   3.394
25520SOL    HW276811   8.437  11.920   3.525
25521SOL     OW76812   9.379   8.428   4.582
25521SOL    HW176813   9.298   8.393   4.620
25521SOL    HW276814   9.373   8.523   4.596
25522SOL     OW76815  12.694   3.181   2.872
25522SOL    HW176816  12.635   3.242   2.916
25522SOL    HW276817  12.776   3.231   2.862
25523SOL     OW76818   7.742  10.459   2.454
25523SOL    HW176819   7.699  10.421   2.378
25523SOL    HW276820   7.678  10.519   2.491
25524SOL     OW76821   8.871   5.509   6.594
25524SOL    HW176822   8.948   5.520   6.539
25524SOL    HW276823   8.869   5.416   6.615
25525SOL     OW76824   3.958   8.058   2.021
25525SOL    HW176825   3.870   8.086   1.999
25525SOL    HW276826   4.015   8.128   1.989
25526SOL     OW76827   7.389  15.359   7.519
25526SOL    HW176828   7.466  15.319   7.480
25526SOL    HW276829   7.343  15.400   7.445
25527SOL     OW76830   2.579   9.595   0.847
25527SOL    HW176831   2.516   9.647   0.796
25527SOL    HW276832   2.635   9.554   0.781
25528SOL     OW76833   6.219   7.052   6.165
25528SOL    HW176834   6.161   6.976   6.166
25528SOL    HW276835   6.307   7.015   6.161
25529SOL     OW76836  12.215  11.283   2.182
25529SOL    HW176837  12.296  11.255   2.224
25529SOL    HW276838  12.217  11.378   2.187
25530SOL     OW76839   2.738   1.772   1.581
25530SOL    HW176840   2.742   1.860   1.543
25530SOL    HW276841   2.827   1.755   1.613
25531SOL     OW76842   9.209   6.117   0.937
25531SOL    HW176843   9.276   6.109   1.005
25531SOL    HW276844   9.151   6.042   0.951
25532SOL     OW76845   8.096   9.131   4.744
25532SOL    HW176846   8.190   9.131   4.765
25532SOL    HW276847   8.062   9.210   4.786
25533SOL     OW76848   7.393   3.008   2.049
25533SOL    HW176849   7.330   3.026   1.979
25533SOL    HW276850   7.459   3.077   2.040
25534SOL     OW76851   9.695   3.538   3.411
25534SOL    HW176852   9.757   3.495   3.469
25534SOL    HW276853   9.719   3.631   3.415
25535SOL     OW76854   7.352   8.210   2.340
25535SOL    HW176855   7.409   8.175   2.409
25535SOL    HW276856   7.279   8.147   2.335
25536SOL     OW76857  12.465   8.563   2.748
25536SOL    HW176858  12.503   8.475   2.746
25536SOL    HW276859  12.537   8.621   2.722
25537SOL     OW76860   6.820   3.328   0.295
25537SOL    HW176861   6.837   3.248   0.345
25537SOL    HW276862   6.805   3.297   0.205
25538SOL     OW76863   5.416   7.141   1.994
25538SOL    HW176864   5.340   7.099   2.033
25538SOL    HW276865   5.420   7.228   2.035
25539SOL     OW76866  10.617  12.660   5.914
25539SOL    HW176867  10.600  12.603   5.989
25539SOL    HW276868  10.576  12.744   5.937
25540SOL     OW76869  12.778   7.389   3.361
25540SOL    HW176870  12.771   7.344   3.277
25540SOL    HW276871  12.717   7.462   3.354
25541SOL     OW76872   4.845  10.112   6.043
25541SOL    HW176873   4.859  10.201   6.073
25541SOL    HW276874   4.930  10.069   6.051
25542SOL     OW76875   5.224  14.371   6.630
25542SOL    HW176876   5.212  14.449   6.684
25542SOL    HW276877   5.168  14.385   6.554
25543SOL     OW76878   8.320  13.504   5.146
25543SOL    HW176879   8.292  13.427   5.097
25543SOL    HW276880   8.242  13.559   5.153
25544SOL     OW76881  12.140   7.803   4.664
25544SOL    HW176882  12.130   7.710   4.685
25544SOL    HW276883  12.123   7.848   4.747
25545SOL     OW76884  11.030  14.467   6.621
25545SOL    HW176885  11.023  14.552   6.664
25545SOL    HW276886  10.949  14.458   6.570
25546SOL     OW76887   2.678   8.763   1.853
25546SOL    HW176888   2.756   8.814   1.875
25546SOL    HW276889   2.623   8.769   1.931
25547SOL     OW76890  12.091   3.834   3.864
25547SOL    HW176891  12.089   3.911   3.807
25547SOL    HW276892  12.125   3.764   3.808
25548SOL     OW76893  11.244   6.941   4.599
25548SOL    HW176894  11.221   6.880   4.669
25548SOL    HW276895  11.335   6.963   4.615
25549SOL     OW76896  15.224   6.753   6.459
25549SOL    HW176897  15.295   6.801   6.416
25549SOL    HW276898  15.236   6.771   6.552
25550SOL     OW76899  10.798  15.486   7.567
25550SOL    HW176900  10.828  15.402   7.534
25550SOL    HW276901   5.373  10.079   0.034
25551SOL     OW76902   8.056  10.757   1.213
25551SOL    HW176903   8.085  10.667   1.202
25551SOL    HW276904   8.134  10.810   1.196
25552SOL     OW76905  10.111  12.040   7.220
25552SOL    HW176906  10.111  12.086   7.304
25552SOL    HW276907  10.203  12.020   7.203
25553SOL     OW76908   7.220   7.319   6.329
25553SOL    HW176909   7.174   7.267   6.263
25553SOL    HW276910   7.275   7.379   6.279
25554SOL     OW76911  14.538  10.345   6.124
25554SOL    HW176912  14.453  10.309   6.147
25554SOL    HW276913  14.599  10.305   6.186
25555SOL     OW76914   4.926   8.294   1.878
25555SOL    HW176915   4.953   8.377   1.918
25555SOL    HW276916   4.913   8.235   1.952
25556SOL     OW76917   5.847  13.427   7.017
25556SOL    HW176918   5.786  13.383   6.958
25556SOL    HW276919   5.797  13.442   7.097
25557SOL     OW76920   5.133  11.476   7.188
25557SOL    HW176921   5.156  11.542   7.122
25557SOL    HW276922   5.105  11.400   7.136
25558SOL     OW76923   4.570   3.505   0.090
25558SOL    HW176924   4.633   3.577   0.097
25558SOL    HW276925   4.610   3.433   0.138
25559SOL     OW76926   3.015   1.952   2.285
25559SOL    HW176927   3.020   1.887   2.355
25559SOL    HW276928   2.987   1.902   2.208
25560SOL     OW76929   1.286  11.900   1.601
25560SOL    HW176930   1.280   1.201   1.543
25560SOL    HW276931   1.217  11.841   1.571
25561SOL     OW76932   3.139   5.878   1.056
25561SOL    HW176933   3.079   5.862   1.129
25561SOL    HW276934   3.161   5.971   1.064
25562SOL     OW76935  11.035   5.444   7.331
25562SOL    HW176936  11.073   5.381   7.270
25562SOL    HW276937  10.943   5.420   7.336
25563SOL     OW76938   5.385  13.269   7.105
25563SOL    HW176939   5.416  13.337   7.165
25563SOL    HW276940   5.464  13.226   7.074
25564SOL     OW76941   7.991   2.308   1.531
25564SOL    HW176942   7.930   2.238   1.509
25564SOL    HW276943   8.019   2.343   1.446
25565SOL     OW76944   3.548   5.933   1.248
25565SOL    HW176945   3.508   5.887   1.322
25565SOL    HW276946   3.489   6.006   1.231
25566SOL     OW76947  10.370  11.025   5.314
25566SOL    HW176948  10.275  11.035   5.322
25566SOL    HW276949  10.407  11.099   5.361
25567SOL     OW76950  10.528   5.526   7.612
25567SOL    HW176951  10.593   5.464   7.580
25567SOL    HW276952  10.492   5.566   7.533
25568SOL     OW76953   5.815   8.947   0.321
25568SOL    HW176954   5.816   8.982   0.231
25568SOL    HW276955   5.812   9.025   0.376
25569SOL     OW76956  10.789   6.908   4.020
25569SOL    HW176957  10.804   6.968   3.947
25569SOL    HW276958  10.694   6.897   4.024
25570SOL     OW76959   1.329   3.893   0.344
25570SOL    HW176960   1.421   3.919   0.354
25570SOL    HW276961   1.304   3.861   0.430
25571SOL     OW76962  10.362   7.197   1.463
25571SOL    HW176963  10.393   7.156   1.382
25571SOL    HW276964  10.272   7.167   1.472
25572SOL     OW76965   8.735  12.811   7.024
25572SOL    HW176966   8.696  12.812   6.936
25572SOL    HW276967   8.660  12.798   7.083
25573SOL     OW76968  14.808   6.122   6.748
25573SOL    HW176969  14.759   6.190   6.793
25573SOL    HW276970  14.892   6.163   6.727
25574SOL     OW76971  13.222   8.398   6.782
25574SOL    HW176972  13.309   8.373   6.752
25574SOL    HW276973  13.226   8.494   6.789
25575SOL     OW76974  13.282   5.563   5.191
25575SOL    HW176975  13.215   5.495   5.201
25575SOL    HW276976  13.246   5.623   5.127
25576SOL     OW76977   6.166   5.750   5.869
25576SOL    HW176978   6.229   5.678   5.867
25576SOL    HW276979   6.081   5.710   5.851
25577SOL     OW76980   8.675   1.685   2.141
25577SOL    HW176981   8.762   1.695   2.102
25577SOL    HW276982   8.684   1.724   2.228
25578SOL     OW76983  12.908   8.286   6.733
25578SOL    HW176984  12.968   8.298   6.659
25578SOL    HW276985  12.939   8.348   6.799
25579SOL     OW76986   2.865  11.948   3.587
25579SOL    HW176987   2.842  11.898   3.509
25579SOL    HW276988   2.948  11.909   3.616
25580SOL     OW76989   8.896   9.868   6.398
25580SOL    HW176990   8.963   9.928   6.363
25580SOL    HW276991   8.900   9.881   6.493
25581SOL     OW76992   0.679  10.032   0.880
25581SOL    HW176993   0.696   9.950   0.925
25581SOL    HW276994  11.361  10.030   0.858
25582SOL     OW76995   8.470  14.581   6.996
25582SOL    HW176996   8.556  14.540   7.000
25582SOL    HW276997   8.478  14.646   6.927
25583SOL     OW76998  10.427  12.488   6.503
25583SOL    HW176999  10.356  12.547   6.476
25583SOL    HW277000  10.480  12.478   6.424
25584SOL     OW77001   4.685   9.755   3.093
25584SOL    HW177002   4.776   9.727   3.081
25584SOL    HW277003   4.640   9.723   3.015
25585SOL     OW77004   6.583   3.723   3.297
25585SOL    HW177005   6.670   3.763   3.308
25585SOL    HW277006   6.534   3.787   3.246
25586SOL     OW77007   3.310   7.605   0.391
25586SOL    HW177008   3.395   7.622   0.352
25586SOL    HW277009   3.303   7.510   0.395
25587SOL     OW77010   1.556   7.638   0.920
25587SOL    HW177011   1.603   7.580   0.860
25587SOL    HW277012   1.526   7.580   0.990
25588SOL     OW77013  15.193  13.092   7.095
25588SOL    HW177014  15.186  13.159   7.027
25588SOL    HW277015  15.162  13.012   7.052
25589SOL     OW77016   2.193   2.761   1.753
25589SOL    HW177017   2.138   2.765   1.674
25589SOL    HW277018   2.152   2.821   1.814
25590SOL     OW77019   9.594   3.864   0.504
25590SOL    HW177020   9.617   3.859   0.597
25590SOL    HW277021   9.628   3.948   0.475
25591SOL     OW77022  11.541   8.469   4.633
25591SOL    HW177023  11.498   8.547   4.598
25591SOL    HW277024  11.634   8.482   4.615
25592SOL     OW77025   8.428   4.264   0.793
25592SOL    HW177026   8.419   4.291   0.884
25592SOL    HW277027   8.389   4.335   0.742
25593SOL     OW77028   9.668  13.723   5.658
25593SOL    HW177029   9.748  13.676   5.681
25593SOL    HW277030   9.676  13.807   5.703
25594SOL     OW77031   8.840   3.405   3.747
25594SOL    HW177032   8.850   3.327   3.692
25594SOL    HW277033   8.872   3.378   3.833
25595SOL     OW77034  12.571  13.606   5.882
25595SOL    HW177035  12.520  13.543   5.933
25595SOL    HW277036  12.507  13.647   5.824
25596SOL     OW77037   9.506   9.385   6.945
25596SOL    HW177038   9.535   9.369   7.035
25596SOL    HW277039   9.426   9.437   6.954
25597SOL     OW77040   3.423  10.596   0.217
25597SOL    HW177041   3.395  10.634   0.134
25597SOL    HW277042   3.353  10.535   0.240
25598SOL     OW77043   6.837   6.064   2.213
25598SOL    HW177044   6.894   6.062   2.290
25598SOL    HW277045   6.835   5.973   2.183
25599SOL     OW77046   4.135  11.581   3.424
25599SOL    HW177047   4.094  11.632   3.494
25599SOL    HW277048   4.145  11.494   3.461
25600SOL     OW77049   9.041   4.291   2.608
25600SOL    HW177050   9.136   4.295   2.625
25600SOL    HW277051   9.002   4.335   2.683
25601SOL     OW77052   6.876   5.483   2.510
25601SOL    HW177053   6.964   5.499   2.543
25601SOL    HW277054   6.871   5.533   2.428
25602SOL     OW77055   9.830   0.983   0.378
25602SOL    HW177056   9.823   0.990   0.473
25602SOL    HW277057   9.748   0.942   0.350
25603SOL     OW77058   6.302  11.558   1.937
25603SOL    HW177059   6.216  11.522   1.959
25603SOL    HW277060   6.339  11.494   1.876
25604SOL     OW77061   4.177   9.248   2.862
25604SOL    HW177062   4.173   9.322   2.922
25604SOL    HW277063   4.109   9.188   2.894
25605SOL     OW77064  13.852   8.491   7.030
25605SOL    HW177065  13.917   8.421   7.023
25605SOL    HW277066  13.899   8.564   7.069
25606SOL     OW77067   3.487  12.392   3.867
25606SOL    HW177068   3.422  12.443   3.818
25606SOL    HW277069   3.530  12.339   3.800
25607SOL     OW77070   9.820   6.200   1.180
25607SOL    HW177071   9.813   6.137   1.252
25607SOL    HW277072   9.810   6.147   1.101
25608SOL     OW77073   4.574   4.862   1.886
25608SOL    HW177074   4.506   4.877   1.951
25608SOL    HW277075   4.566   4.935   1.825
25609SOL     OW77076  14.582   8.721   6.156
25609SOL    HW177077  14.618   8.802   6.119
25609SOL    HW277078  14.657   8.662   6.162
25610SOL     OW77079   4.030  10.541   3.347
25610SOL    HW177080   3.940  10.548   3.378
25610SOL    HW277081   4.075  10.617   3.384
25611SOL     OW77082   9.363   9.835   0.361
25611SOL    HW177083   9.406   9.913   0.397
25611SOL    HW277084   9.420   9.762   0.385
25612SOL     OW77085   3.328   6.805   0.806
25612SOL    HW177086   3.368   6.817   0.720
25612SOL    HW277087   3.402   6.793   0.866
25613SOL     OW77088   5.342   8.544   4.622
25613SOL    HW177089   5.351   8.635   4.594
25613SOL    HW277090   5.265   8.511   4.576
25614SOL     OW77091   4.204   9.636   0.691
25614SOL    HW177092   4.147   9.618   0.616
25614SOL    HW277093   4.287   9.663   0.652
25615SOL     OW77094  15.780   9.021   7.565
25615SOL    HW177095  15.727   8.942   7.555
25615SOL    HW277096  15.747   9.080   7.497
25616SOL     OW77097   6.509   5.872   6.222
25616SOL    HW177098   6.486   5.891   6.132
25616SOL    HW277099   6.492   5.778   6.232
25617SOL     OW77100  10.209  11.713   3.114
25617SOL    HW177101  10.293  11.758   3.125
25617SOL    HW277102  10.220  11.630   3.160
25618SOL     OW77103   4.577  11.981   2.292
25618SOL    HW177104   4.546  11.904   2.340
25618SOL    HW277105   4.670  11.966   2.280
25619SOL     OW77106  10.728   7.438   1.555
25619SOL    HW177107  10.788   7.429   1.629
25619SOL    HW277108  10.641   7.437   1.595
25620SOL     OW77109  10.207   6.679   6.086
25620SOL    HW177110  10.261   6.757   6.096
25620SOL    HW277111  10.168   6.665   6.172
25621SOL     OW77112   8.682   1.730   1.330
25621SOL    HW177113   8.669   1.823   1.344
25621SOL    HW277114   8.674   1.718   1.235
25622SOL     OW77115   8.213   2.853   1.897
25622SOL    HW177116   8.191   2.879   1.808
25622SOL    HW277117   8.149   2.785   1.919
25623SOL     OW77118   4.713   5.106   5.151
25623SOL    HW177119   4.767   5.083   5.227
25623SOL    HW277120   4.730   5.199   5.137
25624SOL     OW77121   4.380   3.883   4.334
25624SOL    HW177122   4.459   3.935   4.322
25624SOL    HW277123   4.411   3.795   4.353
25625SOL     OW77124  12.147   5.635   6.026
25625SOL    HW177125  12.087   5.565   6.051
25625SOL    HW277126  12.091   5.701   5.985
25626SOL     OW77127  12.546   6.073   7.456
25626SOL    HW177128  12.485   6.078   7.529
25626SOL    HW277129  12.549   5.981   7.432
25627SOL     OW77130   4.726   7.719   4.976
25627SOL    HW177131   4.655   7.749   4.918
25627SOL    HW277132   4.685   7.653   5.031
25628SOL     OW77133   2.491   9.765   1.439
25628SOL    HW177134   2.558   9.833   1.427
25628SOL    HW277135   2.521   9.692   1.385
25629SOL     OW77136   6.960  10.542   3.467
25629SOL    HW177137   7.048  10.559   3.502
25629SOL    HW277138   6.946  10.449   3.481
25630SOL     OW77139   8.434   7.619   5.896
25630SOL    HW177140   8.467   7.536   5.862
25630SOL    HW277141   8.424   7.605   5.990
25631SOL     OW77142  12.308   8.526   4.205
25631SOL    HW177143  12.346   8.508   4.291
25631SOL    HW277144  12.354   8.466   4.145
25632SOL     OW77145  10.239   8.345   2.070
25632SOL    HW177146  10.280   8.429   2.094
25632SOL    HW277147  10.185   8.366   1.994
25633SOL     OW77148   8.054  14.063   5.056
25633SOL    HW177149   8.133  14.105   5.022
25633SOL    HW277150   8.048  13.980   5.008
25634SOL     OW77151   6.142   4.771   0.006
25634SOL    HW177152  11.517  10.102   7.549
25634SOL    HW277153  11.604  10.214   7.602
25635SOL     OW77154  10.773   3.901   4.325
25635SOL    HW177155  10.751   3.938   4.240
25635SOL    HW277156  10.825   3.823   4.305
25636SOL     OW77157   4.463   3.421   4.113
25636SOL    HW177158   4.528   3.402   4.181
25636SOL    HW277159   4.489   3.507   4.079
25637SOL     OW77160   9.103   5.019   4.786
25637SOL    HW177161   9.010   5.039   4.778
25637SOL    HW277162   9.123   5.034   4.878
25638SOL     OW77163  11.280   1.814   2.380
25638SOL    HW177164  11.287   1.847   2.470
25638SOL    HW277165  11.214   1.869   2.339
25639SOL     OW77166   9.248   2.328   1.826
25639SOL    HW177167   9.314   2.276   1.870
25639SOL    HW277168   9.202   2.373   1.897
25640SOL     OW77169   3.113   4.618   3.909
25640SOL    HW177170   3.048   4.671   3.955
25640SOL    HW277171   3.153   4.678   3.845
25641SOL     OW77172  11.446  11.188   6.098
25641SOL    HW177173  11.439  11.101   6.137
25641SOL    HW277174  11.426  11.248   6.170
25642SOL     OW77175  11.745   4.538   6.130
25642SOL    HW177176  11.829   4.581   6.147
25642SOL    HW277177  11.769   4.458   6.083
25643SOL     OW77178   2.069   1.904   1.622
25643SOL    HW177179   2.140   1.868   1.569
25643SOL    HW277180   2.091   1.880   1.712
25644SOL     OW77181   3.303   9.279   1.905
25644SOL    HW177182   3.346   9.212   1.852
25644SOL    HW277183   3.344   9.271   1.991
25645SOL     OW77184   6.122   6.380   2.551
25645SOL    HW177185   6.213   6.410   2.544
25645SOL    HW277186   6.095   6.406   2.639
25646SOL     OW77187   8.720   6.579   6.306
25646SOL    HW177188   8.695   6.511   6.242
25646SOL    HW277189   8.641   6.592   6.359
25647SOL     OW77190   8.799   8.662   2.956
25647SOL    HW177191   8.752   8.745   2.944
25647SOL    HW277192   8.872   8.684   3.014
25648SOL     OW77193   2.728   6.078   0.174
25648SOL    HW177194   2.798   6.107   0.115
25648SOL    HW277195   2.775   6.050   0.253
25649SOL     OW77196   5.865  11.088   3.491
25649SOL    HW177197   5.960  11.090   3.491
25649SOL    HW277198   5.843  11.013   3.546
25650SOL     OW77199   6.245  12.507   2.672
25650SOL    HW177200   6.327  12.462   2.654
25650SOL    HW277201   6.193  12.497   2.592
25651SOL     OW77202   3.830  10.893   4.570
25651SOL    HW177203   3.822  10.927   4.480
25651SOL    HW277204   3.785  10.959   4.624
25652SOL     OW77205  14.921  14.931   7.340
25652SOL    HW177206  14.891  14.985   7.413
25652SOL    HW277207  14.972  14.990   7.285
25653SOL     OW77208  13.573   5.912   4.557
25653SOL    HW177209  13.628   5.880   4.628
25653SOL    HW277210  13.497   5.854   4.558
25654SOL     OW77211   7.585   1.034   0.283
25654SOL    HW177212   7.629   1.103   0.333
25654SOL    HW277213   7.494   1.062   0.278
25655SOL     OW77214   8.191  13.739   7.075
25655SOL    HW177215   8.256  13.669   7.060
25655SOL    HW277216   8.227  13.789   7.148
25656SOL     OW77217  11.650   9.570   7.405
25656SOL    HW177218  11.744   9.551   7.408
25656SOL    HW277219  11.611   9.507   7.467
25657SOL     OW77220   7.237   5.783   2.868
25657SOL    HW177221   7.289   5.808   2.792
25657SOL    HW277222   7.248   5.856   2.929
25658SOL     OW77223   9.308   6.975   4.872
25658SOL    HW177224   9.263   6.917   4.810
25658SOL    HW277225   9.383   7.009   4.823
25659SOL     OW77226   2.445   9.227   3.014
25659SOL    HW177227   2.383   9.300   3.018
25659SOL    HW277228   2.482   9.222   3.102
25660SOL     OW77229   9.939   9.050   2.701
25660SOL    HW177230   9.859   9.091   2.734
25660SOL    HW277231   9.942   9.072   2.608
25661SOL     OW77232   9.694  10.724   1.212
25661SOL    HW177233   9.691  10.630   1.194
25661SOL    HW277234   9.736  10.731   1.297
25662SOL     OW77235   8.573  14.784   5.810
25662SOL    HW177236   8.502  14.722   5.793
25662SOL    HW277237   8.605  14.761   5.897
25663SOL     OW77238   2.845   2.815   0.030
25663SOL    HW177239   8.175   8.190   7.574
25663SOL    HW277240   8.307   8.252   7.614
25664SOL     OW77241   1.202   7.990   0.902
25664SOL    HW177242   1.175   7.899   0.888
25664SOL    HW277243   1.194   8.003   0.997
25665SOL     OW77244  12.832  14.676   5.946
25665SOL    HW177245  12.779  14.603   5.977
25665SOL    HW277246  12.806  14.749   6.002
25666SOL     OW77247   6.306  12.060   6.351
25666SOL    HW177248   6.254  12.047   6.431
25666SOL    HW277249   6.389  12.016   6.368
25667SOL     OW77250   8.822  11.184   4.120
25667SOL    HW177251   8.873  11.103   4.111
25667SOL    HW277252   8.832  11.208   4.212
25668SOL     OW77253   9.448   8.340   3.193
25668SOL    HW177254   9.457   8.321   3.286
25668SOL    HW277255   9.429   8.255   3.153
25669SOL     OW77256   7.969   5.505   7.399
25669SOL    HW177257   7.978   5.573   7.332
25669SOL    HW277258   7.908   5.542   7.463
25670SOL     OW77259   7.949  14.661   6.683
25670SOL    HW177260   8.039  14.634   6.705
25670SOL    HW277261   7.936  14.744   6.728
25671SOL     OW77262  12.726   3.555   3.371
25671SOL    HW177263  12.694   3.466   3.358
25671SOL    HW277264  12.668   3.593   3.436
25672SOL     OW77265   8.550   9.982   1.383
25672SOL    HW177266   8.494   9.924   1.434
25672SOL    HW277267   8.532  10.069   1.418
25673SOL     OW77268  11.984  11.460   2.986
25673SOL    HW177269  11.904  11.413   2.964
25673SOL    HW277270  12.009  11.504   2.905
25674SOL     OW77271   8.992  14.212   5.403
25674SOL    HW177272   9.041  14.284   5.364
25674SOL    HW277273   8.908  14.212   5.356
25675SOL     OW77274   7.620   6.302   0.812
25675SOL    HW177275   7.593   6.252   0.889
25675SOL    HW277276   7.609   6.393   0.837
25676SOL     OW77277   2.694   3.686   3.363
25676SOL    HW177278   2.629   3.728   3.307
25676SOL    HW277279   2.775   3.733   3.344
25677SOL     OW77280  11.749   9.434   4.601
25677SOL    HW177281  11.757   9.347   4.562
25677SOL    HW277282  11.661   9.464   4.576
25678SOL     OW77283   4.073  12.023   3.082
25678SOL    HW177284   4.080  11.957   3.150
25678SOL    HW277285   4.162  12.056   3.070
25679SOL     OW77286  14.382  12.492   6.868
25679SOL    HW177287  14.436  12.464   6.794
25679SOL    HW277288  14.378  12.587   6.860
25680SOL     OW77289   9.935   8.551   4.522
25680SOL    HW177290   9.976   8.566   4.437
25680SOL    HW277291  10.008   8.531   4.581
25681SOL     OW77292   6.660   8.162   0.025
25681SOL    HW177293  11.992  13.550   7.566
25681SOL    HW277294   6.600   8.185   0.097
25682SOL     OW77295   8.513   2.232   0.442
25682SOL    HW177296   8.564   2.312   0.454
25682SOL    HW277297   8.577   2.161   0.452
25683SOL     OW77298   8.573   8.264   2.804
25683SOL    HW177299   8.599   8.324   2.873
25683SOL    HW277300   8.479   8.250   2.817
25684SOL     OW77301   8.667   5.212   2.578
25684SOL    HW177302   8.615   5.272   2.524
25684SOL    HW277303   8.630   5.125   2.560
25685SOL     OW77304   9.606   6.591   6.159
25685SOL    HW177305   9.617   6.678   6.120
25685SOL    HW277306   9.683   6.543   6.130
25686SOL     OW77307  12.519   8.023   6.635
25686SOL    HW177308  12.595   8.000   6.581
25686SOL    HW277309  12.452   8.049   6.572
25687SOL     OW77310  12.643   5.363   7.333
25687SOL    HW177311  12.555   5.396   7.315
25687SOL    HW277312  12.698   5.401   7.264
25688SOL     OW77313   7.266  10.935   4.025
25688SOL    HW177314   7.229  10.974   3.946
25688SOL    HW277315   7.228  10.847   4.028
25689SOL     OW77316   4.131   5.388   2.123
25689SOL    HW177317   4.041   5.394   2.088
25689SOL    HW277318   4.122   5.408   2.216
25690SOL     OW77319   9.354   9.374   4.431
25690SOL    HW177320   9.267   9.337   4.448
25690SOL    HW277321   9.344   9.467   4.451
25691SOL     OW77322   5.386  10.177   5.852
25691SOL    HW177323   5.435  10.119   5.911
25691SOL    HW277324   5.422  10.264   5.869
25692SOL     OW77325   8.572   6.372   0.601
25692SOL    HW177326   8.532   6.435   0.541
25692SOL    HW277327   8.643   6.420   0.643
25693SOL     OW77328  10.143   0.397   0.216
25693SOL    HW177329  10.115   0.488   0.209
25693SOL    HW277330  10.220   0.391   0.159
25694SOL     OW77331   8.753  11.829   5.100
25694SOL    HW177332   8.757  11.801   5.009
25694SOL    HW277333   8.844  11.841   5.126
25695SOL     OW77334   5.057  10.226   6.932
25695SOL    HW177335   5.104  10.163   6.878
25695SOL    HW277336   5.093  10.311   6.906
25696SOL     OW77337   3.797   6.049   3.720
25696SOL    HW177338   3.739   5.985   3.761
25696SOL    HW277339   3.838   6.095   3.793
25697SOL     OW77340   5.364   2.661   1.801
25697SOL    HW177341   5.340   2.651   1.709
25697SOL    HW277342   5.353   2.574   1.838
25698SOL     OW77343   0.470   6.792   0.513
25698SOL    HW177344   0.492   6.885   0.509
25698SOL    HW277345   0.543   6.752   0.560
25699SOL     OW77346   3.025   5.334   3.222
25699SOL    HW177347   2.978   5.285   3.154
25699SOL    HW277348   3.105   5.283   3.237
25700SOL     OW77349   5.949   1.645   1.006
25700SOL    HW177350   5.892   1.605   0.940
25700SOL    HW277351   5.895   1.715   1.044
25701SOL     OW77352   7.898   2.482   1.747
25701SOL    HW177353   7.929   2.408   1.696
25701SOL    HW277354   7.808   2.460   1.771
25702SOL     OW77355  10.724   2.114   2.595
25702SOL    HW177356  10.724   2.049   2.666
25702SOL    HW277357  10.650   2.171   2.615
25703SOL     OW77358   7.758   8.100   7.499
25703SOL    HW177359   7.742   8.152   7.578
25703SOL    HW277360   7.765   8.010   7.530
25704SOL     OW77361   7.388  10.422   6.883
25704SOL    HW177362   7.364  10.333   6.906
25704SOL    HW277363   7.373  10.473   6.963
25705SOL     OW77364   4.435  11.010   0.648
25705SOL    HW177365   4.361  10.989   0.705
25705SOL    HW277366   4.508  11.025   0.709
25706SOL     OW77367   2.602   3.480   0.154
25706SOL    HW177368   2.518   3.513   0.121
25706SOL    HW277369   2.593   3.385   0.150
25707SOL     OW77370   4.208   6.840   2.134
25707SOL    HW177371   4.121   6.811   2.162
25707SOL    HW277372   4.200   6.936   2.128
25708SOL     OW77373   7.401   2.888   3.434
25708SOL    HW177374   7.467   2.939   3.386
25708SOL    HW277375   7.408   2.800   3.396
25709SOL     OW77376   3.387   9.928   0.689
25709SOL    HW177377   3.422   9.978   0.763
25709SOL    HW277378   3.293   9.946   0.692
25710SOL     OW77379   6.398  12.106   5.786
25710SOL    HW177380   6.391  12.202   5.783
25710SOL    HW277381   6.386  12.084   5.878
25711SOL     OW77382   6.725  13.629   4.487
25711SOL    HW177383   6.741  13.619   4.581
25711SOL    HW277384   6.681  13.548   4.461
25712SOL     OW77385  12.992   6.245   5.863
25712SOL    HW177386  12.999   6.216   5.772
25712SOL    HW277387  12.923   6.190   5.901
25713SOL     OW77388  13.207   8.647   7.089
25713SOL    HW177389  13.267   8.639   7.014
25713SOL    HW277390  13.237   8.725   7.136
25714SOL     OW77391  15.375   5.239   7.298
25714SOL    HW177392  15.339   5.308   7.242
25714SOL    HW277393  15.380   5.279   7.385
25715SOL     OW77394  11.214   7.550   3.969
25715SOL    HW177395  11.227   7.455   3.966
25715SOL    HW277396  11.175   7.571   3.884
25716SOL     OW77397   6.050  14.784   5.812
25716SOL    HW177398   6.103  14.802   5.734
25716SOL    HW277399   6.068  14.857   5.871
25717SOL     OW77400  10.961  11.774   5.452
25717SOL    HW177401  10.930  11.766   5.542
25717SOL    HW277402  11.036  11.833   5.457
25718SOL     OW77403   7.061   9.081   0.852
25718SOL    HW177404   7.156   9.077   0.844
25718SOL    HW277405   7.036   8.993   0.881
25719SOL     OW77406   3.515   8.836   0.467
25719SOL    HW177407   3.545   8.916   0.424
25719SOL    HW277408   3.507   8.861   0.560
25720SOL     OW77409   2.987   7.994   3.059
25720SOL    HW177410   3.011   8.030   2.974
25720SOL    HW277411   3.014   7.902   3.055
25721SOL     OW77412  10.039   7.139   5.817
25721SOL    HW177413  10.002   7.090   5.743
25721SOL    HW277414  10.117   7.089   5.842
25722SOL     OW77415  10.244  10.465   6.709
25722SOL    HW177416  10.182  10.489   6.641
25722SOL    HW277417  10.305  10.539   6.714
25723SOL     OW77418   7.360  10.277   2.087
25723SOL    HW177419   7.427  10.337   2.117
25723SOL    HW277420   7.312  10.326   2.020
25724SOL     OW77421  10.737   5.322   1.644
25724SOL    HW177422  10.740   5.344   1.551
25724SOL    HW277423  10.794   5.387   1.686
25725SOL     OW77424   4.671  12.702   5.304
25725SOL    HW177425   4.594  12.730   5.254
25725SOL    HW277426   4.637  12.636   5.364
25726SOL     OW77427  12.028  14.966   7.275
25726SOL    HW177428  11.994  14.877   7.287
25726SOL    HW277429  12.033  15.002   7.364
25727SOL     OW77430   7.946  13.416   7.379
25727SOL    HW177431   7.920  13.508   7.376
25727SOL    HW277432   7.866  13.368   7.358
25728SOL     OW77433   2.368  10.247   0.153
25728SOL    HW177434   2.280  10.210   0.145
25728SOL    HW277435   2.391  10.236   0.246
25729SOL     OW77436   0.148   7.474   0.197
25729SOL    HW177437  10.869   7.554   0.198
25729SOL    HW277438   0.233   7.503   0.165
25730SOL     OW77439   9.511   4.594   1.502
25730SOL    HW177440   9.479   4.684   1.502
25730SOL    HW277441   9.559   4.585   1.419
25731SOL     OW77442   4.827  12.518   6.515
25731SOL    HW177443   4.844  12.603   6.476
25731SOL    HW277444   4.900  12.504   6.575
25732SOL     OW77445   9.319   9.147   0.462
25732SOL    HW177446   9.268   9.067   0.477
25732SOL    HW277447   9.260   9.218   0.485
25733SOL     OW77448   6.665  10.676   7.119
25733SOL    HW177449   6.727  10.604   7.135
25733SOL    HW277450   6.718  10.743   7.076
25734SOL     OW77451   2.831   7.248   0.764
25734SOL    HW177452   2.831   7.324   0.707
25734SOL    HW277453   2.739   7.235   0.786
25735SOL     OW77454  10.400   6.807   4.581
25735SOL    HW177455  10.388   6.794   4.487
25735SOL    HW277456  10.384   6.721   4.620
25736SOL     OW77457   5.737   7.306   4.721
25736SOL    HW177458   5.751   7.385   4.667
25736SOL    HW277459   5.684   7.337   4.794
25737SOL     OW77460  12.442   6.481   4.837
25737SOL    HW177461  12.348   6.499   4.832
25737SOL    HW277462  12.477   6.554   4.887
25738SOL     OW77463   2.791   2.933   3.888
25738SOL    HW177464   2.825   2.849   3.858
25738SOL    HW277465   2.864   2.976   3.932
25739SOL     OW77466  11.135  15.557   7.004
25739SOL    HW177467  11.102  15.580   6.917
25739SOL    HW277468  11.161  15.641   7.043
25740SOL     OW77469  10.647   6.243   0.758
25740SOL    HW177470  10.678   6.163   0.801
25740SOL    HW277471  10.606   6.212   0.677
25741SOL     OW77472  12.300  12.505   4.663
25741SOL    HW177473  12.279  12.426   4.612
25741SOL    HW277474  12.300  12.475   4.754
25742SOL     OW77475   8.137   9.928   2.038
25742SOL    HW177476   8.064   9.988   2.049
25742SOL    HW277477   8.108   9.866   1.971
25743SOL     OW77478  10.170   5.802   3.489
25743SOL    HW177479  10.088   5.848   3.475
25743SOL    HW277480  10.145   5.719   3.530
25744SOL     OW77481   2.882   7.347   2.601
25744SOL    HW177482   2.797   7.378   2.568
25744SOL    HW277483   2.858   7.286   2.671
25745SOL     OW77484  15.837   8.201   7.237
25745SOL    HW177485  15.893   8.149   7.295
25745SOL    HW277486   5.108   8.200   7.153
25746SOL     OW77487   4.962   3.821   2.260
25746SOL    HW177488   5.004   3.905   2.242
25746SOL    HW277489   4.869   3.841   2.269
25747SOL     OW77490  10.470  11.175   4.243
25747SOL    HW177491  10.565  11.174   4.254
25747SOL    HW277492  10.446  11.083   4.232
25748SOL     OW77493   4.658  11.791   4.017
25748SOL    HW177494   4.599  11.718   4.035
25748SOL    HW277495   4.710  11.801   4.096
25749SOL     OW77496  10.665   1.235   1.027
25749SOL    HW177497  10.578   1.238   1.067
25749SOL    HW277498  10.659   1.292   0.951
25750SOL     OW77499   3.837   3.143   1.801
25750SOL    HW177500   3.826   3.159   1.707
25750SOL    HW277501   3.899   3.209   1.830
25751SOL     OW77502  10.818   6.560   1.681
25751SOL    HW177503  10.733   6.563   1.725
25751SOL    HW277504  10.863   6.640   1.708
25752SOL     OW77505   3.336   7.533   1.992
25752SOL    HW177506   3.375   7.614   1.957
25752SOL    HW277507   3.307   7.485   1.914
25753SOL     OW77508  11.394   9.551   2.328
25753SOL    HW177509  11.471   9.600   2.301
25753SOL    HW277510  11.322   9.587   2.275
25754SOL     OW77511   4.137   7.969   3.047
25754SOL    HW177512   4.060   7.987   2.992
25754SOL    HW277513   4.106   7.983   3.136
25755SOL     OW77514   7.700   8.249   6.458
25755SOL    HW177515   7.684   8.161   6.492
25755SOL    HW277516   7.789   8.246   6.423
25756SOL     OW77517   5.625   1.266   1.477
25756SOL    HW177518   5.686   1.337   1.459
25756SOL    HW277519   5.647   1.199   1.412
25757SOL     OW77520  11.848   9.831   6.669
25757SOL    HW177521  11.780   9.892   6.641
25757SOL    HW277522  11.930   9.881   6.661
25758SOL     OW77523   5.504   7.353   3.402
25758SOL    HW177524   5.541   7.432   3.441
25758SOL    HW277525   5.578   7.292   3.397
25759SOL     OW77526   2.314   5.820   2.573
25759SOL    HW177527   2.332   5.726   2.569
25759SOL    HW277528   2.230   5.826   2.618
25760SOL     OW77529   0.855   6.950   0.512
25760SOL    HW177530   0.860   6.981   0.421
25760SOL    HW277531   0.945   6.945   0.542
25761SOL     OW77532   9.660  13.688   4.250
25761SOL    HW177533   9.715  13.613   4.268
25761SOL    HW277534   9.603  13.695   4.327
25762SOL     OW77535  13.430  12.957   5.202
25762SOL    HW177536  13.524  12.945   5.195
25762SOL    HW277537  13.420  13.042   5.244
25763SOL     OW77538   5.374   4.390   5.542
25763SOL    HW177539   5.284   4.416   5.558
25763SOL    HW277540   5.382   4.390   5.447
25764SOL     OW77541   9.678   2.007   2.081
25764SOL    HW177542   9.754   2.023   2.137
25764SOL    HW277543   9.676   2.082   2.021
25765SOL     OW77544   3.462  10.992   2.427
25765SOL    HW177545   3.499  10.982   2.514
25765SOL    HW277546   3.537  11.006   2.370
25766SOL     OW77547   6.429  13.403   5.575
25766SOL    HW177548   6.371  13.387   5.650
25766SOL    HW277549   6.493  13.331   5.579
25767SOL     OW77550   6.366  10.726   2.923
25767SOL    HW177551   6.321  10.679   2.853
25767SOL    HW277552   6.459  10.715   2.905
25768SOL     OW77553  11.775  12.946   7.445
25768SOL    HW177554  11.682  12.947   7.422
25768SOL    HW277555  11.797  12.854   7.454
25769SOL     OW77556   9.025   7.144   2.040
25769SOL    HW177557   9.034   7.092   2.120
25769SOL    HW277558   9.005   7.080   1.972
25770SOL     OW77559  13.254  12.354   4.754
25770SOL    HW177560  13.294  12.358   4.667
25770SOL    HW277561  13.250  12.445   4.783
25771SOL     OW77562  12.983  10.981   3.681
25771SOL    HW177563  12.993  11.013   3.771
25771SOL    HW277564  12.935  11.051   3.636
25772SOL     OW77565   0.891   8.759   1.203
25772SOL    HW177566   0.937   8.686   1.161
25772SOL    HW277567  11.647   8.727   1.292
25773SOL     OW77568  11.300   5.992   4.198
25773SOL    HW177569  11.303   5.896   4.196
25773SOL    HW277570  11.391   6.018   4.214
25774SOL     OW77571  14.816   5.983   6.272
25774SOL    HW177572  14.742   6.043   6.281
25774SOL    HW277573  14.820   5.963   6.179
25775SOL     OW77574   6.210   9.429   6.905
25775SOL    HW177575   6.161   9.507   6.879
25775SOL    HW277576   6.224   9.440   6.999
25776SOL     OW77577  13.544  13.989   5.818
25776SOL    HW177578  13.452  14.012   5.830
25776SOL    HW277579  13.588  14.072   5.802
25777SOL     OW77580   8.296   7.652   1.716
25777SOL    HW177581   8.355   7.722   1.742
25777SOL    HW277582   8.287   7.598   1.794
25778SOL     OW77583   6.863  11.245   4.084
25778SOL    HW177584   6.872  11.178   4.151
25778SOL    HW277585   6.929  11.311   4.107
25779SOL     OW77586  10.875  11.219   6.547
25779SOL    HW177587  10.914  11.157   6.485
25779SOL    HW277588  10.851  11.294   6.494
25780SOL     OW77589   4.549   7.377   3.628
25780SOL    HW177590   4.465   7.381   3.583
25780SOL    HW277591   4.594   7.302   3.590
25781SOL     OW77592  10.381   6.165   1.571
25781SOL    HW177593  10.340   6.111   1.503
25781SOL    HW277594  10.308   6.216   1.608
25782SOL     OW77595   9.488  10.263   0.709
25782SOL    HW177596   9.416  10.233   0.654
25782SOL    HW277597   9.556  10.290   0.646
25783SOL     OW77598  10.900   3.833   0.417
25783SOL    HW177599  10.889   3.828   0.322
25783SOL    HW277600  10.880   3.924   0.439
25784SOL     OW77601   3.156   4.509   1.894
25784SOL    HW177602   3.174   4.593   1.937
25784SOL    HW277603   3.164   4.528   1.800
25785SOL     OW77604   7.732   5.856   2.123
25785SOL    HW177605   7.740   5.950   2.141
25785SOL    HW277606   7.737   5.850   2.027
25786SOL     OW77607   7.025  11.757   6.176
25786SOL    HW177608   7.109  11.802   6.160
25786SOL    HW277609   7.031  11.676   6.125
25787SOL     OW77610   5.220   7.159   0.525
25787SOL    HW177611   5.274   7.222   0.478
25787SOL    HW277612   5.257   7.158   0.614
25788SOL     OW77613   9.397   4.096   5.167
25788SOL    HW177614   9.416   4.117   5.075
25788SOL    HW277615   9.404   4.180   5.213
25789SOL     OW77616   2.063  10.157   0.101
25789SOL    HW177617   2.077  10.082   0.042
25789SOL    HW277618   1.977  10.191   0.075
25790SOL     OW77619   8.527  11.920   6.312
25790SOL    HW177620   8.508  11.882   6.227
25790SOL    HW277621   8.523  11.846   6.373
25791SOL     OW77622  13.018  13.946   5.118
25791SOL    HW177623  13.080  14.017   5.106
25791SOL    HW277624  13.063  13.868   5.084
25792SOL     OW77625   7.849   7.067   6.588
25792SOL    HW177626   7.845   6.990   6.532
25792SOL    HW277627   7.875   7.138   6.529
25793SOL     OW77628   3.043   4.413   0.521
25793SOL    HW177629   3.123   4.453   0.554
25793SOL    HW277630   2.981   4.420   0.593
25794SOL     OW77631   4.436   1.329   1.623
25794SOL    HW177632   4.525   1.363   1.627
25794SOL    HW277633   4.447   1.234   1.619
25795SOL     OW77634   1.095   7.184   1.387
25795SOL    HW177635   1.047   7.267   1.380
25795SOL    HW277636   1.187   7.209   1.395
25796SOL     OW77637   6.355   8.369   1.444
25796SOL    HW177638   6.392   8.398   1.528
25796SOL    HW277639   6.293   8.438   1.421
25797SOL     OW77640   8.154  13.711   5.170
25797SOL    HW177641   8.211  13.752   5.235
25797SOL    HW277642   8.066  13.736   5.196
25798SOL     OW77643   3.201   5.349   0.185
25798SOL    HW177644   3.203   5.361   0.280
25798SOL    HW277645   3.191   5.437   0.149
25799SOL     OW77646   5.119   7.035   0.260
25799SOL    HW177647   5.042   7.057   0.313
25799SOL    HW277648   5.083   7.021   0.172
25800SOL     OW77649   6.181  11.842   4.322
25800SOL    HW177650   6.255  11.868   4.377
25800SOL    HW277651   6.135  11.776   4.375
25801SOL     OW77652   9.656   9.349   4.486
25801SOL    HW177653   9.579   9.350   4.430
25801SOL    HW277654   9.646   9.269   4.538
25802SOL     OW77655   4.924  10.972   4.206
25802SOL    HW177656   4.887  10.957   4.293
25802SOL    HW277657   4.981  10.896   4.190
25803SOL     OW77658   6.872   9.769   2.065
25803SOL    HW177659   6.897   9.855   2.032
25803SOL    HW277660   6.831   9.786   2.150
25804SOL     OW77661   3.369   1.671   0.310
25804SOL    HW177662   3.294   1.615   0.289
25804SOL    HW277663   3.369   1.737   0.241
25805SOL     OW77664   7.929   5.894   0.137
25805SOL    HW177665   7.919   5.806   0.101
25805SOL    HW277666   7.936   5.951   0.061
25806SOL     OW77667  10.260  14.076   6.280
25806SOL    HW177668  10.254  14.157   6.331
25806SOL    HW277669  10.342  14.036   6.308
25807SOL     OW77670   4.279   5.488   1.894
25807SOL    HW177671   4.245   5.405   1.859
25807SOL    HW277672   4.233   5.499   1.978
25808SOL     OW77673  13.260   7.800   7.285
25808SOL    HW177674  13.253   7.876   7.341
25808SOL    HW277675  13.200   7.818   7.212
25809SOL     OW77676   8.156   7.433   3.814
25809SOL    HW177677   8.081   7.377   3.798
25809SOL    HW277678   8.184   7.410   3.903
25810SOL     OW77679   3.285   7.384   2.786
25810SOL    HW177680   3.372   7.379   2.747
25810SOL    HW277681   3.231   7.327   2.730
25811SOL     OW77682   9.580  13.086   5.201
25811SOL    HW177683   9.665  13.063   5.163
25811SOL    HW277684   9.591  13.071   5.295
25812SOL     OW77685   8.865  10.530   5.156
25812SOL    HW177686   8.874  10.575   5.072
25812SOL    HW277687   8.955  10.515   5.185
25813SOL     OW77688   8.609   9.053   4.796
25813SOL    HW177689   8.654   9.012   4.722
25813SOL    HW277690   8.671   9.118   4.829
25814SOL     OW77691  13.628  12.593   6.113
25814SOL    HW177692  13.601  12.649   6.040
25814SOL    HW277693  13.570  12.617   6.185
25815SOL     OW77694   3.372   3.855   1.669
25815SOL    HW177695   3.349   3.771   1.630
25815SOL    HW277696   3.458   3.876   1.632
25816SOL     OW77697   8.804   9.917   1.006
25816SOL    HW177698   8.731   9.978   0.994
25816SOL    HW277699   8.823   9.922   1.100
25817SOL     OW77700   3.869   8.764   0.169
25817SOL    HW177701   3.862   8.839   0.110
25817SOL    HW277702   3.797   8.706   0.143
25818SOL     OW77703   4.035   7.361   1.812
25818SOL    HW177704   4.017   7.275   1.851
25818SOL    HW277705   4.056   7.418   1.886
25819SOL     OW77706  12.189  15.139   6.520
25819SOL    HW177707  12.115  15.084   6.544
25819SOL    HW277708  12.256  15.077   6.490
25820SOL     OW77709   2.986  10.516   3.135
25820SOL    HW177710   3.022  10.557   3.214
25820SOL    HW277711   2.990  10.585   3.069
25821SOL     OW77712  11.530  11.729   5.725
25821SOL    HW177713  11.511  11.646   5.769
25821SOL    HW277714  11.608  11.762   5.770
25822SOL     OW77715  12.164   4.910   3.228
25822SOL    HW177716  12.145   4.879   3.317
25822SOL    HW277717  12.129   4.999   3.226
25823SOL     OW77718   7.524   9.292   7.208
25823SOL    HW177719   7.466   9.336   7.271
25823SOL    HW277720   7.596   9.259   7.262
25824SOL     OW77721   3.711  10.558   2.210
25824SOL    HW177722   3.704  10.598   2.296
25824SOL    HW277723   3.712  10.464   2.227
25825SOL     OW77724  10.679  14.528   5.674
25825SOL    HW177725  10.619  14.594   5.710
25825SOL    HW277726  10.714  14.569   5.595
25826SOL     OW77727   1.332   4.061   1.269
25826SOL    HW177728   1.323   4.048   1.363
25826SOL    HW277729   1.373   4.147   1.260
25827SOL     OW77730   3.143  11.728   4.407
25827SOL    HW177731  13.928  11.785   4.483
25827SOL    HW277732   3.214  11.752   4.348
25828SOL     OW77733  14.971  14.525   6.779
25828SOL    HW177734  15.032  14.518   6.853
25828SOL    HW277735  14.961  14.620   6.766
25829SOL     OW77736   6.480   9.820   4.022
25829SOL    HW177737   6.390   9.804   4.053
25829SOL    HW277738   6.486   9.915   4.014
25830SOL     OW77739  12.056   7.231   5.236
25830SOL    HW177740  12.061   7.159   5.299
25830SOL    HW277741  11.962   7.251   5.230
25831SOL     OW77742   8.614   3.863   4.329
25831SOL    HW177743   8.706   3.887   4.346
25831SOL    HW277744   8.600   3.785   4.381
25832SOL     OW77745  10.971   4.152   1.844
25832SOL    HW177746  11.046   4.104   1.879
25832SOL    HW277747  11.000   4.182   1.758
25833SOL     OW77748   6.152   7.363   6.629
25833SOL    HW177749   6.229   7.355   6.574
25833SOL    HW277750   6.165   7.299   6.699
25834SOL     OW77751   4.384   1.674   1.473
25834SOL    HW177752   4.325   1.611   1.516
25834SOL    HW277753   4.329   1.717   1.408
25835SOL     OW77754   5.300   9.217   4.784
25835SOL    HW177755   5.226   9.210   4.845
25835SOL    HW277756   5.265   9.267   4.710
25836SOL     OW77757   2.654   6.624   0.589
25836SOL    HW177758   2.705   6.692   0.632
25836SOL    HW277759   2.689   6.542   0.624
25837SOL     OW77760   8.663   8.810   4.063
25837SOL    HW177761   8.679   8.903   4.074
25837SOL    HW277762   8.647   8.798   3.970
25838SOL     OW77763   6.979  12.326   6.605
25838SOL    HW177764   6.986  12.278   6.523
25838SOL    HW277765   6.919  12.273   6.658
25839SOL     OW77766  10.552   6.092   4.449
25839SOL    HW177767  10.558   6.112   4.356
25839SOL    HW277768  10.505   6.167   4.487
25840SOL     OW77769   3.965   2.585   2.586
25840SOL    HW177770   4.050   2.547   2.566
25840SOL    HW277771   3.978   2.679   2.578
25841SOL     OW77772   8.588   6.313   3.278
25841SOL    HW177773   8.536   6.387   3.308
25841SOL    HW277774   8.536   6.236   3.303
25842SOL     OW77775   7.139   6.878   5.227
25842SOL    HW177776   7.212   6.826   5.195
25842SOL    HW277777   7.139   6.864   5.322
25843SOL     OW77778  10.293   6.636   0.446
25843SOL    HW177779  10.254   6.709   0.398
25843SOL    HW277780  10.241   6.560   0.421
25844SOL     OW77781   4.898   3.002   2.792
25844SOL    HW177782   4.811   2.968   2.773
25844SOL    HW277783   4.927   2.953   2.869
25845SOL     OW77784   8.573  12.646   5.253
25845SOL    HW177785   8.644  12.707   5.270
25845SOL    HW277786   8.497  12.684   5.297
25846SOL     OW77787   6.206   6.101   1.264
25846SOL    HW177788   6.240   6.019   1.301
25846SOL    HW277789   6.237   6.169   1.324
25847SOL     OW77790   8.073   2.420   0.178
25847SOL    HW177791   8.007   2.410   0.109
25847SOL    HW277792   8.124   2.339   0.174
25848SOL     OW77793  12.974  13.349   5.293
25848SOL    HW177794  12.901  13.410   5.279
25848SOL    HW277795  13.049  13.405   5.314
25849SOL     OW77796  10.625   2.813   2.813
25849SOL    HW177797  10.671   2.802   2.730
25849SOL    HW277798  10.599   2.724   2.838
25850SOL     OW77799  10.122   6.774   0.600
25850SOL    HW177800  10.119   6.729   0.685
25850SOL    HW277801  10.215   6.775   0.577
25851SOL     OW77802   8.071  14.919   7.451
25851SOL    HW177803   8.131  14.952   7.384
25851SOL    HW277804   8.128  14.888   7.520
25852SOL     OW77805   9.269   7.187   0.895
25852SOL    HW177806   9.234   7.157   0.979
25852SOL    HW277807   9.222   7.269   0.877
25853SOL     OW77808   7.339   6.641   4.357
25853SOL    HW177809   7.251   6.624   4.392
25853SOL    HW277810   7.334   6.731   4.323
25854SOL     OW77811   7.957  10.831   5.731
25854SOL    HW177812   7.881  10.821   5.674
25854SOL    HW277813   8.019  10.765   5.701
25855SOL     OW77814  15.037   8.324   7.317
25855SOL    HW177815  14.969   8.267   7.280
25855SOL    HW277816  15.086   8.355   7.241
25856SOL     OW77817   4.949   1.874   1.724
25856SOL    HW177818   4.918   1.960   1.753
25856SOL    HW277819   4.897   1.855   1.646
25857SOL     OW77820   7.765  11.034   3.771
25857SOL    HW177821   7.765  11.032   3.675
25857SOL    HW277822   7.853  11.063   3.795
25858SOL     OW77823  10.498   9.015   5.574
25858SOL    HW177824  10.473   9.029   5.483
25858SOL    HW277825  10.593   9.007   5.572
25859SOL     OW77826   4.243   8.394   3.271
25859SOL    HW177827   4.290   8.312   3.258
25859SOL    HW277828   4.301   8.447   3.325
25860SOL     OW77829   8.576   7.182   5.535
25860SOL    HW177830   8.560   7.141   5.450
25860SOL    HW277831   8.634   7.121   5.581
25861SOL     OW77832  10.463  12.534   4.482
25861SOL    HW177833  10.497  12.548   4.571
25861SOL    HW277834  10.539  12.503   4.432
25862SOL     OW77835   3.277   3.810   3.521
25862SOL    HW177836   3.328   3.745   3.567
25862SOL    HW277837   3.326   3.828   3.441
25863SOL     OW77838   9.182  11.067   2.483
25863SOL    HW177839   9.199  11.111   2.566
25863SOL    HW277840   9.242  10.992   2.483
25864SOL     OW77841  10.669   5.030   3.614
25864SOL    HW177842  10.745   5.057   3.563
25864SOL    HW277843  10.664   4.936   3.603
25865SOL     OW77844   8.253   3.473   0.381
25865SOL    HW177845   8.244   3.543   0.316
25865SOL    HW277846   8.342   3.481   0.414
25866SOL     OW77847   7.376  10.358   5.869
25866SOL    HW177848   7.328  10.401   5.798
25866SOL    HW277849   7.382  10.267   5.842
25867SOL     OW77850   9.821  10.503   7.587
25867SOL    HW177851   4.511   5.071   0.003
25867SOL    HW277852   4.415   5.184   0.032
25868SOL     OW77853   8.592   9.983   3.871
25868SOL    HW177854   8.523   9.939   3.920
25868SOL    HW277855   8.581  10.076   3.892
25869SOL     OW77856   2.663   5.724   0.353
25869SOL    HW177857   2.598   5.696   0.288
25869SOL    HW277858   2.701   5.642   0.386
25870SOL     OW77859   7.352   7.057   4.544
25870SOL    HW177860   7.301   6.982   4.513
25870SOL    HW277861   7.310   7.082   4.627
25871SOL     OW77862  11.615   7.789   4.901
25871SOL    HW177863  11.674   7.799   4.976
25871SOL    HW277864  11.577   7.702   4.912
25872SOL     OW77865   9.906   9.017   3.828
25872SOL    HW177866   9.937   9.105   3.805
25872SOL    HW277867   9.815   9.029   3.856
25873SOL     OW77868   8.510  11.084   6.272
25873SOL    HW177869   8.502  10.999   6.315
25873SOL    HW277870   8.567  11.068   6.196
25874SOL     OW77871   6.567   8.112   3.116
25874SOL    HW177872   6.567   8.165   3.036
25874SOL    HW277873   6.651   8.067   3.115
25875SOL     OW77874   7.765  10.705   5.532
25875SOL    HW177875   7.728  10.771   5.591
25875SOL    HW277876   7.690  10.672   5.483
25876SOL     OW77877  11.114   9.022   0.902
25876SOL    HW177878  11.156   8.938   0.920
25876SOL    HW277879  11.084   9.015   0.811
25877SOL     OW77880   8.754  12.770   6.524
25877SOL    HW177881   8.791  12.765   6.436
25877SOL    HW277882   8.689  12.840   6.519
25878SOL     OW77883  12.799   7.678   4.691
25878SOL    HW177884  12.736   7.683   4.619
25878SOL    HW277885  12.774   7.599   4.739
25879SOL     OW77886  11.425   6.292   4.437
25879SOL    HW177887  11.341   6.251   4.413
25879SOL    HW277888  11.418   6.382   4.405
25880SOL     OW77889   1.510   8.762   1.204
25880SOL    HW177890   1.491   8.742   1.112
25880SOL    HW277891   1.606   8.759   1.210
25881SOL     OW77892   8.399   1.854   1.161
25881SOL    HW177893   8.397   1.851   1.065
25881SOL    HW277894   8.329   1.915   1.184
25882SOL     OW77895   8.251  11.466   3.867
25882SOL    HW177896   8.165  11.488   3.832
25882SOL    HW277897   8.291  11.550   3.889
25883SOL     OW77898  10.985   9.207   2.006
25883SOL    HW177899  10.951   9.222   1.918
25883SOL    HW277900  10.909   9.217   2.063
25884SOL     OW77901   9.338  10.445   1.437
25884SOL    HW177902   9.332  10.440   1.532
25884SOL    HW277903   9.391  10.523   1.420
25885SOL     OW77904   4.305  10.075   3.532
25885SOL    HW177905   4.325   9.987   3.500
25885SOL    HW277906   4.258  10.117   3.461
25886SOL     OW77907   7.771   5.609   4.118
25886SOL    HW177908   7.737   5.677   4.176
25886SOL    HW277909   7.804   5.656   4.042
25887SOL     OW77910   2.509  10.753   1.654
25887SOL    HW177911   2.502  10.845   1.628
25887SOL    HW277912   2.583  10.751   1.714
25888SOL     OW77913   5.091   7.395   5.437
25888SOL    HW177914   5.082   7.301   5.427
25888SOL    HW277915   5.008   7.423   5.477
25889SOL     OW77916   6.864  10.360   2.238
25889SOL    HW177917   6.805  10.297   2.197
25889SOL    HW277918   6.853  10.347   2.332
25890SOL     OW77919   8.298   1.882   0.155
25890SOL    HW177920   8.383   1.923   0.137
25890SOL    HW277921   8.274   1.915   0.242
25891SOL     OW77922   8.493  12.635   4.372
25891SOL    HW177923   8.586  12.634   4.350
25891SOL    HW277924   8.470  12.727   4.374
25892SOL     OW77925   5.182  13.060   7.001
25892SOL    HW177926   5.269  13.089   7.028
25892SOL    HW277927   5.194  12.969   6.975
25893SOL     OW77928   4.602   6.682   5.460
25893SOL    HW177929   4.660   6.702   5.386
25893SOL    HW277930   4.522   6.647   5.420
25894SOL     OW77931   9.834   4.669   3.617
25894SOL    HW177932   9.813   4.749   3.570
25894SOL    HW277933   9.880   4.614   3.553
25895SOL     OW77934   3.926   2.892   0.795
25895SOL    HW177935   4.005   2.875   0.743
25895SOL    HW277936   3.897   2.806   0.824
25896SOL     OW77937   7.517  13.567   6.947
25896SOL    HW177938   7.423  13.578   6.931
25896SOL    HW277939   7.551  13.523   6.869
25897SOL     OW77940   5.111   0.756   0.335
25897SOL    HW177941   5.034   0.728   0.287
25897SOL    HW277942   5.078   0.812   0.405
25898SOL     OW77943   2.048   7.264   0.017
25898SOL    HW177944   7.510  12.654   7.575
25898SOL    HW277945   7.359  12.641   7.580
25899SOL     OW77946   9.604   4.197   4.127
25899SOL    HW177947   9.696   4.198   4.099
25899SOL    HW277948   9.597   4.119   4.182
25900SOL     OW77949   8.065  12.852   4.107
25900SOL    HW177950   8.004  12.829   4.037
25900SOL    HW277951   8.042  12.943   4.130
25901SOL     OW77952   9.183  11.090   3.358
25901SOL    HW177953   9.202  11.180   3.334
25901SOL    HW277954   9.117  11.097   3.427
25902SOL     OW77955   7.557  10.223   3.449
25902SOL    HW177956   7.568  10.272   3.530
25902SOL    HW277957   7.472  10.181   3.456
25903SOL     OW77958  11.849   6.810   4.251
25903SOL    HW177959  11.817   6.770   4.170
25903SOL    HW277960  11.919   6.869   4.223
25904SOL     OW77961   7.142  10.489   1.753
25904SOL    HW177962   7.191  10.409   1.735
25904SOL    HW277963   7.133  10.491   1.848
25905SOL     OW77964  12.863  11.890   5.448
25905SOL    HW177965  12.872  11.795   5.438
25905SOL    HW277966  12.882  11.924   5.360
25906SOL     OW77967   1.600   1.879   1.746
25906SOL    HW177968   1.538   1.811   1.773
25906SOL    HW277969   1.604   1.938   1.822
25907SOL     OW77970  10.174  14.563   7.609
25907SOL    HW177971   4.704   9.136   0.019
25907SOL    HW277972   4.844   9.168   0.066
25908SOL     OW77973   8.651   6.161   0.774
25908SOL    HW177974   8.622   6.203   0.693
25908SOL    HW277975   8.570   6.142   0.822
25909SOL     OW77976   2.570   9.360   2.287
25909SOL    HW177977   2.601   9.447   2.264
25909SOL    HW277978   2.475   9.369   2.294
25910SOL     OW77979   9.810   7.930   5.319
25910SOL    HW177980   9.864   7.856   5.290
25910SOL    HW277981   9.733   7.926   5.263
25911SOL     OW77982   3.716   4.472   5.023
25911SOL    HW177983   3.780   4.493   5.092
25911SOL    HW277984   3.631   4.480   5.066
25912SOL     OW77985   9.886   1.282   1.070
25912SOL    HW177986   9.792   1.297   1.080
25912SOL    HW277987   9.898   1.262   0.977
25913SOL     OW77988  11.251   8.877   7.326
25913SOL    HW177989  11.191   8.811   7.292
25913SOL    HW277990  11.194   8.949   7.353
25914SOL     OW77991   4.377   2.109   0.177
25914SOL    HW177992   4.443   2.047   0.146
25914SOL    HW277993   4.423   2.164   0.239
25915SOL     OW77994   4.350   3.312   0.859
25915SOL    HW177995   4.400   3.241   0.900
25915SOL    HW277996   4.286   3.338   0.926
25916SOL     OW77997   7.767   3.024   2.131
25916SOL    HW177998   7.729   3.108   2.104
25916SOL    HW277999   7.802   2.986   2.050
25917SOL     OW78000   3.988   3.723   0.741
25917SOL    HW178001   4.022   3.746   0.655
25917SOL    HW278002   4.051   3.660   0.777
25918SOL     OW78003   3.286   5.822   2.861
25918SOL    HW178004   3.370   5.866   2.849
25918SOL    HW278005   3.298   5.735   2.824
25919SOL     OW78006   5.254   5.471   1.560
25919SOL    HW178007   5.287   5.397   1.610
25919SOL    HW278008   5.320   5.485   1.492
25920SOL     OW78009   4.095   9.304   5.482
25920SOL    HW178010   4.163   9.260   5.433
25920SOL    HW278011   4.126   9.394   5.492
25921SOL     OW78012  12.906   3.445   4.813
25921SOL    HW178013  13.002   3.443   4.820
25921SOL    HW278014  12.876  14.215   4.904
25922SOL     OW78015   1.863   6.317   2.416
25922SOL    HW178016   1.817   6.377   2.357
25922SOL    HW278017   1.810   6.238   2.416
25923SOL     OW78018   7.106   7.355   7.410
25923SOL    HW178019   7.178   7.399   7.365
25923SOL    HW278020   7.038   7.347   7.342
25924SOL     OW78021  12.087  12.471   6.390
25924SOL    HW178022  12.148  12.482   6.463
25924SOL    HW278023  12.012  12.526   6.413
25925SOL     OW78024   7.760   6.360   2.501
25925SOL    HW178025   7.787   6.269   2.489
25925SOL    HW278026   7.671   6.363   2.467
25926SOL     OW78027   6.123   5.411   2.525
25926SOL    HW178028   6.118   5.369   2.611
25926SOL    HW278029   6.211   5.391   2.493
25927SOL     OW78030  12.018   6.995   7.123
25927SOL    HW178031  12.036   7.068   7.064
25927SOL    HW278032  11.947   6.947   7.080
25928SOL     OW78033   5.411   4.563   6.187
25928SOL    HW178034   5.413   4.475   6.225
25928SOL    HW278035   5.395   4.549   6.094
25929SOL     OW78036   5.193  11.207   1.552
25929SOL    HW178037   5.283  11.197   1.583
25929SOL    HW278038   5.147  11.249   1.625
25930SOL     OW78039   7.815   4.459   0.579
25930SOL    HW178040   7.726   4.460   0.615
25930SOL    HW278041   7.802   4.463   0.484
25931SOL     OW78042   5.847  11.174   2.868
25931SOL    HW178043   5.807  11.095   2.905
25931SOL    HW278044   5.939  11.152   2.859
25932SOL     OW78045  12.019  12.387   3.633
25932SOL    HW178046  12.070  12.327   3.688
25932SOL    HW278047  11.928  12.368   3.656
25933SOL     OW78048   9.817  10.899   6.430
25933SOL    HW178049   9.905  10.933   6.447
25933SOL    HW278050   9.796  10.848   6.508
25934SOL     OW78051   4.461   5.687   4.490
25934SOL    HW178052   4.539   5.740   4.471
25934SOL    HW278053   4.491   5.624   4.556
25935SOL     OW78054   4.378   1.814   0.249
25935SOL    HW178055   4.337   1.817   0.163
25935SOL    HW278056   4.362   1.901   0.286
25936SOL     OW78057   6.191   9.611   2.605
25936SOL    HW178058   6.204   9.705   2.593
25936SOL    HW278059   6.097   9.602   2.623
25937SOL     OW78060   3.541   4.051   2.761
25937SOL    HW178061   3.548   4.009   2.846
25937SOL    HW278062   3.458   4.098   2.764
25938SOL     OW78063   4.403   6.201   3.551
25938SOL    HW178064   4.496   6.218   3.543
25938SOL    HW278065   4.383   6.144   3.477
25939SOL     OW78066  13.114   6.992   4.564
25939SOL    HW178067  13.166   6.966   4.488
25939SOL    HW278068  13.176   7.035   4.622
25940SOL     OW78069  11.467   9.610   6.690
25940SOL    HW178070  11.498   9.590   6.602
25940SOL    HW278071  11.527   9.561   6.747
25941SOL     OW78072  10.897  10.392   1.350
25941SOL    HW178073  10.963  10.375   1.417
25941SOL    HW278074  10.879  10.486   1.358
25942SOL     OW78075   2.480   4.833   2.672
25942SOL    HW178076   2.467   4.928   2.667
25942SOL    HW278077   2.423   4.805   2.744
25943SOL     OW78078  10.582   9.669   1.113
25943SOL    HW178079  10.645   9.736   1.086
25943SOL    HW278080  10.555   9.696   1.200
25944SOL     OW78081   4.866   9.450   0.979
25944SOL    HW178082   4.790   9.394   0.964
25944SOL    HW278083   4.937   9.389   0.997
25945SOL     OW78084   8.684  14.137   4.968
25945SOL    HW178085   8.603  14.187   4.957
25945SOL    HW278086   8.655  14.048   4.988
25946SOL     OW78087   3.790   9.073   3.872
25946SOL    HW178088   3.755   9.034   3.952
25946SOL    HW278089   3.885   9.064   3.881
25947SOL     OW78090   5.109  15.312   6.629
25947SOL    HW178091   5.128  15.358   6.548
25947SOL    HW278092   5.095  15.381   6.694
25948SOL     OW78093   2.007   9.568   1.769
25948SOL    HW178094   1.960   9.630   1.826
25948SOL    HW278095   1.937   9.521   1.724
25949SOL     OW78096  12.257  11.275   3.109
25949SOL    HW178097  12.250  11.204   3.173
25949SOL    HW278098  12.193  11.339   3.138
25950SOL     OW78099   5.666   7.387   1.900
25950SOL    HW178100   5.733   7.432   1.953
25950SOL    HW278101   5.715   7.325   1.847
25951SOL     OW78102  13.116  10.657   5.087
25951SOL    HW178103  13.165  10.686   5.010
25951SOL    HW278104  13.134  10.564   5.093
25952SOL     OW78105   3.208   6.138   2.706
25952SOL    HW178106   3.199   6.044   2.695
25952SOL    HW278107   3.291   6.159   2.663
25953SOL     OW78108   5.835   8.822   5.814
25953SOL    HW178109   5.887   8.744   5.833
25953SOL    HW278110   5.813   8.858   5.899
25954SOL     OW78111   9.252  13.724   6.103
25954SOL    HW178112   9.227  13.727   6.195
25954SOL    HW278113   9.184  13.774   6.058
25955SOL     OW78114   7.002  10.255   3.514
25955SOL    HW178115   7.050  10.234   3.434
25955SOL    HW278116   6.963  10.172   3.541
25956SOL     OW78117   1.628  11.057   2.256
25956SOL    HW178118  12.407  11.000   2.333
25956SOL    HW278119  12.309  11.070   2.241
25957SOL     OW78120   5.959   3.933   4.604
25957SOL    HW178121   5.970   3.988   4.681
25957SOL    HW278122   5.920   3.991   4.538
25958SOL     OW78123   3.600   2.854   2.980
25958SOL    HW178124   3.655   2.778   2.999
25958SOL    HW278125   3.534   2.855   3.050
25959SOL     OW78126   6.371  12.757   7.354
25959SOL    HW178127   6.396  12.849   7.342
25959SOL    HW278128   6.275  12.757   7.349
25960SOL     OW78129   5.834   6.144   2.348
25960SOL    HW178130   5.898   6.096   2.295
25960SOL    HW278131   5.879   6.159   2.431
25961SOL     OW78132   3.859   1.512   0.062
25961SOL    HW178133   3.925   1.568   0.021
25961SOL    HW278134   3.810   1.571   0.119
25962SOL     OW78135   8.310   3.602   4.030
25962SOL    HW178136   8.304   3.697   4.026
25962SOL    HW278137   8.237   3.575   4.086
25963SOL     OW78138  11.482  11.750   6.554
25963SOL    HW178139  11.415  11.687   6.578
25963SOL    HW278140  11.439  11.809   6.492
25964SOL     OW78141  10.519   4.318   0.970
25964SOL    HW178142  10.479   4.234   0.995
25964SOL    HW278143  10.584   4.295   0.904
25965SOL     OW78144   6.582  11.237   1.386
25965SOL    HW178145   6.504  11.227   1.331
25965SOL    HW278146   6.654  11.203   1.332
25966SOL     OW78147   5.121  13.426   6.023
25966SOL    HW178148   5.061  13.390   5.958
25966SOL    HW278149   5.091  13.516   6.036
25967SOL     OW78150   4.920   9.606   6.166
25967SOL    HW178151   4.855   9.675   6.174
25967SOL    HW278152   4.872   9.525   6.186
25968SOL     OW78153  11.335  13.213   7.026
25968SOL    HW178154  11.351  13.197   7.119
25968SOL    HW278155  11.341  13.308   7.017
25969SOL     OW78156   8.536   5.113   2.902
25969SOL    HW178157   8.506   5.203   2.907
25969SOL    HW278158   8.480   5.065   2.964
25970SOL     OW78159   6.246  13.294   7.171
25970SOL    HW178160   6.154  13.284   7.148
25970SOL    HW278161   6.246  13.336   7.256
25971SOL     OW78162   3.207  11.322   3.497
25971SOL    HW178163   3.235  11.414   3.492
25971SOL    HW278164   3.238  11.292   3.582
25972SOL     OW78165   7.640   4.606   1.131
25972SOL    HW178166   7.668   4.516   1.117
25972SOL    HW278167   7.544   4.602   1.128
25973SOL     OW78168   6.686  12.204   6.650
25973SOL    HW178169   6.665  12.123   6.603
25973SOL    HW278170   6.602  12.250   6.657
25974SOL     OW78171   7.814   9.914   4.805
25974SOL    HW178172   7.870   9.841   4.778
25974SOL    HW278173   7.774   9.946   4.724
25975SOL     OW78174   7.468   9.963   4.513
25975SOL    HW178175   7.521   9.929   4.585
25975SOL    HW278176   7.435   9.884   4.469
25976SOL     OW78177   2.705   9.822   2.361
25976SOL    HW178178   2.681   9.864   2.444
25976SOL    HW278179   2.736   9.894   2.306
25977SOL     OW78180   4.377   7.775   5.571
25977SOL    HW178181   4.316   7.807   5.506
25977SOL    HW278182   4.389   7.682   5.548
25978SOL     OW78183   5.874  12.945   4.762
25978SOL    HW178184   5.878  12.859   4.719
25978SOL    HW278185   5.863  13.008   4.691
25979SOL     OW78186   5.747   1.605   0.428
25979SOL    HW178187   5.773   1.615   0.336
25979SOL    HW278188   5.706   1.688   0.451
25980SOL     OW78189   7.142   7.204   6.062
25980SOL    HW178190   7.054   7.176   6.036
25980SOL    HW278191   7.196   7.126   6.052
25981SOL     OW78192  11.829   3.766   2.306
25981SOL    HW178193  11.778   3.770   2.387
25981SOL    HW278194  11.809   3.849   2.262
25982SOL     OW78195   5.971  10.095   2.230
25982SOL    HW178196   6.016  10.024   2.182
25982SOL    HW278197   6.011  10.175   2.196
25983SOL     OW78198   9.789  12.489   4.956
25983SOL    HW178199   9.788  12.572   5.004
25983SOL    HW278200   9.873  12.450   4.978
25984SOL     OW78201   9.612   3.670   4.351
25984SOL    HW178202   9.554   3.665   4.275
25984SOL    HW278203   9.673   3.597   4.340
25985SOL     OW78204   5.638   2.883   0.787
25985SOL    HW178205   5.699   2.820   0.827
25985SOL    HW278206   5.611   2.939   0.860
25986SOL     OW78207   8.815   4.487   0.546
25986SOL    HW178208   8.888   4.431   0.574
25986SOL    HW278209   8.739   4.452   0.592
25987SOL     OW78210   8.327   3.219   2.271
25987SOL    HW178211   8.397   3.199   2.209
25987SOL    HW278212   8.303   3.134   2.308
25988SOL     OW78213  13.104   3.995   4.382
25988SOL    HW178214  13.083   4.087   4.398
25988SOL    HW278215  13.025   3.960   4.341
25989SOL     OW78216   0.678   6.658   0.673
25989SOL    HW178217   0.697   6.586   0.732
25989SOL    HW278218   0.667   6.734   0.731
25990SOL     OW78219   6.939  10.603   7.245
25990SOL    HW178220   7.018  10.658   7.237
25990SOL    HW278221   6.952  10.554   7.326
25991SOL     OW78222  10.504   9.300   5.354
25991SOL    HW178223  10.557   9.340   5.423
25991SOL    HW278224  10.535   9.340   5.273
25992SOL     OW78225   3.013   4.161   2.059
25992SOL    HW178226   2.984   4.247   2.090
25992SOL    HW278227   3.098   4.177   2.019
25993SOL     OW78228  11.263   7.821   4.882
25993SOL    HW178229  11.257   7.826   4.786
25993SOL    HW278230  11.253   7.911   4.912
25994SOL     OW78231   7.622  10.213   7.271
25994SOL    HW178232   7.648  10.243   7.183
25994SOL    HW278233   7.668  10.130   7.283
25995SOL     OW78234   9.501   2.982   3.523
25995SOL    HW178235   9.412   2.950   3.507
25995SOL    HW278236   9.493   3.077   3.522
25996SOL     OW78237  14.307   4.686   6.056
25996SOL    HW178238  14.390   4.705   6.013
25996SOL    HW278239  14.291   4.761   6.113
25997SOL     OW78240  10.432   6.784   6.699
25997SOL    HW178241  10.476   6.844   6.760
25997SOL    HW278242  10.339   6.793   6.719
25998SOL     OW78243   4.514  11.586   6.351
25998SOL    HW178244   4.465  11.556   6.274
25998SOL    HW278245   4.598  11.614   6.315
25999SOL     OW78246   5.494   1.582   1.412
25999SOL    HW178247   5.554   1.526   1.363
25999SOL    HW278248   5.551   1.636   1.467
26000SOL     OW78249   8.710  12.731   7.378
26000SOL    HW178250   8.780  12.772   7.428
26000SOL    HW278251   8.629  12.762   7.420
26001SOL     OW78252  10.742   8.247   4.751
26001SOL    HW178253  10.650   8.265   4.730
26001SOL    HW278254  10.791   8.297   4.686
26002SOL     OW78255   4.059  12.157   4.522
26002SOL    HW178256   4.009  12.104   4.584
26002SOL    HW278257   4.119  12.096   4.480
26003SOL     OW78258   6.477   4.385   3.100
26003SOL    HW178259   6.455   4.457   3.041
26003SOL    HW278260   6.478   4.307   3.044
26004SOL     OW78261  10.659  10.414   6.603
26004SOL    HW178262  10.685  10.451   6.688
26004SOL    HW278263  10.641  10.322   6.622
26005SOL     OW78264   7.955   3.818   4.892
26005SOL    HW178265   7.975   3.912   4.882
26005SOL    HW278266   7.964   3.783   4.804
26006SOL     OW78267   5.660  10.396   0.493
26006SOL    HW178268   5.699  10.479   0.463
26006SOL    HW278269   5.710  10.329   0.446
26007SOL     OW78270   8.189  13.876   6.100
26007SOL    HW178271   8.102  13.886   6.060
26007SOL    HW278272   8.195  13.783   6.122
26008SOL     OW78273   1.612   4.847   0.526
26008SOL    HW178274   1.670   4.865   0.600
26008SOL    HW278275   1.670   4.810   0.459
26009SOL     OW78276   4.454   4.870   2.220
26009SOL    HW178277   4.523   4.935   2.209
26009SOL    HW278278   4.445   4.860   2.315
26010SOL     OW78279   9.500   7.291   6.546
26010SOL    HW178280   9.557   7.346   6.492
26010SOL    HW278281   9.529   7.202   6.529
26011SOL     OW78282   7.509   9.611   0.312
26011SOL    HW178283   7.441   9.669   0.346
26011SOL    HW278284   7.492   9.527   0.354
26012SOL     OW78285   3.832   6.270   2.807
26012SOL    HW178286   3.764   6.329   2.775
26012SOL    HW278287   3.858   6.307   2.892
26013SOL     OW78288   1.759   1.912   0.754
26013SOL    HW178289   1.711   1.834   0.782
26013SOL    HW278290   1.842   1.907   0.801
26014SOL     OW78291   7.178   8.577   7.297
26014SOL    HW178292   7.129   8.495   7.302
26014SOL    HW278293   7.113   8.646   7.310
26015SOL     OW78294  13.858  15.744   7.231
26015SOL    HW178295  13.841  15.756   7.138
26015SOL    HW278296  13.773  15.760   7.273
26016SOL     OW78297   0.550   7.914   0.461
26016SOL    HW178298   0.644   7.899   0.474
26016SOL    HW278299   0.544   7.966   0.381
26017SOL     OW78300   4.414   6.517   0.398
26017SOL    HW178301   4.388   6.563   0.478
26017SOL    HW278302   4.449   6.585   0.341
26018SOL     OW78303  10.602   9.179   2.966
26018SOL    HW178304  10.638   9.266   2.949
26018SOL    HW278305  10.559   9.154   2.884
26019SOL     OW78306   4.715   8.495   6.316
26019SOL    HW178307   4.733   8.564   6.253
26019SOL    HW278308   4.633   8.522   6.358
26020SOL     OW78309   9.114   9.536   2.098
26020SOL    HW178310   9.040   9.574   2.145
26020SOL    HW278311   9.074   9.471   2.039
26021SOL     OW78312   1.777   6.947   0.216
26021SOL    HW178313   1.709   6.985   0.271
26021SOL    HW278314   1.757   6.979   0.128
26022SOL     OW78315   9.318   8.468   6.791
26022SOL    HW178316   9.265   8.423   6.857
26022SOL    HW278317   9.315   8.560   6.816
26023SOL     OW78318  10.793   7.237   6.863
26023SOL    HW178319  10.862   7.176   6.835
26023SOL    HW278320  10.809   7.316   6.813
26024SOL     OW78321  13.383  10.797   6.842
26024SOL    HW178322  13.385  10.703   6.860
26024SOL    HW278323  13.290  10.819   6.840
26025SOL     OW78324   5.680   8.253   1.011
26025SOL    HW178325   5.755   8.202   0.981
26025SOL    HW278326   5.609   8.188   1.018
26026SOL     OW78327  11.282   9.518   0.887
26026SOL    HW178328  11.311   9.446   0.830
26026SOL    HW278329  11.292   9.596   0.832
26027SOL     OW78330  10.806   8.962   3.848
26027SOL    HW178331  10.858   9.024   3.901
26027SOL    HW278332  10.724   9.008   3.832
26028SOL     OW78333   3.025  12.373   2.949
26028SOL    HW178334   3.009  12.407   3.037
26028SOL    HW278335   3.088  12.302   2.961
26029SOL     OW78336  10.433   8.442   0.136
26029SOL    HW178337  10.408   8.444   0.043
26029SOL    HW278338  10.414   8.352   0.163
26030SOL     OW78339   2.337  12.499   2.691
26030SOL    HW178340   2.294  12.562   2.633
26030SOL    HW278341   2.266  12.458   2.738
26031SOL     OW78342   5.535   8.334   0.729
26031SOL    HW178343   5.616   8.306   0.773
26031SOL    HW278344   5.477   8.258   0.735
26032SOL     OW78345  10.824   7.909   0.638
26032SOL    HW178346  10.833   7.828   0.588
26032SOL    HW278347  10.739   7.902   0.681
26033SOL     OW78348   7.386   4.487   2.433
26033SOL    HW178349   7.386   4.392   2.441
26033SOL    HW278350   7.432   4.504   2.350
26034SOL     OW78351  12.096   4.754   3.037
26034SOL    HW178352  12.098   4.832   3.092
26034SOL    HW278353  12.059   4.686   3.093
26035SOL     OW78354   8.500   4.151   5.333
26035SOL    HW178355   8.431   4.167   5.398
26035SOL    HW278356   8.523   4.058   5.345
26036SOL     OW78357  11.764   4.155   5.670
26036SOL    HW178358  11.697   4.179   5.607
26036SOL    HW278359  11.743   4.065   5.694
26037SOL     OW78360   9.143   1.622   1.151
26037SOL    HW178361   9.213   1.628   1.087
26037SOL    HW278362   9.154   1.699   1.206
26038SOL     OW78363   3.241   2.903   3.100
26038SOL    HW178364   3.286   2.985   3.119
26038SOL    HW278365   3.158   2.930   3.060
26039SOL     OW78366  14.940   6.578   6.375
26039SOL    HW178367  14.864   6.561   6.430
26039SOL    HW278368  15.013   6.591   6.436
26040SOL     OW78369   4.594   9.457   1.632
26040SOL    HW178370   4.503   9.431   1.615
26040SOL    HW278371   4.646   9.381   1.606
26041SOL     OW78372  12.245  14.571   6.066
26041SOL    HW178373  12.248  14.483   6.030
26041SOL    HW278374  12.336  14.592   6.087
26042SOL     OW78375   5.256   9.137   3.559
26042SOL    HW178376   5.339   9.112   3.519
26042SOL    HW278377   5.216   9.196   3.495
26043SOL     OW78378  13.684  11.141   4.471
26043SOL    HW178379  13.688  11.064   4.415
26043SOL    HW278380  13.732  11.209   4.423
26044SOL     OW78381  12.837  13.782   6.806
26044SOL    HW178382  12.880  13.759   6.889
26044SOL    HW278383  12.832  13.877   6.807
26045SOL     OW78384   8.417   6.847   2.194
26045SOL    HW178385   8.389   6.758   2.174
26045SOL    HW278386   8.504   6.855   2.155
26046SOL     OW78387   6.148   4.884   1.211
26046SOL    HW178388   6.133   4.857   1.121
26046SOL    HW278389   6.133   4.804   1.263
26047SOL     OW78390  10.010  10.261   0.758
26047SOL    HW178391  10.001  10.167   0.745
26047SOL    HW278392   9.937  10.285   0.815
26048SOL     OW78393   1.959  10.760   2.602
26048SOL    HW178394   1.962  10.822   2.529
26048SOL    HW278395   1.873  10.774   2.642
26049SOL     OW78396   6.480   7.560   0.397
26049SOL    HW178397   6.418   7.567   0.325
26049SOL    HW278398   6.495   7.650   0.425
26050SOL     OW78399   7.349   9.014   0.014
26050SOL    HW178400   7.262   8.982   0.040
26050SOL    HW278401  12.779  14.325   7.595
26051SOL     OW78402  11.120   9.066   5.084
26051SOL    HW178403  11.074   9.068   5.167
26051SOL    HW278404  11.063   9.114   5.023
26052SOL     OW78405  13.435   9.467   6.037
26052SOL    HW178406  13.422   9.489   6.130
26052SOL    HW278407  13.520   9.506   6.016
26053SOL     OW78408   4.071   1.570   1.091
26053SOL    HW178409   4.051   1.592   1.000
26053SOL    HW278410   3.987   1.541   1.127
26054SOL     OW78411   7.144   2.439   1.443
26054SOL    HW178412   7.203   2.502   1.484
26054SOL    HW278413   7.112   2.385   1.516
26055SOL     OW78414   6.159   1.852   2.205
26055SOL    HW178415   6.138   1.944   2.217
26055SOL    HW278416   6.253   1.850   2.189
26056SOL     OW78417  11.952   8.468   2.131
26056SOL    HW178418  11.983   8.485   2.220
26056SOL    HW278419  11.986   8.380   2.111
26057SOL     OW78420  10.592   5.015   5.170
26057SOL    HW178421  10.504   5.049   5.190
26057SOL    HW278422  10.578   4.947   5.105
26058SOL     OW78423   4.823   5.684   2.192
26058SOL    HW178424   4.790   5.700   2.104
26058SOL    HW278425   4.817   5.769   2.235
26059SOL     OW78426   6.067   2.857   2.073
26059SOL    HW178427   6.092   2.920   2.141
26059SOL    HW278428   5.973   2.866   2.065
26060SOL     OW78429   5.416   4.829   0.651
26060SOL    HW178430   5.352   4.859   0.587
26060SOL    HW278431   5.370   4.831   0.735
26061SOL     OW78432   9.795  11.202   5.094
26061SOL    HW178433   9.728  11.145   5.133
26061SOL    HW278434   9.746  11.276   5.058
26062SOL     OW78435   6.635   8.719   5.930
26062SOL    HW178436   6.658   8.811   5.947
26062SOL    HW278437   6.539   8.717   5.938
26063SOL     OW78438   7.185   6.013   1.659
26063SOL    HW178439   7.113   5.959   1.690
26063SOL    HW278440   7.258   5.991   1.716
26064SOL     OW78441  10.719   7.757   2.202
26064SOL    HW178442  10.678   7.800   2.127
26064SOL    HW278443  10.674   7.673   2.210
26065SOL     OW78444  10.854  12.275   4.920
26065SOL    HW178445  10.848  12.366   4.891
26065SOL    HW278446  10.934  12.242   4.878
26066SOL     OW78447   4.240  11.128   4.277
26066SOL    HW178448   4.224  11.120   4.183
26066SOL    HW278449   4.154  11.112   4.317
26067SOL     OW78450   2.795   2.434   2.320
26067SOL    HW178451   2.795   2.526   2.345
26067SOL    HW278452   2.875   2.423   2.268
26068SOL     OW78453   2.470   8.023   3.104
26068SOL    HW178454   2.503   7.952   3.049
26068SOL    HW278455   2.549   8.073   3.127
26069SOL     OW78456  13.358   5.806   4.292
26069SOL    HW178457  13.354   5.711   4.281
26069SOL    HW278458  13.266   5.834   4.293
26070SOL     OW78459  10.748  13.933   7.076
26070SOL    HW178460  10.840  13.950   7.052
26070SOL    HW278461  10.704  13.922   6.992
26071SOL     OW78462  12.046  14.293   6.951
26071SOL    HW178463  12.107  14.307   6.879
26071SOL    HW278464  12.100  14.264   7.025
26072SOL     OW78465   9.654  12.663   6.980
26072SOL    HW178466   9.712  12.659   7.056
26072SOL    HW278467   9.697  12.608   6.914
26073SOL     OW78468   8.615  10.699   4.438
26073SOL    HW178469   8.669  10.620   4.448
26073SOL    HW278470   8.529  10.666   4.410
26074SOL     OW78471   7.321   7.913   0.497
26074SOL    HW178472   7.391   7.851   0.520
26074SOL    HW278473   7.276   7.872   0.423
26075SOL     OW78474   6.024   8.181   3.092
26075SOL    HW178475   6.117   8.203   3.095
26075SOL    HW278476   5.980   8.266   3.089
26076SOL     OW78477   4.443  13.503   5.369
26076SOL    HW178478   4.455  13.593   5.339
26076SOL    HW278479   4.448  13.509   5.464
26077SOL     OW78480   7.810   1.442   0.875
26077SOL    HW178481   7.895   1.479   0.854
26077SOL    HW278482   7.829   1.356   0.914
26078SOL     OW78483   8.181   5.790   7.113
26078SOL    HW178484   8.213   5.707   7.079
26078SOL    HW278485   8.090   5.795   7.081
26079SOL     OW78486   7.495  10.775   2.547
26079SOL    HW178487   7.549  10.854   2.554
26079SOL    HW278488   7.424  10.790   2.609
26080SOL     OW78489   4.401   2.906   0.151
26080SOL    HW178490   4.435   2.994   0.136
26080SOL    HW278491   4.330   2.919   0.215
26081SOL     OW78492   5.045   5.605   5.589
26081SOL    HW178493   5.117   5.601   5.652
26081SOL    HW278494   4.966   5.589   5.642
26082SOL     OW78495  11.258   9.148   6.009
26082SOL    HW178496  11.323   9.191   6.065
26082SOL    HW278497  11.305   9.075   5.969
26083SOL     OW78498   5.371  10.232   0.703
26083SOL    HW178499   5.297  10.173   0.717
26083SOL    HW278500   5.343  10.315   0.741
26084SOL     OW78501   6.409   9.651   5.501
26084SOL    HW178502   6.354   9.573   5.492
26084SOL    HW278503   6.362   9.720   5.454
26085SOL     OW78504  10.090   7.255   4.750
26085SOL    HW178505  10.170   7.276   4.797
26085SOL    HW278506  10.121   7.216   4.668
26086SOL     OW78507   9.481   7.733   2.417
26086SOL    HW178508   9.421   7.769   2.351
26086SOL    HW278509   9.566   7.768   2.393
26087SOL     OW78510  13.048   8.518   3.938
26087SOL    HW178511  13.024   8.451   4.002
26087SOL    HW278512  12.995   8.594   3.961
26088SOL     OW78513   6.322   9.428   3.919
26088SOL    HW178514   6.394   9.444   3.980
26088SOL    HW278515   6.364   9.396   3.839
26089SOL     OW78516   9.147  11.350   6.861
26089SOL    HW178517   9.091  11.355   6.939
26089SOL    HW278518   9.219  11.293   6.888
26090SOL     OW78519   5.196  10.251   1.112
26090SOL    HW178520   5.197  10.262   1.016
26090SOL    HW278521   5.266  10.308   1.143
26091SOL     OW78522   5.724  10.621   4.699
26091SOL    HW178523   5.654  10.562   4.671
26091SOL    HW278524   5.800  10.563   4.713
26092SOL     OW78525   3.173   9.267   4.231
26092SOL    HW178526   3.156   9.345   4.178
26092SOL    HW278527   3.259   9.284   4.271
26093SOL     OW78528   5.622   4.529   0.438
26093SOL    HW178529   5.711   4.564   0.429
26093SOL    HW278530   5.633   4.434   0.435
26094SOL     OW78531   7.492  10.044   4.111
26094SOL    HW178532   7.502   9.981   4.039
26094SOL    HW278533   7.480  10.129   4.067
26095SOL     OW78534  14.925   6.249   6.001
26095SOL    HW178535  14.968   6.320   5.953
26095SOL    HW278536  14.838   6.284   6.022
26096SOL     OW78537   6.713   6.422   0.655
26096SOL    HW178538   6.777   6.442   0.724
26096SOL    HW278539   6.688   6.507   0.620
26097SOL     OW78540   5.795   4.208   4.999
26097SOL    HW178541   5.869   4.269   4.993
26097SOL    HW278542   5.723   4.261   5.033
26098SOL     OW78543   9.300  10.210   0.488
26098SOL    HW178544   9.206  10.210   0.506
26098SOL    HW278545   9.330  10.295   0.521
26099SOL     OW78546   5.151   6.650   1.104
26099SOL    HW178547   5.113   6.686   1.024
26099SOL    HW278548   5.239   6.623   1.079
26100SOL     OW78549   8.838   8.899   2.354
26100SOL    HW178550   8.848   8.991   2.327
26100SOL    HW278551   8.910   8.854   2.311
26101SOL     OW78552   8.045  10.655   0.374
26101SOL    HW178553   8.135  10.624   0.367
26101SOL    HW278554   8.008  10.604   0.446
26102SOL     OW78555   3.251   5.594   1.927
26102SOL    HW178556   3.278   5.503   1.939
26102SOL    HW278557   3.172   5.588   1.873
26103SOL     OW78558   6.917  10.396   1.329
26103SOL    HW178559   6.834  10.349   1.328
26103SOL    HW278560   6.979  10.335   1.287
26104SOL     OW78561  12.679   6.463   5.421
26104SOL    HW178562  12.768   6.451   5.455
26104SOL    HW278563  12.664   6.557   5.425
26105SOL     OW78564   7.743   8.596   6.158
26105SOL    HW178565   7.696   8.527   6.111
26105SOL    HW278566   7.792   8.643   6.090
26106SOL     OW78567  12.785   5.371   3.097
26106SOL    HW178568  12.819   5.453   3.061
26106SOL    HW278569  12.709   5.351   3.042
26107SOL     OW78570  10.815   2.988   2.674
26107SOL    HW178571  10.731   3.021   2.705
26107SOL    HW278572  10.875   2.999   2.749
26108SOL     OW78573   9.422   5.963   2.140
26108SOL    HW178574   9.472   5.897   2.093
26108SOL    HW278575   9.373   6.009   2.072
26109SOL     OW78576   5.045   5.314   4.140
26109SOL    HW178577   5.131   5.354   4.151
26109SOL    HW278578   5.060   5.242   4.079
26110SOL     OW78579   6.496  12.909   5.170
26110SOL    HW178580   6.445  12.849   5.224
26110SOL    HW278581   6.492  12.870   5.082
26111SOL     OW78582   9.983   6.916   6.287
26111SOL    HW178583   9.926   6.850   6.326
26111SOL    HW278584  10.071   6.880   6.297
26112SOL     OW78585  10.001   9.730   1.009
26112SOL    HW178586  10.050   9.713   1.089
26112SOL    HW278587  10.069   9.745   0.943
26113SOL     OW78588   8.629   6.896   3.973
26113SOL    HW178589   8.675   6.978   3.994
26113SOL    HW278590   8.546   6.924   3.934
26114SOL     OW78591   4.030   3.537   4.193
26114SOL    HW178592   3.956   3.477   4.194
26114SOL    HW278593   4.059   3.539   4.102
26115SOL     OW78594   5.647   7.573   7.039
26115SOL    HW178595   5.684   7.484   7.043
26115SOL    HW278596   5.690   7.613   6.963
26116SOL     OW78597  12.450  11.295   6.229
26116SOL    HW178598  12.537  11.284   6.266
26116SOL    HW278599  12.463  11.291   6.134
26117SOL     OW78600   3.946   4.177   0.254
26117SOL    HW178601   3.908   4.227   0.326
26117SOL    HW278602   3.887   4.102   0.244
26118SOL     OW78603   8.277   5.173   3.642
26118SOL    HW178604   8.322   5.126   3.712
26118SOL    HW278605   8.311   5.137   3.561
26119SOL     OW78606   5.014   6.625   3.664
26119SOL    HW178607   5.080   6.685   3.631
26119SOL    HW278608   5.063   6.545   3.685
26120SOL     OW78609   4.573   1.511   1.267
26120SOL    HW178610   4.512   1.576   1.301
26120SOL    HW278611   4.526   1.428   1.273
26121SOL     OW78612   8.523  10.397   6.973
26121SOL    HW178613   8.446  10.398   7.029
26121SOL    HW278614   8.526  10.308   6.937
26122SOL     OW78615  10.069   6.664   4.749
26122SOL    HW178616  10.020   6.693   4.826
26122SOL    HW278617  10.149   6.625   4.785
26123SOL     OW78618  12.693  11.983   4.356
26123SOL    HW178619  12.705  12.073   4.387
26123SOL    HW278620  12.644  11.992   4.274
26124SOL     OW78621   6.164   4.498   1.272
26124SOL    HW178622   6.091   4.536   1.224
26124SOL    HW278623   6.240   4.549   1.245
26125SOL     OW78624   7.200   8.820   0.187
26125SOL    HW178625   7.128   8.873   0.221
26125SOL    HW278626   7.170   8.729   0.200
26126SOL     OW78627   6.040  11.134   1.914
26126SOL    HW178628   6.064  11.146   2.006
26126SOL    HW278629   5.957  11.181   1.905
26127SOL     OW78630  11.894   9.349   7.030
26127SOL    HW178631  11.920   9.352   6.937
26127SOL    HW278632  11.917   9.436   7.064
26128SOL     OW78633  14.589   6.158   6.369
26128SOL    HW178634  14.681   6.180   6.383
26128SOL    HW278635  14.561   6.217   6.299
26129SOL     OW78636   6.144   6.278   4.900
26129SOL    HW178637   6.115   6.367   4.881
26129SOL    HW278638   6.239   6.281   4.892
26130SOL     OW78639  11.169   9.198   4.519
26130SOL    HW178640  11.249   9.187   4.571
26130SOL    HW278641  11.194   9.168   4.431
26131SOL     OW78642  12.873   5.637   7.586
26131SOL    HW178643  12.829   5.557   7.559
26131SOL    HW278644  12.966   5.620   7.573
26132SOL     OW78645   6.943   1.312   1.245
26132SOL    HW178646   6.889   1.391   1.237
26132SOL    HW278647   6.933   1.267   1.161
26133SOL     OW78648   7.770  11.822   7.255
26133SOL    HW178649   7.851  11.797   7.300
26133SOL    HW278650   7.738  11.740   7.217
26134SOL     OW78651   9.976   9.833   5.960
26134SOL    HW178652   9.890   9.855   5.996
26134SOL    HW278653  10.019   9.918   5.947
26135SOL     OW78654  13.935   4.533   6.053
26135SOL    HW178655  13.927   4.551   6.147
26135SOL    HW278656  13.844   4.528   6.023
26136SOL     OW78657  11.303   8.173   0.831
26136SOL    HW178658  11.282   8.083   0.852
26136SOL    HW278659   0.618   8.170   0.796
26137SOL     OW78660  12.947  10.971   4.922
26137SOL    HW178661  13.029  10.954   4.968
26137SOL    HW278662  12.895  11.023   4.983
26138SOL     OW78663   6.111   5.969   3.278
26138SOL    HW178664   6.055   6.046   3.272
26138SOL    HW278665   6.198   6.004   3.300
26139SOL     OW78666   6.939   2.355   0.848
26139SOL    HW178667   6.957   2.387   0.936
26139SOL    HW278668   7.024   2.356   0.804
26140SOL     OW78669   7.348  11.866   3.528
26140SOL    HW178670   7.406  11.815   3.584
26140SOL    HW278671   7.272  11.886   3.584
26141SOL     OW78672   1.840   7.950   2.369
26141SOL    HW178673   1.768   8.013   2.378
26141SOL    HW278674   1.915   8.003   2.342
26142SOL     OW78675  10.840   8.510   3.345
26142SOL    HW178676  10.929   8.520   3.381
26142SOL    HW278677  10.789   8.578   3.389
26143SOL     OW78678  12.623   7.765   2.666
26143SOL    HW178679  12.552   7.782   2.604
26143SOL    HW278680   1.902   7.845   2.665
26144SOL     OW78681   6.214   4.093   1.341
26144SOL    HW178682   6.138   4.107   1.398
26144SOL    HW278683   6.227   4.177   1.297
26145SOL     OW78684  12.336  12.227   3.066
26145SOL    HW178685  12.387  12.262   2.993
26145SOL    HW278686  12.393  12.237   3.143
26146SOL     OW78687   9.277   8.812   6.411
26146SOL    HW178688   9.280   8.726   6.453
26146SOL    HW278689   9.201   8.855   6.452
26147SOL     OW78690   8.722   6.929   5.043
26147SOL    HW178691   8.653   6.913   5.108
26147SOL    HW278692   8.681   6.911   4.959
26148SOL     OW78693   6.949   9.052   2.723
26148SOL    HW178694   6.940   8.968   2.678
26148SOL    HW278695   6.879   9.053   2.787
26149SOL     OW78696   9.030  11.996   2.923
26149SOL    HW178697   9.036  11.989   3.018
26149SOL    HW278698   8.953  12.050   2.908
26150SOL     OW78699   5.744  10.486   7.030
26150SOL    HW178700   5.760  10.508   7.121
26150SOL    HW278701   5.787  10.401   7.018
26151SOL     OW78702  10.455  11.047   1.691
26151SOL    HW178703  10.492  10.964   1.720
26151SOL    HW278704  10.365  11.046   1.724
26152SOL     OW78705   8.302   3.395   4.585
26152SOL    HW178706   8.336   3.306   4.596
26152SOL    HW278707   8.210   3.388   4.609
26153SOL     OW78708   5.728  11.635   5.589
26153SOL    HW178709   5.737  11.729   5.604
26153SOL    HW278710   5.646  11.611   5.633
26154SOL     OW78711   6.390   5.491   0.960
26154SOL    HW178712   6.387   5.534   1.046
26154SOL    HW278713   6.478   5.508   0.928
26155SOL     OW78714   6.774   7.351   5.938
26155SOL    HW178715   6.865   7.379   5.940
26155SOL    HW278716   6.771   7.275   5.996
26156SOL     OW78717   8.385   9.301   2.734
26156SOL    HW178718   8.442   9.301   2.811
26156SOL    HW278719   8.385   9.210   2.704
26157SOL     OW78720  13.602   9.146   4.718
26157SOL    HW178721  13.597   9.101   4.802
26157SOL    HW278722  13.532   9.107   4.666
26158SOL     OW78723   5.900  10.332   6.166
26158SOL    HW178724   5.962  10.396   6.133
26158SOL    HW278725   5.950  10.280   6.230
26159SOL     OW78726  12.809   8.960   6.856
26159SOL    HW178727  12.764   8.879   6.834
26159SOL    HW278728  12.873   8.935   6.923
26160SOL     OW78729   9.204  12.509   3.835
26160SOL    HW178730   9.189  12.434   3.778
26160SOL    HW278731   9.119  12.527   3.875
26161SOL     OW78732  12.269   8.333   3.543
26161SOL    HW178733  12.336   8.331   3.474
26161SOL    HW278734  12.318   8.335   3.624
26162SOL     OW78735  13.094   8.849   5.820
26162SOL    HW178736  13.122   8.920   5.878
26162SOL    HW278737  13.082   8.774   5.878
26163SOL     OW78738  12.194  12.720   4.905
26163SOL    HW178739  12.256  12.651   4.929
26163SOL    HW278740  12.235  12.763   4.830
26164SOL     OW78741  11.999   6.828   2.538
26164SOL    HW178742  11.948   6.747   2.529
26164SOL    HW278743  11.951   6.879   2.603
26165SOL     OW78744  12.690   6.800   4.011
26165SOL    HW178745  12.668   6.747   4.087
26165SOL    HW278746  12.786   6.797   4.007
26166SOL     OW78747   5.226   9.103   3.175
26166SOL    HW178748   5.307   9.055   3.191
26166SOL    HW278749   5.179   9.050   3.111
26167SOL     OW78750   5.735   4.053   1.892
26167SOL    HW178751   5.815   4.021   1.851
26167SOL    HW278752   5.684   3.974   1.908
26168SOL     OW78753   9.406   3.470   2.792
26168SOL    HW178754   9.497   3.480   2.819
26168SOL    HW278755   9.377   3.559   2.772
26169SOL     OW78756   8.535   6.910   4.215
26169SOL    HW178757   8.536   7.004   4.233
26169SOL    HW278758   8.571   6.902   4.127
26170SOL     OW78759  13.217   4.500   6.067
26170SOL    HW178760  13.228   4.429   6.130
26170SOL    HW278761  13.267   4.473   5.991
26171SOL     OW78762   9.398   7.255   0.202
26171SOL    HW178763   9.484   7.220   0.177
26171SOL    HW278764   9.360   7.187   0.257
26172SOL     OW78765   1.145   5.505   0.542
26172SOL    HW178766   1.186   5.439   0.599
26172SOL    HW278767   1.088   5.454   0.484
26173SOL     OW78768   2.283   6.270   1.983
26173SOL    HW178769   2.359   6.253   2.037
26173SOL    HW278770   2.312   6.251   1.894
26174SOL     OW78771   4.755   8.456   4.493
26174SOL    HW178772   4.777   8.365   4.475
26174SOL    HW278773   4.839   8.503   4.484
26175SOL     OW78774   5.978   7.819   5.206
26175SOL    HW178775   5.963   7.737   5.253
26175SOL    HW278776   6.033   7.793   5.132
26176SOL     OW78777   1.703   8.712   0.727
26176SOL    HW178778   1.751   8.782   0.683
26176SOL    HW278779   1.712   8.637   0.669
26177SOL     OW78780   9.708   4.568   3.384
26177SOL    HW178781   9.725   4.661   3.370
26177SOL    HW278782   9.656   4.564   3.465
26178SOL     OW78783   7.935   4.994   0.497
26178SOL    HW178784   7.848   5.017   0.529
26178SOL    HW278785   7.939   4.899   0.506
26179SOL     OW78786   6.300   1.921   1.422
26179SOL    HW178787   6.230   1.858   1.439
26179SOL    HW278788   6.315   1.913   1.327
26180SOL     OW78789   6.073   9.871   3.912
26180SOL    HW178790   6.067   9.962   3.883
26180SOL    HW278791   5.994   9.858   3.965
26181SOL     OW78792   6.039  11.550   2.233
26181SOL    HW178793   6.028  11.500   2.314
26181SOL    HW278794   6.123  11.521   2.198
26182SOL     OW78795   2.753   9.354   3.068
26182SOL    HW178796   2.754   9.379   2.976
26182SOL    HW278797   2.671   9.389   3.101
26183SOL     OW78798   9.099  12.800   5.363
26183SOL    HW178799   9.009  12.799   5.330
26183SOL    HW278800   9.132  12.712   5.343
26184SOL     OW78801  14.385   5.057   6.837
26184SOL    HW178802  14.368   5.094   6.750
26184SOL    HW278803  14.320   4.988   6.847
26185SOL     OW78804   2.383   9.731   0.259
26185SOL    HW178805   2.367   9.676   0.182
26185SOL    HW278806   2.326   9.806   0.246
26186SOL     OW78807   5.203  13.822   5.971
26186SOL    HW178808   5.109  13.815   5.952
26186SOL    HW278809   5.233  13.895   5.918
26187SOL     OW78810   3.564   6.115   1.462
26187SOL    HW178811   3.620   6.082   1.532
26187SOL    HW278812   3.522   6.193   1.500
26188SOL     OW78813   6.825  12.102   5.061
26188SOL    HW178814   6.773  12.024   5.080
26188SOL    HW278815   6.894  12.071   5.002
26189SOL     OW78816   1.477   5.230   1.482
26189SOL    HW178817   1.461   5.323   1.497
26189SOL    HW278818   1.499   5.224   1.389
26190SOL     OW78819   9.073  11.303   1.460
26190SOL    HW178820   9.048  11.332   1.373
26190SOL    HW278821   9.163  11.273   1.451
26191SOL     OW78822  11.230   4.926   3.800
26191SOL    HW178823  11.324   4.921   3.817
26191SOL    HW278824  11.207   4.839   3.768
26192SOL     OW78825   6.844  10.564   1.777
26192SOL    HW178826   6.912  10.620   1.815
26192SOL    HW278827   6.859  10.478   1.816
26193SOL     OW78828   6.787  10.882   0.698
26193SOL    HW178829   6.848  10.866   0.626
26193SOL    HW278830   6.752  10.796   0.720
26194SOL     OW78831   9.017   9.989   7.354
26194SOL    HW178832   8.951   9.948   7.409
26194SOL    HW278833   9.094   9.933   7.362
26195SOL     OW78834  12.556  10.873   5.067
26195SOL    HW178835  12.615  10.885   4.993
26195SOL    HW278836  12.538  10.963   5.097
26196SOL     OW78837   6.199   4.846   5.124
26196SOL    HW178838   6.247   4.822   5.203
26196SOL    HW278839   6.265   4.884   5.066
26197SOL     OW78840  10.637  12.587   7.145
26197SOL    HW178841  10.658  12.493   7.144
26197SOL    HW278842  10.648  12.614   7.054
26198SOL     OW78843   5.148   1.263   1.202
26198SOL    HW178844   5.072   1.293   1.152
26198SOL    HW278845   5.130   1.292   1.292
26199SOL     OW78846   5.369   7.810   5.564
26199SOL    HW178847   5.313   7.887   5.562
26199SOL    HW278848   5.375   7.788   5.657
26200SOL     OW78849   5.418   6.313   7.363
26200SOL    HW178850   5.466   6.364   7.297
26200SOL    HW278851   5.402   6.375   7.434
26201SOL     OW78852   9.087   4.768   5.477
26201SOL    HW178853   9.100   4.809   5.562
26201SOL    HW278854   9.066   4.677   5.497
26202SOL     OW78855  12.106   9.192   5.381
26202SOL    HW178856  12.081   9.101   5.361
26202SOL    HW278857  12.151   9.186   5.465
26203SOL     OW78858  10.522   9.885   5.431
26203SOL    HW178859  10.427   9.897   5.425
26203SOL    HW278860  10.543   9.911   5.521
26204SOL     OW78861  10.995  10.854   0.719
26204SOL    HW178862  10.986  10.948   0.733
26204SOL    HW278863  11.071  10.845   0.661
26205SOL     OW78864  10.288   9.346   4.898
26205SOL    HW178865  10.202   9.307   4.918
26205SOL    HW278866  10.344   9.271   4.879
26206SOL     OW78867   4.582   4.277   3.509
26206SOL    HW178868   4.608   4.356   3.556
26206SOL    HW278869   4.491   4.292   3.484
26207SOL     OW78870   4.862   8.201   6.528
26207SOL    HW178871   4.950   8.195   6.489
26207SOL    HW278872   4.858   8.290   6.563
26208SOL     OW78873   1.655   7.961   1.346
26208SOL    HW178874   1.664   8.053   1.371
26208SOL    HW278875   1.744   7.931   1.334
26209SOL     OW78876   4.568   3.973   4.054
26209SOL    HW178877   4.651   3.928   4.071
26209SOL    HW278878   4.577   4.004   3.964
26210SOL     OW78879   4.682   1.734   0.576
26210SOL    HW178880   4.646   1.705   0.492
26210SOL    HW278881   4.606   1.767   0.624
26211SOL     OW78882   6.586   4.325   0.531
26211SOL    HW178883   6.522   4.259   0.556
26211SOL    HW278884   6.615   4.364   0.613
26212SOL     OW78885   8.853   9.915   5.695
26212SOL    HW178886   8.927   9.859   5.672
26212SOL    HW278887   8.894   9.992   5.736
26213SOL     OW78888   4.705   7.682   2.618
26213SOL    HW178889   4.674   7.623   2.686
26213SOL    HW278890   4.786   7.719   2.653
26214SOL     OW78891  15.186   9.423   6.556
26214SOL    HW178892  15.105   9.414   6.606
26214SOL    HW278893  15.176   9.505   6.508
26215SOL     OW78894   4.211   2.534   0.980
26215SOL    HW178895   4.170   2.519   0.895
26215SOL    HW278896   4.273   2.462   0.990
26216SOL     OW78897  13.510  11.557   4.093
26216SOL    HW178898  13.558  11.484   4.054
26216SOL    HW278899  13.421  11.524   4.104
26217SOL     OW78900   5.275  11.341   1.848
26217SOL    HW178901   5.295  11.255   1.885
26217SOL    HW278902   5.181  11.352   1.864
26218SOL     OW78903   5.193   9.955   4.764
26218SOL    HW178904   5.224   9.885   4.707
26218SOL    HW278905   5.197  10.034   4.709
26219SOL     OW78906   5.118  11.500   5.900
26219SOL    HW178907   5.212  11.490   5.916
26219SOL    HW278908   5.093  11.420   5.853
26220SOL     OW78909  11.053  11.293   3.408
26220SOL    HW178910  11.071  11.259   3.320
26220SOL    HW278911  11.137  11.327   3.439
26221SOL     OW78912   9.792   6.425   0.084
26221SOL    HW178913   9.857   6.495   0.073
26221SOL    HW278914   9.820   6.379   0.163
26222SOL     OW78915   5.876  10.596   5.913
26222SOL    HW178916   5.839  10.612   5.999
26222SOL    HW278917   5.907  10.505   5.917
26223SOL     OW78918   6.606   8.783   2.864
26223SOL    HW178919   6.678   8.766   2.804
26223SOL    HW278920   6.536   8.725   2.834
26224SOL     OW78921   5.186   8.722   0.061
26224SOL    HW178922  10.639  14.102   7.611
26224SOL    HW278923   5.106   8.748   0.014
26225SOL     OW78924   6.616   6.728   5.909
26225SOL    HW178925   6.566   6.698   5.984
26225SOL    HW278926   6.565   6.700   5.833
26226SOL     OW78927   3.840  13.405   4.163
26226SOL    HW178928   3.833  13.485   4.215
26226SOL    HW278929   3.905  13.426   4.095
26227SOL     OW78930   3.283   9.395   1.494
26227SOL    HW178931   3.332   9.454   1.552
26227SOL    HW278932   3.205   9.445   1.470
26228SOL     OW78933   8.011   7.959   5.914
26228SOL    HW178934   7.978   7.877   5.952
26228SOL    HW278935   8.105   7.944   5.906
26229SOL     OW78936   7.085   9.081   3.303
26229SOL    HW178937   7.000   9.113   3.272
26229SOL    HW278938   7.140   9.159   3.306
26230SOL     OW78939  10.526   1.865   0.293
26230SOL    HW178940  10.527   1.792   0.231
26230SOL    HW278941  10.476   1.934   0.250
26231SOL     OW78942   2.249   6.870   0.314
26231SOL    HW178943   2.329   6.831   0.278
26231SOL    HW278944   2.183   6.857   0.247
26232SOL     OW78945   6.219   3.838   2.890
26232SOL    HW178946   6.261   3.875   2.968
26232SOL    HW278947   6.177   3.758   2.921
26233SOL     OW78948  10.042   8.514   6.312
26233SOL    HW178949  10.083   8.538   6.395
26233SOL    HW278950  10.075   8.425   6.294
26234SOL     OW78951   7.060  10.941   6.590
26234SOL    HW178952   7.121  10.942   6.516
26234SOL    HW278953   7.073  10.855   6.630
26235SOL     OW78954   4.130   6.435   5.645
26235SOL    HW178955   4.149   6.430   5.739
26235SOL    HW278956   4.197   6.380   5.604
26236SOL     OW78957   6.519   1.657   1.731
26236SOL    HW178958   6.460   1.607   1.674
26236SOL    HW278959   6.601   1.608   1.728
26237SOL     OW78960   9.183  14.075   5.077
26237SOL    HW178961   9.128  14.153   5.088
26237SOL    HW278962   9.258  14.106   5.027
26238SOL     OW78963  14.097   5.932   7.146
26238SOL    HW178964  14.184   5.972   7.153
26238SOL    HW278965  14.114   5.838   7.150
26239SOL     OW78966   9.580   9.465   7.313
26239SOL    HW178967   9.640   9.525   7.357
26239SOL    HW278968   9.634   9.388   7.292
26240SOL     OW78969   7.534   8.574   1.962
26240SOL    HW178970   7.610   8.620   1.926
26240SOL    HW278971   7.473   8.644   1.984
26241SOL     OW78972  11.845   9.368   5.414
26241SOL    HW178973  11.923   9.312   5.425
26241SOL    HW278974  11.855   9.436   5.480
26242SOL     OW78975  12.047   9.207   5.680
26242SOL    HW178976  12.116   9.187   5.743
26242SOL    HW278977  11.965   9.189   5.727
26243SOL     OW78978   7.914   5.629   5.207
26243SOL    HW178979   7.885   5.539   5.191
26243SOL    HW278980   7.877   5.679   5.135
26244SOL     OW78981   8.845   4.609   2.505
26244SOL    HW178982   8.824   4.542   2.570
26244SOL    HW278983   8.871   4.685   2.557
26245SOL     OW78984   3.246  11.477   4.112
26245SOL    HW178985   3.238  11.567   4.080
26245SOL    HW278986   3.288  11.430   4.040
26246SOL     OW78987  12.946   7.589   5.696
26246SOL    HW178988  12.985   7.628   5.774
26246SOL    HW278989  12.971   7.648   5.625
26247SOL     OW78990  11.827  15.514   7.378
26247SOL    HW178991  11.757  15.484   7.435
26247SOL    HW278992  11.796  15.494   7.289
26248SOL     OW78993   6.723  13.116   6.438
26248SOL    HW178994   6.734  13.114   6.343
26248SOL    HW278995   6.812  13.116   6.473
26249SOL     OW78996   3.321   4.954   0.751
26249SOL    HW178997   3.361   4.902   0.681
26249SOL    HW278998   3.231   4.970   0.721
26250SOL     OW78999   8.742   5.753   7.073
26250SOL    HW179000   8.821   5.786   7.116
26250SOL    HW279001   8.677   5.822   7.084
26251SOL     OW79002  14.292   5.271   5.310
26251SOL    HW179003  14.328   5.330   5.376
26251SOL    HW279004  14.241   5.328   5.252
26252SOL     OW79005  13.655   8.234   7.091
26252SOL    HW179006  13.632   8.215   7.182
26252SOL    HW279007  13.740   8.191   7.078
26253SOL     OW79008   3.405   2.232   3.021
26253SOL    HW179009   3.436   2.321   3.039
26253SOL    HW279010   3.364   2.239   2.935
26254SOL     OW79011   3.843  12.257   3.100
26254SOL    HW179012   3.929  12.231   3.068
26254SOL    HW279013   3.861  12.305   3.181
26255SOL     OW79014  12.631  10.063   6.107
26255SOL    HW179015  12.595   9.979   6.081
26255SOL    HW279016  12.624  10.117   6.028
26256SOL     OW79017  11.167   5.489   2.221
26256SOL    HW179018  11.183   5.552   2.291
26256SOL    HW279019  11.194   5.405   2.258
26257SOL     OW79020  11.204   6.498   2.484
26257SOL    HW179021  11.246   6.413   2.502
26257SOL    HW279022  11.116   6.489   2.518
26258SOL     OW79023  10.309   9.454   3.432
26258SOL    HW179024  10.262   9.516   3.488
26258SOL    HW279025  10.252   9.378   3.427
26259SOL     OW79026   7.426   3.749   3.987
26259SOL    HW179027   7.415   3.699   3.907
26259SOL    HW279028   7.493   3.701   4.036
26260SOL     OW79029   3.304  10.323   2.443
26260SOL    HW179030   3.264  10.389   2.387
26260SOL    HW279031   3.294  10.356   2.532
26261SOL     OW79032  11.706   5.182   6.666
26261SOL    HW179033  11.623   5.133   6.669
26261SOL    HW279034  11.679   5.272   6.651
26262SOL     OW79035   5.647   7.827   2.626
26262SOL    HW179036   5.686   7.909   2.596
26262SOL    HW279037   5.589   7.801   2.554
26263SOL     OW79038   5.112   5.355   3.821
26263SOL    HW179039   5.165   5.368   3.742
26263SOL    HW279040   5.116   5.438   3.867
26264SOL     OW79041   7.147   0.563   0.778
26264SOL    HW179042   7.219   0.623   0.757
26264SOL    HW279043   7.165  11.261   0.724
26265SOL     OW79044  12.244  13.783   4.595
26265SOL    HW179045  12.319  13.816   4.545
26265SOL    HW279046  12.267  13.693   4.617
26266SOL     OW79047  12.931   6.841   4.426
26266SOL    HW179048  12.964   6.892   4.500
26266SOL    HW279049  13.002   6.846   4.361
26267SOL     OW79050  10.947   5.956   1.489
26267SOL    HW179051  11.006   5.885   1.463
26267SOL    HW279052  10.954   5.960   1.584
26268SOL     OW79053  13.222  11.245   6.205
26268SOL    HW179054  13.150  11.273   6.262
26268SOL    HW279055  13.245  11.158   6.237
26269SOL     OW79056   8.911  10.851   4.283
26269SOL    HW179057   8.851  10.809   4.345
26269SOL    HW279058   8.883  10.819   4.197
26270SOL     OW79059  11.354   9.906   6.802
26270SOL    HW179060  11.308   9.961   6.738
26270SOL    HW279061  11.366   9.823   6.758
26271SOL     OW79062  12.792   8.420   5.879
26271SOL    HW179063  12.768   8.464   5.960
26271SOL    HW279064  12.887   8.430   5.874
26272SOL     OW79065   2.924   7.686   3.816
26272SOL    HW179066   2.952   7.727   3.898
26272SOL    HW279067   2.987   7.615   3.802
26273SOL     OW79068  10.729   6.863   3.634
26273SOL    HW179069  10.724   6.872   3.539
26273SOL    HW279070  10.764   6.775   3.648
26274SOL     OW79071   6.549   4.472   5.236
26274SOL    HW179072   6.599   4.549   5.262
26274SOL    HW279073   6.476   4.468   5.298
26275SOL     OW79074  10.120   2.751   1.198
26275SOL    HW179075  10.196   2.808   1.211
26275SOL    HW279076  10.051   2.810   1.168
26276SOL     OW79077   7.221   4.527   3.480
26276SOL    HW179078   7.243   4.461   3.546
26276SOL    HW279079   7.144   4.571   3.516
26277SOL     OW79080  15.279   5.075   7.075
26277SOL    HW179081  15.222  15.793   7.128
26277SOL    HW279082  15.339   5.115   7.137
26278SOL     OW79083  14.398   8.095   6.676
26278SOL    HW179084  14.487   8.130   6.676
26278SOL    HW279085  14.402   8.022   6.738
26279SOL     OW79086  13.468  13.450   7.521
26279SOL    HW179087  13.400  13.444   7.454
26279SOL    HW279088  13.446  13.530   7.570
26280SOL     OW79089  11.137   6.356   7.275
26280SOL    HW179090  11.186   6.401   7.343
26280SOL    HW279091  11.144   6.263   7.297
26281SOL     OW79092   4.696  11.781   5.805
26281SOL    HW179093   4.615  11.830   5.820
26281SOL    HW279094   4.691  11.755   5.713
26282SOL     OW79095  12.929   5.843   7.359
26282SOL    HW179096  12.997   5.910   7.352
26282SOL    HW279097  12.927   5.818   7.451
26283SOL     OW79098   8.365  13.775   4.989
26283SOL    HW179099   8.339  13.716   5.060
26283SOL    HW279100   8.310  13.750   4.915
26284SOL     OW79101  13.941  13.966   6.985
26284SOL    HW179102  14.002  13.910   6.936
26284SOL    HW279103  13.901  13.908   7.049
26285SOL     OW79104   9.366   7.902   0.409
26285SOL    HW179105   9.318   7.820   0.418
26285SOL    HW279106   9.315   7.953   0.346
26286SOL     OW79107   6.936   7.502   6.190
26286SOL    HW179108   6.871   7.573   6.189
26286SOL    HW279109   6.901   7.438   6.251
26287SOL     OW79110  12.732  11.302   5.854
26287SOL    HW179111  12.781  11.228   5.891
26287SOL    HW279112  12.671  11.261   5.793
26288SOL     OW79113   5.031   9.801   4.534
26288SOL    HW179114   5.096   9.866   4.506
26288SOL    HW279115   5.068   9.717   4.508
26289SOL     OW79116   8.601   5.672   3.065
26289SOL    HW179117   8.535   5.609   3.093
26289SOL    HW279118   8.682   5.642   3.107
26290SOL     OW79119   5.175   2.828   0.705
26290SOL    HW179120   5.174   2.891   0.634
26290SOL    HW279121   5.264   2.792   0.704
26291SOL     OW79122   8.069   6.374   7.062
26291SOL    HW179123   8.163   6.379   7.045
26291SOL    HW279124   8.032   6.340   6.981
26292SOL     OW79125  14.036   5.820   6.017
26292SOL    HW179126  13.940   5.825   6.014
26292SOL    HW279127  14.059   5.865   6.099
26293SOL     OW79128  11.317   4.674   5.585
26293SOL    HW179129  11.400   4.719   5.567
26293SOL    HW279130  11.342   4.600   5.640
26294SOL     OW79131  13.443   3.361   4.751
26294SOL    HW179132  13.449   3.386   4.659
26294SOL    HW279133  13.404  14.049   4.751
26295SOL     OW79134   8.496  11.220   1.101
26295SOL    HW179135   8.430  11.168   1.055
26295SOL    HW279136   8.503  11.300   1.051
26296SOL     OW79137   5.554   6.840   3.119
26296SOL    HW179138   5.624   6.834   3.053
26296SOL    HW279139   5.584   6.785   3.191
26297SOL     OW79140   2.117  11.848   2.343
26297SOL    HW179141   2.101  11.768   2.393
26297SOL    HW279142   2.202  11.834   2.301
26298SOL     OW79143   1.864   7.093   0.877
26298SOL    HW179144   1.898   7.089   0.967
26298SOL    HW279145   1.938   7.064   0.823
26299SOL     OW79146  11.604  15.541   7.186
26299SOL    HW179147  11.667  15.554   7.115
26299SOL    HW279148  11.520  15.528   7.142
26300SOL     OW79149  10.343  12.406   3.506
26300SOL    HW179150  10.271  12.468   3.519
26300SOL    HW279151  10.300  12.321   3.501
26301SOL     OW79152  14.005   6.410   7.573
26301SOL    HW179153  13.927   6.356   7.556
26301SOL    HW279154  14.037   6.434   7.486
26302SOL     OW79155  10.876   6.659   6.093
26302SOL    HW179156  10.923   6.735   6.058
26302SOL    HW279157  10.788   6.692   6.110
26303SOL     OW79158   5.442  10.573   5.752
26303SOL    HW179159   5.432  10.550   5.659
26303SOL    HW279160   5.386  10.650   5.763
26304SOL     OW79161   9.471   2.445   3.297
26304SOL    HW179162   9.470   2.477   3.387
26304SOL    HW279163   9.402   2.494   3.253
26305SOL     OW79164   9.176   3.743   4.978
26305SOL    HW179165   9.132   3.699   4.905
26305SOL    HW279166   9.104   3.774   5.034
26306SOL     OW79167   2.524   5.582   0.124
26306SOL    HW179168   2.587   5.655   0.121
26306SOL    HW279169   2.533   5.539   0.039
26307SOL     OW79170   9.618   1.586   1.933
26307SOL    HW179171   9.597   1.679   1.932
26307SOL    HW279172   9.700   1.579   1.884
26308SOL     OW79173   2.466  11.009   3.099
26308SOL    HW179174   2.488  11.066   3.173
26308SOL    HW279175   2.416  11.064   3.039
26309SOL     OW79176   9.620  11.569   4.135
26309SOL    HW179177   9.638  11.495   4.077
26309SOL    HW279178   9.547  11.615   4.094
26310SOL     OW79179  15.833   8.008   7.463
26310SOL    HW179180  15.738   8.018   7.469
26310SOL    HW279181  15.860   7.977   7.549
26311SOL     OW79182  11.854   7.101   7.354
26311SOL    HW179183  11.907   7.142   7.422
26311SOL    HW279184  11.915   7.044   7.307
26312SOL     OW79185   2.778  11.470   2.168
26312SOL    HW179186   2.701  11.451   2.115
26312SOL    HW279187   2.835  11.521   2.111
26313SOL     OW79188   8.926   4.595   5.814
26313SOL    HW179189   8.922   4.579   5.909
26313SOL    HW279190   8.884   4.519   5.775
26314SOL     OW79191  10.266   5.593   7.429
26314SOL    HW179192  10.301   5.673   7.469
26314SOL    HW279193  10.241   5.538   7.503
26315SOL     OW79194  15.575   8.861   7.579
26315SOL    HW179195  15.565   8.766   7.582
26315SOL    HW279196  15.495   8.892   7.536
26316SOL     OW79197   7.196   8.705   1.080
26316SOL    HW179198   7.257   8.707   1.006
26316SOL    HW279199   7.153   8.619   1.074
26317SOL     OW79200   4.865  14.816   6.157
26317SOL    HW179201   4.954  14.793   6.131
26317SOL    HW279202   4.824  14.849   6.077
26318SOL     OW79203  12.272   8.895   5.363
26318SOL    HW179204  12.330   8.924   5.293
26318SOL    HW279205  12.285   8.800   5.366
26319SOL     OW79206  11.292  15.069   7.595
26319SOL    HW179207  11.288  15.102   7.505
26319SOL    HW279208  11.383  15.043   7.608
26320SOL     OW79209  10.382   1.536   0.509
26320SOL    HW179210  10.305   1.486   0.535
26320SOL    HW279211  10.347   1.621   0.480
26321SOL     OW79212  12.158  13.000   7.035
26321SOL    HW179213  12.070  12.968   7.013
26321SOL    HW279214  12.155  13.015   7.130
26322SOL     OW79215  12.451   5.156   2.388
26322SOL    HW179216   1.738   5.227   2.372
26322SOL    HW279217   1.643   5.134   2.301
26323SOL     OW79218   7.702   9.084   3.341
26323SOL    HW179219   7.772   9.027   3.374
26323SOL    HW279220   7.715   9.084   3.246
26324SOL     OW79221   6.805   6.357   3.517
26324SOL    HW179222   6.807   6.434   3.574
26324SOL    HW279223   6.805   6.283   3.578
26325SOL     OW79224   9.641  14.788   6.141
26325SOL    HW179225   9.587  14.721   6.098
26325SOL    HW279226   9.620  14.869   6.095
26326SOL     OW79227   3.555   8.894   2.370
26326SOL    HW179228   3.562   8.881   2.275
26326SOL    HW279229   3.631   8.849   2.406
26327SOL     OW79230   8.431   4.086   4.316
26327SOL    HW179231   8.474   4.113   4.396
26327SOL    HW279232   8.479   4.008   4.288
26328SOL     OW79233   9.534  15.093   7.519
26328SOL    HW179234   9.471  15.157   7.487
26328SOL    HW279235   9.617  15.141   7.521
26329SOL     OW79236   8.580   2.360   2.656
26329SOL    HW179237   8.576   2.341   2.750
26329SOL    HW279238   8.585   2.273   2.615
26330SOL     OW79239  11.862  13.196   4.896
26330SOL    HW179240  11.877  13.156   4.810
26330SOL    HW279241  11.918  13.145   4.956
26331SOL     OW79242   9.144   7.244   6.532
26331SOL    HW179243   9.064   7.249   6.479
26331SOL    HW279244   9.173   7.334   6.541
26332SOL     OW79245  11.651  10.549   3.381
26332SOL    HW179246  11.643  10.468   3.431
26332SOL    HW279247  11.616  10.528   3.294
26333SOL     OW79248  14.221  14.285   6.828
26333SOL    HW179249  14.316  14.274   6.831
26333SOL    HW279250  14.208  14.380   6.830
26334SOL     OW79251   9.376  10.772   7.429
26334SOL    HW179252   9.382  10.819   7.512
26334SOL    HW279253   9.294  10.723   7.434
26335SOL     OW79254   8.310   7.951   0.142
26335SOL    HW179255   8.323   7.986   0.054
26335SOL    HW279256   8.396   7.921   0.170
26336SOL     OW79257   2.951   9.979   1.665
26336SOL    HW179258   2.876   9.978   1.725
26336SOL    HW279259   2.920  10.026   1.588
26337SOL     OW79260   9.145   7.647   0.654
26337SOL    HW179261   9.144   7.646   0.558
26337SOL    HW279262   9.092   7.573   0.680
26338SOL     OW79263   9.134   9.317   0.590
26338SOL    HW179264   9.038   9.311   0.597
26338SOL    HW279265   9.161   9.360   0.671
26339SOL     OW79266   8.661  11.512   7.113
26339SOL    HW179267   8.659  11.426   7.156
26339SOL    HW279268   8.573  11.547   7.125
26340SOL     OW79269  12.485   4.777   4.018
26340SOL    HW179270  12.473   4.722   3.941
26340SOL    HW279271  12.461   4.721   4.092
26341SOL     OW79272   8.247   9.713   3.958
26341SOL    HW179273   8.292   9.632   3.932
26341SOL    HW279274   8.304   9.783   3.927
26342SOL     OW79275   9.677  10.154   7.510
26342SOL    HW179276   9.710  10.069   7.538
26342SOL    HW279277   9.744  10.187   7.450
26343SOL     OW79278   2.653   9.322   2.574
26343SOL    HW179279   2.640   9.311   2.480
26343SOL    HW279280   2.625   9.239   2.613
26344SOL     OW79281   1.730   3.755   0.452
26344SOL    HW179282   1.796   3.783   0.388
26344SOL    HW279283   1.763   3.788   0.536
26345SOL     OW79284   9.326  10.780   2.067
26345SOL    HW179285   9.379  10.701   2.051
26345SOL    HW279286   9.328  10.791   2.162
26346SOL     OW79287   6.932   8.622   6.706
26346SOL    HW179288   6.882   8.563   6.761
26346SOL    HW279289   7.015   8.577   6.691
26347SOL     OW79290  11.003   9.036   3.528
26347SOL    HW179291  10.928   9.081   3.567
26347SOL    HW279292  11.030   9.093   3.456
26348SOL     OW79293  10.647   9.309   7.392
26348SOL    HW179294  10.671   9.399   7.369
26348SOL    HW279295  10.561   9.317   7.433
26349SOL     OW79296   3.618   3.691   0.948
26349SOL    HW179297   3.552   3.622   0.942
26349SOL    HW279298   3.701   3.644   0.953
26350SOL     OW79299  14.756   9.465   5.929
26350SOL    HW179300  14.812   9.526   5.882
26350SOL    HW279301  14.782   9.474   6.021
26351SOL     OW79302   9.345   5.958   7.065
26351SOL    HW179303   9.401   6.034   7.047
26351SOL    HW279304   9.378   5.890   7.006
26352SOL     OW79305  10.742   5.030   6.960
26352SOL    HW179306  10.798   5.106   6.975
26352SOL    HW279307  10.762   5.003   6.870
26353SOL     OW79308   6.409   5.827   1.784
26353SOL    HW179309   6.382   5.735   1.782
26353SOL    HW279310   6.398   5.853   1.875
26354SOL     OW79311  10.399   5.514   0.004
26354SOL    HW179312  10.472   5.505   0.066
26354SOL    HW279313  15.813  10.849   7.547
26355SOL     OW79314   6.386  13.820   7.379
26355SOL    HW179315   6.326  13.748   7.359
26355SOL    HW279316   6.371  13.883   7.308
26356SOL     OW79317  13.121   6.185   5.626
26356SOL    HW179318  13.118   6.097   5.663
26356SOL    HW279319  13.170   6.236   5.691
26357SOL     OW79320   6.636  11.320   3.750
26357SOL    HW179321   6.597  11.232   3.752
26357SOL    HW279322   6.596  11.366   3.824
26358SOL     OW79323   1.411   4.865   0.252
26358SOL    HW179324   1.448   4.930   0.311
26358SOL    HW279325   1.481   4.845   0.190
26359SOL     OW79326   7.724  11.641   5.556
26359SOL    HW179327   7.707  11.586   5.633
26359SOL    HW279328   7.712  11.731   5.587
26360SOL     OW79329  12.663  13.594   6.709
26360SOL    HW179330  12.666  13.535   6.784
26360SOL    HW279331  12.642  13.680   6.747
26361SOL     OW79332  10.198  12.472   5.900
26361SOL    HW179333  10.288  12.503   5.905
26361SOL    HW279334  10.206  12.378   5.880
26362SOL     OW79335   5.015  10.568   5.964
26362SOL    HW179336   5.060  10.583   6.047
26362SOL    HW279337   5.070  10.612   5.899
26363SOL     OW79338  12.133  11.774   6.832
26363SOL    HW179339  12.055  11.829   6.833
26363SOL    HW279340  12.174  11.792   6.747
26364SOL     OW79341   9.326  10.490   0.541
26364SOL    HW179342   9.246  10.537   0.516
26364SOL    HW279343   9.367  10.546   0.607
26365SOL     OW79344   5.030   8.910   3.018
26365SOL    HW179345   5.038   8.847   3.090
26365SOL    HW279346   5.116   8.910   2.976
26366SOL     OW79347  12.716   4.146   2.896
26366SOL    HW179348  12.658   4.104   2.833
26366SOL    HW279349  12.673   4.229   2.916
26367SOL     OW79350  11.324  10.638   4.862
26367SOL    HW179351  11.263  10.712   4.861
26367SOL    HW279352  11.400  10.669   4.912
26368SOL     OW79353   5.614   7.457   0.182
26368SOL    HW179354   5.557   7.389   0.148
26368SOL    HW279355   5.673   7.478   0.110
26369SOL     OW79356   9.792   8.212   0.744
26369SOL    HW179357   9.815   8.263   0.665
26369SOL    HW279358   9.726   8.266   0.787
26370SOL     OW79359   1.263   1.503   0.716
26370SOL    HW179360   1.226   1.578   0.763
26370SOL    HW279361   1.295   1.541   0.634
26371SOL     OW79362   3.224   5.232   0.827
26371SOL    HW179363   3.154   5.208   0.887
26371SOL    HW279364   3.218   5.167   0.757
26372SOL     OW79365  10.443  10.102   6.261
26372SOL    HW179366  10.517  10.152   6.226
26372SOL    HW279367  10.483  10.037   6.318
26373SOL     OW79368  10.319   9.128   6.178
26373SOL    HW179369  10.370   9.047   6.184
26373SOL    HW279370  10.229   9.101   6.195
26374SOL     OW79371  12.467  16.007   7.502
26374SOL    HW179372  12.434  16.010   7.412
26374SOL    HW279373  12.462  16.098   7.532
26375SOL     OW79374   9.772   5.884   1.495
26375SOL    HW179375   9.760   5.871   1.401
26375SOL    HW279376   9.804   5.799   1.527
26376SOL     OW79377  11.470   7.725   2.728
26376SOL    HW179378  11.411   7.707   2.655
26376SOL    HW279379  11.538   7.781   2.692
26377SOL     OW79380  10.663   9.259   2.122
26377SOL    HW179381  10.705   9.180   2.089
26377SOL    HW279382  10.624   9.300   2.045
26378SOL     OW79383   4.684   6.857   1.326
26378SOL    HW179384   4.684   6.947   1.360
26378SOL    HW279385   4.591   6.837   1.313
26379SOL     OW79386   5.021   8.172   3.167
26379SOL    HW179387   5.070   8.183   3.249
26379SOL    HW279388   5.049   8.246   3.113
26380SOL     OW79389   7.611   5.476   5.366
26380SOL    HW179390   7.677   5.433   5.313
26380SOL    HW279391   7.554   5.405   5.395
26381SOL     OW79392   4.101  10.182   1.936
26381SOL    HW179393   4.189  10.158   1.965
26381SOL    HW279394   4.046  10.108   1.960
26382SOL     OW79395   3.810   5.865   2.789
26382SOL    HW179396   3.823   5.909   2.873
26382SOL    HW279397   3.716   5.874   2.772
26383SOL     OW79398   6.729   4.615   3.438
26383SOL    HW179399   6.633   4.619   3.440
26383SOL    HW279400   6.756   4.705   3.419
26384SOL     OW79401   4.582   6.303   6.437
26384SOL    HW179402   4.607   6.394   6.451
26384SOL    HW279403  15.282   6.308   6.378
26385SOL     OW79404  11.101   7.691   5.469
26385SOL    HW179405  11.047   7.644   5.406
26385SOL    HW279406  11.038   7.745   5.517
26386SOL     OW79407   3.654   8.519   2.637
26386SOL    HW179408   3.736   8.471   2.626
26386SOL    HW279409   3.589   8.451   2.653
26387SOL     OW79410  12.474   5.879   3.272
26387SOL    HW179411  12.508   5.939   3.339
26387SOL    HW279412  12.484   5.927   3.190
26388SOL     OW79413  10.563   3.126   2.691
26388SOL    HW179414  10.480   3.078   2.702
26388SOL    HW279415  10.560   3.158   2.601
26389SOL     OW79416  11.414  14.099   6.613
26389SOL    HW179417  11.456  14.184   6.602
26389SOL    HW279418  11.483  14.035   6.593
26390SOL     OW79419   7.615  13.012   3.295
26390SOL    HW179420   7.702  13.041   3.268
26390SOL    HW279421   7.630  12.965   3.377
26391SOL     OW79422   9.690   8.090   0.108
26391SOL    HW179423   9.641   8.169   0.089
26391SOL    HW279424   9.668   8.068   0.198
26392SOL     OW79425   6.200   7.574   4.081
26392SOL    HW179426   6.231   7.538   4.164
26392SOL    HW279427   6.180   7.498   4.027
26393SOL     OW79428   7.542   4.545   2.234
26393SOL    HW179429   7.541   4.548   2.138
26393SOL    HW279430   7.613   4.603   2.258
26394SOL     OW79431   8.675   9.298   5.372
26394SOL    HW179432   8.758   9.344   5.361
26394SOL    HW279433   8.621   9.359   5.423
26395SOL     OW79434   6.156  10.086   4.336
26395SOL    HW179435   6.236  10.070   4.287
26395SOL    HW279436   6.166  10.175   4.369
26396SOL     OW79437   9.227   8.825   0.517
26396SOL    HW179438   9.223   8.879   0.596
26396SOL    HW279439   9.320   8.806   0.506
26397SOL     OW79440  13.241   4.770   6.214
26397SOL    HW179441  13.302   4.816   6.271
26397SOL    HW279442  13.297   4.711   6.162
26398SOL     OW79443   4.886   8.323   0.166
26398SOL    HW179444   4.857   8.406   0.205
26398SOL    HW279445   4.981   8.323   0.176
26399SOL     OW79446  10.858  10.501   5.992
26399SOL    HW179447  10.925  10.563   5.962
26399SOL    HW279448  10.775  10.539   5.963
26400SOL     OW79449  12.545  10.177   5.869
26400SOL    HW179450  12.452  10.200   5.864
26400SOL    HW279451  12.591  10.254   5.835
26401SOL     OW79452  12.367  12.722   3.814
26401SOL    HW179453  12.422  12.743   3.890
26401SOL    HW279454  12.277  12.736   3.845
26402SOL     OW79455   5.977  10.031   3.484
26402SOL    HW179456   5.948   9.941   3.503
26402SOL    HW279457   5.902  10.072   3.441
26403SOL     OW79458   8.866  10.221   5.746
26403SOL    HW179459   8.883  10.280   5.820
26403SOL    HW279460   8.778  10.188   5.762
26404SOL     OW79461   0.577   8.447   0.452
26404SOL    HW179462   0.568   8.407   0.365
26404SOL    HW279463   0.652   8.506   0.443
26405SOL     OW79464   4.045   4.348   1.516
26405SOL    HW179465   4.103   4.273   1.502
26405SOL    HW279466   4.100   4.424   1.499
26406SOL     OW79467  10.985   5.070   5.762
26406SOL    HW179468  10.900   5.063   5.806
26406SOL    HW279469  11.045   5.100   5.831
26407SOL     OW79470   1.209   9.338   0.323
26407SOL    HW179471   1.200   9.300   0.236
26407SOL    HW279472   1.176   9.270   0.382
26408SOL     OW79473  13.553   7.965   7.515
26408SOL    HW179474  13.639   7.982   7.554
26408SOL    HW279475  13.552   7.870   7.500
26409SOL     OW79476   3.616   3.878   1.532
26409SOL    HW179477   3.649   3.968   1.530
26409SOL    HW279478   3.601   3.857   1.440
26410SOL     OW79479   5.656   6.968   1.335
26410SOL    HW179480   5.631   6.902   1.271
26410SOL    HW279481   5.657   6.921   1.419
26411SOL     OW79482  10.908   8.086   0.883
26411SOL    HW179483  10.889   8.018   0.949
26411SOL    HW279484  10.901   8.041   0.799
26412SOL     OW79485   4.745   6.997   2.073
26412SOL    HW179486   4.741   7.083   2.030
26412SOL    HW279487   4.796   7.012   2.152
26413SOL     OW79488   8.563   9.887   6.790
26413SOL    HW179489   8.577   9.981   6.789
26413SOL    HW279490   8.560   9.862   6.697
26414SOL     OW79491  14.611   9.697   6.632
26414SOL    HW179492  14.702   9.696   6.601
26414SOL    HW279493  14.600   9.784   6.670
26415SOL     OW79494   1.937   8.894   2.310
26415SOL    HW179495   1.870   8.881   2.377
26415SOL    HW279496   1.998   8.822   2.322
26416SOL     OW79497   2.302  11.399   1.798
26416SOL    HW179498   2.214  11.419   1.766
26416SOL    HW279499   2.288  11.332   1.866
26417SOL     OW79500   2.704  10.142   0.089
26417SOL    HW179501   2.765  10.209   0.121
26417SOL    HW279502   2.670  10.101   0.168
26418SOL     OW79503   4.845   9.627   0.298
26418SOL    HW179504   4.799   9.645   0.379
26418SOL    HW279505   4.804   9.548   0.263
26419SOL     OW79506   2.324   9.371   1.257
26419SOL    HW179507   2.371   9.292   1.285
26419SOL    HW279508   2.383   9.412   1.195
26420SOL     OW79509   7.717   7.034   5.631
26420SOL    HW179510   7.804   6.995   5.631
26420SOL    HW279511   7.727   7.116   5.583
26421SOL     OW79512   5.599  13.276   4.382
26421SOL    HW179513   5.574  13.196   4.427
26421SOL    HW279514   5.673  13.251   4.327
26422SOL     OW79515   8.369  10.805   2.372
26422SOL    HW179516   8.307  10.871   2.340
26422SOL    HW279517   8.343  10.725   2.328
26423SOL     OW79518   8.114   0.896   1.246
26423SOL    HW179519   8.204   0.926   1.234
26423SOL    HW279520   8.064   0.976   1.260
26424SOL     OW79521  10.740   5.980   0.552
26424SOL    HW179522  10.713   6.019   0.469
26424SOL    HW279523  10.673   5.916   0.572
26425SOL     OW79524   9.192   9.785   2.371
26425SOL    HW179525   9.259   9.717   2.370
26425SOL    HW279526   9.146   9.772   2.455
26426SOL     OW79527   8.646   9.389   1.900
26426SOL    HW179528   8.568   9.334   1.905
26426SOL    HW279529   8.627   9.464   1.956
26427SOL     OW79530   7.369   1.257   1.432
26427SOL    HW179531   7.378   1.337   1.380
26427SOL    HW279532   7.276   1.253   1.453
26428SOL     OW79533   3.883  12.054   2.890
26428SOL    HW179534   3.955  12.038   2.951
26428SOL    HW279535   3.866  12.148   2.898
26429SOL     OW79536   3.389   8.896   4.632
26429SOL    HW179537   3.447   8.931   4.700
26429SOL    HW279538   3.389   8.963   4.564
26430SOL     OW79539  14.723   5.399   5.803
26430SOL    HW179540  14.657   5.456   5.765
26430SOL    HW279541  14.781   5.458   5.851
26431SOL     OW79542   6.939   2.852   0.241
26431SOL    HW179543   6.901   2.779   0.193
26431SOL    HW279544   6.962   2.916   0.173
26432SOL     OW79545  10.855  14.043   5.288
26432SOL    HW179546  10.807  14.016   5.209
26432SOL    HW279547  10.853  13.965   5.344
26433SOL     OW79548   1.237  10.774   0.551
26433SOL    HW179549   1.207  10.717   0.622
26433SOL    HW279550   1.300  10.720   0.502
26434SOL     OW79551   9.694   4.331   3.245
26434SOL    HW179552   9.602   4.331   3.222
26434SOL    HW279553   9.704   4.408   3.302
26435SOL     OW79554   4.193   3.352   3.429
26435SOL    HW179555   4.188   3.445   3.452
26435SOL    HW279556   4.162   3.348   3.339
26436SOL     OW79557   7.878  12.796   3.897
26436SOL    HW179558   7.824  12.718   3.883
26436SOL    HW279559   7.815  12.866   3.911
26437SOL     OW79560  11.806  12.687   3.507
26437SOL    HW179561  11.786  12.719   3.594
26437SOL    HW279562  11.757  12.605   3.500
26438SOL     OW79563   5.140  14.122   5.411
26438SOL    HW179564   5.063  14.177   5.430
26438SOL    HW279565   5.150  14.127   5.316
26439SOL     OW79566   7.299   7.593   2.420
26439SOL    HW179567   7.273   7.665   2.363
26439SOL    HW279568   7.311   7.634   2.506
26440SOL     OW79569  10.785   4.872   5.499
26440SOL    HW179570  10.823   4.928   5.431
26440SOL    HW279571  10.732   4.809   5.450
26441SOL     OW79572   3.731  10.604   2.974
26441SOL    HW179573   3.809  10.651   3.005
26441SOL    HW279574   3.691  10.663   2.911
26442SOL     OW79575  10.314   5.267   6.301
26442SOL    HW179576  10.224   5.251   6.273
26442SOL    HW279577  10.366   5.250   6.223
26443SOL     OW79578   8.397  10.941   4.473
26443SOL    HW179579   8.325  11.004   4.466
26443SOL    HW279580   8.355  10.855   4.460
26444SOL     OW79581   8.416  12.864   6.604
26444SOL    HW179582   8.391  12.955   6.622
26444SOL    HW279583   8.454  12.832   6.686
26445SOL     OW79584  11.235   9.496   4.723
26445SOL    HW179585  11.227   9.422   4.784
26445SOL    HW279586  11.174   9.561   4.757
26446SOL     OW79587  11.223   6.869   6.579
26446SOL    HW179588  11.213   6.927   6.503
26446SOL    HW279589  11.184   6.786   6.551
26447SOL     OW79590   5.342   4.039   4.796
26447SOL    HW179591   5.399   4.116   4.795
26447SOL    HW279592   5.344   4.008   4.887
26448SOL     OW79593   4.100   1.995   0.279
26448SOL    HW179594   4.060   2.079   0.302
26448SOL    HW279595   4.171   2.019   0.219
26449SOL     OW79596   9.960   2.098   2.476
26449SOL    HW179597   9.880   2.100   2.528
26449SOL    HW279598  10.008   2.022   2.509
26450SOL     OW79599   9.550  13.377   6.828
26450SOL    HW179600   9.526  13.343   6.914
26450SOL    HW279601   9.591  13.303   6.783
26451SOL     OW79602  10.978  13.082   4.705
26451SOL    HW179603  10.913  13.078   4.776
26451SOL    HW279604  11.060  13.103   4.750
26452SOL     OW79605   6.265  11.968   6.604
26452SOL    HW179606   6.222  11.926   6.679
26452SOL    HW279607   6.358  11.952   6.618
26453SOL     OW79608   5.895   5.306   4.379
26453SOL    HW179609   5.960   5.275   4.315
26453SOL    HW279610   5.884   5.232   4.439
26454SOL     OW79611  12.505  14.768   5.870
26454SOL    HW179612  12.503  14.690   5.926
26454SOL    HW279613  12.439  14.826   5.908
26455SOL     OW79614  11.384   5.237   5.090
26455SOL    HW179615  11.432   5.283   5.022
26455SOL    HW279616  11.337   5.306   5.138
26456SOL     OW79617   6.922  10.930   2.087
26456SOL    HW179618   6.830  10.905   2.093
26456SOL    HW279619   6.961  10.897   2.168
26457SOL     OW79620  13.204   8.014   3.460
26457SOL    HW179621  13.111   8.033   3.465
26457SOL    HW279622   2.440   7.963   3.380
26458SOL     OW79623   7.855   2.047   1.405
26458SOL    HW179624   7.908   1.975   1.370
26458SOL    HW279625   7.838   2.103   1.329
26459SOL     OW79626   6.510   7.919   5.107
26459SOL    HW179627   6.479   7.852   5.167
26459SOL    HW279628   6.430   7.965   5.079
26460SOL     OW79629   5.829   9.501   0.738
26460SOL    HW179630   5.779   9.421   0.754
26460SOL    HW279631   5.901   9.474   0.682
26461SOL     OW79632   4.818   1.488   0.961
26461SOL    HW179633   4.912   1.472   0.949
26461SOL    HW279634   4.792   1.429   1.032
26462SOL     OW79635  10.433   7.615   5.377
26462SOL    HW179636  10.428   7.703   5.340
26462SOL    HW279637  10.398   7.558   5.308
26463SOL     OW79638   6.388   8.990   4.086
26463SOL    HW179639   6.455   9.043   4.129
26463SOL    HW279640   6.369   8.920   4.148
26464SOL     OW79641  13.458   4.750   6.689
26464SOL    HW179642  13.388  15.459   6.686
26464SOL    HW279643  13.511   4.732   6.611
26465SOL     OW79644  10.349   1.567   1.216
26465SOL    HW179645  10.433   1.591   1.178
26465SOL    HW279646  10.291   1.640   1.194
26466SOL     OW79647   5.132   9.705   4.043
26466SOL    HW179648   5.194   9.634   4.025
26466SOL    HW279649   5.166   9.746   4.123
26467SOL     OW79650  12.116   3.868   3.273
26467SOL    HW179651  12.121   3.786   3.321
26467SOL    HW279652  12.200   3.911   3.289
26468SOL     OW79653  12.346  12.087   7.610
26468SOL    HW179654   6.926   6.617   0.027
26468SOL    HW279655  12.372  12.066   7.520
26469SOL     OW79656   7.011   1.869   1.770
26469SOL    HW179657   6.931   1.832   1.806
26469SOL    HW279658   6.982   1.936   1.708
26470SOL     OW79659   2.823   9.577   1.907
26470SOL    HW179660   2.748   9.521   1.926
26470SOL    HW279661   2.895   9.515   1.894
26471SOL     OW79662  10.087  11.822   6.188
26471SOL    HW179663  10.005  11.787   6.223
26471SOL    HW279664  10.136  11.745   6.159
26472SOL     OW79665   2.580   5.384   1.439
26472SOL    HW179666   2.528   5.306   1.425
26472SOL    HW279667   2.531   5.454   1.396
26473SOL     OW79668   0.750   2.551   0.734
26473SOL    HW179669   0.839   2.517   0.749
26473SOL    HW279670   0.714   2.565   0.822
26474SOL     OW79671   9.726   8.298   5.779
26474SOL    HW179672   9.735   8.238   5.704
26474SOL    HW279673   9.656   8.359   5.753
26475SOL     OW79674   7.652   2.892   2.657
26475SOL    HW179675   7.715   2.836   2.611
26475SOL    HW279676   7.675   2.884   2.749
26476SOL     OW79677   6.645  11.120   3.987
26476SOL    HW179678   6.719  11.177   4.010
26476SOL    HW279679   6.673  11.033   4.015
26477SOL     OW79680   7.759   4.077   5.196
26477SOL    HW179681   7.746   3.995   5.148
26477SOL    HW279682   7.704   4.068   5.274
26478SOL     OW79683   5.547  12.093   4.844
26478SOL    HW179684   5.639  12.067   4.852
26478SOL    HW279685   5.548  12.188   4.854
26479SOL     OW79686   9.285  12.239   4.494
26479SOL    HW179687   9.356  12.208   4.550
26479SOL    HW279688   9.315  12.225   4.405
26480SOL     OW79689   5.877   6.271   0.747
26480SOL    HW179690   5.948   6.332   0.766
26480SOL    HW279691   5.821   6.317   0.685
26481SOL     OW79692   7.573   7.057   5.991
26481SOL    HW179693   7.582   7.125   5.925
26481SOL    HW279694   7.494   7.009   5.965
26482SOL     OW79695   5.873   6.513   2.533
26482SOL    HW179696   5.946   6.484   2.587
26482SOL    HW279697   5.912   6.532   2.448
26483SOL     OW79698   8.882   4.771   2.939
26483SOL    HW179699   8.850   4.689   2.900
26483SOL    HW279700   8.822   4.838   2.906
26484SOL     OW79701  14.785  13.208   7.483
26484SOL    HW179702  14.691  13.191   7.486
26484SOL    HW279703  14.826  13.122   7.489
26485SOL     OW79704  11.576   7.703   5.562
26485SOL    HW179705  11.619   7.736   5.641
26485SOL    HW279706  11.502   7.762   5.548
26486SOL     OW79707   5.617   3.463   2.209
26486SOL    HW179708   5.713   3.463   2.211
26486SOL    HW279709   5.592   3.533   2.269
26487SOL     OW79710  10.319   2.095   0.428
26487SOL    HW179711  10.372   2.117   0.351
26487SOL    HW279712  10.231   2.125   0.405
26488SOL     OW79713   4.501  13.513   5.057
26488SOL    HW179714   4.582  13.558   5.083
26488SOL    HW279715   4.494  13.439   5.117
26489SOL     OW79716  12.869   7.063   4.594
26489SOL    HW179717  12.887   7.156   4.608
26489SOL    HW279718  12.955   7.021   4.602
26490SOL     OW79719  11.079   9.916   2.227
26490SOL    HW179720  11.144   9.882   2.288
26490SOL    HW279721  11.106   9.882   2.141
26491SOL     OW79722  11.857  10.204   6.919
26491SOL    HW179723  11.824  10.243   7.001
26491SOL    HW279724  11.787  10.145   6.891
26492SOL     OW79725   7.641   7.516   5.902
26492SOL    HW179726   7.561   7.471   5.928
26492SOL    HW279727   7.630   7.531   5.808
26493SOL     OW79728  10.981  14.324   5.266
26493SOL    HW179729  11.035  14.320   5.345
26493SOL    HW279730  10.966  14.232   5.243
26494SOL     OW79731   5.739  10.657   6.414
26494SOL    HW179732   5.756  10.712   6.491
26494SOL    HW279733   5.749  10.567   6.445
26495SOL     OW79734  11.751   9.821   2.012
26495SOL    HW179735  11.805   9.774   1.949
26495SOL    HW279736  11.670   9.840   1.964
26496SOL     OW79737  11.352   9.895   1.249
26496SOL    HW179738  11.264   9.882   1.214
26496SOL    HW279739  11.410   9.854   1.186
26497SOL     OW79740   8.047  12.779   5.944
26497SOL    HW179741   8.036  12.692   5.905
26497SOL    HW279742   7.962  12.798   5.984
26498SOL     OW79743   4.126   1.936   1.127
26498SOL    HW179744   4.176   1.868   1.171
26498SOL    HW279745   4.066   1.888   1.069
26499SOL     OW79746   1.513   5.179   1.233
26499SOL    HW179747   1.581   5.150   1.172
26499SOL    HW279748   1.435   5.129   1.208
26500SOL     OW79749  13.911  13.884   6.677
26500SOL    HW179750  13.865  13.815   6.725
26500SOL    HW279751  13.994  13.893   6.723
26501SOL     OW79752  10.501  12.051   1.951
26501SOL    HW179753  10.533  12.013   2.033
26501SOL    HW279754  10.441  12.120   1.978
26502SOL     OW79755   9.978   6.469   1.472
26502SOL    HW179756  10.060   6.431   1.440
26502SOL    HW279757   9.915   6.453   1.401
26503SOL     OW79758   7.140   4.320   5.496
26503SOL    HW179759   7.226   4.292   5.526
26503SOL    HW279760   7.133   4.286   5.407
26504SOL     OW79761   7.071   4.989   1.139
26504SOL    HW179762   7.159   5.010   1.170
26504SOL    HW279763   7.013   5.015   1.210
26505SOL     OW79764   9.614   2.861   0.751
26505SOL    HW179765   9.676   2.823   0.813
26505SOL    HW279766   9.582   2.787   0.700
26506SOL     OW79767  13.529  12.442   6.607
26506SOL    HW179768  13.498  12.471   6.693
26506SOL    HW279769  13.617  12.479   6.600
26507SOL     OW79770   8.698  13.356   3.976
26507SOL    HW179771   8.652  13.302   4.040
26507SOL    HW279772   8.753  13.295   3.928
26508SOL     OW79773   9.968   4.621   4.960
26508SOL    HW179774  10.030   4.598   5.029
26508SOL    HW279775   9.956   4.540   4.910
26509SOL     OW79776   2.112   7.829   0.197
26509SOL    HW179777   2.024   7.813   0.230
26509SOL    HW279778   2.104   7.908   0.143
26510SOL     OW79779   7.047  12.972   4.268
26510SOL    HW179780   7.135  12.967   4.306
26510SOL    HW279781   6.989  12.937   4.335
26511SOL     OW79782   4.902   6.667   6.105
26511SOL    HW179783   4.922   6.664   6.012
26511SOL    HW279784   4.941   6.587   6.141
26512SOL     OW79785   9.100  10.556   4.030
26512SOL    HW179786   9.028  10.495   4.047
26512SOL    HW279787   9.178  10.513   4.064
26513SOL     OW79788   8.117   5.335   2.060
26513SOL    HW179789   8.138   5.242   2.071
26513SOL    HW279790   8.022   5.340   2.075
26514SOL     OW79791   8.952   4.989   1.448
26514SOL    HW179792   8.959   5.080   1.474
26514SOL    HW279793   8.867   4.983   1.403
26515SOL     OW79794   1.884   3.163   2.572
26515SOL    HW179795  12.641   3.124   2.658
26515SOL    HW279796   1.827   3.239   2.568
26516SOL     OW79797   3.482  11.149   4.054
26516SOL    HW179798   3.398  11.192   4.035
26516SOL    HW279799   3.503  11.178   4.143
26517SOL     OW79800   9.900   8.954   4.479
26517SOL    HW179801   9.876   8.970   4.388
26517SOL    HW279802   9.849   8.878   4.505
26518SOL     OW79803   6.706   1.208   1.117
26518SOL    HW179804   6.706   1.289   1.066
26518SOL    HW279805   6.653   1.147   1.066
26519SOL     OW79806  10.900   5.816   5.471
26519SOL    HW179807  10.837   5.783   5.535
26519SOL    HW279808  10.986   5.796   5.508
26520SOL     OW79809   6.474  10.580   4.960
26520SOL    HW179810   6.470  10.556   5.052
26520SOL    HW279811   6.566  10.570   4.937
26521SOL     OW79812   3.490   6.464   3.675
26521SOL    HW179813   3.571   6.436   3.718
26521SOL    HW279814   3.510   6.550   3.638
26522SOL     OW79815   9.636   3.659   1.723
26522SOL    HW179816   9.663   3.619   1.640
26522SOL    HW279817   9.641   3.753   1.707
26523SOL     OW79818  13.417  10.318   4.845
26523SOL    HW179819  13.504  10.335   4.808
26523SOL    HW279820  13.434  10.274   4.928
26524SOL     OW79821   9.703   4.754   1.062
26524SOL    HW179822   9.687   4.671   1.108
26524SOL    HW279823   9.680   4.735   0.971
26525SOL     OW79824   6.313  11.594   6.083
26525SOL    HW179825   6.283  11.604   5.993
26525SOL    HW279826   6.387  11.533   6.077
26526SOL     OW79827   7.662   7.024   7.015
26526SOL    HW179828   7.746   6.979   7.026
26526SOL    HW279829   7.644   7.018   6.921
26527SOL     OW79830   9.329  11.174   1.839
26527SOL    HW179831   9.346  11.187   1.932
26527SOL    HW279832   9.416  11.160   1.801
26528SOL     OW79833  10.972  10.927   6.562
26528SOL    HW179834  10.980  10.833   6.547
26528SOL    HW279835  10.934  10.934   6.650
26529SOL     OW79836  13.378  13.429   6.379
26529SOL    HW179837  13.363  13.343   6.417
26529SOL    HW279838  13.295  13.475   6.392
26530SOL     OW79839   9.463   3.273   4.541
26530SOL    HW179840   9.491  14.011   4.625
26530SOL    HW279841   9.387   3.326   4.562
26531SOL     OW79842  10.160   3.698   4.276
26531SOL    HW179843  10.206   3.625   4.236
26531SOL    HW279844  10.068   3.677   4.267
26532SOL     OW79845   8.968  12.295   5.923
26532SOL    HW179846   8.929  12.308   6.009
26532SOL    HW279847   8.920  12.355   5.865
26533SOL     OW79848  13.906   8.896   7.558
26533SOL    HW179849  13.997   8.877   7.535
26533SOL    HW279850  13.873   8.951   7.487
26534SOL     OW79851  12.006   5.800   5.855
26534SOL    HW179852  11.920   5.760   5.870
26534SOL    HW279853  11.987   5.892   5.836
26535SOL     OW79854   5.082   6.780   4.977
26535SOL    HW179855   5.036   6.844   5.032
26535SOL    HW279856   5.133   6.834   4.916
26536SOL     OW79857   9.847   4.515   5.276
26536SOL    HW179858   9.862   4.607   5.295
26536SOL    HW279859   9.934   4.475   5.280
26537SOL     OW79860   9.771  14.226   6.138
26537SOL    HW179861   9.761  14.166   6.212
26537SOL    HW279862   9.785  14.169   6.063
26538SOL     OW79863   6.750   1.610   1.922
26538SOL    HW179864   6.737   1.545   1.852
26538SOL    HW279865   6.713   1.691   1.887
26539SOL     OW79866  10.668   9.591   3.871
26539SOL    HW179867  10.762   9.585   3.886
26539SOL    HW279868  10.640   9.501   3.856
26540SOL     OW79869  10.179  11.121   4.357
26540SOL    HW179870  10.152  11.043   4.405
26540SOL    HW279871  10.099  11.154   4.316
26541SOL     OW79872  14.502  14.643   5.660
26541SOL    HW179873  14.436  14.601   5.604
26541SOL    HW279874  14.495  14.598   5.744
26542SOL     OW79875   8.680   9.996   4.221
26542SOL    HW179876   8.740   9.984   4.148
26542SOL    HW279877   8.691  10.087   4.246
26543SOL     OW79878   8.371   6.019   3.908
26543SOL    HW179879   8.278   6.029   3.929
26543SOL    HW279880   8.373   5.957   3.835
26544SOL     OW79881  14.021   5.349   5.635
26544SOL    HW179882  14.006   5.326   5.544
26544SOL    HW279883  14.053   5.439   5.633
26545SOL     OW79884  11.098  15.370   7.596
26545SOL    HW179885  11.174  15.323   7.564
26545SOL    HW279886  11.083  15.439   7.531
26546SOL     OW79887   9.637   9.071   1.376
26546SOL    HW179888   9.558   9.124   1.372
26546SOL    HW279889   9.616   8.993   1.324
26547SOL     OW79890   5.077  13.197   6.794
26547SOL    HW179891   5.104  13.148   6.871
26547SOL    HW279892   5.051  13.129   6.731
26548SOL     OW79893   6.271  10.767   5.578
26548SOL    HW179894   6.322  10.686   5.584
26548SOL    HW279895   6.313  10.826   5.640
26549SOL     OW79896   8.310  11.857   4.200
26549SOL    HW179897   8.217  11.848   4.219
26549SOL    HW279898   8.334  11.776   4.155
26550SOL     OW79899   9.717   8.092   4.867
26550SOL    HW179900   9.766   8.055   4.794
26550SOL    HW279901   9.780   8.150   4.910
26551SOL     OW79902  11.933   2.346   3.152
26551SOL    HW179903  11.947   2.409   3.081
26551SOL    HW279904  11.917   2.263   3.108
26552SOL     OW79905   4.869  10.830   2.499
26552SOL    HW179906   4.947  10.845   2.552
26552SOL    HW279907   4.811  10.780   2.556
26553SOL     OW79908   3.018   1.773   0.648
26553SOL    HW179909   3.023   1.865   0.620
26553SOL    HW279910   2.952   1.773   0.717
26554SOL     OW79911  11.899   9.599   2.852
26554SOL    HW179912  11.973   9.660   2.849
26554SOL    HW279913  11.871   9.592   2.760
26555SOL     OW79914   7.693   3.007   3.424
26555SOL    HW179915   7.714   3.091   3.464
26555SOL    HW279916   7.766   2.990   3.364
26556SOL     OW79917  11.620   4.729   1.907
26556SOL    HW179918  11.570   4.658   1.869
26556SOL    HW279919  11.604   4.804   1.849
26557SOL     OW79920   6.050  10.405   2.948
26557SOL    HW179921   5.995  10.326   2.951
26557SOL    HW279922   5.990  10.477   2.964
26558SOL     OW79923   4.177   9.417   3.108
26558SOL    HW179924   4.106   9.472   3.141
26558SOL    HW279925   4.257   9.462   3.135
26559SOL     OW79926   2.548   8.436   0.860
26559SOL    HW179927   2.481   8.388   0.811
26559SOL    HW279928   2.519   8.527   0.858
26560SOL     OW79929  10.055  13.263   7.032
26560SOL    HW179930  10.063  13.241   7.125
26560SOL    HW279931  10.050  13.179   6.987
26561SOL     OW79932   4.915   6.467   4.362
26561SOL    HW179933   4.927   6.529   4.289
26561SOL    HW279934   4.894   6.523   4.437
26562SOL     OW79935   6.948   6.867   6.365
26562SOL    HW179936   6.950   6.949   6.414
26562SOL    HW279937   6.971   6.800   6.430
26563SOL     OW79938  15.119   5.950   6.332
26563SOL    HW179939  15.062   5.896   6.277
26563SOL    HW279940  15.089   6.040   6.317
26564SOL     OW79941   7.140   9.796   7.548
26564SOL    HW179942   1.737   4.423   0.022
26564SOL    HW279943   7.068   9.740   7.519
26565SOL     OW79944   5.451   8.207   6.485
26565SOL    HW179945   5.398   8.179   6.410
26565SOL    HW279946   5.493   8.288   6.457
26566SOL     OW79947   6.354   6.513   7.238
26566SOL    HW179948   6.305   6.454   7.294
26566SOL    HW279949   6.315   6.599   7.254
26567SOL     OW79950  14.170   8.764   6.546
26567SOL    HW179951  14.184   8.857   6.559
26567SOL    HW279952  14.114   8.758   6.469
26568SOL     OW79953   7.148   4.289   4.790
26568SOL    HW179954   7.159   4.209   4.841
26568SOL    HW279955   7.108   4.352   4.850
26569SOL     OW79956   5.448  13.104   4.990
26569SOL    HW179957   5.430  13.195   5.014
26569SOL    HW279958   5.375  13.080   4.933
26570SOL     OW79959   3.122  13.175   4.392
26570SOL    HW179960  13.906  13.107   4.458
26570SOL    HW279961  13.823  13.229   4.422
26571SOL     OW79962   6.892  11.664   7.557
26571SOL    HW179963   6.985  11.678   7.575
26571SOL    HW279964   6.866  11.595   7.617
26572SOL     OW79965   8.435  12.499   4.024
26572SOL    HW179966   8.429  12.583   3.978
26572SOL    HW279967   8.500  12.449   3.974
26573SOL     OW79968   9.235   9.271   0.132
26573SOL    HW179969   9.272   9.220   0.204
26573SOL    HW279970   9.284   9.354   0.134
26574SOL     OW79971   2.839   8.133   0.422
26574SOL    HW179972   2.773   8.161   0.485
26574SOL    HW279973   2.914   8.191   0.438
26575SOL     OW79974   5.098   2.455   2.712
26575SOL    HW179975   5.107   2.521   2.644
26575SOL    HW279976   5.004   2.440   2.719
26576SOL     OW79977  12.648   2.704   2.697
26576SOL    HW179978   1.949   2.655   2.729
26576SOL    HW279979  12.648   2.784   2.749
26577SOL     OW79980  10.924   9.223   2.378
26577SOL    HW179981  11.013   9.257   2.386
26577SOL    HW279982  10.910   9.173   2.459
26578SOL     OW79983   2.997  10.096   2.946
26578SOL    HW179984   3.062  10.027   2.936
26578SOL    HW279985   3.000  10.118   3.039
26579SOL     OW79986   8.817   8.825   0.820
26579SOL    HW179987   8.867   8.833   0.739
26579SOL    HW279988   8.739   8.776   0.795
26580SOL     OW79989  10.860   8.520   3.698
26580SOL    HW179990  10.781   8.573   3.705
26580SOL    HW279991  10.922   8.576   3.652
26581SOL     OW79992  13.147  10.052   5.561
26581SOL    HW179993  13.119  10.142   5.540
26581SOL    HW279994  13.109  10.035   5.647
26582SOL     OW79995  11.947   8.188   6.258
26582SOL    HW179996  11.953   8.131   6.182
26582SOL    HW279997  11.890   8.141   6.319
26583SOL     OW79998   1.233   2.429   0.957
26583SOL    HW179999   1.287   2.491   1.007
26583SOL    HW280000   1.210   2.361   1.020
26584SOL     OW80001  12.700  11.180   2.816
26584SOL    HW180002  12.734  11.091   2.823
26584SOL    HW280003  12.773  11.236   2.843
26585SOL     OW80004   9.981   8.207   4.917
26585SOL    HW180005   9.969   8.301   4.933
26585SOL    HW280006  10.003   8.202   4.824
26586SOL     OW80007   6.032   4.684   3.426
26586SOL    HW180008   6.103   4.733   3.384
26586SOL    HW280009   5.952   4.723   3.392
26587SOL     OW80010   5.344   9.962   0.158
26587SOL    HW180011   5.412   9.937   0.221
26587SOL    HW280012   5.270   9.990   0.212
26588SOL     OW80013   5.638  10.368   4.297
26588SOL    HW180014   5.562  10.362   4.238
26588SOL    HW280015   5.689  10.442   4.263
26589SOL     OW80016   3.778  12.332   4.929
26589SOL    HW180017   3.715  12.398   4.900
26589SOL    HW280018   3.810  12.292   4.849
26590SOL     OW80019   6.311  13.894   5.392
26590SOL    HW180020   6.364  13.892   5.311
26590SOL    HW280021   6.243  13.828   5.378
26591SOL     OW80022   3.166   4.226   1.098
26591SOL    HW180023   3.245   4.174   1.082
26591SOL    HW280024   3.123   4.183   1.171
26592SOL     OW80025   9.048  12.961   7.109
26592SOL    HW180026   8.978  12.969   7.045
26592SOL    HW280027   9.120  13.013   7.073
26593SOL     OW80028   9.000  12.063   3.888
26593SOL    HW180029   8.977  12.023   3.971
26593SOL    HW280030   8.978  11.998   3.822
26594SOL     OW80031  10.204   8.504   5.350
26594SOL    HW180032  10.119   8.496   5.307
26594SOL    HW280033  10.195   8.455   5.431
26595SOL     OW80034   5.128   8.730   6.619
26595SOL    HW180035   5.067   8.768   6.556
26595SOL    HW280036   5.191   8.799   6.636
26596SOL     OW80037   3.631   5.724   3.526
26596SOL    HW180038   3.655   5.633   3.541
26596SOL    HW280039   3.538   5.721   3.502
26597SOL     OW80040   8.664   2.652   2.784
26597SOL    HW180041   8.676   2.702   2.703
26597SOL    HW280042   8.726   2.579   2.776
26598SOL     OW80043  11.196  15.897   7.498
26598SOL    HW180044  11.159  15.985   7.504
26598SOL    HW280045  11.284  15.910   7.462
26599SOL     OW80046   4.040   7.168   5.347
26599SOL    HW180047   4.030   7.076   5.322
26599SOL    HW280048   4.075   7.165   5.436
26600SOL     OW80049  10.136   6.811   2.803
26600SOL    HW180050  10.209   6.749   2.808
26600SOL    HW280051  10.177   6.895   2.780
26601SOL     OW80052   1.911   3.598   2.073
26601SOL    HW180053   1.958   3.543   2.011
26601SOL    HW280054   1.819   3.574   2.064
26602SOL     OW80055   5.397   5.647   1.780
26602SOL    HW180056   5.379   5.638   1.873
26602SOL    HW280057   5.335   5.588   1.737
26603SOL     OW80058   5.439  14.165   5.623
26603SOL    HW180059   5.428  14.146   5.530
26603SOL    HW280060   5.530  14.192   5.631
26604SOL     OW80061   4.670  13.518   4.492
26604SOL    HW180062   4.632  13.516   4.580
26604SOL    HW280063   4.705  13.607   4.483
26605SOL     OW80064   2.395  10.157   1.479
26605SOL    HW180065   2.411  10.073   1.435
26605SOL    HW280066   2.396  10.221   1.408
26606SOL     OW80067   7.472  11.373   2.269
26606SOL    HW180068   7.391  11.419   2.248
26606SOL    HW280069   7.525  11.437   2.316
26607SOL     OW80070   2.008   0.940   0.440
26607SOL    HW180071   2.022   1.006   0.508
26607SOL    HW280072   1.935   0.887   0.472
26608SOL     OW80073   4.541  11.177   4.458
26608SOL    HW180074   4.547  11.114   4.385
26608SOL    HW280075   4.632  11.200   4.476
26609SOL     OW80076   4.528   8.864   4.871
26609SOL    HW180077   4.517   8.812   4.792
26609SOL    HW280078   4.605   8.826   4.914
26610SOL     OW80079   6.384   7.229   4.438
26610SOL    HW180080   6.356   7.147   4.397
26610SOL    HW280081   6.345   7.226   4.525
26611SOL     OW80082   9.241   4.335   6.007
26611SOL    HW180083   9.308   4.319   6.073
26611SOL    HW280084   9.274   4.291   5.928
26612SOL     OW80085  10.564   3.947   3.550
26612SOL    HW180086  10.471   3.968   3.544
26612SOL    HW280087  10.568   3.852   3.541
26613SOL     OW80088   6.346   9.190   0.178
26613SOL    HW180089   6.253   9.212   0.171
26613SOL    HW280090   6.368   9.211   0.269
26614SOL     OW80091   9.083   9.291   2.252
26614SOL    HW180092   9.069   9.315   2.344
26614SOL    HW280093   9.131   9.364   2.215
26615SOL     OW80094   8.037  10.940   6.628
26615SOL    HW180095   7.944  10.965   6.620
26615SOL    HW280096   8.037  10.865   6.687
26616SOL     OW80097   5.662   4.464   1.612
26616SOL    HW180098   5.750   4.502   1.613
26616SOL    HW280099   5.662   4.399   1.682
26617SOL     OW80100  13.058  13.359   4.492
26617SOL    HW180101  12.970  13.338   4.460
26617SOL    HW280102  13.063  13.455   4.488
26618SOL     OW80103  13.649  11.053   4.736
26618SOL    HW180104  13.743  11.044   4.754
26618SOL    HW280105  13.645  11.077   4.643
26619SOL     OW80106   9.894   9.440   6.468
26619SOL    HW180107   9.949   9.499   6.520
26619SOL    HW280108   9.948   9.363   6.454
26620SOL     OW80109   4.662  14.506   5.922
26620SOL    HW180110   4.730  14.515   5.855
26620SOL    HW280111   4.623  14.594   5.927
26621SOL     OW80112   3.518   8.004   3.179
26621SOL    HW180113   3.585   8.070   3.196
26621SOL    HW280114   3.508   7.958   3.262
26622SOL     OW80115   3.028   7.226   2.418
26622SOL    HW180116   2.959   7.180   2.370
26622SOL    HW280117   2.981   7.285   2.477
26623SOL     OW80118   1.885   1.747   1.415
26623SOL    HW180119   1.862   1.654   1.414
26623SOL    HW280120   1.955   1.756   1.351
26624SOL     OW80121   4.900   2.402   0.263
26624SOL    HW180122   4.805   2.396   0.270
26624SOL    HW280123   4.917   2.495   0.244
26625SOL     OW80124   2.113   6.698   0.718
26625SOL    HW180125   2.124   6.793   0.709
26625SOL    HW280126   2.036   6.677   0.666
26626SOL     OW80127   4.970   1.821   1.429
26626SOL    HW180128   4.919   1.897   1.458
26626SOL    HW280129   4.948   1.811   1.337
26627SOL     OW80130   9.545   6.131   3.994
26627SOL    HW180131   9.531   6.058   4.054
26627SOL    HW280132   9.640   6.142   3.989
26628SOL     OW80133  13.548   5.501   4.856
26628SOL    HW180134  13.604   5.460   4.921
26628SOL    HW280135  13.503   5.571   4.903
26629SOL     OW80136   9.294   6.382   7.176
26629SOL    HW180137   9.285   6.331   7.257
26629SOL    HW280138   9.337   6.323   7.115
26630SOL     OW80139   9.752  12.457   2.406
26630SOL    HW180140   9.692   1.710   2.338
26630SOL    HW280141   9.829   1.738   2.394
26631SOL     OW80142   6.350   5.208   1.313
26631SOL    HW180143   6.392   5.233   1.396
26631SOL    HW280144   6.395   5.127   1.288
26632SOL     OW80145   9.516   9.048   2.311
26632SOL    HW180146   9.583   9.102   2.269
26632SOL    HW280147   9.434   9.092   2.292
26633SOL     OW80148   2.523   7.528   0.076
26633SOL    HW180149   2.462   7.508   0.147
26633SOL    HW280150   2.605   7.548   0.119
26634SOL     OW80151  13.027   6.674   7.209
26634SOL    HW180152  12.962   6.706   7.147
26634SOL    HW280153  13.108   6.665   7.158
26635SOL     OW80154  13.466  13.157   6.641
26635SOL    HW180155  13.471  13.133   6.548
26635SOL    HW280156  13.418  13.084   6.682
26636SOL     OW80157  10.714   4.668   6.291
26636SOL    HW180158  10.618   4.672   6.287
26636SOL    HW280159  10.739   4.636   6.205
26637SOL     OW80160  15.743   6.965   7.460
26637SOL    HW180161  15.827   6.947   7.417
26637SOL    HW280162  15.706   6.879   7.478
26638SOL     OW80163   9.832   3.558   4.595
26638SOL    HW180164   9.884   3.496   4.647
26638SOL    HW280165   9.813   3.630   4.654
26639SOL     OW80166  11.438   4.329   1.590
26639SOL    HW180167  11.528   4.361   1.596
26639SOL    HW280168  11.443   4.252   1.533
26640SOL     OW80169   5.893   7.651   1.653
26640SOL    HW180170   5.933   7.643   1.740
26640SOL    HW280171   5.963   7.628   1.592
26641SOL     OW80172   3.877  11.339   3.237
26641SOL    HW180173   3.823  11.351   3.315
26641SOL    HW280174   3.823  11.285   3.178
26642SOL     OW80175   6.102  11.106   5.340
26642SOL    HW180176   6.082  11.076   5.252
26642SOL    HW280177   6.052  11.047   5.397
26643SOL     OW80178   7.575   8.549   6.386
26643SOL    HW180179   7.615   8.562   6.472
26643SOL    HW280180   7.639   8.584   6.324
26644SOL     OW80181   5.197  15.270   6.963
26644SOL    HW180182   5.198  15.205   6.893
26644SOL    HW280183   5.269  15.329   6.941
26645SOL     OW80184  11.567   9.377   2.103
26645SOL    HW180185  11.540   9.308   2.042
26645SOL    HW280186  11.485   9.417   2.132
26646SOL     OW80187   3.007   2.297   0.778
26646SOL    HW180188   3.061   2.348   0.838
26646SOL    HW280189   2.984   2.359   0.708
26647SOL     OW80190   2.934   4.440   2.073
26647SOL    HW180191   2.867   4.505   2.093
26647SOL    HW280192   2.967   4.465   1.987
26648SOL     OW80193   8.991   4.615   1.710
26648SOL    HW180194   9.049   4.666   1.766
26648SOL    HW280195   9.050   4.569   1.650
26649SOL     OW80196   4.925  11.815   3.796
26649SOL    HW180197   4.951  11.840   3.885
26649SOL    HW280198   4.884  11.729   3.806
26650SOL     OW80199   3.864   3.249   0.858
26650SOL    HW180200   3.835   3.336   0.884
26650SOL    HW280201   3.783   3.198   0.851
26651SOL     OW80202   1.622   5.555   1.405
26651SOL    HW180203   1.541   5.572   1.357
26651SOL    HW280204   1.692   5.578   1.343
26652SOL     OW80205   2.628   1.249   0.348
26652SOL    HW180206   2.709   1.298   0.337
26652SOL    HW280207   2.617   1.201   0.266
26653SOL     OW80208   6.545   9.836   7.275
26653SOL    HW180209   6.538   9.895   7.350
26653SOL    HW280210   6.618   9.871   7.224
26654SOL     OW80211  14.176   9.607   7.384
26654SOL    HW180212  14.114   9.680   7.386
26654SOL    HW280213  14.160   9.565   7.300
26655SOL     OW80214   7.442   8.158   1.630
26655SOL    HW180215   7.465   8.251   1.621
26655SOL    HW280216   7.352   8.153   1.597
26656SOL     OW80217  11.740   6.945   4.791
26656SOL    HW180218  11.826   6.986   4.807
26656SOL    HW280219  11.677   7.017   4.802
26657SOL     OW80220  10.026   5.432   6.296
26657SOL    HW180221  10.107   5.409   6.341
26657SOL    HW280222   9.988   5.502   6.349
26658SOL     OW80223   3.486   6.736   1.021
26658SOL    HW180224   3.573   6.695   1.015
26658SOL    HW280225   3.499   6.811   1.079
26659SOL     OW80226   3.182  12.564   3.805
26659SOL    HW180227   3.182  12.660   3.800
26659SOL    HW280228   3.261  12.538   3.758
26660SOL     OW80229   3.389   8.874   1.963
26660SOL    HW180230   3.332   8.920   2.024
26660SOL    HW280231   3.463   8.845   2.016
26661SOL     OW80232   8.409  14.464   6.627
26661SOL    HW180233   8.360  14.417   6.695
26661SOL    HW280234   8.390  14.557   6.643
26662SOL     OW80235  12.342   7.501   6.969
26662SOL    HW180236  12.405   7.513   7.040
26662SOL    HW280237  12.307   7.589   6.953
26663SOL     OW80238   1.989   5.732   0.085
26663SOL    HW180239   1.931   5.809   0.093
26663SOL    HW280240   2.054   5.745   0.154
26664SOL     OW80241  10.328   2.868   1.983
26664SOL    HW180242  10.352   2.815   1.907
26664SOL    HW280243  10.411   2.887   2.027
26665SOL     OW80244  13.146  12.164   3.545
26665SOL    HW180245  13.056  12.142   3.570
26665SOL    HW280246  13.162  12.248   3.586
26666SOL     OW80247   2.387   8.716   2.308
26666SOL    HW180248   2.371   8.629   2.270
26666SOL    HW280249   2.466   8.747   2.263
26667SOL     OW80250   4.908   6.753   2.037
26667SOL    HW180251   4.846   6.696   1.990
26667SOL    HW280252   4.864   6.837   2.042
26668SOL     OW80253   4.789   8.240   5.526
26668SOL    HW180254   4.842   8.203   5.456
26668SOL    HW280255   4.812   8.333   5.527
26669SOL     OW80256  13.749   7.041   7.153
26669SOL    HW180257  13.786   7.021   7.239
26669SOL    HW280258  13.659   7.070   7.172
26670SOL     OW80259   6.897  11.122   7.085
26670SOL    HW180260   6.899  11.091   6.995
26670SOL    HW280261   6.907  11.217   7.078
26671SOL     OW80262  14.849  13.250   5.790
26671SOL    HW180263  14.845  13.271   5.884
26671SOL    HW280264  14.787  13.178   5.779
26672SOL     OW80265   2.224  10.077   1.066
26672SOL    HW180266   2.231  10.062   0.971
26672SOL    HW280267   2.258   9.996   1.105
26673SOL     OW80268   4.097   5.355   1.050
26673SOL    HW180269   4.123   5.428   1.107
26673SOL    HW280270   4.033   5.306   1.101
26674SOL     OW80271  12.945   8.121   4.649
26674SOL    HW180272  13.025   8.140   4.698
26674SOL    HW280273  12.904   8.050   4.697
26675SOL     OW80274  10.984   5.171   4.744
26675SOL    HW180275  10.973   5.207   4.831
26675SOL    HW280276  11.022   5.084   4.759
26676SOL     OW80277   5.432   6.397   5.964
26676SOL    HW180278   5.404   6.462   6.029
26676SOL    HW280279   5.520   6.425   5.938
26677SOL     OW80280   3.346   4.831   4.708
26677SOL    HW180281   3.336   4.794   4.621
26677SOL    HW280282  14.101   4.758   4.767
26678SOL     OW80283   6.329  13.296   5.236
26678SOL    HW180284   6.238  13.314   5.213
26678SOL    HW280285   6.363  13.379   5.268
26679SOL     OW80286   2.483   7.545   2.720
26679SOL    HW180287   2.457   7.488   2.793
26679SOL    HW280288   2.438   7.627   2.738
26680SOL     OW80289  12.683  13.422   6.948
26680SOL    HW180290  12.674  13.476   7.026
26680SOL    HW280291  12.669  13.332   6.979
26681SOL     OW80292   7.600   4.258   1.091
26681SOL    HW180293   7.506   4.245   1.098
26681SOL    HW280294   7.619   4.244   0.998
26682SOL     OW80295   2.553   5.087   2.996
26682SOL    HW180296   2.482   5.035   3.031
26682SOL    HW280297   2.629   5.064   3.049
26683SOL     OW80298   5.330  10.980   2.631
26683SOL    HW180299   5.282  11.062   2.620
26683SOL    HW280300   5.270  10.912   2.599
26684SOL     OW80301  12.181   4.000   3.058
26684SOL    HW180302  12.226   4.084   3.069
26684SOL    HW280303  12.129   3.991   3.138
26685SOL     OW80304   4.909  13.154   4.700
26685SOL    HW180305   4.862  13.200   4.631
26685SOL    HW280306   4.934  13.070   4.660
26686SOL     OW80307   8.069   6.689   4.198
26686SOL    HW180308   8.111   6.770   4.225
26686SOL    HW280309   8.128   6.620   4.228
26687SOL     OW80310   7.829   5.612   0.086
26687SOL    HW180311   7.801   5.524   0.060
26687SOL    HW280312   7.749   5.664   0.089
26688SOL     OW80313  11.008   1.576   1.374
26688SOL    HW180314  11.018   1.490   1.414
26688SOL    HW280315  11.037   1.637   1.442
26689SOL     OW80316  14.079   5.451   6.838
26689SOL    HW180317  14.044   5.366   6.813
26689SOL    HW280318  14.135   5.433   6.914
26690SOL     OW80319   9.920   1.449   1.305
26690SOL    HW180320   9.958   1.376   1.258
26690SOL    HW280321   9.995   1.504   1.330
26691SOL     OW80322  11.556   9.065   3.087
26691SOL    HW180323  11.603   9.149   3.086
26691SOL    HW280324  11.581   9.023   3.005
26692SOL     OW80325  10.632  10.353   6.904
26692SOL    HW180326  10.563  10.301   6.945
26692SOL    HW280327  10.690  10.378   6.976
26693SOL     OW80328   9.892   2.507   1.401
26693SOL    HW180329   9.802   2.514   1.369
26693SOL    HW280330   9.907   2.587   1.450
26694SOL     OW80331   8.238  10.635   3.928
26694SOL    HW180332   8.276  10.615   4.014
26694SOL    HW280333   8.149  10.664   3.947
26695SOL     OW80334  12.366   4.132   5.305
26695SOL    HW180335  12.392   4.117   5.215
26695SOL    HW280336  12.270   4.124   5.304
26696SOL     OW80337   9.781  11.224   2.060
26696SOL    HW180338   9.785  11.170   2.138
26696SOL    HW280339   9.864  11.271   2.058
26697SOL     OW80340  14.788  11.990   7.463
26697SOL    HW180341  14.779  11.943   7.546
26697SOL    HW280342  14.874  11.965   7.430
26698SOL     OW80343   6.002   0.815   0.290
26698SOL    HW180344   5.929   0.860   0.249
26698SOL    HW280345   6.033   0.875   0.358
26699SOL     OW80346  12.963   6.022   3.423
26699SOL    HW180347  12.915   6.044   3.343
26699SOL    HW280348  12.994   5.933   3.408
26700SOL     OW80349   4.789  12.794   5.085
26700SOL    HW180350   4.764  12.795   5.177
26700SOL    HW280351   4.752  12.713   5.051
26701SOL     OW80352   2.107   2.953   0.287
26701SOL    HW180353   2.187   2.952   0.340
26701SOL    HW280354   2.040   2.987   0.347
26702SOL     OW80355   6.033   6.251   7.402
26702SOL    HW180356   6.108   6.260   7.461
26702SOL    HW280357   6.018   6.340   7.370
26703SOL     OW80358   9.276   4.759   3.374
26703SOL    HW180359   9.183   4.744   3.355
26703SOL    HW280360   9.322   4.698   3.316
26704SOL     OW80361  12.390  11.735   7.321
26704SOL    HW180362  12.306  11.707   7.355
26704SOL    HW280363  12.377  11.742   7.226
26705SOL     OW80364   6.355  12.604   6.088
26705SOL    HW180365   6.309  12.639   6.164
26705SOL    HW280366   6.425  12.667   6.071
26706SOL     OW80367  10.647  10.755   5.950
26706SOL    HW180368  10.607  10.698   5.885
26706SOL    HW280369  10.585  10.757   6.022
26707SOL     OW80370  11.552   8.688   6.025
26707SOL    HW180371  11.550   8.725   6.113
26707SOL    HW280372  11.528   8.596   6.038
26708SOL     OW80373   5.322  10.131   3.086
26708SOL    HW180374   5.253  10.082   3.131
26708SOL    HW280375   5.306  10.222   3.109
26709SOL     OW80376   9.492  12.081   4.655
26709SOL    HW180377   9.501  12.074   4.751
26709SOL    HW280378   9.570  12.130   4.628
26710SOL     OW80379   7.302   7.719   6.908
26710SOL    HW180380   7.392   7.726   6.874
26710SOL    HW280381   7.262   7.803   6.886
26711SOL     OW80382   9.236   7.517   3.986
26711SOL    HW180383   9.298   7.504   4.059
26711SOL    HW280384   9.277   7.472   3.912
26712SOL     OW80385   9.112  13.783   5.762
26712SOL    HW180386   9.039  13.793   5.823
26712SOL    HW280387   9.187  13.819   5.809
26713SOL     OW80388  13.969  14.575   5.449
26713SOL    HW180389  14.028  14.532   5.386
26713SOL    HW280390  14.001  14.547   5.535
26714SOL     OW80391  10.501   4.724   4.133
26714SOL    HW180392  10.578   4.765   4.171
26714SOL    HW280393  10.492   4.766   4.047
26715SOL     OW80394  13.623   4.989   4.650
26715SOL    HW180395  13.531   4.999   4.672
26715SOL    HW280396  13.626   4.912   4.593
26716SOL     OW80397   4.442   4.069   1.343
26716SOL    HW180398   4.414   3.985   1.307
26716SOL    HW280399   4.535   4.057   1.362
26717SOL     OW80400  12.535  13.123   5.128
26717SOL    HW180401  12.628  13.147   5.131
26717SOL    HW280402  12.521  13.092   5.038
26718SOL     OW80403   7.088   9.541   4.284
26718SOL    HW180404   7.011   9.567   4.235
26718SOL    HW280405   7.073   9.449   4.307
26719SOL     OW80406   8.230  12.989   4.349
26719SOL    HW180407   8.281  13.025   4.422
26719SOL    HW280408   8.294  12.976   4.279
26720SOL     OW80409  10.674  13.517   4.732
26720SOL    HW180410  10.632  13.431   4.736
26720SOL    HW280411  10.759  13.501   4.691
26721SOL     OW80412   4.540   7.141   0.616
26721SOL    HW180413   4.461   7.144   0.562
26721SOL    HW280414   4.592   7.070   0.577
26722SOL     OW80415   6.502   9.724   0.848
26722SOL    HW180416   6.530   9.662   0.914
26722SOL    HW280417   6.407   9.728   0.857
26723SOL     OW80418   6.927   0.988   1.172
26723SOL    HW180419   7.021   1.000   1.189
26723SOL    HW280420   6.891   1.076   1.179
26724SOL     OW80421   7.142   3.764   1.695
26724SOL    HW180422   7.092   3.715   1.759
26724SOL    HW280423   7.227   3.720   1.691
26725SOL     OW80424  10.147   9.615   5.852
26725SOL    HW180425  10.085   9.638   5.921
26725SOL    HW280426  10.233   9.628   5.893
26726SOL     OW80427   6.058   1.330   0.326
26726SOL    HW180428   6.151   1.311   0.338
26726SOL    HW280429   6.049   1.421   0.354
26727SOL     OW80430   1.344   2.894   0.083
26727SOL    HW180431   1.311   2.806   0.097
26727SOL    HW280432   6.754   8.284   7.609
26728SOL     OW80433  14.386   5.373   7.233
26728SOL    HW180434  14.345   5.332   7.157
26728SOL    HW280435  14.369   5.467   7.221
26729SOL     OW80436   7.123  11.295   3.640
26729SOL    HW180437   7.046  11.255   3.680
26729SOL    HW280438   7.169  11.222   3.598
26730SOL     OW80439  11.803  12.955   3.455
26730SOL    HW180440  11.851  13.036   3.438
26730SOL    HW280441  11.850  12.888   3.405
26731SOL     OW80442   1.089   1.406   1.146
26731SOL    HW180443   1.144   1.485   1.147
26731SOL    HW280444   1.148   1.336   1.175
26732SOL     OW80445   8.069   5.283   3.003
26732SOL    HW180446   8.045   5.302   3.094
26732SOL    HW280447   8.104   5.366   2.970
26733SOL     OW80448   4.961   4.108   2.056
26733SOL    HW180449   4.887   4.047   2.048
26733SOL    HW280450   4.978   4.137   1.967
26734SOL     OW80451  14.083  10.987   7.569
26734SOL    HW180452  14.156  10.939   7.530
26734SOL    HW280453  14.120  11.071   7.595
26735SOL     OW80454  13.573   9.322   6.929
26735SOL    HW180455  13.494   9.323   6.983
26735SOL    HW280456  13.635   9.268   6.978
26736SOL     OW80457   4.764   7.111   5.886
26736SOL    HW180458   4.767   7.205   5.906
26736SOL    HW280459   4.819   7.102   5.809
26737SOL     OW80460   9.698   9.813   3.412
26737SOL    HW180461   9.626   9.777   3.464
26737SOL    HW280462   9.761   9.845   3.478
26738SOL     OW80463   8.833   8.332   1.937
26738SOL    HW180464   8.765   8.331   1.870
26738SOL    HW280465   8.814   8.411   1.989
26739SOL     OW80466   5.054   8.695   3.166
26739SOL    HW180467   5.108   8.631   3.213
26739SOL    HW280468   4.974   8.648   3.145
26740SOL     OW80469   4.014   4.220   1.187
26740SOL    HW180470   3.970   4.253   1.108
26740SOL    HW280471   4.013   4.294   1.248
26741SOL     OW80472   5.352  10.329   4.888
26741SOL    HW180473   5.309  10.263   4.942
26741SOL    HW280474   5.445  10.317   4.905
26742SOL     OW80475  15.461   9.893   7.317
26742SOL    HW180476  15.493   9.983   7.317
26742SOL    HW280477  15.391   9.892   7.382
26743SOL     OW80478  10.138   7.232   2.072
26743SOL    HW180479  10.188   7.310   2.050
26743SOL    HW280480  10.052   7.265   2.096
26744SOL     OW80481   6.159  11.009   0.860
26744SOL    HW180482   6.228  11.049   0.914
26744SOL    HW280483   6.090  11.074   0.857
26745SOL     OW80484   8.607   1.450   2.047
26745SOL    HW180485   8.619   1.535   2.089
26745SOL    HW280486   8.695  12.193   2.029
26746SOL     OW80487   5.458   3.635   3.372
26746SOL    HW180488   5.450   3.655   3.279
26746SOL    HW280489   5.463   3.721   3.415
26747SOL     OW80490   8.836   8.299   5.745
26747SOL    HW180491   8.860   8.373   5.801
26747SOL    HW280492   8.855   8.329   5.656
26748SOL     OW80493   8.792   5.632   2.558
26748SOL    HW180494   8.849   5.688   2.505
26748SOL    HW280495   8.751   5.692   2.620
26749SOL     OW80496  10.907   7.299   3.703
26749SOL    HW180497  10.906   7.207   3.730
26749SOL    HW280498  10.824   7.334   3.737
26750SOL     OW80499   6.056   4.882   3.206
26750SOL    HW180500   6.095   4.887   3.119
26750SOL    HW280501   5.970   4.842   3.192
26751SOL     OW80502   8.622  10.362   4.596
26751SOL    HW180503   8.535  10.352   4.557
26751SOL    HW280504   8.620  10.449   4.636
26752SOL     OW80505   4.497  13.402   6.088
26752SOL    HW180506   4.542  13.397   6.172
26752SOL    HW280507   4.548  13.464   6.036
26753SOL     OW80508   1.732   2.371   2.016
26753SOL    HW180509   1.693   2.300   2.067
26753SOL    HW280510   1.666   2.440   2.017
26754SOL     OW80511  10.556   7.939   0.931
26754SOL    HW180512  10.578   7.998   1.004
26754SOL    HW280513  10.523   7.860   0.974
26755SOL     OW80514   5.986  10.377   2.177
26755SOL    HW180515   5.914  10.384   2.115
26755SOL    HW280516   5.949  10.404   2.261
26756SOL     OW80517   4.469   3.394   4.528
26756SOL    HW180518   4.475   3.371   4.620
26756SOL    HW280519   4.378   3.374   4.504
26757SOL     OW80520  11.844   6.540   3.045
26757SOL    HW180521  11.817   6.620   3.090
26757SOL    HW280522  11.783   6.473   3.076
26758SOL     OW80523   3.416   6.258   1.923
26758SOL    HW180524   3.370   6.206   1.988
26758SOL    HW280525   3.405   6.211   1.841
26759SOL     OW80526   7.992   3.986   1.581
26759SOL    HW180527   7.904   3.985   1.618
26759SOL    HW280528   7.994   3.910   1.523
26760SOL     OW80529   9.596  11.287   6.703
26760SOL    HW180530   9.510  11.323   6.724
26760SOL    HW280531   9.606  11.213   6.763
26761SOL     OW80532   7.894   8.561   3.292
26761SOL    HW180533   7.975   8.607   3.314
26761SOL    HW280534   7.913   8.469   3.310
26762SOL     OW80535  10.474   7.487   1.502
26762SOL    HW180536  10.407   7.475   1.570
26762SOL    HW280537  10.465   7.578   1.476
26763SOL     OW80538   6.804   7.910   3.036
26763SOL    HW180539   6.882   7.864   3.005
26763SOL    HW280540   6.837   7.968   3.105
26764SOL     OW80541   7.851   5.096   1.359
26764SOL    HW180542   7.886   5.180   1.331
26764SOL    HW280543   7.924   5.035   1.349
26765SOL     OW80544  11.745   2.752   3.405
26765SOL    HW180545  11.717   2.734   3.495
26765SOL    HW280546  11.683   2.817   3.372
26766SOL     OW80547  15.965  10.275   7.510
26766SOL    HW180548  15.897  10.342   7.513
26766SOL    HW280549  16.045  10.320   7.537
26767SOL     OW80550   3.662   7.241   3.146
26767SOL    HW180551   3.591   7.265   3.205
26767SOL    HW280552   3.632   7.271   3.060
26768SOL     OW80553   3.078   7.107   4.058
26768SOL    HW180554   3.119   7.187   4.093
26768SOL    HW280555   2.990   7.106   4.095
26769SOL     OW80556   6.915   9.343   1.598
26769SOL    HW180557   6.986   9.282   1.576
26769SOL    HW280558   6.937   9.377   1.684
26770SOL     OW80559  15.092   9.167   6.947
26770SOL    HW180560  15.076   9.077   6.975
26770SOL    HW280561  15.006   9.199   6.920
26771SOL     OW80562   5.821   6.607   4.313
26771SOL    HW180563   5.805   6.531   4.369
26771SOL    HW280564   5.737   6.652   4.310
26772SOL     OW80565   2.343   6.703   0.897
26772SOL    HW180566   2.342   6.611   0.870
26772SOL    HW280567   2.252   6.730   0.890
26773SOL     OW80568   4.174  12.149   5.384
26773SOL    HW180569   4.202  12.228   5.431
26773SOL    HW280570   4.142  12.181   5.300
26774SOL     OW80571   3.982   1.724   0.367
26774SOL    HW180572   3.932   1.743   0.446
26774SOL    HW280573   4.034   1.803   0.352
26775SOL     OW80574  10.599   7.033   1.340
26775SOL    HW180575  10.616   7.124   1.316
26775SOL    HW280576  10.645   7.021   1.423
26776SOL     OW80577   9.894  11.793   7.457
26776SOL    HW180578   9.905  11.812   7.364
26776SOL    HW280579   9.842  11.866   7.490
26777SOL     OW80580   7.768   0.381   0.536
26777SOL    HW180581   7.766  11.072   0.581
26777SOL    HW280582   7.860   0.395   0.514
26778SOL     OW80583  10.827  12.573   6.941
26778SOL    HW180584  10.892  12.628   6.899
26778SOL    HW280585  10.841  12.586   7.035
26779SOL     OW80586   7.656   8.078   1.284
26779SOL    HW180587   7.696   7.995   1.261
26779SOL    HW280588   7.563   8.058   1.296
26780SOL     OW80589   8.668   6.066   6.478
26780SOL    HW180590   8.713   6.067   6.562
26780SOL    HW280591   8.627   5.979   6.473
26781SOL     OW80592   9.159   8.371   7.615
26781SOL    HW180593   3.772   3.014   0.087
26781SOL    HW280594   9.246   8.395   7.581
26782SOL     OW80595   7.241   7.204   4.947
26782SOL    HW180596   7.232   7.203   5.042
26782SOL    HW280597   7.279   7.119   4.925
26783SOL     OW80598   3.225   7.969   1.256
26783SOL    HW180599   3.178   7.939   1.178
26783SOL    HW280600   3.317   7.968   1.230
26784SOL     OW80601  12.162   4.215   4.327
26784SOL    HW180602  12.123   4.218   4.414
26784SOL    HW280603  12.120   4.141   4.284
26785SOL     OW80604   3.283  10.338   0.525
26785SOL    HW180605   3.254  10.274   0.460
26785SOL    HW280606   3.338  10.287   0.585
26786SOL     OW80607   7.468  10.493   2.656
26786SOL    HW180608   7.439  10.410   2.619
26786SOL    HW280609   7.406  10.558   2.621
26787SOL     OW80610  12.034  11.856   3.067
26787SOL    HW180611  12.118  11.881   3.029
26787SOL    HW280612  11.969  11.889   3.004
26788SOL     OW80613   4.593  10.307   0.510
26788SOL    HW180614   4.661  10.359   0.553
26788SOL    HW280615   4.512  10.335   0.552
26789SOL     OW80616   7.652   4.693   4.159
26789SOL    HW180617   7.602   4.633   4.215
26789SOL    HW280618   7.727   4.642   4.129
26790SOL     OW80619   3.255  10.508   1.437
26790SOL    HW180620   3.178  10.484   1.488
26790SOL    HW280621   3.224  10.578   1.378
26791SOL     OW80622   5.753   5.884   2.982
26791SOL    HW180623   5.832   5.883   2.927
26791SOL    HW280624   5.685   5.919   2.924
26792SOL     OW80625  12.051   2.147   2.968
26792SOL    HW180626  11.979   2.197   2.929
26792SOL    HW280627  12.119   2.147   2.901
26793SOL     OW80628   7.487   6.891   7.268
26793SOL    HW180629   7.494   6.806   7.225
26793SOL    HW280630   7.410   6.931   7.229
26794SOL     OW80631   4.982   7.974   5.573
26794SOL    HW180632   5.029   7.894   5.595
26794SOL    HW280633   4.893   7.960   5.608
26795SOL     OW80634   7.539  14.238   7.484
26795SOL    HW180635   7.457  14.235   7.533
26795SOL    HW280636   7.518  14.200   7.399
26796SOL     OW80637  13.328   9.490   4.446
26796SOL    HW180638  13.282   9.541   4.513
26796SOL    HW280639  13.277   9.409   4.438
26797SOL     OW80640   7.834   7.427   4.319
26797SOL    HW180641   7.862   7.371   4.246
26797SOL    HW280642   7.840   7.370   4.396
26798SOL     OW80643   7.440  10.424   5.327
26798SOL    HW180644   7.426  10.376   5.246
26798SOL    HW280645   7.392  10.375   5.394
26799SOL     OW80646   7.056  12.039   7.029
26799SOL    HW180647   7.067  12.081   6.943
26799SOL    HW280648   7.142  12.043   7.069
26800SOL     OW80649  14.325   8.677   6.222
26800SOL    HW180650  14.369   8.679   6.307
26800SOL    HW280651  14.395   8.660   6.159
26801SOL     OW80652   3.359   6.853   3.266
26801SOL    HW180653   3.275   6.810   3.281
26801SOL    HW280654   3.366   6.917   3.336
26802SOL     OW80655   9.235  15.319   6.791
26802SOL    HW180656   9.265  15.380   6.858
26802SOL    HW280657   9.279  15.346   6.711
26803SOL     OW80658   7.600  10.799   7.610
26803SOL    HW180659   7.680  10.848   7.593
26803SOL    HW280660   7.569  10.771   7.524
26804SOL     OW80661   4.143   4.438   2.224
26804SOL    HW180662   4.084   4.363   2.235
26804SOL    HW280663   4.087   4.508   2.191
26805SOL     OW80664   6.676   9.659   0.440
26805SOL    HW180665   6.610   9.706   0.492
26805SOL    HW280666   6.759   9.676   0.485
26806SOL     OW80667   8.616  12.323   4.443
26806SOL    HW180668   8.620  12.331   4.538
26806SOL    HW280669   8.524  12.304   4.424
26807SOL     OW80670   7.566  10.461   4.367
26807SOL    HW180671   7.605  10.412   4.294
26807SOL    HW280672   7.478  10.426   4.375
26808SOL     OW80673   8.618   6.062   3.720
26808SOL    HW180674   8.605   6.099   3.807
26808SOL    HW280675   8.617   5.967   3.733
26809SOL     OW80676   7.101   7.673   2.759
26809SOL    HW180677   7.172   7.734   2.741
26809SOL    HW280678   7.071   7.646   2.672
26810SOL     OW80679  10.819   7.074   3.802
26810SOL    HW180680  10.774   7.011   3.745
26810SOL    HW280681  10.749   7.128   3.838
26811SOL     OW80682   6.499  10.859   6.868
26811SOL    HW180683   6.563  10.887   6.933
26811SOL    HW280684   6.504  10.764   6.869
26812SOL     OW80685   4.643   9.801   0.059
26812SOL    HW180686   4.581   9.860   0.102
26812SOL    HW280687   4.595   9.719   0.049
26813SOL     OW80688   9.430  12.969   7.179
26813SOL    HW180689   9.513  13.004   7.210
26813SOL    HW280690   9.452  12.882   7.146
26814SOL     OW80691   8.668   8.725   0.435
26814SOL    HW180692   8.630   8.807   0.404
26814SOL    HW280693   8.679   8.673   0.356
26815SOL     OW80694   8.529  14.426   5.751
26815SOL    HW180695   8.544  14.335   5.774
26815SOL    HW280696   8.532  14.429   5.656
26816SOL     OW80697   2.664   4.828   0.696
26816SOL    HW180698   2.645   4.918   0.670
26816SOL    HW280699   2.610   4.813   0.773
26817SOL     OW80700   6.760  14.957   6.207
26817SOL    HW180701   6.792  14.867   6.214
26817SOL    HW280702   6.827  15.003   6.157
26818SOL     OW80703  10.384   8.866   4.676
26818SOL    HW180704  10.370   8.809   4.601
26818SOL    HW280705  10.319   8.936   4.665
26819SOL     OW80706  11.731  13.392   4.754
26819SOL    HW180707  11.792  13.322   4.776
26819SOL    HW280708  11.662  13.386   4.820
26820SOL     OW80709  12.462  12.367   2.685
26820SOL    HW180710  12.546  12.399   2.652
26820SOL    HW280711  12.403  12.442   2.678
26821SOL     OW80712  10.972  12.282   3.683
26821SOL    HW180713  10.969  12.244   3.595
26821SOL    HW280714  10.985  12.207   3.741
26822SOL     OW80715   9.557  14.139   6.696
26822SOL    HW180716   9.470  14.099   6.695
26822SOL    HW280717   9.603  14.095   6.767
26823SOL     OW80718  11.687  11.980   6.130
26823SOL    HW180719  11.628  11.910   6.101
26823SOL    HW280720  11.639  12.026   6.199
26824SOL     OW80721   6.587   9.640   3.483
26824SOL    HW180722   6.530   9.657   3.408
26824SOL    HW280723   6.668   9.687   3.463
26825SOL     OW80724   7.347  10.836   3.067
26825SOL    HW180725   7.381  10.767   3.010
26825SOL    HW280726   7.270  10.797   3.109
26826SOL     OW80727  13.317   7.932   6.342
26826SOL    HW180728  13.304   8.027   6.348
26826SOL    HW280729  13.347   7.906   6.429
26827SOL     OW80730   9.993   8.244   4.655
26827SOL    HW180731  10.036   8.306   4.597
26827SOL    HW280732   9.900   8.269   4.652
26828SOL     OW80733   3.987   7.037   1.134
26828SOL    HW180734   3.920   7.090   1.177
26828SOL    HW280735   3.999   7.077   1.048
26829SOL     OW80736   9.733  13.266   7.529
26829SOL    HW180737   9.724  13.200   7.598
26829SOL    HW280738   9.824  13.295   7.535
26830SOL     OW80739   9.318  10.914   6.615
26830SOL    HW180740   9.259  10.954   6.679
26830SOL    HW280741   9.306  10.820   6.628
26831SOL     OW80742   9.213  12.177   2.981
26831SOL    HW180743   9.263  12.138   3.052
26831SOL    HW280744   9.178  12.102   2.933
26832SOL     OW80745  12.848  10.183   4.554
26832SOL    HW180746  12.900  10.208   4.478
26832SOL    HW280747  12.892  10.224   4.628
26833SOL     OW80748   3.087   7.477   3.749
26833SOL    HW180749   3.098   7.422   3.826
26833SOL    HW280750   3.174   7.515   3.733
26834SOL     OW80751   6.325   3.239   1.049
26834SOL    HW180752   6.240   3.226   1.007
26834SOL    HW280753   6.324   3.331   1.076
26835SOL     OW80754  13.431   5.209   4.450
26835SOL    HW180755  13.436   5.247   4.538
26835SOL    HW280756  13.443   5.115   4.463
26836SOL     OW80757   3.982   2.663   1.111
26836SOL    HW180758   3.993   2.607   1.187
26836SOL    HW280759   3.964   2.603   1.039
26837SOL     OW80760   6.346   8.266   4.181
26837SOL    HW180761   6.327   8.178   4.215
26837SOL    HW280762   6.422   8.295   4.232
26838SOL     OW80763   8.345   3.525   1.170
26838SOL    HW180764   8.378   3.586   1.236
26838SOL    HW280765   8.387   3.441   1.191
26839SOL     OW80766   3.379   5.249   0.007
26839SOL    HW180767   3.373   5.154   0.018
26839SOL    HW280768   3.299   5.283   0.049
26840SOL     OW80769   7.221   6.022   3.010
26840SOL    HW180770   7.288   6.086   2.986
26840SOL    HW280771   7.156   6.072   3.059
26841SOL     OW80772   3.338   9.107   3.145
26841SOL    HW180773   3.288   9.116   3.226
26841SOL    HW280774   3.281   9.057   3.087
26842SOL     OW80775  12.956   4.518   5.861
26842SOL    HW180776  12.867   4.494   5.888
26842SOL    HW280777  12.971   4.604   5.901
26843SOL     OW80778   9.926  15.260   6.812
26843SOL    HW180779   9.984  15.198   6.856
26843SOL    HW280780   9.933  15.340   6.864
26844SOL     OW80781  13.576   9.140   4.990
26844SOL    HW180782  13.632   9.096   5.054
26844SOL    HW280783  13.607   9.230   4.989
26845SOL     OW80784   9.714  12.908   4.432
26845SOL    HW180785   9.800  12.903   4.473
26845SOL    HW280786   9.670  12.980   4.477
26846SOL     OW80787  10.307  11.815   6.659
26846SOL    HW180788  10.271  11.823   6.571
26846SOL    HW280789  10.368  11.888   6.667
26847SOL     OW80790   6.149   6.001   7.368
26847SOL    HW180791   6.093   6.076   7.380
26847SOL    HW280792   6.094   5.936   7.325
26848SOL     OW80793   5.257  12.903   5.035
26848SOL    HW180794   5.255  12.873   4.944
26848SOL    HW280795   5.350  12.918   5.053
26849SOL     OW80796   5.750  12.847   5.994
26849SOL    HW180797   5.743  12.797   5.913
26849SOL    HW280798   5.675  12.906   5.992
26850SOL     OW80799   5.745   6.795   2.920
26850SOL    HW180800   5.710   6.711   2.890
26850SOL    HW280801   5.753   6.847   2.840
26851SOL     OW80802   8.532  16.104   7.541
26851SOL    HW180803   8.483   5.409   7.522
26851SOL    HW280804   8.469  16.049   7.589
26852SOL     OW80805  12.901  12.928   5.785
26852SOL    HW180806  12.915  12.968   5.871
26852SOL    HW280807  12.826  12.870   5.797
26853SOL     OW80808  14.103   6.704   6.660
26853SOL    HW180809  14.122   6.715   6.753
26853SOL    HW280810  14.035   6.769   6.642
26854SOL     OW80811   6.824  14.517   6.460
26854SOL    HW180812   6.877  14.537   6.537
26854SOL    HW280813   6.769  14.444   6.487
26855SOL     OW80814   1.798   1.434   0.397
26855SOL    HW180815   1.747   1.487   0.458
26855SOL    HW280816   1.792   1.345   0.431
26856SOL     OW80817  14.052  12.003   6.282
26856SOL    HW180818  14.057  11.914   6.248
26856SOL    HW280819  14.143  12.031   6.290
26857SOL     OW80820   7.426   1.878   0.422
26857SOL    HW180821   7.498   1.841   0.474
26857SOL    HW280822   7.351   1.823   0.442
26858SOL     OW80823   4.784   8.369   2.546
26858SOL    HW180824   4.828   8.415   2.618
26858SOL    HW280825   4.735   8.299   2.589
26859SOL     OW80826   7.645   9.367   2.255
26859SOL    HW180827   7.629   9.327   2.169
26859SOL    HW280828   7.591   9.447   2.254
26860SOL     OW80829  15.951  11.809   7.564
26860SOL    HW180830  16.047  11.813   7.572
26860SOL    HW280831  15.934  11.729   7.515
26861SOL     OW80832   8.450  11.315   3.312
26861SOL    HW180833   8.413  11.227   3.315
26861SOL    HW280834   8.536  11.303   3.273
26862SOL     OW80835   1.679  11.155   1.147
26862SOL    HW180836   1.756  11.110   1.112
26862SOL    HW280837   1.715  11.225   1.201
26863SOL     OW80838   3.850   5.755   4.244
26863SOL    HW180839   3.922   5.699   4.213
26863SOL    HW280840   3.783   5.693   4.273
26864SOL     OW80841   7.137  12.067   6.728
26864SOL    HW180842   7.195  12.135   6.695
26864SOL    HW280843   7.196  11.999   6.761
26865SOL     OW80844  10.637   8.729   2.556
26865SOL    HW180845  10.598   8.659   2.504
26865SOL    HW280846  10.630   8.698   2.646
26866SOL     OW80847  14.190  10.800   6.762
26866SOL    HW180848  14.201  10.888   6.725
26866SOL    HW280849  14.252  10.797   6.835
26867SOL     OW80850   4.531   6.206   4.359
26867SOL    HW180851   4.465   6.143   4.388
26867SOL    HW280852   4.611   6.180   4.407
26868SOL     OW80853  10.043   6.569   6.811
26868SOL    HW180854  10.063   6.491   6.863
26868SOL    HW280855   9.964   6.605   6.851
26869SOL     OW80856  12.190   6.882   4.563
26869SOL    HW180857  12.229   6.799   4.538
26869SOL    HW280858  12.149   6.865   4.647
26870SOL     OW80859   8.147  12.471   7.411
26870SOL    HW180860   8.156  12.382   7.379
26870SOL    HW280861   8.141  12.462   7.506
26871SOL     OW80862  12.571  10.749   5.344
26871SOL    HW180863  12.547  10.796   5.265
26871SOL    HW280864  12.496  10.693   5.364
26872SOL     OW80865   3.916   5.127   4.698
26872SOL    HW180866   3.939   5.172   4.779
26872SOL    HW280867   3.845   5.180   4.661
26873SOL     OW80868  10.182  11.049   1.750
26873SOL    HW180869  10.107  11.107   1.737
26873SOL    HW280870  10.157  10.993   1.824
26874SOL     OW80871  10.519   4.847   1.207
26874SOL    HW180872  10.484   4.779   1.150
26874SOL    HW280873  10.608   4.864   1.174
26875SOL     OW80874   5.344   4.980   1.512
26875SOL    HW180875   5.413   4.932   1.468
26875SOL    HW280876   5.379   5.069   1.521
26876SOL     OW80877   8.559  10.849   3.151
26876SOL    HW180878   8.637  10.800   3.176
26876SOL    HW280879   8.489  10.811   3.205
26877SOL     OW80880   3.540   0.193   0.049
26877SOL    HW180881   3.607   0.253   0.018
26877SOL    HW280882   3.468   0.250   0.078
26878SOL     OW80883   4.079   3.308   3.726
26878SOL    HW180884   4.169   3.341   3.720
26878SOL    HW280885   4.029   3.361   3.665
26879SOL     OW80886   8.542   3.875   0.366
26879SOL    HW180887   8.460   3.862   0.317
26879SOL    HW280888   8.564   3.967   0.352
26880SOL     OW80889   8.058   4.384   6.022
26880SOL    HW180890   8.013   4.313   5.978
26880SOL    HW280891   8.040   4.371   6.115
26881SOL     OW80892   4.467   4.106   0.889
26881SOL    HW180893   4.514   4.095   0.806
26881SOL    HW280894   4.377   4.078   0.870
26882SOL     OW80895   6.377   7.473   7.517
26882SOL    HW180896   6.362   7.379   7.529
26882SOL    HW280897   6.396   7.506   7.605
26883SOL     OW80898   6.673  11.101   1.925
26883SOL    HW180899   6.708  11.013   1.941
26883SOL    HW280900   6.603  11.087   1.862
26884SOL     OW80901  11.583   6.481   1.686
26884SOL    HW180902  11.664   6.458   1.732
26884SOL    HW280903  11.591   6.575   1.669
26885SOL     OW80904  10.340   9.981   1.393
26885SOL    HW180905  10.349   9.999   1.300
26885SOL    HW280906  10.263  10.032   1.420
26886SOL     OW80907   4.306  11.653   2.142
26886SOL    HW180908   4.315  11.650   2.047
26886SOL    HW280909   4.288  11.562   2.167
26887SOL     OW80910   5.683  11.153   4.326
26887SOL    HW180911   5.617  11.176   4.260
26887SOL    HW280912   5.759  11.206   4.302
26888SOL     OW80913  11.330  10.522   6.914
26888SOL    HW180914  11.330  10.617   6.923
26888SOL    HW280915  11.323  10.506   6.820
26889SOL     OW80916  11.462  10.327   5.499
26889SOL    HW180917  11.411  10.408   5.503
26889SOL    HW280918  11.445  10.284   5.582
26890SOL     OW80919   7.599   9.280   4.786
26890SOL    HW180920   7.571   9.189   4.787
26890SOL    HW280921   7.528   9.328   4.744
26891SOL     OW80922   7.533   2.470   2.713
26891SOL    HW180923   7.612   2.497   2.667
26891SOL    HW280924   7.547   2.496   2.804
26892SOL     OW80925  13.488   5.588   4.027
26892SOL    HW180926  13.535   5.596   4.110
26892SOL    HW280927  13.531   5.651   3.969
26893SOL     OW80928   3.125   4.528   2.824
26893SOL    HW180929   3.062   4.472   2.779
26893SOL    HW280930   3.095   4.528   2.915
26894SOL     OW80931   6.780   4.315   3.784
26894SOL    HW180932   6.853   4.310   3.722
26894SOL    HW280933   6.821   4.307   3.870
26895SOL     OW80934   8.070   8.493   2.709
26895SOL    HW180935   8.139   8.428   2.723
26895SOL    HW280936   8.015   8.455   2.641
26896SOL     OW80937  10.011   3.446   1.215
26896SOL    HW180938   9.936   3.478   1.165
26896SOL    HW280939  10.018   3.506   1.289
26897SOL     OW80940  12.104   7.889   3.469
26897SOL    HW180941  12.025   7.916   3.422
26897SOL    HW280942  12.081   7.804   3.508
26898SOL     OW80943   3.102   4.533   4.374
26898SOL    HW180944  13.782   4.538   4.387
26898SOL    HW280945   3.129   4.453   4.419
26899SOL     OW80946  15.717  13.726   7.106
26899SOL    HW180947  15.736  13.673   7.029
26899SOL    HW280948  15.724  13.666   7.180
26900SOL     OW80949   3.241   8.226   1.347
26900SOL    HW180950   3.148   8.249   1.341
26900SOL    HW280951   3.244   8.133   1.321
26901SOL     OW80952   9.842   5.410   1.760
26901SOL    HW180953   9.852   5.504   1.776
26901SOL    HW280954   9.761   5.402   1.711
26902SOL     OW80955   6.543   8.399   3.688
26902SOL    HW180956   6.572   8.484   3.655
26902SOL    HW280957   6.482   8.420   3.758
26903SOL     OW80958   8.949  11.549   3.813
26903SOL    HW180959   8.871  11.602   3.832
26903SOL    HW280960   8.931  11.464   3.853
26904SOL     OW80961  12.119   8.616   5.023
26904SOL    HW180962  12.172   8.565   4.962
26904SOL    HW280963  12.182   8.653   5.085
26905SOL     OW80964   4.246  11.375   5.324
26905SOL    HW180965   4.314  11.442   5.328
26905SOL    HW280966   4.287  11.303   5.275
26906SOL     OW80967  10.343   6.660   3.543
26906SOL    HW180968  10.376   6.730   3.485
26906SOL    HW280969  10.353   6.580   3.491
26907SOL     OW80970   7.638   9.238   4.117
26907SOL    HW180971   7.695   9.222   4.042
26907SOL    HW280972   7.686   9.202   4.191
26908SOL     OW80973   3.116   8.491   0.363
26908SOL    HW180974   3.120   8.415   0.305
26908SOL    HW280975   3.027   8.491   0.396
26909SOL     OW80976  10.105  10.113   1.503
26909SOL    HW180977  10.137  10.202   1.513
26909SOL    HW280978  10.016  10.115   1.538
26910SOL     OW80979  12.583  10.249   4.446
26910SOL    HW180980  12.659  10.258   4.504
26910SOL    HW280981  12.579  10.156   4.426
26911SOL     OW80982   5.509   2.875   1.903
26911SOL    HW180983   5.516   2.874   1.998
26911SOL    HW280984   5.478   2.787   1.881
26912SOL     OW80985   7.683   5.371   1.389
26912SOL    HW180986   7.734   5.400   1.465
26912SOL    HW280987   7.601   5.337   1.427
26913SOL     OW80988  10.732   7.371   5.954
26913SOL    HW180989  10.731   7.326   5.870
26913SOL    HW280990  10.685   7.313   6.013
26914SOL     OW80991  10.990  11.420   3.012
26914SOL    HW180992  10.938  11.458   3.083
26914SOL    HW280993  11.045  11.492   2.981
26915SOL     OW80994   7.041   9.020   1.576
26915SOL    HW180995   7.104   8.948   1.581
26915SOL    HW280996   6.985   9.009   1.653
26916SOL     OW80997   5.160   7.411   6.638
26916SOL    HW180998   5.104   7.450   6.704
26916SOL    HW280999   5.107   7.412   6.558
26917SOL     OW81000   5.440  11.253   4.182
26917SOL    HW181001   5.382  11.210   4.119
26917SOL    HW281002   5.393  11.250   4.265
26918SOL     OW81003   6.091   8.294   4.942
26918SOL    HW181004   6.052   8.264   4.860
26918SOL    HW281005   6.063   8.230   5.007
26919SOL     OW81006   4.366  10.628   4.265
26919SOL    HW181007   4.417  10.584   4.334
26919SOL    HW281008   4.279  10.590   4.273
26920SOL     OW81009   4.441   3.937   4.627
26920SOL    HW181010   4.419   4.030   4.627
26920SOL    HW281011   4.419   3.908   4.539
26921SOL     OW81012   5.541  10.093   2.598
26921SOL    HW181013   5.615  10.136   2.557
26921SOL    HW281014   5.531  10.011   2.549
26922SOL     OW81015  10.339   8.159   6.638
26922SOL    HW181016  10.314   8.111   6.559
26922SOL    HW281017  10.303   8.107   6.710
26923SOL     OW81018  11.523  13.031   7.546
26923SOL    HW181019  11.504  13.111   7.497
26923SOL    HW281020  11.439  12.985   7.552
26924SOL     OW81021   5.440  11.754   4.969
26924SOL    HW181022   5.358  11.727   4.927
26924SOL    HW281023   5.501  11.683   4.950
26925SOL     OW81024  12.255  13.306   7.611
26925SOL    HW181025  12.208  13.233   7.571
26925SOL    HW281026  12.191  13.377   7.616
26926SOL     OW81027   7.613   7.712   1.962
26926SOL    HW181028   7.584   7.633   1.917
26926SOL    HW281029   7.540   7.734   2.021
26927SOL     OW81030   7.333   7.216   0.221
26927SOL    HW181031   7.376   7.288   0.267
26927SOL    HW281032   7.404   7.173   0.173
26928SOL     OW81033   9.723   8.983   6.177
26928SOL    HW181034   9.694   8.992   6.267
26928SOL    HW281035   9.642   8.977   6.126
26929SOL     OW81036  10.154  12.379   2.998
26929SOL    HW181037  10.156  12.406   2.906
26929SOL    HW281038  10.113  12.453   3.044
26930SOL     OW81039   5.228   6.975   4.500
26930SOL    HW181040   5.282   7.001   4.575
26930SOL    HW281041   5.139   7.002   4.523
26931SOL     OW81042  11.536   4.261   4.362
26931SOL    HW181043  11.586   4.196   4.410
26931SOL    HW281044  11.445   4.242   4.382
26932SOL     OW81045  13.015  10.804   6.252
26932SOL    HW181046  13.103  10.830   6.226
26932SOL    HW281047  13.028  10.753   6.332
26933SOL     OW81048  11.449   4.492   2.769
26933SOL    HW181049  11.381   4.426   2.783
26933SOL    HW281050  11.445   4.511   2.676
26934SOL     OW81051   7.489   3.247   0.189
26934SOL    HW181052   7.478   3.249   0.094
26934SOL    HW281053   7.411   3.201   0.221
26935SOL     OW81054   3.818   6.807   1.488
26935SOL    HW181055   3.860   6.793   1.403
26935SOL    HW281056   3.853   6.891   1.518
26936SOL     OW81057   9.647   7.242   7.279
26936SOL    HW181058   9.653   7.328   7.238
26936SOL    HW281059   9.611   7.185   7.211
26937SOL     OW81060   5.859   7.096   1.091
26937SOL    HW181061   5.852   7.143   1.173
26937SOL    HW281062   5.820   7.154   1.026
26938SOL     OW81063   7.444  14.411   5.230
26938SOL    HW181064   7.375   3.673   5.175
26938SOL    HW281065   7.440  14.317   5.214
26939SOL     OW81066  11.955  13.606   5.981
26939SOL    HW181067  11.922  13.541   5.920
26939SOL    HW281068  12.012  13.661   5.928
26940SOL     OW81069   6.009  11.387   5.333
26940SOL    HW181070   6.078  11.323   5.318
26940SOL    HW281071   5.928  11.337   5.328
26941SOL     OW81072   3.364   6.192   0.574
26941SOL    HW181073   3.434   6.158   0.631
26941SOL    HW281074   3.326   6.114   0.534
26942SOL     OW81075   6.775   9.926   3.116
26942SOL    HW181076   6.832   9.876   3.174
26942SOL    HW281077   6.833   9.956   3.046
26943SOL     OW81078   2.830  11.321   1.830
26943SOL    HW181079   2.805  11.229   1.841
26943SOL    HW281080   2.918  11.327   1.870
26944SOL     OW81081  11.137   9.212   6.381
26944SOL    HW181082  11.055   9.237   6.340
26944SOL    HW281083  11.129   9.240   6.472
26945SOL     OW81084   7.363  11.834   5.195
26945SOL    HW181085   7.362  11.880   5.111
26945SOL    HW281086   7.412  11.891   5.253
26946SOL     OW81087   8.515   6.977   7.552
26946SOL    HW181088   8.490   7.069   7.554
26946SOL    HW281089   3.173   1.575   0.016
26947SOL     OW81090   2.044   2.648   2.430
26947SOL    HW181091   2.079   2.603   2.507
26947SOL    HW281092   2.003   2.727   2.465
26948SOL     OW81093   9.191   4.358   5.145
26948SOL    HW181094   9.229   4.441   5.173
26948SOL    HW281095   9.248   4.292   5.182
26949SOL     OW81096   7.185   4.519   2.639
26949SOL    HW181097   7.273   4.518   2.676
26949SOL    HW281098   7.197   4.510   2.545
26950SOL     OW81099   2.844   7.636   1.664
26950SOL    HW181100   2.868   7.729   1.670
26950SOL    HW281101   2.857   7.602   1.753
26951SOL     OW81102   4.508   7.500   1.825
26951SOL    HW181103   4.440   7.538   1.770
26951SOL    HW281104   4.562   7.449   1.764
26952SOL     OW81105   4.803  11.914   6.380
26952SOL    HW181106   4.799  11.843   6.444
26952SOL    HW281107   4.891  11.908   6.342
26953SOL     OW81108   6.972   5.727   1.510
26953SOL    HW181109   7.053   5.682   1.532
26953SOL    HW281110   6.999   5.806   1.462
26954SOL     OW81111   8.159   8.539   5.950
26954SOL    HW181112   8.099   8.541   5.875
26954SOL    HW281113   8.186   8.630   5.961
26955SOL     OW81114   6.628  10.068   7.465
26955SOL    HW181115   6.607  10.142   7.522
26955SOL    HW281116   6.646   9.996   7.525
26956SOL     OW81117   9.183  11.884   4.915
26956SOL    HW181118   9.182  11.860   4.823
26956SOL    HW281119   9.276  11.901   4.935
26957SOL     OW81120   9.344   9.111   3.974
26957SOL    HW181121   9.364   9.140   4.063
26957SOL    HW281122   9.373   9.020   3.971
26958SOL     OW81123   6.805  14.688   6.255
26958SOL    HW181124   6.812  14.627   6.328
26958SOL    HW281125   6.813  14.634   6.177
26959SOL     OW81126   8.084   9.510   0.303
26959SOL    HW181127   8.162   9.510   0.247
26959SOL    HW281128   8.105   9.570   0.374
26960SOL     OW81129  13.848   5.875   6.509
26960SOL    HW181130  13.870   5.783   6.521
26960SOL    HW281131  13.769   5.889   6.561
26961SOL     OW81132  15.705   7.337   7.191
26961SOL    HW181133  15.780   7.293   7.151
26961SOL    HW281134  15.741   7.380   7.269
26962SOL     OW81135  13.721  15.536   7.380
26962SOL    HW181136  13.673  15.619   7.382
26962SOL    HW281137  13.795  15.552   7.321
26963SOL     OW81138  10.461   5.374   0.975
26963SOL    HW181139  10.522   5.388   0.902
26963SOL    HW281140  10.514   5.385   1.054
26964SOL     OW81141   1.363   5.433   1.837
26964SOL    HW181142  12.044   5.411   1.836
26964SOL    HW281143   1.403   5.367   1.892
26965SOL     OW81144  12.000  14.538   5.533
26965SOL    HW181145  11.929  14.593   5.500
26965SOL    HW281146  11.986  14.453   5.490
26966SOL     OW81147   6.925   7.729   2.268
26966SOL    HW181148   6.856   7.787   2.298
26966SOL    HW281149   6.989   7.787   2.226
26967SOL     OW81150  12.375   2.732   2.674
26967SOL    HW181151  12.396   2.669   2.605
26967SOL    HW281152  12.449   2.728   2.734
26968SOL     OW81153   7.811  11.092   5.683
26968SOL    HW181154   7.878  11.028   5.706
26968SOL    HW281155   7.786  11.069   5.593
26969SOL     OW81156   9.397   5.907   0.720
26969SOL    HW181157   9.329   5.973   0.734
26969SOL    HW281158   9.351   5.823   0.728
26970SOL     OW81159  11.803  13.556   4.965
26970SOL    HW181160  11.710  13.579   4.965
26970SOL    HW281161  11.813  13.496   4.891
26971SOL     OW81162  10.696   6.875   0.926
26971SOL    HW181163  10.729   6.836   0.845
26971SOL    HW281164  10.621   6.819   0.949
26972SOL     OW81165  10.094   3.937   4.457
26972SOL    HW181166  10.161   3.909   4.394
26972SOL    HW281167  10.015   3.891   4.430
26973SOL     OW81168  13.025  13.250   5.674
26973SOL    HW181169  12.975  13.324   5.710
26973SOL    HW281170  12.980  13.172   5.707
26974SOL     OW81171   8.533   3.280   1.293
26974SOL    HW181172   8.589   3.313   1.363
26974SOL    HW281173   8.480   3.213   1.335
26975SOL     OW81174  11.627   4.621   4.049
26975SOL    HW181175  11.582   4.562   3.987
26975SOL    HW281176  11.566   4.628   4.123
26976SOL     OW81177   7.799  13.483   4.708
26976SOL    HW181178   7.729  13.488   4.772
26976SOL    HW281179   7.758  13.506   4.624
26977SOL     OW81180  10.065  10.605   1.716
26977SOL    HW181181  10.011  10.662   1.769
26977SOL    HW281182  10.003  10.549   1.669
26978SOL     OW81183   2.823  10.800   3.816
26978SOL    HW181184   2.758  10.860   3.778
26978SOL    HW281185   2.851  10.745   3.743
26979SOL     OW81186   8.258   8.419   1.612
26979SOL    HW181187   8.218   8.406   1.526
26979SOL    HW281188   8.184   8.422   1.672
26980SOL     OW81189   4.649   9.894   2.803
26980SOL    HW181190   4.610   9.973   2.767
26980SOL    HW281191   4.742   9.902   2.781
26981SOL     OW81192   7.875   8.752   0.804
26981SOL    HW181193   7.867   8.842   0.772
26981SOL    HW281194   7.806   8.745   0.871
26982SOL     OW81195  14.160   7.099   5.815
26982SOL    HW181196  14.221   7.060   5.877
26982SOL    HW281197  14.209   7.171   5.775
26983SOL     OW81198  11.772   5.235   2.258
26983SOL    HW181199  11.788   5.285   2.178
26983SOL    HW281200  11.844   5.172   2.262
26984SOL     OW81201  10.453  13.003   5.048
26984SOL    HW181202  10.424  12.920   5.085
26984SOL    HW281203  10.523  12.979   4.987
26985SOL     OW81204   7.679   5.330   0.289
26985SOL    HW181205   7.677   5.242   0.327
26985SOL    HW281206   7.715   5.386   0.357
26986SOL     OW81207   2.668   7.253   1.731
26986SOL    HW181208   2.702   7.305   1.658
26986SOL    HW281209   2.594   7.304   1.764
26987SOL     OW81210   5.980   5.656   3.783
26987SOL    HW181211   5.936   5.614   3.857
26987SOL    HW281212   5.972   5.750   3.801
26988SOL     OW81213  12.303   9.874   7.213
26988SOL    HW181214  12.332   9.889   7.122
26988SOL    HW281215  12.257   9.790   7.210
26989SOL     OW81216   7.530   8.714   0.250
26989SOL    HW181217   7.458   8.713   0.187
26989SOL    HW281218   7.504   8.779   0.315
26990SOL     OW81219  14.379   6.213   5.255
26990SOL    HW181220  14.397   6.201   5.162
26990SOL    HW281221  14.285   6.192   5.264
26991SOL     OW81222   4.534  10.943   2.505
26991SOL    HW181223   4.604  10.986   2.456
26991SOL    HW281224   4.551  10.968   2.596
26992SOL     OW81225  12.727  10.474   6.045
26992SOL    HW181226  12.752  10.566   6.049
26992SOL    HW281227  12.758  10.444   5.960
26993SOL     OW81228   8.391   6.165   4.886
26993SOL    HW181229   8.410   6.073   4.904
26993SOL    HW281230   8.328   6.163   4.813
26994SOL     OW81231   7.951  11.980   3.588
26994SOL    HW181232   8.034  12.009   3.550
26994SOL    HW281233   7.890  12.052   3.571
26995SOL     OW81234   5.689  11.017   1.910
26995SOL    HW181235   5.643  10.944   1.867
26995SOL    HW281236   5.741  10.975   1.978
26996SOL     OW81237  12.029  14.422   7.402
26996SOL    HW181238  11.966  14.351   7.416
26996SOL    HW281239  12.114  14.378   7.405
26997SOL     OW81240   4.068   8.099   5.733
26997SOL    HW181241   4.145   8.046   5.753
26997SOL    HW281242  14.774   8.035   5.714
26998SOL     OW81243   4.170   9.215   4.146
26998SOL    HW181244   4.216   9.280   4.198
26998SOL    HW281245   4.183   9.133   4.192
26999SOL     OW81246   3.364   1.802   1.499
26999SOL    HW181247   3.455   1.775   1.511
26999SOL    HW281248   3.329   1.743   1.433
27000SOL     OW81249   6.361   6.022   7.595
27000SOL    HW181250   6.292   6.042   7.531
27000SOL    HW281251   6.421   6.095   7.589
27001SOL     OW81252   2.786   6.783   0.252
27001SOL    HW181253   2.815   6.692   0.248
27001SOL    HW281254   2.861   6.830   0.289
27002SOL     OW81255  12.130  11.115   4.110
27002SOL    HW181256  12.088  11.198   4.132
27002SOL    HW281257  12.221  11.139   4.091
27003SOL     OW81258   0.141   8.819   0.004
27003SOL    HW181259   0.115   8.788   0.091
27003SOL    HW281260   5.497  14.138   7.563
27004SOL     OW81261  10.014   5.151   6.454
27004SOL    HW181262   9.964   5.123   6.530
27004SOL    HW281263   9.978   5.237   6.431
27005SOL     OW81264   9.883   8.472   6.658
27005SOL    HW181265   9.903   8.378   6.667
27005SOL    HW281266   9.842   8.480   6.572
27006SOL     OW81267   0.822   6.700   0.080
27006SOL    HW181268   0.747   6.655   0.118
27006SOL    HW281269   0.840   6.772   0.140
27007SOL     OW81270  11.277   7.506   1.101
27007SOL    HW181271  11.312   7.512   1.190
27007SOL    HW281272  11.311   7.423   1.068
27008SOL     OW81273  12.176   7.413   5.761
27008SOL    HW181274  12.149   7.500   5.732
27008SOL    HW281275  12.180   7.361   5.681
27009SOL     OW81276   7.449   7.840   6.184
27009SOL    HW181277   7.501   7.760   6.178
27009SOL    HW281278   7.435   7.867   6.094
27010SOL     OW81279  13.053  14.019   6.623
27010SOL    HW181280  13.026  14.014   6.531
27010SOL    HW281281  13.030  14.109   6.650
27011SOL     OW81282   3.853   5.829   0.050
27011SOL    HW181283   3.861   5.924   0.053
27011SOL    HW281284   3.828   5.805   0.139
27012SOL     OW81285  12.402   9.349   6.223
27012SOL    HW181286  12.432   9.258   6.222
27012SOL    HW281287  12.423   9.380   6.311
27013SOL     OW81288   7.580   4.553   5.479
27013SOL    HW181289   7.673   4.573   5.489
27013SOL    HW281290   7.561   4.493   5.552
27014SOL     OW81291   8.679   6.426   1.577
27014SOL    HW181292   8.696   6.362   1.509
27014SOL    HW281293   8.686   6.377   1.659
27015SOL     OW81294   9.518   4.671   4.554
27015SOL    HW181295   9.460   4.661   4.478
27015SOL    HW281296   9.492   4.755   4.592
27016SOL     OW81297   6.173   1.066   0.048
27016SOL    HW181298  11.519   6.523   7.617
27016SOL    HW281299   6.118   1.055   0.126
27017SOL     OW81300   6.054  11.668   4.473
27017SOL    HW181301   6.075  11.607   4.545
27017SOL    HW281302   5.984  11.624   4.425
27018SOL     OW81303   8.814   6.655   1.640
27018SOL    HW181304   8.845   6.627   1.727
27018SOL    HW281305   8.750   6.588   1.615
27019SOL     OW81306   3.909  14.191   5.017
27019SOL    HW181307   3.897  14.243   4.938
27019SOL    HW281308   3.967  14.119   4.990
27020SOL     OW81309   8.690  11.022   5.081
27020SOL    HW181310   8.767  11.020   5.024
27020SOL    HW281311   8.654  10.933   5.076
27021SOL     OW81312  11.028   8.863   5.588
27021SOL    HW181313  11.066   8.869   5.675
27021SOL    HW281314  11.091   8.907   5.531
27022SOL     OW81315   3.011  13.095   3.293
27022SOL    HW181316   2.953  13.114   3.367
27022SOL    HW281317   3.090   2.371   3.311
27023SOL     OW81318  10.863   7.295   4.478
27023SOL    HW181319  10.876   7.348   4.557
27023SOL    HW281320  10.868   7.357   4.406
27024SOL     OW81321   9.844  11.808   5.289
27024SOL    HW181322   9.865  11.744   5.221
27024SOL    HW281323   9.924  11.859   5.300
27025SOL     OW81324   2.962   8.352   3.074
27025SOL    HW181325   3.018   8.399   3.012
27025SOL    HW281326   2.888   8.412   3.089
27026SOL     OW81327   6.577   7.877   1.194
27026SOL    HW181328   6.666   7.842   1.182
27026SOL    HW281329   6.568   7.944   1.126
27027SOL     OW81330  10.231  12.040   2.166
27027SOL    HW181331  10.214  12.018   2.257
27027SOL    HW281332  10.159  12.000   2.117
27028SOL     OW81333   6.742   4.745   3.738
27028SOL    HW181334   6.776   4.766   3.825
27028SOL    HW281335   6.754   4.825   3.687
27029SOL     OW81336  13.725  13.550   4.757
27029SOL    HW181337  13.771  13.487   4.702
27029SOL    HW281338  13.751  13.528   4.847
27030SOL     OW81339  12.861   3.888   3.646
27030SOL    HW181340  12.880   3.964   3.701
27030SOL    HW281341  12.877   3.918   3.557
27031SOL     OW81342   6.935   5.863   2.597
27031SOL    HW181343   6.907   5.869   2.688
27031SOL    HW281344   7.019   5.909   2.595
27032SOL     OW81345   7.088   8.368   1.871
27032SOL    HW181346   7.041   8.292   1.838
27032SOL    HW281347   7.180   8.346   1.858
27033SOL     OW81348   4.431   9.172   1.623
27033SOL    HW181349   4.381   9.103   1.665
27033SOL    HW281350   4.376   9.250   1.631
27034SOL     OW81351  11.478  11.777   3.486
27034SOL    HW181352  11.542  11.741   3.546
27034SOL    HW281353  11.516  11.764   3.399
27035SOL     OW81354   7.589   5.581   1.614
27035SOL    HW181355   7.605   5.540   1.698
27035SOL    HW281356   7.663   5.642   1.603
27036SOL     OW81357   6.560  14.101   7.037
27036SOL    HW181358   6.546  14.016   6.995
27036SOL    HW281359   6.545  14.165   6.967
27037SOL     OW81360  13.614  12.616   4.385
27037SOL    HW181361  13.605  12.607   4.480
27037SOL    HW281362  13.541  12.673   4.360
27038SOL     OW81363  13.093  13.148   5.430
27038SOL    HW181364  13.071  13.240   5.438
27038SOL    HW281365  13.020  13.102   5.471
27039SOL     OW81366   6.816  10.116   0.216
27039SOL    HW181367   6.767  10.079   0.143
27039SOL    HW281368   6.908  10.105   0.192
27040SOL     OW81369   8.761  14.836   7.467
27040SOL    HW181370   8.776  14.759   7.523
27040SOL    HW281371   8.691  14.885   7.511
27041SOL     OW81372  11.212  10.457   2.397
27041SOL    HW181373  11.162  10.449   2.479
27041SOL    HW281374  11.275  10.385   2.401
27042SOL     OW81375   6.853   5.413   7.373
27042SOL    HW181376   6.886   5.324   7.383
27042SOL    HW281377   6.761   5.403   7.351
27043SOL     OW81378   4.053   7.752   0.683
27043SOL    HW181379   4.096   7.837   0.694
27043SOL    HW281380   3.960   7.769   0.700
27044SOL     OW81381   8.898   6.977   2.534
27044SOL    HW181382   8.892   6.887   2.503
27044SOL    HW281383   8.930   7.027   2.459
27045SOL     OW81384  12.173  10.870   5.911
27045SOL    HW181385  12.205  10.939   5.853
27045SOL    HW281386  12.078  10.886   5.916
27046SOL     OW81387  10.938  14.514   5.943
27046SOL    HW181388  10.942  14.492   5.850
27046SOL    HW281389  10.851  14.487   5.970
27047SOL     OW81390   4.600   7.559   2.194
27047SOL    HW181391   4.648   7.553   2.111
27047SOL    HW281392   4.625   7.480   2.242
27048SOL     OW81393   5.980  13.060   6.499
27048SOL    HW181394   6.014  13.146   6.473
27048SOL    HW281395   5.940  13.075   6.585
27049SOL     OW81396   5.498   2.092   1.882
27049SOL    HW181397   5.403   2.083   1.877
27049SOL    HW281398   5.513   2.166   1.940
27050SOL     OW81399  12.580   7.386   6.688
27050SOL    HW181400  12.496   7.345   6.708
27050SOL    HW281401  12.613   7.417   6.773
27051SOL     OW81402   5.886   9.581   4.574
27051SOL    HW181403   5.952   9.620   4.632
27051SOL    HW281404   5.913   9.490   4.565
27052SOL     OW81405   5.596  13.073   7.068
27052SOL    HW181406   5.662  13.027   7.121
27052SOL    HW281407   5.598  13.028   6.984
27053SOL     OW81408   9.424   8.851   4.009
27053SOL    HW181409   9.464   8.838   4.095
27053SOL    HW281410   9.385   8.765   3.989
27054SOL     OW81411   4.941   9.061   4.775
27054SOL    HW181412   4.934   8.967   4.788
27054SOL    HW281413   4.871   9.098   4.829
27055SOL     OW81414   4.965  10.722   6.254
27055SOL    HW181415   4.939  10.750   6.342
27055SOL    HW281416   4.890  10.743   6.199
27056SOL     OW81417   5.360   4.708   5.045
27056SOL    HW181418   5.416   4.736   5.117
27056SOL    HW281419   5.404   4.631   5.009
27057SOL     OW81420  13.315   6.320   7.040
27057SOL    HW181421  13.306   6.235   7.083
27057SOL    HW281422  13.287   6.383   7.107
27058SOL     OW81423   4.136   7.382   5.196
27058SOL    HW181424   4.103   7.307   5.245
27058SOL    HW281425   4.109   7.367   5.106
27059SOL     OW81426  12.850  14.237   5.087
27059SOL    HW181427  12.778  14.173   5.079
27059SOL    HW281428  12.889  14.218   5.172
27060SOL     OW81429   7.964   5.142   3.312
27060SOL    HW181430   7.902   5.200   3.358
27060SOL    HW281431   8.049   5.161   3.352
27061SOL     OW81432  11.140  13.683   6.051
27061SOL    HW181433  11.142  13.716   5.961
27061SOL    HW281434  11.232  13.671   6.074
27062SOL     OW81435   5.941   6.784   5.603
27062SOL    HW181436   5.909   6.853   5.661
27062SOL    HW281437   5.887   6.708   5.626
27063SOL     OW81438  10.366   5.808   4.359
27063SOL    HW181439  10.407   5.777   4.278
27063SOL    HW281440  10.411   5.759   4.428
27064SOL     OW81441   9.396   9.241   6.491
27064SOL    HW181442   9.311   9.198   6.486
27064SOL    HW281443   9.400   9.296   6.412
27065SOL     OW81444   7.501  12.281   2.987
27065SOL    HW181445   7.427  12.284   3.048
27065SOL    HW281446   7.535  12.192   2.995
27066SOL     OW81447   7.751   6.264   4.778
27066SOL    HW181448   7.745   6.353   4.743
27066SOL    HW281449   7.841   6.256   4.809
27067SOL     OW81450   5.255   7.684   0.851
27067SOL    HW181451   5.313   7.612   0.828
27067SOL    HW281452   5.313   7.752   0.886
27068SOL     OW81453  13.690  10.519   7.525
27068SOL    HW181454  13.691  10.513   7.430
27068SOL    HW281455  13.702  10.612   7.544
27069SOL     OW81456  10.043   1.767   2.374
27069SOL    HW181457  10.110   1.700   2.364
27069SOL    HW281458  10.056   1.802   2.462
27070SOL     OW81459   7.358   6.702   5.179
27070SOL    HW181460   7.434   6.665   5.225
27070SOL    HW281461   7.396   6.761   5.113
27071SOL     OW81462  12.816  12.295   4.118
27071SOL    HW181463  12.736  12.347   4.104
27071SOL    HW281464  12.856  12.290   4.031
27072SOL     OW81465   5.923   9.030   5.337
27072SOL    HW181466   6.005   8.982   5.347
27072SOL    HW281467   5.878   8.987   5.264
27073SOL     OW81468   1.199   8.624   0.920
27073SOL    HW181469   1.284   8.582   0.926
27073SOL    HW281470   1.183   8.632   0.826
27074SOL     OW81471   4.831  11.503   5.945
27074SOL    HW181472   4.917  11.500   5.987
27074SOL    HW281473   4.836  11.578   5.886
27075SOL     OW81474  11.043   8.178   7.436
27075SOL    HW181475  11.072   8.092   7.406
27075SOL    HW281476  10.999   8.161   7.519
27076SOL     OW81477   3.875   9.773   0.971
27076SOL    HW181478   3.799   9.755   1.026
27076SOL    HW281479   3.924   9.841   1.018
27077SOL     OW81480   7.614   4.554   6.439
27077SOL    HW181481   7.565  15.253   6.406
27077SOL    HW281482   7.680  15.290   6.497
27078SOL     OW81483  11.514  10.311   2.712
27078SOL    HW181484  11.604  10.341   2.720
27078SOL    HW281485  11.467  10.384   2.671
27079SOL     OW81486   9.088   5.880   0.978
27079SOL    HW181487   9.152   5.810   0.991
27079SOL    HW281488   9.016   5.858   1.038
27080SOL     OW81489  13.752  10.167   7.322
27080SOL    HW181490  13.715  10.182   7.235
27080SOL    HW281491  13.709  10.232   7.377
27081SOL     OW81492   4.852  12.672   6.202
27081SOL    HW181493   4.939  12.642   6.179
27081SOL    HW281494   4.848  12.763   6.171
27082SOL     OW81495   4.070   6.972   1.710
27082SOL    HW181496   4.136   6.973   1.640
27082SOL    HW281497   4.048   6.879   1.720
27083SOL     OW81498  12.919  11.238   3.048
27083SOL    HW181499   2.230  11.227   3.005
27083SOL    HW281500  12.914  11.167   3.111
27084SOL     OW81501   5.287   7.942   0.512
27084SOL    HW181502   5.258   7.961   0.422
27084SOL    HW281503   5.234   7.867   0.538
27085SOL     OW81504   0.838   8.552   0.424
27085SOL    HW181505   0.796   8.605   0.356
27085SOL    HW281506   0.924   8.530   0.388
27086SOL     OW81507  11.836  10.176   7.278
27086SOL    HW181508  11.822  10.242   7.210
27086SOL    HW281509  11.930  10.156   7.273
27087SOL     OW81510   5.033   7.538   1.486
27087SOL    HW181511   5.093   7.609   1.463
27087SOL    HW281512   5.087   7.474   1.533
27088SOL     OW81513  11.613   4.927   1.431
27088SOL    HW181514  11.532   4.936   1.480
27088SOL    HW281515  11.649   5.015   1.425
27089SOL     OW81516   5.760   9.780   4.383
27089SOL    HW181517   5.795   9.694   4.406
27089SOL    HW281518   5.826   9.819   4.326
27090SOL     OW81519  15.139  12.105   7.536
27090SOL    HW181520  15.235  12.110   7.536
27090SOL    HW281521  15.117  12.065   7.452
27091SOL     OW81522  11.294   8.617   7.542
27091SOL    HW181523  11.343   8.628   7.461
27091SOL    HW281524  11.252   8.531   7.533
27092SOL     OW81525  10.854   8.760   2.279
27092SOL    HW181526  10.857   8.849   2.312
27092SOL    HW281527  10.909   8.710   2.339
27093SOL     OW81528  13.226  13.431   3.828
27093SOL    HW181529  13.135  13.421   3.802
27093SOL    HW281530  13.232   2.746   3.861
27094SOL     OW81531   3.164   3.572   2.760
27094SOL    HW181532   3.099   3.535   2.701
27094SOL    HW281533   3.153   3.524   2.842
27095SOL     OW81534  14.859  11.471   6.879
27095SOL    HW181535  14.825  11.479   6.790
27095SOL    HW281536  14.953  11.486   6.870
27096SOL     OW81537  13.317  13.207   5.954
27096SOL    HW181538  13.293  13.285   6.004
27096SOL    HW281539  13.382  13.238   5.891
27097SOL     OW81540   9.557  12.220   5.735
27097SOL    HW181541   9.496  12.292   5.753
27097SOL    HW281542   9.568  12.177   5.820
27098SOL     OW81543   9.133  15.081   7.329
27098SOL    HW181544   9.211  15.136   7.327
27098SOL    HW281545   9.085  15.109   7.407
27099SOL     OW81546   4.344   4.172   1.927
27099SOL    HW181547   4.414   4.235   1.912
27099SOL    HW281548   4.265   4.215   1.894
27100SOL     OW81549  12.747  11.124   4.011
27100SOL    HW181550  12.751  11.078   4.095
27100SOL    HW281551  12.838  11.144   3.991
27101SOL     OW81552  11.513   4.919   4.592
27101SOL    HW181553  11.462   4.992   4.556
27101SOL    HW281554  11.547   4.874   4.515
27102SOL     OW81555  14.045  11.749   6.912
27102SOL    HW181556  14.051  11.727   6.819
27102SOL    HW281557  13.953  11.772   6.925
27103SOL     OW81558   5.197  11.782   2.349
27103SOL    HW181559   5.142  11.736   2.413
27103SOL    HW281560   5.212  11.868   2.388
27104SOL     OW81561   7.798   9.998   3.022
27104SOL    HW181562   7.855  10.075   3.029
27104SOL    HW281563   7.853   9.931   2.982
27105SOL     OW81564  10.286   9.678   0.891
27105SOL    HW181565  10.255   9.686   0.982
27105SOL    HW281566  10.371   9.721   0.891
27106SOL     OW81567  11.837  12.685   7.543
27106SOL    HW181568  11.831  12.605   7.491
27106SOL    HW281569   6.478   7.269   0.011
27107SOL     OW81570   4.011   4.264   4.591
27107SOL    HW181571   3.959   4.310   4.656
27107SOL    HW281572   4.022   4.328   4.520
27108SOL     OW81573   3.498   4.957   4.919
27108SOL    HW181574   3.463   4.943   4.831
27108SOL    HW281575   3.530   5.047   4.919
27109SOL     OW81576  11.688   5.733   6.726
27109SOL    HW181577  11.644   5.790   6.788
27109SOL    HW281578  11.751   5.684   6.779
27110SOL     OW81579   1.997   7.546   1.856
27110SOL    HW181580   1.908   7.509   1.850
27110SOL    HW281581   2.012   7.556   1.949
27111SOL     OW81582  12.251   6.428   6.959
27111SOL    HW181583  12.268   6.431   6.865
27111SOL    HW281584  12.218   6.340   6.975
27112SOL     OW81585  15.271   9.216   7.578
27112SOL    HW181586   9.858   3.891   0.027
27112SOL    HW281587  15.276   9.268   7.498
27113SOL     OW81588   6.731   6.261   3.909
27113SOL    HW181589   6.762   6.341   3.866
27113SOL    HW281590   6.647   6.286   3.948
27114SOL     OW81591   6.386   7.803   6.955
27114SOL    HW181592   6.405   7.876   6.897
27114SOL    HW281593   6.465   7.793   7.009
27115SOL     OW81594   8.337   6.829   3.162
27115SOL    HW181595   8.347   6.735   3.145
27115SOL    HW281596   8.424   6.866   3.147
27116SOL     OW81597   9.874  11.412   2.494
27116SOL    HW181598   9.794  11.406   2.546
27116SOL    HW281599   9.940  11.368   2.547
27117SOL     OW81600  11.791  12.373   3.300
27117SOL    HW181601  11.809  12.279   3.304
27117SOL    HW281602  11.875  12.413   3.278
27118SOL     OW81603   9.371   9.495   2.413
27118SOL    HW181604   9.433   9.543   2.468
27118SOL    HW281605   9.341   9.423   2.468
27119SOL     OW81606   7.416   7.995   5.317
27119SOL    HW181607   7.484   8.048   5.358
27119SOL    HW281608   7.422   8.016   5.223
27120SOL     OW81609   8.512   3.944   1.546
27120SOL    HW181610   8.509   3.969   1.639
27120SOL    HW281611   8.578   4.001   1.509
27121SOL     OW81612   2.325   2.598   2.765
27121SOL    HW181613   2.407   2.631   2.802
27121SOL    HW281614   2.279   2.559   2.840
27122SOL     OW81615  10.167   7.517   0.984
27122SOL    HW181616  10.171   7.452   0.914
27122SOL    HW281617  10.216   7.477   1.056
27123SOL     OW81618   7.062   8.821   1.396
27123SOL    HW181619   7.074   8.907   1.437
27123SOL    HW281620   7.000   8.836   1.325
27124SOL     OW81621   6.928  14.795   6.795
27124SOL    HW181622   6.892  14.743   6.723
27124SOL    HW281623   7.022  14.793   6.780
27125SOL     OW81624   9.747  15.227   7.364
27125SOL    HW181625   9.837  15.194   7.361
27125SOL    HW281626   9.752  15.306   7.417
27126SOL     OW81627  11.256   2.963   4.087
27126SOL    HW181628  11.224   3.053   4.095
27126SOL    HW281629  11.292  13.717   4.174
27127SOL     OW81630  13.299   7.788   5.648
27127SOL    HW181631  13.315   7.698   5.675
27127SOL    HW281632  13.272   7.833   5.728
27128SOL     OW81633   2.299   9.981   1.694
27128SOL    HW181634   2.333  10.016   1.611
27128SOL    HW281635   2.367  10.002   1.758
27129SOL     OW81636  13.429  13.337   7.128
27129SOL    HW181637  13.402  13.427   7.143
27129SOL    HW281638  13.510  13.344   7.078
27130SOL     OW81639   8.632   3.776   2.276
27130SOL    HW181640   8.721   3.742   2.264
27130SOL    HW281641   8.617   3.831   2.199
27131SOL     OW81642   8.260  10.400   2.792
27131SOL    HW181643   8.169  10.422   2.815
27131SOL    HW281644   8.295  10.481   2.755
27132SOL     OW81645   7.360   6.687   6.384
27132SOL    HW181646   7.397   6.736   6.310
27132SOL    HW281647   7.389   6.597   6.370
27133SOL     OW81648  12.113  10.197   6.959
27133SOL    HW181649  12.029  10.210   6.916
27133SOL    HW281650  12.178  10.212   6.890
27134SOL     OW81651   8.151   8.325   0.811
27134SOL    HW181652   8.099   8.343   0.888
27134SOL    HW281653   8.145   8.404   0.758
27135SOL     OW81654   5.089  13.014   5.692
27135SOL    HW181655   5.102  12.940   5.634
27135SOL    HW281656   5.170  13.065   5.684
27136SOL     OW81657   3.896  12.050   2.217
27136SOL    HW181658   3.990  12.032   2.215
27136SOL    HW281659   3.890  12.145   2.206
27137SOL     OW81660   7.605   9.471   6.586
27137SOL    HW181661   7.666   9.489   6.515
27137SOL    HW281662   7.519   9.467   6.544
27138SOL     OW81663   7.098   5.601   2.630
27138SOL    HW181664   7.095   5.680   2.576
27138SOL    HW281665   7.125   5.633   2.717
27139SOL     OW81666   9.832   7.812   3.366
27139SOL    HW181667   9.779   7.732   3.366
27139SOL    HW281668   9.884   7.807   3.286
27140SOL     OW81669   9.145   9.123   1.561
27140SOL    HW181670   9.152   9.037   1.603
27140SOL    HW281671   9.232   9.161   1.571
27141SOL     OW81672   6.160  10.510   5.466
27141SOL    HW181673   6.180  10.420   5.440
27141SOL    HW281674   6.128  10.551   5.385
27142SOL     OW81675  11.424   5.062   1.261
27142SOL    HW181676  11.398   5.029   1.347
27142SOL    HW281677  11.519   5.068   1.265
27143SOL     OW81678  12.107  10.152   4.500
27143SOL    HW181679  12.153  10.167   4.582
27143SOL    HW281680  12.150  10.209   4.437
27144SOL     OW81681   3.102   9.322   3.384
27144SOL    HW181682   3.182   9.273   3.404
27144SOL    HW281683   3.031   9.262   3.406
27145SOL     OW81684   8.778   8.512   6.447
27145SOL    HW181685   8.714   8.475   6.387
27145SOL    HW281686   8.862   8.486   6.412
27146SOL     OW81687   3.964   8.280   4.072
27146SOL    HW181688   4.044   8.235   4.099
27146SOL    HW281689   3.994   8.359   4.028
27147SOL     OW81690   2.846   6.943   1.264
27147SOL    HW181691   2.840   7.009   1.195
27147SOL    HW281692   2.756   6.926   1.290
27148SOL     OW81693   8.038  14.573   5.998
27148SOL    HW181694   8.036  14.504   5.932
27148SOL    HW281695   8.055  14.527   6.080
27149SOL     OW81696   1.686   8.427   1.623
27149SOL    HW181697   1.697   8.522   1.619
27149SOL    HW281698   1.591   8.414   1.621
27150SOL     OW81699  13.398   6.398   4.780
27150SOL    HW181700  13.375   6.397   4.873
27150SOL    HW281701  13.347   6.327   4.742
27151SOL     OW81702   4.215   9.616   4.946
27151SOL    HW181703   4.308   9.635   4.931
27151SOL    HW281704   4.212   9.521   4.958
27152SOL     OW81705  11.607   8.892   3.311
27152SOL    HW181706  11.547   8.909   3.384
27152SOL    HW281707  11.551   8.865   3.239
27153SOL     OW81708   5.842  13.304   4.166
27153SOL    HW181709   5.921  13.263   4.202
27153SOL    HW281710   5.845  13.394   4.197
27154SOL     OW81711   4.821   8.518   5.630
27154SOL    HW181712   4.844   8.490   5.718
27154SOL    HW281713   4.857   8.607   5.623
27155SOL     OW81714   6.858   2.656   3.005
27155SOL    HW181715   6.802   2.669   3.082
27155SOL    HW281716   6.814   2.705   2.935
27156SOL     OW81717   2.664  10.803   0.894
27156SOL    HW181718   2.702  10.889   0.880
27156SOL    HW281719   2.654  10.766   0.806
27157SOL     OW81720   1.485   2.519   1.900
27157SOL    HW181721   1.459   2.455   1.833
27157SOL    HW281722   1.489   2.602   1.853
27158SOL     OW81723   2.156   2.108   0.165
27158SOL    HW181724   2.137   2.046   0.095
27158SOL    HW281725   2.074   2.156   0.177
27159SOL     OW81726  11.892  10.794   2.162
27159SOL    HW181727  11.887  10.883   2.197
27159SOL    HW281728  11.807  10.755   2.182
27160SOL     OW81729   9.682   4.737   4.260
27160SOL    HW181730   9.756   4.726   4.199
27160SOL    HW281731   9.700   4.673   4.329
27161SOL     OW81732  12.088  11.238   6.512
27161SOL    HW181733  12.106  11.291   6.435
27161SOL    HW281734  12.053  11.156   6.476
27162SOL     OW81735   9.633   9.039   0.200
27162SOL    HW181736   9.706   8.978   0.208
27162SOL    HW281737   9.615   9.067   0.289
27163SOL     OW81738  10.010   5.372   3.599
27163SOL    HW181739   9.932   5.374   3.544
27163SOL    HW281740  10.031   5.279   3.608
27164SOL     OW81741   1.908  10.152   1.841
27164SOL    HW181742   1.978  10.141   1.776
27164SOL    HW281743   1.888  10.063   1.870
27165SOL     OW81744   9.752   8.532   7.336
27165SOL    HW181745   9.847   8.525   7.339
27165SOL    HW281746   9.720   8.446   7.363
27166SOL     OW81747  11.384   4.218   3.140
27166SOL    HW181748  11.455   4.283   3.142
27166SOL    HW281749  11.344   4.224   3.226
27167SOL     OW81750   7.766  11.492   2.840
27167SOL    HW181751   7.826  11.555   2.800
27167SOL    HW281752   7.805  11.472   2.925
27168SOL     OW81753  13.121  10.033   6.963
27168SOL    HW181754  13.119   9.955   7.018
27168SOL    HW281755  13.184  10.091   7.004
27169SOL     OW81756  10.464   4.811   6.239
27169SOL    HW181757  10.534   4.848   6.186
27169SOL    HW281758  10.461   4.868   6.317
27170SOL     OW81759   2.630   0.714   0.100
27170SOL    HW181760   2.709   0.686   0.146
27170SOL    HW281761   2.559   0.672   0.148
27171SOL     OW81762  10.436   7.717   1.042
27171SOL    HW181763  10.443   7.638   0.989
27171SOL    HW281764  10.344   7.721   1.067
27172SOL     OW81765   9.967   6.991   2.432
27172SOL    HW181766   9.964   7.087   2.443
27172SOL    HW281767  10.059   6.969   2.443
27173SOL     OW81768   4.262   7.778   0.146
27173SOL    HW181769   4.281   7.692   0.184
27173SOL    HW281770   4.167   7.779   0.135
27174SOL     OW81771  11.369   8.196   1.575
27174SOL    HW181772  11.279   8.202   1.543
27174SOL    HW281773  11.402   8.286   1.570
27175SOL     OW81774   9.594   9.294   2.539
27175SOL    HW181775   9.566   9.203   2.542
27175SOL    HW281776   9.648   9.300   2.460
27176SOL     OW81777  10.187  10.702   3.218
27176SOL    HW181778  10.092  10.719   3.219
27176SOL    HW281779  10.214  10.714   3.308
27177SOL     OW81780   9.593  12.095   2.037
27177SOL    HW181781   9.681  12.070   2.066
27177SOL    HW281782   9.602  12.185   2.007
27178SOL     OW81783  15.221   7.802   6.799
27178SOL    HW181784  15.291   7.788   6.736
27178SOL    HW281785  15.144   7.760   6.759
27179SOL     OW81786   1.627   6.575   1.783
27179SOL    HW181787   1.627   6.594   1.689
27179SOL    HW281788   1.719   6.560   1.804
27180SOL     OW81789  10.362   8.938   0.525
27180SOL    HW181790  10.386   8.981   0.607
27180SOL    HW281791  10.426   8.970   0.461
27181SOL     OW81792   6.423   7.360   1.169
27181SOL    HW181793   6.439   7.454   1.176
27181SOL    HW281794   6.327   7.353   1.166
27182SOL     OW81795  10.972   4.490   1.854
27182SOL    HW181796  10.897   4.549   1.859
27182SOL    HW281797  10.940   4.414   1.806
27183SOL     OW81798   8.241   6.840   5.269
27183SOL    HW181799   8.267   6.749   5.282
27183SOL    HW281800   8.250   6.854   5.174
27184SOL     OW81801   7.070   1.610   1.437
27184SOL    HW181802   6.975   1.620   1.444
27184SOL    HW281803   7.083   1.542   1.372
27185SOL     OW81804   7.801   4.950   4.606
27185SOL    HW181805   7.725   5.006   4.622
27185SOL    HW281806   7.840   4.984   4.526
27186SOL     OW81807   8.965   6.574   6.946
27186SOL    HW181808   8.921   6.595   6.864
27186SOL    HW281809   9.020   6.499   6.925
27187SOL     OW81810   4.965   4.074   3.692
27187SOL    HW181811   5.060   4.063   3.698
27187SOL    HW281812   4.947   4.150   3.747
27188SOL     OW81813   4.271   1.725   1.820
27188SOL    HW181814   4.266   1.809   1.775
27188SOL    HW281815   4.294   1.747   1.910
27189SOL     OW81816   9.919  11.605   5.026
27189SOL    HW181817   9.889  11.600   4.936
27189SOL    HW281818   9.971  11.526   5.039
27190SOL     OW81819   8.413   4.646   2.216
27190SOL    HW181820   8.361   4.569   2.194
27190SOL    HW281821   8.482   4.613   2.273
27191SOL     OW81822   5.776   3.841   0.749
27191SOL    HW181823   5.748   3.783   0.678
27191SOL    HW281824   5.699   3.894   0.768
27192SOL     OW81825   8.036   4.236   4.683
27192SOL    HW181826   8.016   4.328   4.668
27192SOL    HW281827   8.128   4.228   4.659
27193SOL     OW81828   7.732  10.617   7.017
27193SOL    HW181829   7.824  10.642   7.024
27193SOL    HW281830   7.687  10.698   6.990
27194SOL     OW81831  11.352   5.527   7.311
27194SOL    HW181832  11.407   5.450   7.297
27194SOL    HW281833  11.262   5.492   7.309
27195SOL     OW81834   7.578   4.509   0.088
27195SOL    HW181835   7.500   4.531   0.037
27195SOL    HW281836   7.644   4.487   0.022
27196SOL     OW81837   8.922   3.485   4.050
27196SOL    HW181838   8.917   3.428   4.127
27196SOL    HW281839   9.005   3.532   4.061
27197SOL     OW81840  10.234   5.143   0.905
27197SOL    HW181841  10.300   5.199   0.946
27197SOL    HW281842  10.187   5.104   0.979
27198SOL     OW81843   6.220   5.601   4.905
27198SOL    HW181844   6.250   5.654   4.978
27198SOL    HW281845   6.168   5.531   4.946
27199SOL     OW81846   8.640   5.621   4.061
27199SOL    HW181847   8.591   5.617   4.143
27199SOL    HW281848   8.725   5.583   4.082
27200SOL     OW81849  12.795   6.590   2.992
27200SOL    HW181850  12.715   6.615   3.039
27200SOL    HW281851  12.820   6.506   3.031
27201SOL     OW81852   1.213   5.167   1.672
27201SOL    HW181853   1.305   5.139   1.676
27201SOL    HW281854   1.173   5.109   1.607
27202SOL     OW81855   8.413  13.598   4.726
27202SOL    HW181856   8.344  13.664   4.721
27202SOL    HW281857   8.382  13.527   4.669
27203SOL     OW81858   8.427   7.128   4.447
27203SOL    HW181859   8.502   7.131   4.388
27203SOL    HW281860   8.363   7.188   4.408
27204SOL     OW81861   4.667  10.147   4.982
27204SOL    HW181862   4.651  10.079   4.917
27204SOL    HW281863   4.685  10.226   4.931
27205SOL     OW81864   7.155   6.878   4.363
27205SOL    HW181865   7.162   6.969   4.335
27205SOL    HW281866   7.061   6.859   4.359
27206SOL     OW81867   2.963   2.569   3.562
27206SOL    HW181868   2.953  13.256   3.525
27206SOL    HW281869   2.897   2.574   3.631
27207SOL     OW81870   9.958   3.282   1.829
27207SOL    HW181871   9.947   3.203   1.881
27207SOL    HW281872   9.940   3.254   1.739
27208SOL     OW81873  11.894   8.116   4.722
27208SOL    HW181874  11.881   8.209   4.703
27208SOL    HW281875  11.960   8.115   4.792
27209SOL     OW81876   4.292   2.024   1.435
27209SOL    HW181877   4.223   2.000   1.498
27209SOL    HW281878   4.309   1.943   1.387
27210SOL     OW81879   7.949   6.186   1.069
27210SOL    HW181880   7.898   6.242   1.010
27210SOL    HW281881   7.893   6.109   1.083
27211SOL     OW81882  12.466   4.994   2.713
27211SOL    HW181883  12.537   5.043   2.671
27211SOL    HW281884  12.411   5.062   2.752
27212SOL     OW81885  10.040   9.188   6.633
27212SOL    HW181886  10.098   9.264   6.622
27212SOL    HW281887  10.001   9.175   6.547
27213SOL     OW81888   4.973   6.158   1.589
27213SOL    HW181889   4.941   6.126   1.504
27213SOL    HW281890   5.055   6.111   1.603
27214SOL     OW81891   4.783   3.475   3.353
27214SOL    HW181892   4.817   3.542   3.295
27214SOL    HW281893   4.753   3.523   3.430
27215SOL     OW81894  12.524   3.942   3.040
27215SOL    HW181895  12.608   3.988   3.039
27215SOL    HW281896  12.509   3.922   3.132
27216SOL     OW81897  14.781  10.550   6.179
27216SOL    HW181898  14.748  10.480   6.236
27216SOL    HW281899  14.863  10.578   6.220
27217SOL     OW81900   9.347   4.861   5.215
27217SOL    HW181901   9.355   4.941   5.267
27217SOL    HW281902   9.428   4.857   5.164
27218SOL     OW81903   5.979  13.805   5.859
27218SOL    HW181904   5.974  13.718   5.820
27218SOL    HW281905   6.049  13.799   5.924
27219SOL     OW81906   7.827   2.383   0.933
27219SOL    HW181907   7.920   2.402   0.937
27219SOL    HW281908   7.785   2.459   0.975
27220SOL     OW81909  11.667  12.140   2.774
27220SOL    HW181910  11.624  12.159   2.691
27220SOL    HW281911  11.608  12.079   2.819
27221SOL     OW81912   9.230   5.997   1.254
27221SOL    HW181913   9.323   5.983   1.238
27221SOL    HW281914   9.225   6.021   1.346
27222SOL     OW81915  10.230   5.288   0.066
27222SOL    HW181916  10.304   5.314   0.011
27222SOL    HW281917  10.270   5.264   0.150
27223SOL     OW81918  10.830  12.125   4.558
27223SOL    HW181919  10.762  12.065   4.590
27223SOL    HW281920  10.888  12.070   4.506
27224SOL     OW81921  10.836   8.088   3.456
27224SOL    HW181922  10.742   8.073   3.453
27224SOL    HW281923  10.868   8.027   3.522
27225SOL     OW81924   3.314   3.415   0.962
27225SOL    HW181925   3.407   3.397   0.953
27225SOL    HW281926   3.301   3.496   0.913
27226SOL     OW81927  12.844  12.084   6.281
27226SOL    HW181928  12.803  12.157   6.327
27226SOL    HW281929  12.773  12.044   6.231
27227SOL     OW81930  14.616   6.898   6.103
27227SOL    HW181931  14.627   6.990   6.125
27227SOL    HW281932  14.617   6.896   6.007
27228SOL     OW81933  15.541   6.087   6.787
27228SOL    HW181934   4.857   6.117   6.776
27228SOL    HW281935  15.541   5.999   6.750
27229SOL     OW81936   8.172   7.963   4.757
27229SOL    HW181937   8.233   8.035   4.742
27229SOL    HW281938   8.226   7.884   4.747
27230SOL     OW81939  12.151  10.566   3.460
27230SOL    HW181940  12.152  10.652   3.503
27230SOL    HW281941  12.062  10.534   3.471
27231SOL     OW81942   4.220   8.608   4.482
27231SOL    HW181943   4.274   8.630   4.558
27231SOL    HW281944   4.217   8.688   4.430
27232SOL     OW81945   9.922   5.115   4.597
27232SOL    HW181946   9.954   5.083   4.513
27232SOL    HW281947   9.941   5.209   4.596
27233SOL     OW81948  11.761   4.719   6.571
27233SOL    HW181949  11.736   4.800   6.526
27233SOL    HW281950  11.845   4.739   6.612
27234SOL     OW81951   4.648   6.018   4.616
27234SOL    HW181952   4.573   5.962   4.597
27234SOL    HW281953   4.720   5.958   4.631
27235SOL     OW81954  11.425  13.807   7.346
27235SOL    HW181955  11.366  13.777   7.278
27235SOL    HW281956  11.369  13.820   7.423
27236SOL     OW81957   5.095   6.007   4.714
27236SOL    HW181958   5.158   5.936   4.697
27236SOL    HW281959   5.073   6.041   4.628
27237SOL     OW81960   6.212   9.766   5.291
27237SOL    HW181961   6.267   9.689   5.303
27237SOL    HW281962   6.172   9.755   5.205
27238SOL     OW81963  13.990   5.694   5.024
27238SOL    HW181964  13.911   5.666   4.978
27238SOL    HW281965  14.052   5.623   5.010
27239SOL     OW81966  12.672   4.622   6.024
27239SOL    HW181967  12.589   4.647   6.064
27239SOL    HW281968  12.724   4.702   6.023
27240SOL     OW81969   2.750   2.568   1.981
27240SOL    HW181970   2.706   2.644   2.019
27240SOL    HW281971   2.843   2.593   1.980
27241SOL     OW81972   4.554   3.326   1.161
27241SOL    HW181973   4.575   3.262   1.230
27241SOL    HW281974   4.636   3.337   1.113
27242SOL     OW81975   7.634   5.059   0.328
27242SOL    HW181976   7.673   4.976   0.357
27242SOL    HW281977   7.546   5.035   0.298
27243SOL     OW81978  12.673   4.086   5.421
27243SOL    HW181979  12.768   4.076   5.426
27243SOL    HW281980  12.641   4.001   5.390
27244SOL     OW81981   8.518  14.374   5.160
27244SOL    HW181982   8.545  14.439   5.225
27244SOL    HW281983   8.533  14.290   5.203
27245SOL     OW81984  13.787   9.070   5.433
27245SOL    HW181985  13.789   9.165   5.438
27245SOL    HW281986  13.751   9.042   5.517
27246SOL     OW81987  11.095  11.196   5.995
27246SOL    HW181988  11.099  11.291   6.005
27246SOL    HW281989  11.186  11.169   5.982
27247SOL     OW81990   6.783   3.040   3.261
27247SOL    HW181991   6.752   3.128   3.240
27247SOL    HW281992   6.707   2.998   3.301
27248SOL     OW81993   4.691   1.507   0.139
27248SOL    HW181994   4.734   1.582   0.097
27248SOL    HW281995   4.737   1.431   0.104
27249SOL     OW81996  11.543   7.802   4.637
27249SOL    HW181997  11.533   7.888   4.596
27249SOL    HW281998  11.550   7.820   4.731
27250SOL     OW81999   6.014   7.923   0.415
27250SOL    HW182000   5.986   7.832   0.425
27250SOL    HW282001   5.945   7.964   0.363
27251SOL     OW82002   6.583   2.490   1.381
27251SOL    HW182003   6.570   2.557   1.314
27251SOL    HW282004   6.507   2.498   1.439
27252SOL     OW82005   8.740  14.848   6.313
27252SOL    HW182006   8.781  14.864   6.399
27252SOL    HW282007   8.805  14.794   6.266
27253SOL     OW82008   6.025   8.341   2.478
27253SOL    HW182009   5.942   8.320   2.519
27253SOL    HW282010   6.076   8.260   2.485
27254SOL     OW82011   4.925   4.746   2.603
27254SOL    HW182012   5.021   4.740   2.596
27254SOL    HW282013   4.898   4.792   2.523
27255SOL     OW82014   5.936   4.104   0.295
27255SOL    HW182015   5.881   4.064   0.362
27255SOL    HW282016   6.025   4.087   0.324
27256SOL     OW82017   9.525   9.461   1.682
27256SOL    HW182018   9.525   9.379   1.731
27256SOL    HW282019   9.507   9.436   1.592
27257SOL     OW82020   3.224  13.185   3.451
27257SOL    HW182021   3.267  13.226   3.526
27257SOL    HW282022   3.207   2.482   3.390
27258SOL     OW82023   4.468   6.316   4.978
27258SOL    HW182024   4.531   6.344   5.045
27258SOL    HW282025   4.426   6.398   4.950
27259SOL     OW82026   9.715   5.279   4.058
27259SOL    HW182027   9.716   5.373   4.040
27259SOL    HW282028   9.653   5.244   3.994
27260SOL     OW82029   8.490   7.777   2.542
27260SOL    HW182030   8.538   7.695   2.536
27260SOL    HW282031   8.446   7.786   2.458
27261SOL     OW82032   2.705   3.641   2.429
27261SOL    HW182033   2.801   3.643   2.423
27261SOL    HW282034   2.676   3.606   2.345
27262SOL     OW82035  15.493  13.278   7.609
27262SOL    HW182036  15.474  13.188   7.583
27262SOL    HW282037  15.493  13.328   7.527
27263SOL     OW82038   7.901   3.610   2.989
27263SOL    HW182039   7.894   3.571   3.076
27263SOL    HW282040   7.995   3.612   2.971
27264SOL     OW82041   5.046   3.711   0.128
27264SOL    HW182042   5.073   3.689   0.039
27264SOL    HW282043   5.081   3.639   0.181
27265SOL     OW82044   9.484   4.956   4.310
27265SOL    HW182045   9.519   4.892   4.248
27265SOL    HW282046   9.407   4.913   4.348
27266SOL     OW82047   8.452  13.089   5.627
27266SOL    HW182048   8.545  13.108   5.639
27266SOL    HW282049   8.413  13.172   5.599
27267SOL     OW82050  11.101  10.211   5.374
27267SOL    HW182051  11.062  10.298   5.372
27267SOL    HW282052  11.193  10.225   5.353
27268SOL     OW82053   3.542  10.691   1.019
27268SOL    HW182054   3.539  10.685   1.115
27268SOL    HW282055   3.501  10.774   0.998
27269SOL     OW82056   5.155   7.035   2.992
27269SOL    HW182057   5.187   7.125   2.981
27269SOL    HW282058   5.200   6.985   2.924
27270SOL     OW82059   6.235  11.492   4.222
27270SOL    HW182060   6.211  11.554   4.291
27270SOL    HW282061   6.203  11.407   4.253
27271SOL     OW82062   3.286   8.686   0.617
27271SOL    HW182063   3.268   8.775   0.649
27271SOL    HW282064   3.262   8.689   0.524
27272SOL     OW82065  12.426  11.114   5.050
27272SOL    HW182066  12.417  11.103   4.955
27272SOL    HW282067  12.346  11.075   5.086
27273SOL     OW82068   9.983   3.739   3.663
27273SOL    HW182069   9.919   3.669   3.650
27273SOL    HW282070  10.020   3.755   3.576
27274SOL     OW82071  10.168  11.267   1.432
27274SOL    HW182072  10.125  11.274   1.347
27274SOL    HW282073  10.239  11.205   1.418
27275SOL     OW82074  11.631   9.426   5.799
27275SOL    HW182075  11.713   9.428   5.750
27275SOL    HW282076  11.600   9.335   5.790
27276SOL     OW82077  13.173   9.839   5.366
27276SOL    HW182078  13.166   9.912   5.427
27276SOL    HW282079  13.198   9.765   5.421
27277SOL     OW82080   5.971   6.599   2.282
27277SOL    HW182081   6.042   6.596   2.218
27277SOL    HW282082   5.892   6.614   2.230
27278SOL     OW82083   5.396  15.845   7.443
27278SOL    HW182084   5.387  15.889   7.358
27278SOL    HW282085   5.326  15.882   7.497
27279SOL     OW82086   9.393   7.632   7.597
27279SOL    HW182087   9.436   7.601   7.518
27279SOL    HW282088   9.360   7.719   7.574
27280SOL     OW82089   7.316  13.951   7.272
27280SOL    HW182090   7.285  13.918   7.187
27280SOL    HW282091   7.260  14.026   7.290
27281SOL     OW82092  11.590  11.583   5.952
27281SOL    HW182093  11.577  11.493   5.921
27281SOL    HW282094  11.638  11.573   6.035
27282SOL     OW82095   9.607   8.914   3.413
27282SOL    HW182096   9.632   8.824   3.395
27282SOL    HW282097   9.546   8.908   3.487
27283SOL     OW82098   6.329  10.426   2.886
27283SOL    HW182099   6.240  10.444   2.917
27283SOL    HW282100   6.365  10.365   2.950
27284SOL     OW82101   3.508   2.102   0.357
27284SOL    HW182102   3.454   2.180   0.368
27284SOL    HW282103   3.577   2.130   0.295
27285SOL     OW82104   2.463   7.273   3.054
27285SOL    HW182105   2.489   7.223   3.131
27285SOL    HW282106   2.367   7.266   3.052
27286SOL     OW82107   4.971   9.213   2.127
27286SOL    HW182108   5.002   9.151   2.061
27286SOL    HW282109   4.896   9.257   2.086
27287SOL     OW82110   2.127   0.986   0.752
27287SOL    HW182111   2.085   1.068   0.724
27287SOL    HW282112   2.057   0.940   0.800
27288SOL     OW82113  12.776   4.206   5.661
27288SOL    HW182114  12.864   4.177   5.681
27288SOL    HW282115  12.748   4.150   5.589
27289SOL     OW82116   7.948   6.824   5.408
27289SOL    HW182117   8.000   6.769   5.349
27289SOL    HW282118   7.982   6.912   5.394
27290SOL     OW82119   4.071   3.891   4.126
27290SOL    HW182120   4.081   3.822   4.191
27290SOL    HW282121   4.095   3.971   4.172
27291SOL     OW82122   9.872   9.007   0.963
27291SOL    HW182123   9.832   8.926   0.996
27291SOL    HW282124   9.961   8.982   0.941
27292SOL     OW82125   7.342   2.855   2.307
27292SOL    HW182126   7.377   2.918   2.243
27292SOL    HW282127   7.271   2.902   2.351
27293SOL     OW82128  11.785  13.466   6.700
27293SOL    HW182129  11.717  13.529   6.726
27293SOL    HW282130  11.800  13.413   6.778
27294SOL     OW82131   6.843   4.699   1.839
27294SOL    HW182132   6.780   4.696   1.767
27294SOL    HW282133   6.829   4.784   1.880
27295SOL     OW82134   4.326   2.835   2.915
27295SOL    HW182135   4.354   2.926   2.928
27295SOL    HW282136   4.244   2.828   2.964
27296SOL     OW82137   9.387   6.921   5.997
27296SOL    HW182138   9.380   6.868   6.077
27296SOL    HW282139   9.308   6.901   5.948
27297SOL     OW82140  11.216   6.184   3.331
27297SOL    HW182141  11.299   6.191   3.378
27297SOL    HW282142  11.240   6.193   3.239
27298SOL     OW82143   6.046   6.900   2.853
27298SOL    HW182144   6.110   6.916   2.784
27298SOL    HW282145   5.964   6.886   2.806
27299SOL     OW82146  11.589   5.693   7.480
27299SOL    HW182147  11.502   5.716   7.511
27299SOL    HW282148  11.595   5.598   7.494
27300SOL     OW82149  10.447   2.725   3.059
27300SOL    HW182150  10.527   2.700   3.106
27300SOL    HW282151  10.414   2.801   3.107
27301SOL     OW82152  12.567  13.190   3.968
27301SOL    HW182153  12.537  13.256   4.031
27301SOL    HW282154  12.655  13.220   3.943
27302SOL     OW82155   7.674   6.225   4.234
27302SOL    HW182156   7.601   6.167   4.258
27302SOL    HW282157   7.634   6.311   4.226
27303SOL     OW82158   6.011  11.000   1.085
27303SOL    HW182159   6.062  10.986   1.165
27303SOL    HW282160   5.984  10.912   1.059
27304SOL     OW82161   6.032   6.543   2.777
27304SOL    HW182162   5.975   6.581   2.844
27304SOL    HW282163   6.120   6.553   2.812
27305SOL     OW82164   8.430   9.585   4.611
27305SOL    HW182165   8.490   9.623   4.547
27305SOL    HW282166   8.372   9.657   4.634
27306SOL     OW82167   4.088  11.246   3.076
27306SOL    HW182168   4.069  11.158   3.044
27306SOL    HW282169   4.006  11.275   3.117
27307SOL     OW82170  11.601  10.915   6.008
27307SOL    HW182171  11.570  10.825   6.016
27307SOL    HW282172  11.602  10.932   5.914
27308SOL     OW82173   9.624   9.233   2.146
27308SOL    HW182174   9.628   9.178   2.068
27308SOL    HW282175   9.594   9.318   2.115
27309SOL     OW82176   8.683   7.131   0.148
27309SOL    HW182177   8.765   7.141   0.197
27309SOL    HW282178   8.622   7.192   0.190
27310SOL     OW82179   1.244  10.574   1.742
27310SOL    HW182180  12.035  10.534   1.827
27310SOL    HW282181   1.299  10.652   1.740
27311SOL     OW82182  13.601   6.501   4.977
27311SOL    HW182183  13.681   6.548   4.950
27311SOL    HW282184  13.548   6.497   4.897
27312SOL     OW82185  10.290  12.723   6.423
27312SOL    HW182186  10.239  12.752   6.499
27312SOL    HW282187  10.279  12.794   6.360
27313SOL     OW82188  10.079   9.494   5.236
27313SOL    HW182189  10.056   9.401   5.228
27313SOL    HW282190  10.025   9.537   5.170
27314SOL     OW82191  12.071  10.546   6.280
27314SOL    HW182192  12.007  10.574   6.345
27314SOL    HW282193  12.140  10.503   6.330
27315SOL     OW82194   4.774  10.558   2.902
27315SOL    HW182195   4.817  10.608   2.971
27315SOL    HW282196   4.680  10.564   2.923
27316SOL     OW82197   7.241   8.609   6.214
27316SOL    HW182198   7.283   8.551   6.151
27316SOL    HW282199   7.239   8.559   6.296
27317SOL     OW82200  12.265  13.847   5.251
27317SOL    HW182201  12.252  13.773   5.310
27317SOL    HW282202  12.349  13.885   5.277
27318SOL     OW82203   8.092   6.030   6.999
27318SOL    HW182204   8.055   6.038   7.087
27318SOL    HW282205   8.128   6.117   6.982
27319SOL     OW82206   6.526  10.362   5.774
27319SOL    HW182207   6.445  10.413   5.775
27319SOL    HW282208   6.593  10.425   5.746
27320SOL     OW82209  13.748  11.649   6.270
27320SOL    HW182210  13.686  11.721   6.275
27320SOL    HW282211  13.721  11.590   6.340
27321SOL     OW82212  10.339   2.703   2.585
27321SOL    HW182213  10.326   2.608   2.590
27321SOL    HW282214  10.426   2.714   2.548
27322SOL     OW82215  11.821   7.684   4.217
27322SOL    HW182216  11.902   7.680   4.269
27322SOL    HW282217  11.759   7.729   4.274
27323SOL     OW82218  10.585   7.125   6.407
27323SOL    HW182219  10.574   7.098   6.498
27323SOL    HW282220  10.561   7.048   6.356
27324SOL     OW82221   5.063  10.750   0.835
27324SOL    HW182222   4.978  10.706   0.828
27324SOL    HW282223   5.113  10.695   0.896
27325SOL     OW82224   2.602   3.228   1.149
27325SOL    HW182225   2.667   3.263   1.209
27325SOL    HW282226   2.641   3.240   1.062
27326SOL     OW82227   6.468   8.652   6.239
27326SOL    HW182228   6.456   8.625   6.148
27326SOL    HW282229   6.406   8.725   6.250
27327SOL     OW82230  10.426  12.316   5.895
27327SOL    HW182231  10.500  12.301   5.955
27327SOL    HW282232  10.467  12.345   5.814
27328SOL     OW82233   6.691   7.064   0.295
27328SOL    HW182234   6.774   7.055   0.247
27328SOL    HW282235   6.712   7.038   0.384
27329SOL     OW82236   7.090   2.373   2.152
27329SOL    HW182237   7.086   2.303   2.217
27329SOL    HW282238   7.065   2.452   2.200
27330SOL     OW82239  10.107  10.267   5.902
27330SOL    HW182240  10.182  10.327   5.902
27330SOL    HW282241  10.121  10.211   5.978
27331SOL     OW82242   4.207  11.630   1.854
27331SOL    HW182243   4.272  11.668   1.795
27331SOL    HW282244   4.188  11.544   1.816
27332SOL     OW82245   9.751   8.180   2.061
27332SOL    HW182246   9.706   8.112   2.012
27332SOL    HW282247   9.690   8.206   2.130
27333SOL     OW82248   5.556   5.838   1.390
27333SOL    HW182249   5.467   5.807   1.408
27333SOL    HW282250   5.544   5.915   1.335
27334SOL     OW82251  10.392  11.334   7.420
27334SOL    HW182252  10.433  11.253   7.390
27334SOL    HW282253  10.457  11.402   7.402
27335SOL     OW82254  12.387   2.180   2.913
27335SOL    HW182255  12.370   2.126   2.836
27335SOL    HW282256  12.481   2.199   2.909
27336SOL     OW82257   4.521  11.393   1.177
27336SOL    HW182258   4.591  11.331   1.158
27336SOL    HW282259   4.451  11.340   1.216
27337SOL     OW82260   5.222   4.274   5.779
27337SOL    HW182261   5.248   4.199   5.726
27337SOL    HW282262   5.133   4.295   5.750
27338SOL     OW82263   8.628  10.467   5.684
27338SOL    HW182264   8.694  10.467   5.614
27338SOL    HW282265   8.679  10.481   5.764
27339SOL     OW82266   9.539   3.698   2.131
27339SOL    HW182267   9.496   3.767   2.182
27339SOL    HW282268   9.632   3.718   2.136
27340SOL     OW82269  12.501   8.106   3.120
27340SOL    HW182270  12.484   8.032   3.062
27340SOL    HW282271  12.584   8.142   3.089
27341SOL     OW82272   6.419   4.623   1.198
27341SOL    HW182273   6.414   4.686   1.126
27341SOL    HW282274   6.463   4.671   1.269
27342SOL     OW82275   8.574   3.375   2.634
27342SOL    HW182276   8.565   3.347   2.724
27342SOL    HW282277   8.485   3.392   2.604
27343SOL     OW82278  12.199   8.035   2.576
27343SOL    HW182279  12.121   8.082   2.546
27343SOL    HW282280  12.171   7.990   2.655
27344SOL     OW82281   3.465   4.389   4.171
27344SOL    HW182282   3.529   4.459   4.159
27344SOL    HW282283   3.387   4.433   4.206
27345SOL     OW82284   4.704   8.889   2.452
27345SOL    HW182285   4.682   8.809   2.499
27345SOL    HW282286   4.741   8.859   2.369
27346SOL     OW82287   4.303  10.441   3.520
27346SOL    HW182288   4.341  10.518   3.563
27346SOL    HW282289   4.217  10.431   3.562
27347SOL     OW82290   4.590   1.077   0.302
27347SOL    HW182291   4.498   1.050   0.305
27347SOL    HW282292   4.589   1.162   0.259
27348SOL     OW82293   2.055   9.283   0.142
27348SOL    HW182294   1.984   9.347   0.150
27348SOL    HW282295   2.013   9.205   0.107
27349SOL     OW82296  10.371   3.180   3.372
27349SOL    HW182297  10.361   3.085   3.360
27349SOL    HW282298  10.354   3.217   3.285
27350SOL     OW82299   9.824   1.220   1.391
27350SOL    HW182300   9.860   1.308   1.388
27350SOL    HW282301   9.734   1.230   1.359
27351SOL     OW82302   9.212   9.869   6.220
27351SOL    HW182303   9.212   9.925   6.143
27351SOL    HW282304   9.214   9.779   6.185
27352SOL     OW82305   7.744  10.626   2.776
27352SOL    HW182306   7.655  10.652   2.802
27352SOL    HW282307   7.749  10.649   2.683
27353SOL     OW82308   3.579   6.835   2.594
27353SOL    HW182309   3.579   6.743   2.620
27353SOL    HW282310   3.563   6.883   2.675
27354SOL     OW82311   4.549  11.508   2.810
27354SOL    HW182312   4.490  11.578   2.838
27354SOL    HW282313   4.519  11.430   2.857
27355SOL     OW82314   7.741   7.572   1.415
27355SOL    HW182315   7.765   7.526   1.334
27355SOL    HW282316   7.785   7.657   1.409
27356SOL     OW82317   4.328   4.412   4.374
27356SOL    HW182318   4.319   4.480   4.308
27356SOL    HW282319   4.386   4.450   4.440
27357SOL     OW82320  11.031  10.178   7.079
27357SOL    HW182321  10.974  10.125   7.135
27357SOL    HW282322  10.985  10.261   7.070
27358SOL     OW82323   3.083  11.875   1.875
27358SOL    HW182324   3.173  11.885   1.846
27358SOL    HW282325   3.081  11.916   1.961
27359SOL     OW82326   9.218   5.037   0.315
27359SOL    HW182327   9.258   5.046   0.402
27359SOL    HW282328   9.179   4.949   0.316
27360SOL     OW82329   4.514   8.782   0.872
27360SOL    HW182330   4.604   8.811   0.860
27360SOL    HW282331   4.499   8.721   0.800
27361SOL     OW82332   2.817   8.976   0.368
27361SOL    HW182333   2.762   8.976   0.446
27361SOL    HW282334   2.899   9.016   0.397
27362SOL     OW82335  14.027   8.825   5.684
27362SOL    HW182336  14.081   8.895   5.648
27362SOL    HW282337  14.082   8.783   5.749
27363SOL     OW82338   5.043  13.793   4.738
27363SOL    HW182339   5.117  13.793   4.799
27363SOL    HW282340   5.082  13.779   4.652
27364SOL     OW82341   9.120  10.215   2.743
27364SOL    HW182342   9.203  10.174   2.767
27364SOL    HW282343   9.088  10.253   2.824
27365SOL     OW82344  10.367   6.270   2.989
27365SOL    HW182345  10.277   6.300   2.975
27365SOL    HW282346  10.387   6.216   2.913
27366SOL     OW82347   9.233   4.593   1.154
27366SOL    HW182348   9.185   4.555   1.228
27366SOL    HW282349   9.295   4.525   1.127
27367SOL     OW82350   9.955  10.674   0.979
27367SOL    HW182351  10.003  10.654   1.060
27367SOL    HW282352  10.000  10.624   0.911
27368SOL     OW82353   4.206  12.409   4.322
27368SOL    HW182354   4.154  12.345   4.273
27368SOL    HW282355   4.274  12.358   4.366
27369SOL     OW82356   3.118   3.939   1.570
27369SOL    HW182357   3.062   3.869   1.604
27369SOL    HW282358   3.204   3.920   1.606
27370SOL     OW82359   7.213  10.470   5.076
27370SOL    HW182360   7.288  10.417   5.051
27370SOL    HW282361   7.245  10.526   5.146
27371SOL     OW82362  10.991   6.969   6.824
27371SOL    HW182363  11.049   6.963   6.748
27371SOL    HW282364  11.049   6.957   6.899
27372SOL     OW82365  10.645  12.392   2.795
27372SOL    HW182366  10.628  12.301   2.770
27372SOL    HW282367  10.739  12.396   2.810
27373SOL     OW82368   4.986   2.724   1.287
27373SOL    HW182369   4.904   2.725   1.238
27373SOL    HW282370   4.994   2.812   1.322
27374SOL     OW82371   4.548   8.097   5.515
27374SOL    HW182372   4.629   8.148   5.512
27374SOL    HW282373   4.514   8.100   5.426
27375SOL     OW82374   8.361  13.275   4.304
27375SOL    HW182375   8.400  13.355   4.270
27375SOL    HW282376   8.304  13.245   4.233
27376SOL     OW82377   5.714   9.949   1.040
27376SOL    HW182378   5.762   9.984   0.965
27376SOL    HW282379   5.664  10.024   1.074
27377SOL     OW82380  11.658   8.151   6.139
27377SOL    HW182381  11.650   8.246   6.144
27377SOL    HW282382  11.606   8.118   6.213
27378SOL     OW82383   5.259   9.901   6.522
27378SOL    HW182384   5.184   9.959   6.537
27378SOL    HW282385   5.277   9.863   6.608
27379SOL     OW82386   3.754   5.475   2.581
27379SOL    HW182387   3.774   5.567   2.570
27379SOL    HW282388   3.747   5.441   2.492
27380SOL     OW82389   3.099   4.395   0.076
27380SOL    HW182390   3.153   4.441   0.140
27380SOL    HW282391   3.089   4.307   0.111
27381SOL     OW82392  12.243   7.198   6.417
27381SOL    HW182393  12.303   7.269   6.394
27381SOL    HW282394  12.177   7.200   6.348
27382SOL     OW82395   8.696  13.145   6.358
27382SOL    HW182396   8.740  13.177   6.279
27382SOL    HW282397   8.744  13.066   6.382
27383SOL     OW82398   3.644   4.286   2.284
27383SOL    HW182399   3.709   4.251   2.223
27383SOL    HW282400   3.581   4.216   2.294
27384SOL     OW82401  13.675  11.121   7.208
27384SOL    HW182402  13.596  11.087   7.165
27384SOL    HW282403  13.724  11.042   7.231
27385SOL     OW82404   3.747   8.472   1.644
27385SOL    HW182405   3.830   8.502   1.682
27385SOL    HW282406   3.745   8.512   1.557
27386SOL     OW82407  12.560  13.494   3.877
27386SOL    HW182408  12.541   2.812   3.896
27386SOL    HW282409  12.534  13.448   3.957
27387SOL     OW82410   4.993   9.759   1.244
27387SOL    HW182411   5.086   9.737   1.239
27387SOL    HW282412   4.988   9.825   1.313
27388SOL     OW82413  11.817   5.899   7.595
27388SOL    HW182414  11.852   5.949   7.522
27388SOL    HW282415  11.722   5.906   7.585
27389SOL     OW82416  11.947  14.963   6.086
27389SOL    HW182417  12.026  14.951   6.033
27389SOL    HW282418  11.886  14.897   6.052
27390SOL     OW82419   4.659  10.294   2.067
27390SOL    HW182420   4.619  10.290   2.154
27390SOL    HW282421   4.752  10.279   2.083
27391SOL     OW82422  13.088   6.939   7.105
27391SOL    HW182423  13.179   6.913   7.120
27391SOL    HW282424  13.037   6.887   7.168
27392SOL     OW82425   1.918   2.895   2.481
27392SOL    HW182426   1.844   2.940   2.523
27392SOL    HW282427   1.954   2.960   2.421
27393SOL     OW82428   7.891   6.361   1.590
27393SOL    HW182429   7.805   6.345   1.629
27393SOL    HW282430   7.910   6.452   1.612
27394SOL     OW82431   6.492   1.821   0.866
27394SOL    HW182432   6.445   1.742   0.892
27394SOL    HW282433   6.583   1.802   0.886
27395SOL     OW82434  10.207   3.825   1.147
27395SOL    HW182435  10.272   3.830   1.078
27395SOL    HW282436  10.177   3.734   1.145
27396SOL     OW82437  15.023   7.225   6.385
27396SOL    HW182438  15.092   7.188   6.330
27396SOL    HW282439  15.037   7.186   6.471
27397SOL     OW82440  10.411   6.294   0.893
27397SOL    HW182441  10.396   6.238   0.970
27397SOL    HW282442  10.478   6.356   0.921
27398SOL     OW82443   9.675   4.146   2.952
27398SOL    HW182444   9.763   4.107   2.950
27398SOL    HW282445   9.620   4.079   2.994
27399SOL     OW82446   3.962  12.058   1.885
27399SOL    HW182447   3.929  12.110   1.958
27399SOL    HW282448   3.960  11.968   1.918
27400SOL     OW82449   1.754   5.146   0.213
27400SOL    HW182450   1.806   5.147   0.133
27400SOL    HW282451   1.812   5.182   0.280
27401SOL     OW82452   3.242   8.691   4.471
27401SOL    HW182453   3.310   8.720   4.531
27401SOL    HW282454   3.284   8.625   4.416
27402SOL     OW82455  11.252   7.556   4.921
27402SOL    HW182456  11.173   7.552   4.867
27402SOL    HW282457  11.290   7.642   4.902
27403SOL     OW82458  10.872   9.576   0.943
27403SOL    HW182459  10.836   9.587   0.854
27403SOL    HW282460  10.933   9.502   0.935
27404SOL     OW82461  15.098   6.646   7.504
27404SOL    HW182462  15.015   6.602   7.487
27404SOL    HW282463  15.099   6.721   7.445
27405SOL     OW82464   5.309  10.446   0.843
27405SOL    HW182465   5.389  10.489   0.812
27405SOL    HW282466   5.276  10.504   0.912
27406SOL     OW82467  10.360   3.418   0.655
27406SOL    HW182468  10.380   3.498   0.704
27406SOL    HW282469  10.410   3.426   0.574
27407SOL     OW82470  10.638   5.204   2.226
27407SOL    HW182471  10.727   5.228   2.252
27407SOL    HW282472  10.601   5.285   2.189
27408SOL     OW82473   5.223   5.485   6.046
27408SOL    HW182474   5.255   5.561   6.096
27408SOL    HW282475   5.135   5.470   6.080
27409SOL     OW82476   3.297   3.828   0.310
27409SOL    HW182477   3.224   3.890   0.300
27409SOL    HW282478   3.262   3.761   0.368
27410SOL     OW82479   8.656  13.863   5.029
27410SOL    HW182480   8.717  13.834   5.096
27410SOL    HW282481   8.612  13.783   5.000
27411SOL     OW82482  15.091  11.480   6.526
27411SOL    HW182483  15.159  11.514   6.468
27411SOL    HW282484  15.010  11.523   6.496
27412SOL     OW82485   8.900  10.487   0.556
27412SOL    HW182486   8.934  10.442   0.633
27412SOL    HW282487   8.846  10.558   0.590
27413SOL     OW82488   7.343   8.760   7.450
27413SOL    HW182489   7.289   8.690   7.487
27413SOL    HW282490   7.281   8.830   7.430
27414SOL     OW82491   9.810   6.597   3.126
27414SOL    HW182492   9.756   6.521   3.145
27414SOL    HW282493   9.748   6.669   3.114
27415SOL     OW82494   2.841   6.554   1.742
27415SOL    HW182495   2.928   6.555   1.702
27415SOL    HW282496   2.813   6.645   1.740
27416SOL     OW82497   5.751   7.780   4.180
27416SOL    HW182498   5.774   7.750   4.092
27416SOL    HW282499   5.798   7.720   4.239
27417SOL     OW82500   5.080  12.398   5.611
27417SOL    HW182501   5.031  12.347   5.675
27417SOL    HW282502   5.018  12.464   5.580
27418SOL     OW82503  11.431   7.484   5.889
27418SOL    HW182504  11.368   7.556   5.889
27418SOL    HW282505  11.506   7.518   5.939
27419SOL     OW82506   7.164  10.143   4.045
27419SOL    HW182507   7.133  10.208   3.982
27419SOL    HW282508   7.183  10.066   3.991
27420SOL     OW82509  12.096  12.515   7.362
27420SOL    HW182510  12.088  12.427   7.400
27420SOL    HW282511  12.161  12.559   7.417
27421SOL     OW82512   5.072   4.732   0.504
27421SOL    HW182513   5.087   4.733   0.410
27421SOL    HW282514   4.992   4.681   0.516
27422SOL     OW82515   5.082   4.749   3.477
27422SOL    HW182516   5.062   4.833   3.519
27422SOL    HW282517   5.140   4.772   3.404
27423SOL     OW82518   7.724  12.504   6.787
27423SOL    HW182519   7.804  12.551   6.812
27423SOL    HW282520   7.668  12.571   6.747
27424SOL     OW82521   3.037   2.780   0.669
27424SOL    HW182522   2.990   2.849   0.716
27424SOL    HW282523   3.083   2.826   0.599
27425SOL     OW82524   3.710   9.746   1.195
27425SOL    HW182525   3.775   9.677   1.179
27425SOL    HW282526   3.711   9.758   1.290
27426SOL     OW82527  11.825   5.364   5.041
27426SOL    HW182528  11.905   5.332   4.998
27426SOL    HW282529  11.780   5.285   5.070
27427SOL     OW82530   8.972   5.250   6.259
27427SOL    HW182531   8.981   5.274   6.352
27427SOL    HW282532   9.057   5.212   6.236
27428SOL     OW82533   6.633  13.942   5.176
27428SOL    HW182534   6.627  13.901   5.262
27428SOL    HW282535   6.590  13.880   5.117
27429SOL     OW82536   7.763   4.078   0.296
27429SOL    HW182537   7.733   3.993   0.327
27429SOL    HW282538   7.711   4.141   0.347
27430SOL     OW82539   9.841   7.391   1.357
27430SOL    HW182540   9.905   7.352   1.417
27430SOL    HW282541   9.767   7.330   1.358
27431SOL     OW82542   5.185   2.459   1.240
27431SOL    HW182543   5.140   2.381   1.208
27431SOL    HW282544   5.167   2.526   1.175
27432SOL     OW82545  14.641   7.333   7.462
27432SOL    HW182546  14.604   7.260   7.413
27432SOL    HW282547  14.569   7.397   7.466
27433SOL     OW82548  14.051   8.287   6.963
27433SOL    HW182549  14.069   8.216   7.024
27433SOL    HW282550  14.136   8.330   6.951
27434SOL     OW82551   9.051   4.993   5.243
27434SOL    HW182552   9.113   4.954   5.303
27434SOL    HW282553   8.974   5.012   5.296
27435SOL     OW82554   9.134   8.698   2.342
27435SOL    HW182555   9.220   8.679   2.379
27435SOL    HW282556   9.073   8.652   2.398
27436SOL     OW82557   7.183   3.730   0.419
27436SOL    HW182558   7.177   3.637   0.441
27436SOL    HW282559   7.099   3.751   0.378
27437SOL     OW82560   7.652  11.664   1.519
27437SOL    HW182561   7.721  11.657   1.454
27437SOL    HW282562   7.688  11.721   1.587
27438SOL     OW82563   8.401   8.452   0.238
27438SOL    HW182564   8.435   8.541   0.227
27438SOL    HW282565   8.471   8.406   0.284
27439SOL     OW82566   3.917  12.610   5.370
27439SOL    HW182567   3.864  12.657   5.434
27439SOL    HW282568   3.928  12.672   5.298
27440SOL     OW82569   4.812   5.846   5.005
27440SOL    HW182570   4.730   5.853   5.053
27440SOL    HW282571   4.834   5.937   4.981
27441SOL     OW82572   6.850   6.467   6.502
27441SOL    HW182573   6.807   6.549   6.528
27441SOL    HW282574   6.815   6.402   6.563
27442SOL     OW82575   4.726  10.417   2.314
27442SOL    HW182576   4.750  10.408   2.406
27442SOL    HW282577   4.676  10.498   2.310
27443SOL     OW82578   6.999   8.475   4.032
27443SOL    HW182579   6.986   8.427   3.950
27443SOL    HW282580   7.042   8.412   4.090
27444SOL     OW82581   4.954   6.544   5.184
27444SOL    HW182582   5.022   6.590   5.135
27444SOL    HW282583   4.986   6.541   5.274
27445SOL     OW82584   4.537   2.728   0.389
27445SOL    HW182585   4.605   2.750   0.453
27445SOL    HW282586   4.466   2.789   0.409
27446SOL     OW82587  14.582   5.601   6.297
27446SOL    HW182588  14.488   5.616   6.309
27446SOL    HW282589  14.623   5.649   6.368
27447SOL     OW82590  11.087   4.777   1.553
27447SOL    HW182591  11.088   4.859   1.601
27447SOL    HW282592  10.997   4.768   1.522
27448SOL     OW82593   5.040   5.944   2.327
27448SOL    HW182594   5.106   5.968   2.261
27448SOL    HW282595   5.090   5.935   2.408
27449SOL     OW82596  10.549   7.341   6.621
27449SOL    HW182597  10.644   7.328   6.623
27449SOL    HW282598  10.513   7.252   6.619
27450SOL     OW82599   7.795   4.123   0.827
27450SOL    HW182600   7.847   4.056   0.783
27450SOL    HW282601   7.744   4.164   0.757
27451SOL     OW82602  10.600   7.559   3.729
27451SOL    HW182603  10.646   7.545   3.646
27451SOL    HW282604  10.555   7.477   3.746
27452SOL     OW82605  13.314  13.335   5.634
27452SOL    HW182606  13.219  13.323   5.634
27452SOL    HW282607  13.334  13.373   5.719
27453SOL     OW82608   5.852   9.813   3.562
27453SOL    HW182609   5.934   9.767   3.547
27453SOL    HW282610   5.827   9.789   3.652
27454SOL     OW82611  12.147  14.830   7.033
27454SOL    HW182612  12.093  14.857   6.958
27454SOL    HW282613  12.092  14.768   7.081
27455SOL     OW82614   2.911   3.291   3.877
27455SOL    HW182615   2.957   3.333   3.950
27455SOL    HW282616   2.968   3.219   3.851
27456SOL     OW82617  10.314   8.257   2.354
27456SOL    HW182618  10.336   8.170   2.323
27456SOL    HW282619  10.276   8.243   2.441
27457SOL     OW82620   7.467   4.616   3.814
27457SOL    HW182621   7.479   4.704   3.780
27457SOL    HW282622   7.553   4.592   3.848
27458SOL     OW82623   3.461  12.188   2.539
27458SOL    HW182624   3.537  12.246   2.530
27458SOL    HW282625   3.454  12.145   2.454
27459SOL     OW82626   9.404  11.995   7.480
27459SOL    HW182627   9.356  12.071   7.446
27459SOL    HW282628   9.341  11.951   7.537
27460SOL     OW82629   6.823   6.122   6.914
27460SOL    HW182630   6.734   6.146   6.938
27460SOL    HW282631   6.843   6.047   6.969
27461SOL     OW82632  13.810   4.821   4.833
27461SOL    HW182633  13.832   4.734   4.798
27461SOL    HW282634  13.721   4.838   4.801
27462SOL     OW82635  11.744   5.721   4.349
27462SOL    HW182636  11.833   5.735   4.381
27462SOL    HW282637  11.722   5.632   4.375
27463SOL     OW82638   9.488   9.687   1.874
27463SOL    HW182639   9.457   9.696   1.964
27463SOL    HW282640   9.507   9.594   1.864
27464SOL     OW82641  11.710  11.318   7.443
27464SOL    HW182642  11.747  11.403   7.418
27464SOL    HW282643  11.780  11.275   7.492
27465SOL     OW82644   7.781   8.380   1.805
27465SOL    HW182645   7.788   8.285   1.795
27465SOL    HW282646   7.735   8.409   1.726
27466SOL     OW82647  15.266   9.155   7.165
27466SOL    HW182648  15.284   9.081   7.107
27466SOL    HW282649  15.206   9.211   7.116
27467SOL     OW82650  13.677   7.865   6.301
27467SOL    HW182651  13.584   7.843   6.308
27467SOL    HW282652  13.720   7.782   6.281
27468SOL     OW82653   2.217   5.170   2.142
27468SOL    HW182654   2.238   5.195   2.052
27468SOL    HW282655   2.250   5.080   2.150
27469SOL     OW82656  12.240   6.126   4.787
27469SOL    HW182657  12.266   6.166   4.870
27469SOL    HW282658  12.286   6.177   4.720
27470SOL     OW82659   5.924  11.246   1.139
27470SOL    HW182660   5.893  11.208   1.221
27470SOL    HW282661   5.991  11.185   1.107
27471SOL     OW82662  12.345   3.498   4.544
27471SOL    HW182663  12.421   3.444   4.523
27471SOL    HW282664  12.378   3.588   4.541
27472SOL     OW82665  11.815   3.960   3.631
27472SOL    HW182666  11.814   3.942   3.537
27472SOL    HW282667  11.761   4.038   3.641
27473SOL     OW82668   2.579   8.056   2.359
27473SOL    HW182669   2.585   8.101   2.275
27473SOL    HW282670   2.489   8.068   2.387
27474SOL     OW82671   8.339   7.633   6.767
27474SOL    HW182672   8.324   7.569   6.697
27474SOL    HW282673   8.432   7.655   6.759
27475SOL     OW82674  10.637   6.531   5.719
27475SOL    HW182675  10.716   6.585   5.720
27475SOL    HW282676  10.668   6.445   5.688
27476SOL     OW82677  11.912   8.561   6.994
27476SOL    HW182678  11.868   8.639   6.962
27476SOL    HW282679  12.004   8.587   7.004
27477SOL     OW82680   5.999  13.864   7.613
27477SOL    HW182681   0.612   8.418   0.069
27477SOL    HW282682   5.921  13.840   7.563
27478SOL     OW82683   5.699   7.780   1.943
27478SOL    HW182684   5.730   7.837   2.012
27478SOL    HW282685   5.749   7.699   1.953
27479SOL     OW82686   4.184  12.010   5.911
27479SOL    HW182687  14.903  11.967   5.975
27479SOL    HW282688   4.255  12.050   5.963
27480SOL     OW82689   3.248   9.168   1.222
27480SOL    HW182690   3.188   9.114   1.170
27480SOL    HW282691   3.190   9.218   1.280
27481SOL     OW82692   8.006   8.710   1.102
27481SOL    HW182693   8.045   8.742   1.021
27481SOL    HW282694   8.062   8.637   1.129
27482SOL     OW82695   7.323   3.869   4.223
27482SOL    HW182696   7.330   3.965   4.225
27482SOL    HW282697   7.370   3.843   4.144
27483SOL     OW82698  13.915  12.209   5.131
27483SOL    HW182699  13.950  12.236   5.216
27483SOL    HW282700  13.851  12.141   5.153
27484SOL     OW82701   7.820   5.122   5.279
27484SOL    HW182702   7.862   5.100   5.362
27484SOL    HW282703   7.806   5.037   5.236
27485SOL     OW82704  12.600   6.480   7.531
27485SOL    HW182705  12.524   6.452   7.481
27485SOL    HW282706  12.663   6.508   7.465
27486SOL     OW82707  11.355   7.084   6.726
27486SOL    HW182708  11.288   7.042   6.672
27486SOL    HW282709  11.393   7.151   6.669
27487SOL     OW82710   2.867  10.221   1.957
27487SOL    HW182711   2.863  10.281   1.882
27487SOL    HW282712   2.819  10.266   2.027
27488SOL     OW82713   9.032   6.844   6.928
27488SOL    HW182714   9.078   6.849   6.845
27488SOL    HW282715   8.973   6.770   6.919
27489SOL     OW82716   4.822   3.243   4.514
27489SOL    HW182717   4.746  13.996   4.568
27489SOL    HW282718   4.871  13.936   4.508
27490SOL     OW82719   4.064   1.052   0.075
27490SOL    HW182720   4.020   1.096   0.148
27490SOL    HW282721   9.423   6.487   7.616
27491SOL     OW82722   6.370   6.349   4.743
27491SOL    HW182723   6.388   6.443   4.749
27491SOL    HW282724   6.432   6.309   4.805
27492SOL     OW82725  10.016  11.009   6.995
27492SOL    HW182726  10.040  11.013   7.088
27492SOL    HW282727   9.939  10.951   6.993
27493SOL     OW82728   3.974   4.851   4.721
27493SOL    HW182729   4.030   4.879   4.649
27493SOL    HW282730   3.915   4.925   4.737
27494SOL     OW82731   4.187   1.856   2.407
27494SOL    HW182732   4.282   1.845   2.412
27494SOL    HW282733   4.175   1.919   2.335
27495SOL     OW82734   2.670   8.035   2.659
27495SOL    HW182735   2.686   8.060   2.568
27495SOL    HW282736   2.669   8.118   2.707
27496SOL     OW82737   7.325  10.984   1.130
27496SOL    HW182738   7.289  11.064   1.092
27496SOL    HW282739   7.252  10.947   1.179
27497SOL     OW82740   5.560   3.328   1.334
27497SOL    HW182741   5.584   3.354   1.423
27497SOL    HW282742   5.480   3.378   1.315
27498SOL     OW82743   6.031   5.528   0.043
27498SOL    HW182744  11.352  10.952   7.603
27498SOL    HW282745   6.107   5.584   0.031
27499SOL     OW82746  11.360   3.392   4.413
27499SOL    HW182747  11.297   3.369   4.344
27499SOL    HW282748  11.349   3.323   4.479
27500SOL     OW82749   3.088   3.644   1.068
27500SOL    HW182750   3.147   3.640   0.992
27500SOL    HW282751   3.123   3.714   1.122
27501SOL     OW82752  13.752   7.811   6.016
27501SOL    HW182753  13.677   7.822   6.073
27501SOL    HW282754  13.735   7.867   5.941
27502SOL     OW82755  13.169   5.519   3.626
27502SOL    HW182756  13.192   5.457   3.557
27502SOL    HW282757  13.158   5.603   3.581
27503SOL     OW82758  13.785   9.285   6.571
27503SOL    HW182759  13.698   9.307   6.539
27503SOL    HW282760  13.825   9.235   6.499
27504SOL     OW82761   6.805  11.076   4.317
27504SOL    HW182762   6.898  11.052   4.317
27504SOL    HW282763   6.760  11.001   4.279
27505SOL     OW82764   8.834   5.281   2.369
27505SOL    HW182765   8.826   5.203   2.315
27505SOL    HW282766   8.812   5.251   2.458
27506SOL     OW82767   5.553   9.386   4.527
27506SOL    HW182768   5.612   9.456   4.554
27506SOL    HW282769   5.496   9.425   4.461
27507SOL     OW82770  11.496  12.174   3.247
27507SOL    HW182771  11.406  12.172   3.214
27507SOL    HW282772  11.538  12.099   3.206
27508SOL     OW82773  12.608   6.938   4.581
27508SOL    HW182774  12.607   6.942   4.485
27508SOL    HW282775  12.696   6.968   4.604
27509SOL     OW82776  12.568  12.679   2.817
27509SOL    HW182777  12.499  12.701   2.754
27509SOL    HW282778  12.643  12.730   2.787
27510SOL     OW82779  12.569   9.180   6.768
27510SOL    HW182780  12.522   9.147   6.844
27510SOL    HW282781  12.645   9.122   6.760
27511SOL     OW82782   7.732   5.945   6.542
27511SOL    HW182783   7.707   5.948   6.449
27511SOL    HW282784   7.822   5.976   6.543
27512SOL     OW82785   9.686  10.243   5.052
27512SOL    HW182786   9.634  10.200   4.984
27512SOL    HW282787   9.626  10.304   5.094
27513SOL     OW82788   5.792   7.321   7.035
27513SOL    HW182789   5.841   7.247   6.999
27513SOL    HW282790   5.859   7.373   7.080
27514SOL     OW82791   5.380  14.135   6.760
27514SOL    HW182792   5.470  14.148   6.728
27514SOL    HW282793   5.325  14.161   6.687
27515SOL     OW82794   8.133   8.267   2.228
27515SOL    HW182795   8.093   8.343   2.270
27515SOL    HW282796   8.216   8.255   2.273
27516SOL     OW82797   4.938   9.898   5.817
27516SOL    HW182798   5.034   9.895   5.816
27516SOL    HW282799   4.914   9.895   5.724
27517SOL     OW82800  10.572  13.963   4.954
27517SOL    HW182801  10.542  13.982   5.043
27517SOL    HW282802  10.558  13.869   4.945
27518SOL     OW82803   3.878  13.124   5.295
27518SOL    HW182804   3.790  13.162   5.293
27518SOL    HW282805   3.921  13.160   5.217
27519SOL     OW82806   0.894   5.410   1.155
27519SOL    HW182807  11.590   5.438   1.203
27519SOL    HW282808   0.966   5.450   1.202
27520SOL     OW82809  13.919   8.159   4.990
27520SOL    HW182810  13.881   8.205   5.065
27520SOL    HW282811  13.898   8.067   5.005
27521SOL     OW82812  11.946   7.978   2.150
27521SOL    HW182813  11.972   7.891   2.120
27521SOL    HW282814  11.850   7.974   2.152
27522SOL     OW82815   6.128   5.685   1.156
27522SOL    HW182816   6.099   5.595   1.144
27522SOL    HW282817   6.152   5.690   1.249
27523SOL     OW82818   8.130  12.981   3.664
27523SOL    HW182819   8.059  12.917   3.655
27523SOL    HW282820   8.209  12.933   3.640
27524SOL     OW82821  10.705  11.612   2.580
27524SOL    HW182822  10.777  11.611   2.517
27524SOL    HW282823  10.700  11.703   2.610
27525SOL     OW82824   5.818   3.036   0.588
27525SOL    HW182825   5.882   2.966   0.581
27525SOL    HW282826   5.743   2.995   0.632
27526SOL     OW82827   3.509   2.933   1.333
27526SOL    HW182828   3.558   2.997   1.282
27526SOL    HW282829   3.569   2.908   1.404
27527SOL     OW82830   7.192   8.422   6.784
27527SOL    HW182831   7.274   8.394   6.744
27527SOL    HW282832   7.211   8.508   6.821
27528SOL     OW82833   4.750   6.737   0.627
27528SOL    HW182834   4.808   6.683   0.572
27528SOL    HW282835   4.684   6.676   0.660
27529SOL     OW82836   9.284  10.398   4.169
27529SOL    HW182837   9.275  10.327   4.232
27529SOL    HW282838   9.367  10.440   4.192
27530SOL     OW82839   6.358   7.852   2.635
27530SOL    HW182840   6.275   7.888   2.607
27530SOL    HW282841   6.417   7.867   2.561
27531SOL     OW82842   8.606   7.944   1.684
27531SOL    HW182843   8.637   7.946   1.593
27531SOL    HW282844   8.527   7.997   1.683
27532SOL     OW82845   6.482   5.737   2.162
27532SOL    HW182846   6.513   5.723   2.251
27532SOL    HW282847   6.473   5.832   2.154
27533SOL     OW82848   8.307   8.569   6.844
27533SOL    HW182849   8.229   8.594   6.795
27533SOL    HW282850   8.359   8.518   6.782
27534SOL     OW82851   6.578   3.050   2.360
27534SOL    HW182852   6.624   2.966   2.351
27534SOL    HW282853   6.508   3.045   2.294
27535SOL     OW82854   4.851   8.515   3.218
27535SOL    HW182855   4.890   8.446   3.273
27535SOL    HW282856   4.758   8.493   3.213
27536SOL     OW82857   3.501   6.509   0.586
27536SOL    HW182858   3.422   6.501   0.639
27536SOL    HW282859   3.544   6.588   0.619
27537SOL     OW82860   6.651   4.688   4.351
27537SOL    HW182861   6.715   4.758   4.363
27537SOL    HW282862   6.600   4.688   4.433
27538SOL     OW82863   6.220  11.266   5.600
27538SOL    HW182864   6.220  11.185   5.548
27538SOL    HW282865   6.247  11.333   5.538
27539SOL     OW82866   8.962   5.863   7.129
27539SOL    HW182867   8.935   5.955   7.128
27539SOL    HW282868   8.996   5.847   7.041
27540SOL     OW82869   5.336   2.044   2.586
27540SOL    HW182870   5.425   2.069   2.611
27540SOL    HW282871   5.311   2.109   2.519
27541SOL     OW82872   7.122   6.693   7.230
27541SOL    HW182873   7.060   6.708   7.301
27541SOL    HW282874   7.133   6.778   7.189
27542SOL     OW82875   6.113   9.761   2.115
27542SOL    HW182876   6.064   9.772   2.033
27542SOL    HW282877   6.075   9.682   2.154
27543SOL     OW82878   6.394   3.633   0.784
27543SOL    HW182879   6.354   3.608   0.701
27543SOL    HW282880   6.359   3.570   0.847
27544SOL     OW82881   6.640  10.336   0.015
27544SOL    HW182882   6.650  10.426   0.047
27544SOL    HW282883  12.049  15.729   7.541
27545SOL     OW82884   7.944  10.054   1.757
27545SOL    HW182885   8.015   9.994   1.779
27545SOL    HW282886   7.898  10.011   1.685
27546SOL     OW82887  10.773   6.375   4.977
27546SOL    HW182888  10.703   6.400   4.916
27546SOL    HW282889  10.767   6.440   5.047
27547SOL     OW82890   2.093   7.750   1.733
27547SOL    HW182891   2.058   7.754   1.644
27547SOL    HW282892   2.067   7.664   1.766
27548SOL     OW82893   7.912   7.545   5.193
27548SOL    HW182894   7.966   7.479   5.236
27548SOL    HW282895   7.966   7.625   5.197
27549SOL     OW82896   3.014   2.691   1.034
27549SOL    HW182897   3.078   2.672   1.103
27549SOL    HW282898   2.972   2.772   1.063
27550SOL     OW82899   4.805   6.940   3.602
27550SOL    HW182900   4.838   6.891   3.527
27550SOL    HW282901   4.755   7.012   3.565
27551SOL     OW82902   7.785   4.023   4.251
27551SOL    HW182903   7.809   4.099   4.305
27551SOL    HW282904   7.860   3.964   4.257
27552SOL     OW82905   6.844  10.111   4.399
27552SOL    HW182906   6.917  10.053   4.380
27552SOL    HW282907   6.781  10.057   4.446
27553SOL     OW82908   3.579   4.394   2.644
27553SOL    HW182909   3.488   4.422   2.655
27553SOL    HW282910   3.611   4.384   2.734
27554SOL     OW82911   5.229   8.014   2.069
27554SOL    HW182912   5.208   8.102   2.100
27554SOL    HW282913   5.325   8.012   2.065
27555SOL     OW82914  11.225  10.572   0.692
27555SOL    HW182915   0.545  10.559   0.694
27555SOL    HW282916  11.212  10.665   0.708
27556SOL     OW82917  12.710   7.192   6.317
27556SOL    HW182918  12.649   7.153   6.255
27556SOL    HW282919  12.766   7.120   6.345
27557SOL     OW82920  11.329   2.819   2.139
27557SOL    HW182921  11.297   2.899   2.180
27557SOL    HW282922  11.261   2.796   2.076
27558SOL     OW82923  14.841   7.488   6.511
27558SOL    HW182924  14.861   7.520   6.423
27558SOL    HW282925  14.766   7.431   6.499
27559SOL     OW82926   9.123   3.006   3.686
27559SOL    HW182927   9.198   3.064   3.673
27559SOL    HW282928   9.155   2.939   3.747
27560SOL     OW82929   6.736  14.978   6.901
27560SOL    HW182930   6.712  15.027   6.823
27560SOL    HW282931   6.789  14.905   6.869
27561SOL     OW82932   7.175   6.952   1.381
27561SOL    HW182933   7.227   6.940   1.302
27561SOL    HW282934   7.091   6.909   1.362
27562SOL     OW82935   9.891   4.387   4.053
27562SOL    HW182936   9.838   4.372   3.975
27562SOL    HW282937   9.877   4.480   4.074
27563SOL     OW82938   5.374   4.483   5.928
27563SOL    HW182939   5.327   4.416   5.878
27563SOL    HW282940   5.454   4.498   5.878
27564SOL     OW82941  13.262   5.399   7.007
27564SOL    HW182942  13.228   5.487   6.997
27564SOL    HW282943  13.227   5.350   6.933
27565SOL     OW82944   9.486   7.915   7.378
27565SOL    HW182945   9.569   7.895   7.336
27565SOL    HW282946   9.435   7.834   7.370
27566SOL     OW82947  11.809  12.156   2.130
27566SOL    HW182948  11.852  12.139   2.214
27566SOL    HW282949  11.870  12.214   2.084
27567SOL     OW82950   2.064   8.686   0.772
27567SOL    HW182951   2.038   8.744   0.700
27567SOL    HW282952   2.014   8.606   0.758
27568SOL     OW82953   3.659   7.311   3.610
27568SOL    HW182954   3.566   7.292   3.607
27568SOL    HW282955   3.701   7.231   3.579
27569SOL     OW82956   4.900   9.017   3.303
27569SOL    HW182957   4.838   8.962   3.256
27569SOL    HW282958   4.922   9.087   3.242
27570SOL     OW82959  10.084   9.183   7.412
27570SOL    HW182960  10.175   9.212   7.400
27570SOL    HW282961  10.035   9.228   7.343
27571SOL     OW82962   4.659  10.630   1.942
27571SOL    HW182963   4.748  10.663   1.959
27571SOL    HW282964   4.663  10.538   1.967
27572SOL     OW82965   9.327   3.728   0.090
27572SOL    HW182966   9.261   3.680   0.140
27572SOL    HW282967   9.282   3.807   0.061
27573SOL     OW82968   7.409   8.058   3.541
27573SOL    HW182969   7.344   7.989   3.526
27573SOL    HW282970   7.400   8.079   3.634
27574SOL     OW82971   9.107   8.012   5.582
27574SOL    HW182972   9.083   7.924   5.610
27574SOL    HW282973   9.128   8.003   5.489
27575SOL     OW82974   7.078   6.053   4.277
27575SOL    HW182975   7.092   6.042   4.182
27575SOL    HW282976   7.160   6.092   4.308
27576SOL     OW82977   5.128  10.909   7.084
27576SOL    HW182978   5.067  10.948   7.146
27576SOL    HW282979   5.194  10.865   7.138
27577SOL     OW82980  14.415  14.792   6.731
27577SOL    HW182981  14.374  14.755   6.652
27577SOL    HW282982  14.412  14.721   6.795
27578SOL     OW82983   4.923   4.896   5.942
27578SOL    HW182984   4.989   4.829   5.960
27578SOL    HW282985   4.951   4.935   5.859
27579SOL     OW82986   8.296   3.530   0.106
27579SOL    HW182987   8.221   3.568   0.059
27579SOL    HW282988   8.373   3.562   0.059
27580SOL     OW82989  14.308   6.661   7.470
27580SOL    HW182990  14.250   6.634   7.399
27580SOL    HW282991  14.381   6.599   7.467
27581SOL     OW82992   6.654  10.597   0.935
27581SOL    HW182993   6.576  10.569   0.984
27581SOL    HW282994   6.661  10.535   0.863
27582SOL     OW82995   3.503   3.593   1.854
27582SOL    HW182996   3.512   3.510   1.806
27582SOL    HW282997   3.591   3.611   1.888
27583SOL     OW82998   5.433   9.563   1.640
27583SOL    HW182999   5.439   9.634   1.703
27583SOL    HW283000   5.522   9.527   1.635
27584SOL     OW83001   4.735   7.821   0.783
27584SOL    HW183002   4.813   7.774   0.812
27584SOL    HW283003   4.753   7.912   0.804
27585SOL     OW83004  12.776  14.977   6.771
27585SOL    HW183005  12.718  15.011   6.703
27585SOL    HW283006  12.766  14.882   6.766
27586SOL     OW83007  14.309  11.318   6.649
27586SOL    HW183008  14.251  11.313   6.574
27586SOL    HW283009  14.269  11.382   6.707
27587SOL     OW83010  14.336   6.978   5.987
27587SOL    HW183011  14.344   6.887   5.957
27587SOL    HW283012  14.312   6.970   6.079
27588SOL     OW83013   4.400   6.213   5.786
27588SOL    HW183014   4.403   6.121   5.812
27588SOL    HW283015   4.465   6.220   5.716
27589SOL     OW83016   4.888   8.037   3.737
27589SOL    HW183017   4.849   7.955   3.706
27589SOL    HW283018   4.982   8.022   3.731
27590SOL     OW83019   7.510  10.046   0.782
27590SOL    HW183020   7.528   9.957   0.810
27590SOL    HW283021   7.585  10.071   0.729
27591SOL     OW83022  11.909  11.824   2.512
27591SOL    HW183023  11.953  11.760   2.455
27591SOL    HW283024  11.978  11.855   2.570
27592SOL     OW83025   6.113   7.889   4.553
27592SOL    HW183026   6.072   7.850   4.630
27592SOL    HW283027   6.041   7.924   4.502
27593SOL     OW83028   6.325  11.294   1.844
27593SOL    HW183029   6.362  11.302   1.931
27593SOL    HW283030   6.303  11.201   1.835
27594SOL     OW83031  10.540   4.097   1.467
27594SOL    HW183032  10.592   4.075   1.545
27594SOL    HW283033  10.528   4.192   1.471
27595SOL     OW83034  12.623   5.052   6.000
27595SOL    HW183035  12.556   4.991   5.970
27595SOL    HW283036  12.655   5.013   6.081
27596SOL     OW83037   2.703   7.096   3.103
27596SOL    HW183038   2.697   7.172   3.161
27596SOL    HW283039   2.684   7.022   3.159
27597SOL     OW83040  10.769  13.353   4.334
27597SOL    HW183041  10.688  13.354   4.383
27597SOL    HW283042  10.814  13.434   4.360
27598SOL     OW83043   3.564  12.722   4.373
27598SOL    HW183044   3.633  12.776   4.337
27598SOL    HW283045   3.518  12.686   4.297
27599SOL     OW83046  13.523  12.248   4.003
27599SOL    HW183047  13.462  12.218   3.936
27599SOL    HW283048  13.469  12.263   4.080
27600SOL     OW83049   4.638  11.454   4.930
27600SOL    HW183050   4.720  11.415   4.898
27600SOL    HW283051   4.570  11.392   4.903
27601SOL     OW83052  10.326  14.303   6.436
27601SOL    HW183053  10.414  14.331   6.412
27601SOL    HW283054  10.282  14.382   6.465
27602SOL     OW83055   9.799   6.227   4.152
27602SOL    HW183056   9.761   6.232   4.240
27602SOL    HW283057   9.791   6.316   4.117
27603SOL     OW83058  10.146   2.493   2.240
27603SOL    HW183059  10.229   2.499   2.287
27603SOL    HW283060  10.157   2.419   2.180
27604SOL     OW83061   6.096   2.795   0.938
27604SOL    HW183062   6.119   2.747   0.859
27604SOL    HW283063   6.001   2.806   0.934
27605SOL     OW83064   8.204   7.300   7.332
27605SOL    HW183065   8.135   7.305   7.397
27605SOL    HW283066   8.161   7.321   7.249
27606SOL     OW83067   3.773   7.633   3.295
27606SOL    HW183068   3.761   7.715   3.343
27606SOL    HW283069   3.866   7.630   3.275
27607SOL     OW83070  12.021   7.650   5.743
27607SOL    HW183071  12.003   7.678   5.653
27607SOL    HW283072  11.942   7.670   5.792
27608SOL     OW83073   2.780  11.954   2.430
27608SOL    HW183074   2.778  11.879   2.490
27608SOL    HW283075   2.843  12.014   2.469
27609SOL     OW83076   1.904  10.384   0.458
27609SOL    HW183077   1.926  10.377   0.551
27609SOL    HW283078   1.988  10.399   0.415
27610SOL     OW83079  10.290  13.394   5.943
27610SOL    HW183080  10.351  13.452   5.989
27610SOL    HW283081  10.328  13.307   5.951
27611SOL     OW83082   7.498  11.131   1.293
27611SOL    HW183083   7.455  11.212   1.268
27611SOL    HW283084   7.437  11.062   1.268
27612SOL     OW83085   7.587   6.953   0.307
27612SOL    HW183086   7.496   6.937   0.331
27612SOL    HW283087   7.638   6.904   0.372
27613SOL     OW83088   3.595   3.361   0.017
27613SOL    HW183089   3.564   3.438   0.065
27613SOL    HW283090   9.042   8.783   7.569
27614SOL     OW83091  12.086  10.129   5.508
27614SOL    HW183092  12.167  10.163   5.470
27614SOL    HW283093  12.114  10.077   5.583
27615SOL     OW83094  14.279   6.363   7.592
27615SOL    HW183095  14.226   6.434   7.553
27615SOL    HW283096   8.830   0.928   0.028
27616SOL     OW83097   9.191   2.679   2.527
27616SOL    HW183098   9.264   2.735   2.500
27616SOL    HW283099   9.114   2.734   2.521
27617SOL     OW83100   6.984   5.276   3.344
27617SOL    HW183101   7.064   5.250   3.298
27617SOL    HW283102   6.973   5.368   3.322
27618SOL     OW83103   2.884   5.935   0.689
27618SOL    HW183104   2.855   6.000   0.752
27618SOL    HW283105   2.956   5.889   0.734
27619SOL     OW83106   5.617   6.955   5.656
27619SOL    HW183107   5.535   6.998   5.682
27619SOL    HW283108   5.680   6.982   5.724
27620SOL     OW83109  11.452   7.819   4.061
27620SOL    HW183110  11.509   7.823   4.138
27620SOL    HW283111  11.497   7.760   4.001
27621SOL     OW83112  13.574   5.309   5.445
27621SOL    HW183113  13.565   5.375   5.377
27621SOL    HW283114  13.598   5.229   5.398
27622SOL     OW83115   7.276   8.818   3.438
27622SOL    HW183116   7.324   8.745   3.477
27622SOL    HW283117   7.221   8.777   3.371
27623SOL     OW83118   4.645   3.966   5.092
27623SOL    HW183119   4.639   4.040   5.153
27623SOL    HW283120   4.563   3.968   5.043
27624SOL     OW83121  11.489   8.338   5.923
27624SOL    HW183122  11.399   8.368   5.909
27624SOL    HW283123  11.543   8.401   5.876
27625SOL     OW83124   4.191   4.583   1.489
27625SOL    HW183125   4.234   4.623   1.564
27625SOL    HW283126   4.180   4.655   1.427
27626SOL     OW83127   5.503   4.021   3.959
27626SOL    HW183128   5.467   4.098   3.917
27626SOL    HW283129   5.458   3.947   3.917
27627SOL     OW83130   2.177   8.981   0.583
27627SOL    HW183131   2.185   8.895   0.625
27627SOL    HW283132   2.088   9.009   0.602
27628SOL     OW83133  11.488   7.133   3.521
27628SOL    HW183134  11.569   7.159   3.476
27628SOL    HW283135  11.436   7.213   3.524
27629SOL     OW83136   9.682   5.872   2.114
27629SOL    HW183137   9.698   5.910   2.200
27629SOL    HW283138   9.720   5.934   2.052
27630SOL     OW83139  11.274   5.976   1.417
27630SOL    HW183140  11.286   6.056   1.468
27630SOL    HW283141  11.245   6.006   1.331
27631SOL     OW83142  12.447  12.028   5.184
27631SOL    HW183143  12.381  11.959   5.170
27631SOL    HW283144  12.411  12.081   5.254
27632SOL     OW83145   2.778   9.508   3.533
27632SOL    HW183146   2.796   9.416   3.554
27632SOL    HW283147   2.717   9.537   3.601
27633SOL     OW83148   8.888  11.831   5.426
27633SOL    HW183149   8.934  11.757   5.386
27633SOL    HW283150   8.957  11.891   5.452
27634SOL     OW83151   6.074   5.156   2.012
27634SOL    HW183152   6.100   5.075   2.057
27634SOL    HW283153   5.978   5.152   2.010
27635SOL     OW83154   5.671   8.668   4.714
27635SOL    HW183155   5.633   8.687   4.628
27635SOL    HW283156   5.639   8.581   4.736
27636SOL     OW83157  12.398  10.732   7.021
27636SOL    HW183158  12.398  10.646   6.978
27636SOL    HW283159  12.449  10.718   7.101
27637SOL     OW83160  13.915  13.580   6.138
27637SOL    HW183161  13.911  13.596   6.044
27637SOL    HW283162  13.865  13.500   6.151
27638SOL     OW83163   1.050   6.795   0.826
27638SOL    HW183164   0.982   6.838   0.877
27638SOL    HW283165   1.086   6.728   0.886
27639SOL     OW83166   5.135   6.939   1.176
27639SOL    HW183167   5.160   6.851   1.147
27639SOL    HW283168   5.057   6.959   1.125
27640SOL     OW83169  12.319  13.437   6.792
27640SOL    HW183170  12.322  13.373   6.863
27640SOL    HW283171  12.268  13.510   6.826
27641SOL     OW83172  10.288   4.208   5.705
27641SOL    HW183173  10.362   4.267   5.690
27641SOL    HW283174  10.230   4.256   5.764
27642SOL     OW83175  10.586   5.886   7.056
27642SOL    HW183176  10.516   5.874   6.992
27642SOL    HW283177  10.546   5.937   7.127
27643SOL     OW83178   3.919   9.535   0.810
27643SOL    HW183179   3.861   9.462   0.789
27643SOL    HW283180   4.007   9.502   0.788
27644SOL     OW83181   6.387   9.693   0.491
27644SOL    HW183182   6.320   9.744   0.446
27644SOL    HW283183   6.398   9.737   0.575
27645SOL     OW83184   9.041   7.651   2.930
27645SOL    HW183185   9.049   7.555   2.928
27645SOL    HW283186   8.986   7.671   2.854
27646SOL     OW83187   4.193   3.273   4.048
27646SOL    HW183188   4.271   3.328   4.041
27646SOL    HW283189   4.124   3.325   4.007
27647SOL     OW83190  15.766  11.587   7.451
27647SOL    HW183191  15.769  11.602   7.356
27647SOL    HW283192  15.675  11.563   7.469
27648SOL     OW83193   3.923   1.731   0.664
27648SOL    HW183194   3.952   1.673   0.734
27648SOL    HW283195   3.830   1.713   0.655
27649SOL     OW83196   6.468   8.306   4.845
27649SOL    HW183197   6.520   8.306   4.925
27649SOL    HW283198   6.418   8.387   4.848
27650SOL     OW83199  12.523   9.598   6.148
27650SOL    HW183200  12.473   9.515   6.145
27650SOL    HW283201  12.567   9.602   6.063
27651SOL     OW83202   3.936   4.707   3.459
27651SOL    HW183203   4.010   4.762   3.431
27651SOL    HW283204   3.893   4.758   3.528
27652SOL     OW83205   7.535   7.790   3.871
27652SOL    HW183206   7.630   7.807   3.875
27652SOL    HW283207   7.508   7.784   3.963
27653SOL     OW83208   4.945  11.261   2.327
27653SOL    HW183209   4.877  11.323   2.355
27653SOL    HW283210   4.904  11.175   2.333
27654SOL     OW83211   6.361   8.911   3.195
27654SOL    HW183212   6.407   8.880   3.117
27654SOL    HW283213   6.298   8.975   3.162
27655SOL     OW83214   7.650   3.381   3.331
27655SOL    HW183215   7.698   3.379   3.248
27655SOL    HW283216   7.674   3.300   3.375
27656SOL     OW83217   8.298  13.078   3.407
27656SOL    HW183218   8.315   2.365   3.335
27656SOL    HW283219   8.253  13.131   3.473
27657SOL     OW83220   5.366  11.655   2.773
27657SOL    HW183221   5.354  11.703   2.691
27657SOL    HW283222   5.377  11.564   2.745
27658SOL     OW83223   4.947   5.833   3.981
27658SOL    HW183224   4.948   5.927   3.962
27658SOL    HW283225   5.037   5.813   4.006
27659SOL     OW83226   5.344  13.667   7.385
27659SOL    HW183227   5.311  13.727   7.317
27659SOL    HW283228   5.402  13.722   7.438
27660SOL     OW83229   7.972   7.621   5.574
27660SOL    HW183230   7.999   7.589   5.488
27660SOL    HW283231   7.960   7.541   5.626
27661SOL     OW83232  13.696  14.753   6.032
27661SOL    HW183233  13.765  14.780   5.971
27661SOL    HW283234  13.711  14.806   6.110
27662SOL     OW83235   5.554   3.804   4.714
27662SOL    HW183236   5.535   3.757   4.633
27662SOL    HW283237   5.518   3.892   4.700
27663SOL     OW83238   9.913   9.132   5.607
27663SOL    HW183239   9.836   9.076   5.596
27663SOL    HW283240   9.961   9.093   5.679
27664SOL     OW83241   3.247   8.632   2.064
27664SOL    HW183242   3.194   8.681   2.127
27664SOL    HW283243   3.337   8.644   2.095
27665SOL     OW83244   5.682   3.556   3.552
27665SOL    HW183245   5.606   3.596   3.510
27665SOL    HW283246   5.752   3.561   3.487
27666SOL     OW83247   2.532   2.304   0.424
27666SOL    HW183248   2.480   2.325   0.347
27666SOL    HW283249   2.557   2.389   0.461
27667SOL     OW83250  11.429  11.783   2.690
27667SOL    HW183251  11.388  11.805   2.606
27667SOL    HW283252  11.517  11.753   2.666
27668SOL     OW83253   6.700   9.142   7.021
27668SOL    HW183254   6.770   9.193   7.061
27668SOL    HW283255   6.696   9.174   6.931
27669SOL     OW83256  11.430   8.094   7.617
27669SOL    HW183257  11.465   8.155   7.553
27669SOL    HW283258  11.450   8.008   7.582
27670SOL     OW83259  11.009  10.194   4.308
27670SOL    HW183260  10.964  10.195   4.392
27670SOL    HW283261  11.100  10.217   4.328
27671SOL     OW83262   9.022   7.446   1.515
27671SOL    HW183263   8.957   7.511   1.487
27671SOL    HW283264   8.995   7.366   1.470
27672SOL     OW83265  11.308   8.098   1.854
27672SOL    HW183266  11.237   8.038   1.830
27672SOL    HW283267  11.351   8.117   1.771
27673SOL     OW83268  13.207   5.950   7.397
27673SOL    HW183269  13.242   6.020   7.342
27673SOL    HW283270  13.189   5.993   7.481
27674SOL     OW83271  12.197   4.466   5.039
27674SOL    HW183272  12.289   4.452   5.059
27674SOL    HW283273  12.189   4.448   4.945
27675SOL     OW83274   5.457  11.247   1.299
27675SOL    HW183275   5.534  11.284   1.257
27675SOL    HW283276   5.432  11.312   1.365
27676SOL     OW83277  12.212   5.031   4.019
27676SOL    HW183278  12.222   5.090   4.093
27676SOL    HW283279  12.296   5.036   3.973
27677SOL     OW83280  12.500   9.935   7.390
27677SOL    HW183281  12.556   9.859   7.372
27677SOL    HW283282  12.416   9.912   7.350
27678SOL     OW83283  14.256  12.082   7.565
27678SOL    HW183284   8.895   6.749   0.020
27678SOL    HW283285  14.186  12.026   7.599
27679SOL     OW83286   3.346   4.273   3.938
27679SOL    HW183287   3.348   4.180   3.956
27679SOL    HW283288   3.374   4.315   4.019
27680SOL     OW83289   4.316  10.997   2.839
27680SOL    HW183290   4.320  10.937   2.764
27680SOL    HW283291   4.257  10.953   2.901
27681SOL     OW83292   6.189  15.279   7.502
27681SOL    HW183293   6.215  15.200   7.549
27681SOL    HW283294   6.229  15.269   7.415
27682SOL     OW83295  12.254   3.337   4.242
27682SOL    HW183296  12.164   3.312   4.261
27682SOL    HW283297  12.249   3.430   4.219
27683SOL     OW83298  10.140  11.621   7.551
27683SOL    HW183299   4.757   6.223   0.028
27683SOL    HW283300  10.048  11.639   7.534
27684SOL     OW83301   9.059  10.277   6.569
27684SOL    HW183302   9.125  10.294   6.503
27684SOL    HW283303   8.994  10.346   6.557
27685SOL     OW83304   5.356   9.558   4.041
27685SOL    HW183305   5.374   9.482   3.985
27685SOL    HW283306   5.421   9.552   4.110
27686SOL     OW83307   6.265   5.650   2.476
27686SOL    HW183308   6.233   5.726   2.428
27686SOL    HW283309   6.185   5.607   2.508
27687SOL     OW83310   9.517   4.081   0.789
27687SOL    HW183311   9.544   3.993   0.816
27687SOL    HW283312   9.423   4.072   0.773
27688SOL     OW83313  14.019  10.822   5.608
27688SOL    HW183314  14.105  10.790   5.635
27688SOL    HW283315  13.966  10.742   5.599
27689SOL     OW83316  11.828   6.478   5.727
27689SOL    HW183317  11.862   6.437   5.807
27689SOL    HW283318  11.864   6.567   5.729
27690SOL     OW83319  10.431  13.579   7.288
27690SOL    HW183320  10.449  13.662   7.243
27690SOL    HW283321  10.382  13.528   7.224
27691SOL     OW83322  13.611   5.129   6.598
27691SOL    HW183323  13.547   5.099   6.663
27691SOL    HW283324  13.676   5.059   6.595
27692SOL     OW83325  13.943   4.999   6.274
27692SOL    HW183326  13.919   4.971   6.186
27692SOL    HW283327  13.871   5.057   6.301
27693SOL     OW83328   9.778   6.874   3.981
27693SOL    HW183329   9.855   6.904   3.933
27693SOL    HW283330   9.713   6.943   3.966
27694SOL     OW83331   8.898  11.049   6.396
27694SOL    HW183332   8.860  11.069   6.311
27694SOL    HW283333   8.879  11.126   6.450
27695SOL     OW83334   8.332   6.480   4.945
27695SOL    HW183335   8.240   6.494   4.967
27695SOL    HW283336   8.331   6.438   4.859
27696SOL     OW83337   5.630   6.248   3.087
27696SOL    HW183338   5.601   6.327   3.041
27696SOL    HW283339   5.713   6.224   3.044
27697SOL     OW83340  10.163   8.390   1.809
27697SOL    HW183341  10.214   8.315   1.780
27697SOL    HW283342  10.179   8.457   1.743
27698SOL     OW83343   0.922   9.539   0.153
27698SOL    HW183344   0.899   9.628   0.127
27698SOL    HW283345   0.953   9.498   0.072
27699SOL     OW83346   6.634   5.060   3.151
27699SOL    HW183347   6.589   5.112   3.217
27699SOL    HW283348   6.598   5.090   3.068
27700SOL     OW83349   6.205   8.403   4.590
27700SOL    HW183350   6.118   8.437   4.609
27700SOL    HW283351   6.203   8.312   4.617
27701SOL     OW83352   6.555   3.479   1.253
27701SOL    HW183353   6.549   3.385   1.235
27701SOL    HW283354   6.486   3.495   1.317
27702SOL     OW83355  10.324   9.548   5.640
27702SOL    HW183356  10.247   9.503   5.676
27702SOL    HW283357  10.331   9.629   5.691
27703SOL     OW83358  12.336  14.882   7.196
27703SOL    HW183359  12.292  14.843   7.121
27703SOL    HW283360  12.296  14.968   7.207
27704SOL     OW83361  12.839   9.802   6.129
27704SOL    HW183362  12.838   9.891   6.091
27704SOL    HW283363  12.840   9.744   6.053
27705SOL     OW83364   6.402   4.411   5.526
27705SOL    HW183365   6.414   4.472   5.599
27705SOL    HW283366   6.431   4.327   5.561
27706SOL     OW83367   5.287  12.017   3.427
27706SOL    HW183368   5.242  12.097   3.401
27706SOL    HW283369   5.361  12.010   3.367
27707SOL     OW83370   5.527   4.294   3.924
27707SOL    HW183371   5.593   4.228   3.946
27707SOL    HW283372   5.568   4.377   3.947
27708SOL     OW83373  11.271  10.209   1.090
27708SOL    HW183374  11.307  10.296   1.069
27708SOL    HW283375  11.348  10.152   1.097
27709SOL     OW83376   7.088  13.557   7.151
27709SOL    HW183377   7.094  13.464   7.129
27709SOL    HW283378   7.163  13.572   7.208
27710SOL     OW83379   5.148   4.381   1.557
27710SOL    HW183380   5.195   4.349   1.480
27710SOL    HW283381   5.172   4.321   1.627
27711SOL     OW83382  10.098   8.678   4.922
27711SOL    HW183383  10.063   8.735   4.853
27711SOL    HW283384  10.158   8.619   4.876
27712SOL     OW83385  11.613   2.906   2.244
27712SOL    HW183386  11.644   2.815   2.237
27712SOL    HW283387  11.525   2.904   2.209
27713SOL     OW83388   9.570  10.645   1.741
27713SOL    HW183389   9.559  10.551   1.727
27713SOL    HW283390   9.630  10.673   1.672
27714SOL     OW83391  13.164  13.448   6.047
27714SOL    HW183392  13.112  13.461   6.126
27714SOL    HW283393  13.099  13.443   5.976
27715SOL     OW83394   6.723   6.555   4.741
27715SOL    HW183395   6.748   6.513   4.824
27715SOL    HW283396   6.780   6.631   4.734
27716SOL     OW83397   6.270   9.245   2.958
27716SOL    HW183398   6.250   9.162   2.915
27716SOL    HW283399   6.263   9.311   2.889
27717SOL     OW83400   6.302   6.714   6.930
27717SOL    HW183401   6.264   6.638   6.975
27717SOL    HW283402   6.275   6.704   6.839
27718SOL     OW83403  14.586  13.559   5.702
27718SOL    HW183404  14.641  13.517   5.635
27718SOL    HW283405  14.647  13.606   5.758
27719SOL     OW83406   4.877  13.035   4.983
27719SOL    HW183407   4.849  12.956   5.029
27719SOL    HW283408   4.839  13.028   4.896
27720SOL     OW83409   6.586   4.549   3.889
27720SOL    HW183410   6.659   4.529   3.830
27720SOL    HW283411   6.608   4.634   3.926
27721SOL     OW83412   9.424  11.752   5.197
27721SOL    HW183413   9.439  11.807   5.120
27721SOL    HW283414   9.432  11.662   5.164
27722SOL     OW83415   7.047  13.206   6.177
27722SOL    HW183416   7.083  13.261   6.107
27722SOL    HW283417   7.102  13.128   6.176
27723SOL     OW83418   4.315   4.610   6.091
27723SOL    HW183419  15.112   4.682   6.150
27723SOL    HW283420  14.996   4.595   6.107
27724SOL     OW83421   7.407  11.895   6.336
27724SOL    HW183422   7.395  11.907   6.430
27724SOL    HW283423   7.500  11.916   6.321
27725SOL     OW83424   4.568   7.099   5.174
27725SOL    HW183425   4.615   7.047   5.238
27725SOL    HW283426   4.555   7.041   5.099
27726SOL     OW83427   5.467   5.981   6.844
27726SOL    HW183428   5.450   5.900   6.796
27726SOL    HW283429   5.450   5.959   6.936
27727SOL     OW83430   9.394  12.137   6.070
27727SOL    HW183431   9.478  12.151   6.026
27727SOL    HW283432   9.337  12.099   6.003
27728SOL     OW83433   9.575  12.379   6.055
27728SOL    HW183434   9.638  12.450   6.044
27728SOL    HW283435   9.519  12.408   6.127
27729SOL     OW83436   4.194   5.053   0.189
27729SOL    HW183437   4.169   5.006   0.109
27729SOL    HW283438   4.289   5.043   0.193
27730SOL     OW83439   9.931  11.161   6.587
27730SOL    HW183440   9.940  11.197   6.675
27730SOL    HW283441   9.849  11.113   6.588
27731SOL     OW83442  14.465   9.908   5.707
27731SOL    HW183443  14.475   9.993   5.751
27731SOL    HW283444  14.530   9.852   5.751
27732SOL     OW83445   5.879   8.348   7.596
27732SOL    HW183446   0.479   3.045   0.021
27732SOL    HW283447   5.923   8.370   7.514
27733SOL     OW83448   9.049   4.556   3.844
27733SOL    HW183449   9.103   4.577   3.920
27733SOL    HW283450   9.081   4.615   3.775
27734SOL     OW83451   5.813  11.328   2.593
27734SOL    HW183452   5.720  11.306   2.591
27734SOL    HW283453   5.841  11.308   2.682
27735SOL     OW83454  13.028   7.026   4.160
27735SOL    HW183455  12.973   7.008   4.084
27735SOL    HW283456  13.012   7.118   4.180
27736SOL     OW83457  11.509   6.487   2.203
27736SOL    HW183458  11.600   6.514   2.215
27736SOL    HW283459  11.490   6.505   2.111
27737SOL     OW83460  12.448   4.363   4.572
27737SOL    HW183461  12.500   4.414   4.510
27737SOL    HW283462  12.507   4.344   4.644
27738SOL     OW83463   2.240   6.275   0.684
27738SOL    HW183464   2.237   6.297   0.777
27738SOL    HW283465   2.305   6.335   0.647
27739SOL     OW83466  13.075  12.525   3.368
27739SOL    HW183467  13.045  12.611   3.342
27739SOL    HW283468   2.371  12.504   3.307
27740SOL     OW83469   9.005   4.436   1.399
27740SOL    HW183470   8.989   4.364   1.338
27740SOL    HW283471   8.966   4.408   1.481
27741SOL     OW83472   7.811   6.798   7.345
27741SOL    HW183473   7.724   6.839   7.340
27741SOL    HW283474   7.797   6.717   7.393
27742SOL     OW83475   9.509  12.553   7.250
27742SOL    HW183476   9.579  12.517   7.196
27742SOL    HW283477   9.553  12.618   7.305
27743SOL     OW83478  12.020  10.280   3.062
27743SOL    HW183479  12.009  10.204   3.004
27743SOL    HW283480  12.102  10.264   3.108
27744SOL     OW83481   4.151   5.797   1.444
27744SOL    HW183482   4.221   5.758   1.497
27744SOL    HW283483   4.197   5.851   1.380
27745SOL     OW83484   5.349  11.252   5.832
27745SOL    HW183485   5.442  11.272   5.825
27745SOL    HW283486   5.308  11.304   5.762
27746SOL     OW83487   1.680   3.675   0.174
27746SOL    HW183488   1.654   3.588   0.144
27746SOL    HW283489   1.775   3.674   0.173
27747SOL     OW83490  10.310   4.515   0.313
27747SOL    HW183491  10.368   4.589   0.329
27747SOL    HW283492  10.343   4.446   0.370
27748SOL     OW83493   7.923   4.445   0.831
27748SOL    HW183494   7.858   4.381   0.859
27748SOL    HW283495   7.905   4.459   0.738
27749SOL     OW83496   9.267   1.411   0.466
27749SOL    HW183497   9.335   1.419   0.398
27749SOL    HW283498   9.185   1.411   0.417
27750SOL     OW83499   3.345  13.241   3.689
27750SOL    HW183500   3.367  13.162   3.738
27750SOL    HW283501   3.343  13.310   3.755
27751SOL     OW83502   9.583   5.682   3.061
27751SOL    HW183503   9.528   5.605   3.076
27751SOL    HW283504   9.651   5.675   3.128
27752SOL     OW83505   4.479   4.867   3.369
27752SOL    HW183506   4.530   4.927   3.424
27752SOL    HW283507   4.422   4.820   3.429
27753SOL     OW83508  12.291  13.301   6.271
27753SOL    HW183509  12.317  13.328   6.360
27753SOL    HW283510  12.205  13.341   6.258
27754SOL     OW83511   9.941   6.589   2.089
27754SOL    HW183512  10.030   6.617   2.111
27754SOL    HW283513   9.944   6.494   2.090
27755SOL     OW83514   6.238   5.363   2.085
27755SOL    HW183515   6.186   5.296   2.041
27755SOL    HW283516   6.210   5.445   2.045
27756SOL     OW83517   6.380  14.846   7.491
27756SOL    HW183518   6.417  14.781   7.431
27756SOL    HW283519   6.390  14.929   7.445
27757SOL     OW83520  11.216   4.919   1.042
27757SOL    HW183521  11.227   4.867   1.122
27757SOL    HW283522  11.293   4.898   0.989
27758SOL     OW83523  11.451  13.547   7.576
27758SOL    HW183524  11.514  13.550   7.504
27758SOL    HW283525   6.112   8.192   0.033
27759SOL     OW83526   7.843  11.643   4.318
27759SOL    HW183527   7.866  11.587   4.244
27759SOL    HW283528   7.887  11.602   4.393
27760SOL     OW83529  11.625   9.671   4.794
27760SOL    HW183530  11.555   9.671   4.858
27760SOL    HW283531  11.685   9.601   4.823
27761SOL     OW83532   1.530   9.324   1.821
27761SOL    HW183533   1.540   9.288   1.733
27761SOL    HW283534   1.583   9.267   1.877
27762SOL     OW83535  11.033   7.840   7.129
27762SOL    HW183536  11.111   7.874   7.173
27762SOL    HW283537  11.013   7.905   7.062
27763SOL     OW83538   4.445   4.485   3.292
27763SOL    HW183539   4.353   4.508   3.285
27763SOL    HW283540   4.486   4.528   3.217
27764SOL     OW83541   8.150  15.469   6.688
27764SOL    HW183542   8.105   4.766   6.733
27764SOL    HW283543   8.096   4.677   6.611
27765SOL     OW83544  13.797  11.265   5.681
27765SOL    HW183545  13.706  11.285   5.702
27765SOL    HW283546  13.795  11.231   5.592
27766SOL     OW83547   4.238   5.831   0.541
27766SOL    HW183548   4.325   5.795   0.522
27766SOL    HW283549   4.237   5.842   0.636
27767SOL     OW83550  11.288  10.230   3.711
27767SOL    HW183551  11.236  10.193   3.639
27767SOL    HW283552  11.223  10.269   3.769
27768SOL     OW83553   6.293  10.404   0.443
27768SOL    HW183554   6.302  10.400   0.539
27768SOL    HW283555   6.252  10.488   0.426
27769SOL     OW83556   3.453   3.007   0.538
27769SOL    HW183557   3.442   3.077   0.603
27769SOL    HW283558   3.365   2.975   0.522
27770SOL     OW83559   8.803   9.417   4.526
27770SOL    HW183560   8.734   9.394   4.589
27770SOL    HW283561   8.793   9.511   4.513
27771SOL     OW83562   5.043   6.840   0.916
27771SOL    HW183563   5.054   6.795   0.832
27771SOL    HW283564   4.993   6.919   0.895
27772SOL     OW83565   6.255   5.252   3.336
27772SOL    HW183566   6.261   5.250   3.240
27772SOL    HW283567   6.294   5.169   3.364
27773SOL     OW83568   6.251   1.122   1.474
27773SOL    HW183569   6.297   1.058   1.421
27773SOL    HW283570   6.159   1.095   1.472
27774SOL     OW83571   6.765  10.844   6.917
27774SOL    HW183572   6.725  10.809   6.837
27774SOL    HW283573   6.854  10.868   6.890
27775SOL     OW83574   3.700   9.829   2.078
27775SOL    HW183575   3.627   9.844   2.138
27775SOL    HW283576   3.776   9.817   2.135
27776SOL     OW83577   3.972   4.794   3.761
27776SOL    HW183578   3.967   4.703   3.790
27776SOL    HW283579   4.021   4.838   3.831
27777SOL     OW83580   4.554   3.572   3.817
27777SOL    HW183581   4.563   3.635   3.889
27777SOL    HW283582   4.551   3.487   3.861
27778SOL     OW83583   8.248   3.589   2.935
27778SOL    HW183584   8.287   3.646   3.001
27778SOL    HW283585   8.213   3.649   2.869
27779SOL     OW83586   7.733  10.280   2.655
27779SOL    HW183587   7.653  10.253   2.611
27779SOL    HW283588   7.756  10.363   2.613
27780SOL     OW83589  11.267   9.139   3.680
27780SOL    HW183590  11.212   9.170   3.609
27780SOL    HW283591  11.237   9.049   3.696
27781SOL     OW83592   4.854   2.292   1.159
27781SOL    HW183593   4.842   2.312   1.066
27781SOL    HW283594   4.863   2.197   1.163
27782SOL     OW83595   7.787   9.376   5.181
27782SOL    HW183596   7.830   9.386   5.266
27782SOL    HW283597   7.794   9.283   5.162
27783SOL     OW83598   5.567  12.504   3.545
27783SOL    HW183599   5.520  12.528   3.465
27783SOL    HW283600   5.651  12.550   3.537
27784SOL     OW83601  12.982   7.181   3.561
27784SOL    HW183602  12.952   7.103   3.514
27784SOL    HW283603  12.902   7.221   3.596
27785SOL     OW83604  11.079   5.180   3.306
27785SOL    HW183605  11.153   5.147   3.254
27785SOL    HW283606  11.120   5.213   3.386
27786SOL     OW83607   5.726   9.290   7.185
27786SOL    HW183608   5.692   9.365   7.135
27786SOL    HW283609   5.665   9.280   7.258
27787SOL     OW83610   5.635   9.389   3.478
27787SOL    HW183611   5.579   9.437   3.538
27787SOL    HW283612   5.575   9.360   3.408
27788SOL     OW83613  12.368   4.000   3.651
27788SOL    HW183614  12.438   4.038   3.599
27788SOL    HW283615  12.389   3.906   3.655
27789SOL     OW83616   4.998  10.698   0.107
27789SOL    HW183617   4.910  10.724   0.134
27789SOL    HW283618   5.041  10.781   0.084
27790SOL     OW83619   7.572   4.053   4.574
27790SOL    HW183620   7.647   4.046   4.633
27790SOL    HW283621   7.546   4.145   4.579
27791SOL     OW83622   5.981  10.860   2.301
27791SOL    HW183623   6.019  10.773   2.310
27791SOL    HW283624   6.056  10.918   2.286
27792SOL     OW83625   6.058   6.443   1.877
27792SOL    HW183626   6.145   6.437   1.917
27792SOL    HW283627   6.009   6.370   1.915
27793SOL     OW83628   9.687  12.010   5.855
27793SOL    HW183629   9.643  11.925   5.855
27793SOL    HW283630   9.737  12.012   5.936
27794SOL     OW83631  12.252  11.958   2.378
27794SOL    HW183632  12.250  12.053   2.371
27794SOL    HW283633  12.336  11.938   2.419
27795SOL     OW83634   6.449  10.054   6.991
27795SOL    HW183635   6.527  10.035   6.938
27795SOL    HW283636   6.483  10.073   7.078
27796SOL     OW83637  10.430  10.843   3.106
27796SOL    HW183638  10.462  10.763   3.065
27796SOL    HW283639  10.339  10.824   3.128
27797SOL     OW83640  11.321  11.132   2.304
27797SOL    HW183641  11.229  11.109   2.314
27797SOL    HW283642  11.353  11.073   2.237
27798SOL     OW83643   9.373   9.009   2.024
27798SOL    HW183644   9.332   9.089   2.057
27798SOL    HW283645   9.300   8.951   2.003
27799SOL     OW83646   9.111   6.184   2.515
27799SOL    HW183647   9.127   6.129   2.438
27799SOL    HW283648   9.042   6.244   2.487
27800SOL     OW83649  10.849   5.506   2.930
27800SOL    HW183650  10.825   5.518   2.838
27800SOL    HW283651  10.892   5.589   2.955
27801SOL     OW83652   7.396   5.011   1.822
27801SOL    HW183653   7.326   4.960   1.781
27801SOL    HW283654   7.390   4.990   1.915
27802SOL     OW83655   1.172   0.809   0.907
27802SOL    HW183656   1.226   0.735   0.879
27802SOL    HW283657   1.089   0.797   0.861
27803SOL     OW83658  12.786  10.758   3.772
27803SOL    HW183659  12.843  10.821   3.727
27803SOL    HW283660  12.753  10.702   3.702
27804SOL     OW83661   6.654  14.001   7.309
27804SOL    HW183662   6.653  14.030   7.218
27804SOL    HW283663   6.736  13.954   7.319
27805SOL     OW83664   8.739  11.461   2.765
27805SOL    HW183665   8.712  11.371   2.782
27805SOL    HW283666   8.704  11.480   2.678
27806SOL     OW83667  14.286   5.798   5.812
27806SOL    HW183668  14.219   5.822   5.876
27806SOL    HW283669  14.260   5.710   5.782
27807SOL     OW83670   9.931   8.920   3.255
27807SOL    HW183671  10.024   8.942   3.253
27807SOL    HW283672   9.891   8.989   3.308
27808SOL     OW83673   3.396   5.348   1.549
27808SOL    HW183674   3.414   5.396   1.629
27808SOL    HW283675   3.419   5.258   1.569
27809SOL     OW83676   3.405   5.452   4.741
27809SOL    HW183677   3.444   5.473   4.825
27809SOL    HW283678   3.459   5.499   4.677
27810SOL     OW83679  15.054  11.718   7.491
27810SOL    HW183680  15.114  11.771   7.544
27810SOL    HW283681  14.977  11.707   7.546
27811SOL     OW83682   9.989   3.515   3.178
27811SOL    HW183683   9.999   3.539   3.086
27811SOL    HW283684  10.049   3.573   3.225
27812SOL     OW83685   9.777   4.302   5.998
27812SOL    HW183686   9.695   4.347   5.980
27812SOL    HW283687   9.771   4.220   5.949
27813SOL     OW83688   9.523   9.859   5.375
27813SOL    HW183689   9.537   9.801   5.299
27813SOL    HW283690   9.581   9.934   5.359
27814SOL     OW83691  11.910   8.764   5.122
27814SOL    HW183692  11.880   8.838   5.068
27814SOL    HW283693  11.977   8.722   5.068
27815SOL     OW83694   8.504   6.685   6.445
27815SOL    HW183695   8.436   6.710   6.382
27815SOL    HW283696   8.482   6.735   6.524
27816SOL     OW83697   8.590   7.737   0.951
27816SOL    HW183698   8.590   7.686   1.032
27816SOL    HW283699   8.682   7.751   0.931
27817SOL     OW83700  12.282   4.158   2.428
27817SOL    HW183701  12.370   4.121   2.437
27817SOL    HW283702  12.264   4.154   2.334
27818SOL     OW83703   4.878   9.605   2.026
27818SOL    HW183704   4.973   9.605   2.016
27818SOL    HW283705   4.844   9.616   1.937
27819SOL     OW83706  10.995   9.147   3.960
27819SOL    HW183707  11.090   9.136   3.966
27819SOL    HW283708  10.964   9.136   4.050
27820SOL     OW83709   3.578   7.004   2.346
27820SOL    HW183710   3.589   6.942   2.418
27820SOL    HW283711   3.488   6.988   2.315
27821SOL     OW83712  10.646  13.437   6.820
27821SOL    HW183713  10.551  13.426   6.824
27821SOL    HW283714  10.677  13.363   6.767
27822SOL     OW83715   1.209   4.389   1.258
27822SOL    HW183716   1.183   4.480   1.247
27822SOL    HW283717   1.186   4.347   1.175
27823SOL     OW83718  12.008   7.668   2.650
27823SOL    HW183719  11.966   7.690   2.733
27823SOL    HW283720  12.096   7.639   2.675
27824SOL     OW83721   9.181  13.074   6.238
27824SOL    HW183722   9.255  13.014   6.226
27824SOL    HW283723   9.221  13.162   6.235
27825SOL     OW83724   6.669  11.040   2.451
27825SOL    HW183725   6.640  11.005   2.536
27825SOL    HW283726   6.744  10.986   2.427
27826SOL     OW83727  12.445   4.977   5.125
27826SOL    HW183728  12.369   4.933   5.163
27826SOL    HW283729  12.445   5.064   5.166
27827SOL     OW83730   6.854   9.292   4.534
27827SOL    HW183731   6.857   9.386   4.519
27827SOL    HW283732   6.818   9.255   4.453
27828SOL     OW83733   5.617  11.832   1.684
27828SOL    HW183734   5.705  11.817   1.651
27828SOL    HW283735   5.588  11.912   1.639
27829SOL     OW83736   7.576   4.657   1.983
27829SOL    HW183737   7.485   4.646   1.953
27829SOL    HW283738   7.610   4.729   1.930
27830SOL     OW83739   6.765   8.715   3.676
27830SOL    HW183740   6.792   8.674   3.758
27830SOL    HW283741   6.750   8.807   3.699
27831SOL     OW83742   5.361   5.806   5.601
27831SOL    HW183743   5.358   5.738   5.534
27831SOL    HW283744   5.273   5.806   5.639
27832SOL     OW83745   7.687   6.170   2.250
27832SOL    HW183746   7.675   6.256   2.290
27832SOL    HW283747   7.598   6.134   2.244
27833SOL     OW83748   8.095  11.233   6.642
27833SOL    HW183749   8.097  11.138   6.632
27833SOL    HW283750   8.037  11.264   6.572
27834SOL     OW83751   6.961  11.114   2.978
27834SOL    HW183752   6.996  11.202   2.987
27834SOL    HW283753   6.944  11.086   3.068
27835SOL     OW83754  10.114  12.393   5.051
27835SOL    HW183755  10.168  12.471   5.037
27835SOL    HW283756  10.141  12.360   5.137
27836SOL     OW83757   4.867   8.595   0.125
27836SOL    HW183758   4.803   8.666   0.121
27836SOL    HW283759   4.932   8.617   0.058
27837SOL     OW83760   1.100   9.635   1.402
27837SOL    HW183761   1.035   9.633   1.332
27837SOL    HW283762   1.103   9.545   1.434
27838SOL     OW83763   9.751   3.432   4.366
27838SOL    HW183764   9.782   3.478   4.443
27838SOL    HW283765   9.667   3.394   4.393
27839SOL     OW83766   0.602   3.554   0.850
27839SOL    HW183767   0.625   3.624   0.789
27839SOL    HW283768   0.686   3.530   0.891
27840SOL     OW83769   9.592   6.583   7.322
27840SOL    HW183770   9.501   6.565   7.345
27840SOL    HW283771   9.593   6.584   7.226
27841SOL     OW83772   0.746   1.277   0.729
27841SOL    HW183773   0.786   1.343   0.672
27841SOL    HW283774   0.725   1.204   0.670
27842SOL     OW83775   7.587  10.456   2.163
27842SOL    HW183776   7.639  10.507   2.101
27842SOL    HW283777   7.573  10.516   2.236
27843SOL     OW83778   5.390   5.946   4.687
27843SOL    HW183779   5.379   6.024   4.741
27843SOL    HW283780   5.478   5.955   4.650
27844SOL     OW83781   9.153  11.242   2.704
27844SOL    HW183782   9.095  11.317   2.717
27844SOL    HW283783   9.234  11.266   2.748
27845SOL     OW83784   6.990   9.172   2.136
27845SOL    HW183785   6.975   9.263   2.110
27845SOL    HW283786   6.994   9.175   2.232
27846SOL     OW83787  10.004  12.878   5.697
27846SOL    HW183788  10.073  12.812   5.706
27846SOL    HW283789   9.948  12.844   5.627
27847SOL     OW83790   6.524   5.693   4.551
27847SOL    HW183791   6.469   5.615   4.557
27847SOL    HW283792   6.473   5.761   4.595
27848SOL     OW83793  12.337  10.889   4.255
27848SOL    HW183794  12.408  10.948   4.230
27848SOL    HW283795  12.348  10.876   4.349
27849SOL     OW83796  11.673   2.650   2.212
27849SOL    HW183797  11.678   2.558   2.185
27849SOL    HW283798  11.704   2.650   2.302
27850SOL     OW83799   1.969   2.853   1.270
27850SOL    HW183800   1.898   2.809   1.316
27850SOL    HW283801   1.981   2.803   1.190
27851SOL     OW83802   7.118  10.771   1.606
27851SOL    HW183803   7.126  10.697   1.666
27851SOL    HW283804   7.044  10.821   1.639
27852SOL     OW83805   6.546   5.359   4.515
27852SOL    HW183806   6.463   5.376   4.559
27852SOL    HW283807   6.598   5.311   4.579
27853SOL     OW83808  13.503  15.636   7.182
27853SOL    HW183809  13.424  15.687   7.166
27853SOL    HW283810  13.472  15.553   7.218
27854SOL     OW83811  12.974   6.928   3.739
27854SOL    HW183812  12.913   6.988   3.781
27854SOL    HW283813  12.919   6.860   3.699
27855SOL     OW83814   6.725  11.147   6.812
27855SOL    HW183815   6.752  11.234   6.783
27855SOL    HW283816   6.752  11.089   6.740
27856SOL     OW83817   4.635   8.246   3.124
27856SOL    HW183818   4.727   8.221   3.131
27856SOL    HW283819   4.588   8.163   3.112
27857SOL     OW83820   4.610   9.805   2.524
27857SOL    HW183821   4.601   9.836   2.614
27857SOL    HW283822   4.692   9.755   2.525
27858SOL     OW83823  12.921   5.066   5.274
27858SOL    HW183824  12.867   5.062   5.196
27858SOL    HW283825  12.977   5.143   5.261
27859SOL     OW83826  10.118   8.161   2.878
27859SOL    HW183827  10.133   8.165   2.973
27859SOL    HW283828  10.051   8.093   2.868
27860SOL     OW83829  11.596   9.934   6.576
27860SOL    HW183830  11.591  10.005   6.641
27860SOL    HW283831  11.507   9.927   6.542
27861SOL     OW83832   7.909   5.745   7.034
27861SOL    HW183833   7.831   5.714   7.080
27861SOL    HW283834   7.924   5.680   6.966
27862SOL     OW83835   7.967   7.082   3.272
27862SOL    HW183836   7.907   7.012   3.298
27862SOL    HW283837   7.911   7.158   3.260
27863SOL     OW83838   9.844   4.918   0.478
27863SOL    HW183839   9.884   4.953   0.398
27863SOL    HW283840   9.826   4.995   0.532
27864SOL     OW83841   1.200   3.855   1.592
27864SOL    HW183842  11.888   3.835   1.629
27864SOL    HW283843   1.191   3.945   1.559
27865SOL     OW83844  12.449  11.400   4.076
27865SOL    HW183845  12.467  11.438   4.162
27865SOL    HW283846  12.506  11.448   4.016
27866SOL     OW83847   3.411   3.700   2.898
27866SOL    HW183848   3.428   3.632   2.834
27866SOL    HW283849   3.318   3.721   2.888
27867SOL     OW83850  10.291   5.408   3.877
27867SOL    HW183851  10.303   5.375   3.966
27867SOL    HW283852  10.371   5.382   3.831
27868SOL     OW83853   7.630  10.292   2.903
27868SOL    HW183854   7.712  10.285   2.952
27868SOL    HW283855   7.658  10.291   2.811
27869SOL     OW83856  11.600  10.031   1.875
27869SOL    HW183857  11.676  10.014   1.821
27869SOL    HW283858  11.532  10.058   1.814
27870SOL     OW83859   8.420   8.578   5.309
27870SOL    HW183860   8.416   8.546   5.399
27870SOL    HW283861   8.430   8.500   5.255
27871SOL     OW83862  13.029   3.524   3.317
27871SOL    HW183863  12.970   3.460   3.357
27871SOL    HW283864  13.089   3.548   3.388
27872SOL     OW83865   2.135  10.582   2.411
27872SOL    HW183866   2.075  10.518   2.373
27872SOL    HW283867   2.081  10.632   2.473
27873SOL     OW83868   6.977   7.959   4.645
27873SOL    HW183869   7.034   7.959   4.722
27873SOL    HW283870   6.938   7.871   4.644
27874SOL     OW83871   4.772   8.096   4.020
27874SOL    HW183872   4.777   8.192   4.017
27874SOL    HW283873   4.841   8.066   3.961
27875SOL     OW83874   5.684  13.503   6.156
27875SOL    HW183875   5.691  13.524   6.249
27875SOL    HW283876   5.590  13.507   6.138
27876SOL     OW83877  11.558   9.658   5.918
27876SOL    HW183878  11.468   9.653   5.950
27876SOL    HW283879  11.579   9.569   5.892
27877SOL     OW83880   8.536   7.979   0.493
27877SOL    HW183881   8.572   8.038   0.426
27877SOL    HW283882   8.541   7.892   0.453
27878SOL     OW83883   4.091   4.114   3.929
27878SOL    HW183884   4.108   4.026   3.963
27878SOL    HW283885   4.172   4.138   3.883
27879SOL     OW83886   8.691   9.293   2.496
27879SOL    HW183887   8.611   9.259   2.536
27879SOL    HW283888   8.694   9.254   2.409
27880SOL     OW83889   9.241   4.507   4.739
27880SOL    HW183890   9.214   4.519   4.648
27880SOL    HW283891   9.189   4.434   4.771
27881SOL     OW83892   6.025  10.495   3.895
27881SOL    HW183893   6.117  10.472   3.907
27881SOL    HW283894   5.990  10.425   3.840
27882SOL     OW83895  10.755   5.000   6.703
27882SOL    HW183896  10.765   4.962   6.616
27882SOL    HW283897  10.727   5.090   6.686
27883SOL     OW83898   6.255   8.903   0.082
27883SOL    HW183899   6.169   8.895   0.041
27883SOL    HW283900   6.248   8.979   0.140
27884SOL     OW83901  14.654   5.688   7.264
27884SOL    HW183902  14.573   5.648   7.297
27884SOL    HW283903  14.627   5.775   7.235
27885SOL     OW83904   9.090   6.152   4.451
27885SOL    HW183905   9.097   6.059   4.473
27885SOL    HW283906   9.027   6.155   4.379
27886SOL     OW83907   7.846   3.701   4.414
27886SOL    HW183908   7.763   3.750   4.413
27886SOL    HW283909   7.820   3.609   4.420
27887SOL     OW83910  14.645   9.600   5.590
27887SOL    HW183911  14.651   9.595   5.494
27887SOL    HW283912  14.585   9.529   5.613
27888SOL     OW83913   4.533   8.427   4.107
27888SOL    HW183914   4.625   8.449   4.101
27888SOL    HW283915   4.529   8.359   4.175
27889SOL     OW83916   8.131   3.669   4.383
27889SOL    HW183917   8.116   3.591   4.330
27889SOL    HW283918   8.047   3.716   4.380
27890SOL     OW83919   6.444   2.269   3.151
27890SOL    HW183920   6.516   2.318   3.111
27890SOL    HW283921   6.385   2.251   3.079
27891SOL     OW83922  13.887   7.872   5.517
27891SOL    HW183923  13.856   7.841   5.432
27891SOL    HW283924  13.826   7.833   5.580
27892SOL     OW83925   9.220   3.394   4.619
27892SOL    HW183926   9.150   3.407   4.683
27892SOL    HW283927   9.248   3.483   4.596
27893SOL     OW83928   7.525  12.032   7.494
27893SOL    HW183929   7.544  12.107   7.437
27893SOL    HW283930   7.592  11.968   7.472
27894SOL     OW83931  14.844   6.856   6.920
27894SOL    HW183932  14.864   6.949   6.936
27894SOL    HW283933  14.867   6.842   6.828
27895SOL     OW83934   9.686   4.792   2.434
27895SOL    HW183935   9.667   4.761   2.346
27895SOL    HW283936   9.780   4.777   2.445
27896SOL     OW83937   3.753  11.214   1.980
27896SOL    HW183938   3.681  11.158   2.008
27896SOL    HW283939   3.714  11.301   1.971
27897SOL     OW83940   6.484   9.598   4.595
27897SOL    HW183941   6.518   9.605   4.505
27897SOL    HW283942   6.415   9.532   4.590
27898SOL     OW83943   6.802   7.892   7.585
27898SOL    HW183944   1.455   2.527   0.050
27898SOL    HW283945   6.847   7.812   7.557
27899SOL     OW83946  12.181   5.408   6.286
27899SOL    HW183947  12.276   5.395   6.282
27899SOL    HW283948  12.170   5.503   6.295
27900SOL     OW83949   7.698   6.051   7.455
27900SOL    HW183950   7.642   6.128   7.451
27900SOL    HW283951   7.770   6.075   7.514
27901SOL     OW83952   9.198  12.582   6.350
27901SOL    HW183953   9.119  12.551   6.306
27901SOL    HW283954   9.166  12.622   6.431
27902SOL     OW83955   4.862   7.249   4.370
27902SOL    HW183956   4.806   7.253   4.447
27902SOL    HW283957   4.889   7.339   4.355
27903SOL     OW83958   6.863   6.594   5.800
27903SOL    HW183959   6.786   6.643   5.827
27903SOL    HW283960   6.896   6.554   5.881
27904SOL     OW83961  10.232   9.832   1.815
27904SOL    HW183962  10.171   9.879   1.757
27904SOL    HW283963  10.230   9.742   1.784
27905SOL     OW83964   3.627   3.974   0.679
27905SOL    HW183965   3.682   4.049   0.696
27905SOL    HW283966   3.665   3.903   0.731
27906SOL     OW83967  10.677   3.343   4.397
27906SOL    HW183968  10.651   3.335   4.489
27906SOL    HW283969  10.662   3.256   4.361
27907SOL     OW83970   5.251   6.517   6.656
27907SOL    HW183971   5.219   6.591   6.708
27907SOL    HW283972   5.278   6.453   6.721
27908SOL     OW83973   4.229   6.990   4.908
27908SOL    HW183974   4.290   6.930   4.952
27908SOL    HW283975   4.264   7.077   4.925
27909SOL     OW83976   2.522   2.823   2.610
27909SOL    HW183977   2.432   2.848   2.589
27909SOL    HW283978   2.538   2.745   2.556
27910SOL     OW83979  13.757  11.698   5.789
27910SOL    HW183980  13.791  11.681   5.877
27910SOL    HW283981  13.817  11.762   5.751
27911SOL     OW83982  15.714  12.392   7.490
27911SOL    HW183983  15.722  12.486   7.508
27911SOL    HW283984  15.726  12.350   7.575
27912SOL     OW83985   3.646   4.994   1.415
27912SOL    HW183986   3.707   5.061   1.387
27912SOL    HW283987   3.696   4.913   1.413
27913SOL     OW83988  12.595   5.021   5.402
27913SOL    HW183989  12.566   5.005   5.492
27913SOL    HW283990  12.638   4.940   5.375
27914SOL     OW83991   7.439   5.840   6.572
27914SOL    HW183992   7.530   5.821   6.595
27914SOL    HW283993   7.396   5.855   6.656
27915SOL     OW83994  11.169   4.161   2.943
27915SOL    HW183995  11.107   4.090   2.957
27915SOL    HW283996  11.225   4.161   3.020
27916SOL     OW83997   6.867   6.193   5.871
27916SOL    HW183998   6.830   6.270   5.914
27916SOL    HW283999   6.865   6.215   5.778
27917SOL     OW84000  15.533  11.486   7.519
27917SOL    HW184001  15.514  11.484   7.612
27917SOL    HW284002  15.539  11.394   7.493
27918SOL     OW84003   8.686   9.681   5.579
27918SOL    HW184004   8.604   9.715   5.616
27918SOL    HW284005   8.754   9.739   5.613
27919SOL     OW84006  15.298   9.292   6.812
27919SOL    HW184007  15.264   9.345   6.739
27919SOL    HW284008  15.221   9.265   6.860
27920SOL     OW84009   7.972   6.704   6.557
27920SOL    HW184010   7.955   6.701   6.651
27920SOL    HW284011   7.886   6.697   6.517
27921SOL     OW84012   0.586   5.266   0.336
27921SOL    HW184013   0.624   5.286   0.250
27921SOL    HW284014   0.492   5.268   0.321
27922SOL     OW84015   9.860  11.666   4.575
27922SOL    HW184016   9.927  11.601   4.594
27922SOL    HW284017   9.839  11.654   4.483
27923SOL     OW84018   8.653   0.572   0.582
27923SOL    HW184019   8.568   0.582   0.624
27923SOL    HW284020   8.640   0.606   0.493
27924SOL     OW84021   7.295   5.560   5.317
27924SOL    HW184022   7.206   5.571   5.282
27924SOL    HW284023   7.309   5.637   5.371
27925SOL     OW84024   6.939   3.617   1.799
27925SOL    HW184025   6.898   3.627   1.885
27925SOL    HW284026   6.995   3.539   1.808
27926SOL     OW84027  13.800  10.042   4.648
27926SOL    HW184028  13.838  10.073   4.730
27926SOL    HW284029  13.859   9.972   4.620
27927SOL     OW84030   9.561   6.909   7.371
27927SOL    HW184031   9.600   6.995   7.355
27927SOL    HW284032   9.476   6.912   7.328
27928SOL     OW84033  12.575   4.396   5.583
27928SOL    HW184034  12.661   4.361   5.606
27928SOL    HW284035  12.518   4.370   5.656
27929SOL     OW84036   1.761   7.528   0.226
27929SOL    HW184037   1.745   7.533   0.131
27929SOL    HW284038   1.828   7.461   0.236
27930SOL     OW84039  12.715  11.383   6.308
27930SOL    HW184040  12.748  11.452   6.365
27930SOL    HW284041  12.783  11.373   6.241
27931SOL     OW84042   9.293  11.147   1.328
27931SOL    HW184043   9.289  11.054   1.308
27931SOL    HW284044   9.364  11.155   1.391
27932SOL     OW84045   3.851   6.956   0.210
27932SOL    HW184046   3.850   6.861   0.200
27932SOL    HW284047   3.832   6.990   0.122
27933SOL     OW84048   7.404   9.673   1.804
27933SOL    HW184049   7.432   9.653   1.893
27933SOL    HW284050   7.457   9.748   1.778
27934SOL     OW84051   4.649   3.811   3.287
27934SOL    HW184052   4.638   3.769   3.372
27934SOL    HW284053   4.586   3.883   3.287
27935SOL     OW84054   5.118  13.953   7.030
27935SOL    HW184055   5.103  13.862   7.056
27935SOL    HW284056   5.099  13.955   6.936
27936SOL     OW84057   4.183   6.191   4.070
27936SOL    HW184058   4.158   6.167   3.981
27936SOL    HW284059   4.209   6.283   4.064
27937SOL     OW84060  10.701   3.465   1.221
27937SOL    HW184061  10.681   3.440   1.131
27937SOL    HW284062  10.781   3.418   1.243
27938SOL     OW84063   8.687  13.133   4.452
27938SOL    HW184064   8.730  13.056   4.414
27938SOL    HW284065   8.752  13.203   4.443
27939SOL     OW84066  11.491   7.053   5.269
27939SOL    HW184067  11.464   6.975   5.221
27939SOL    HW284068  11.429   7.060   5.342
27940SOL     OW84069  11.797   9.665   2.604
27940SOL    HW184070  11.853   9.742   2.597
27940SOL    HW284071  11.852   9.593   2.572
27941SOL     OW84072  14.684   7.505   6.737
27941SOL    HW184073  14.728   7.552   6.665
27941SOL    HW284074  14.732   7.533   6.815
27942SOL     OW84075   4.877   9.998   0.993
27942SOL    HW184076   4.916   9.924   0.947
27942SOL    HW284077   4.792  10.009   0.952
27943SOL     OW84078   7.086   3.461   0.125
27943SOL    HW184079   6.996   3.472   0.156
27943SOL    HW284080   7.140   3.478   0.202
27944SOL     OW84081  10.830   6.125   7.309
27944SOL    HW184082  10.750   6.110   7.359
27944SOL    HW284083  10.837   6.221   7.302
27945SOL     OW84084   5.179   5.990   1.448
27945SOL    HW184085   5.223   6.048   1.386
27945SOL    HW284086   5.104   5.956   1.399
27946SOL     OW84087   9.503  10.057   6.218
27946SOL    HW184088   9.542  10.142   6.236
27946SOL    HW284089   9.485  10.019   6.304
27947SOL     OW84090   9.158  10.857   6.296
27947SOL    HW184091   9.152  10.920   6.224
27947SOL    HW284092   9.152  10.910   6.375
27948SOL     OW84093  13.882   6.173   5.964
27948SOL    HW184094  13.958   6.229   5.976
27948SOL    HW284095  13.858   6.146   6.053
27949SOL     OW84096   6.439   8.258   6.671
27949SOL    HW184097   6.492   8.232   6.596
27949SOL    HW284098   6.363   8.199   6.668
27950SOL     OW84099   3.102   3.051   1.308
27950SOL    HW184100   3.085   3.099   1.389
27950SOL    HW284101   3.057   3.101   1.240
27951SOL     OW84102  12.774   7.220   7.310
27951SOL    HW184103  12.800   7.256   7.395
27951SOL    HW284104  12.730   7.293   7.266
27952SOL     OW84105  13.205   5.904   5.146
27952SOL    HW184106  13.247   5.844   5.085
27952SOL    HW284107  13.121   5.862   5.167
27953SOL     OW84108  10.179  10.484   5.258
27953SOL    HW184109  10.181  10.532   5.340
27953SOL    HW284110  10.267  10.449   5.248
27954SOL     OW84111   7.382  13.967   5.899
27954SOL    HW184112   7.408  14.054   5.868
27954SOL    HW284113   7.291  13.958   5.870
27955SOL     OW84114  15.448   5.731   7.161
27955SOL    HW184115  15.413   5.796   7.222
27955SOL    HW284116  15.509   5.781   7.106
27956SOL     OW84117   7.012   6.460   5.957
27956SOL    HW184118   7.069   6.523   6.001
27956SOL    HW284119   7.061   6.378   5.958
27957SOL     OW84120   9.896  13.174   3.848
27957SOL    HW184121   9.810  13.217   3.850
27957SOL    HW284122   9.954  13.238   3.807
27958SOL     OW84123   7.341   1.514   0.818
27958SOL    HW184124   7.430   1.544   0.835
27958SOL    HW284125   7.287   1.565   0.879
27959SOL     OW84126   3.981   7.045   4.020
27959SOL    HW184127   4.018   6.958   4.037
27959SOL    HW284128   4.048   7.090   3.968
27960SOL     OW84129   5.227   4.169   2.815
27960SOL    HW184130   5.273   4.108   2.874
27960SOL    HW284131   5.165   4.215   2.872
27961SOL     OW84132   0.978  10.745   0.432
27961SOL    HW184133   1.065  10.754   0.472
27961SOL    HW284134   0.980  10.803   0.356
27962SOL     OW84135  11.492   4.812   3.875
27962SOL    HW184136  11.540   4.752   3.931
27962SOL    HW284137  11.466   4.883   3.933
27963SOL     OW84138   2.800  10.393   2.555
27963SOL    HW184139   2.725  10.352   2.597
27963SOL    HW284140   2.819  10.337   2.480
27964SOL     OW84141   4.332   6.940   5.361
27964SOL    HW184142   4.348   6.923   5.268
27964SOL    HW284143   4.415   6.975   5.394
27965SOL     OW84144   3.662   9.878   5.102
27965SOL    HW184145   3.754   9.900   5.115
27965SOL    HW284146  14.389   9.949   5.145
27966SOL     OW84147  11.504   6.991   4.640
27966SOL    HW184148  11.494   7.076   4.595
27966SOL    HW284149  11.581   6.951   4.598
27967SOL     OW84150   7.296  10.557   2.914
27967SOL    HW184151   7.212  10.517   2.938
27967SOL    HW284152   7.338  10.492   2.859
27968SOL     OW84153  10.383   4.877   0.613
27968SOL    HW184154  10.318   4.880   0.544
27968SOL    HW284155  10.465   4.902   0.570
27969SOL     OW84156   3.414   3.804   2.088
27969SOL    HW184157   3.391   3.876   2.030
27969SOL    HW284158   3.508   3.816   2.105
27970SOL     OW84159  10.586   6.921   0.438
27970SOL    HW184160  10.671   6.965   0.426
27970SOL    HW284161  10.531   6.957   0.368
27971SOL     OW84162  12.468  13.858   6.714
27971SOL    HW184163  12.397  13.802   6.682
27971SOL    HW284164  12.436  13.894   6.797
27972SOL     OW84165   4.888   5.321   4.385
27972SOL    HW184166   4.925   5.398   4.427
27972SOL    HW284167   4.959   5.286   4.330
27973SOL     OW84168   2.894   8.556   2.051
27973SOL    HW184169   2.803   8.571   2.076
27973SOL    HW284170   2.902   8.460   2.047
27974SOL     OW84171   1.772   6.454   1.506
27974SOL    HW184172   1.733   6.539   1.528
27974SOL    HW284173   1.711   6.390   1.542
27975SOL     OW84174   6.336   5.497   4.678
27975SOL    HW184175   6.250   5.463   4.654
27975SOL    HW284176   6.319   5.553   4.754
27976SOL     OW84177   7.010   1.635   0.100
27976SOL    HW184178   7.013   1.597   0.012
27976SOL    HW284179   7.100   1.630   0.132
27977SOL     OW84180  11.063   3.288   4.579
27977SOL    HW184181  11.025  14.043   4.664
27977SOL    HW284182  11.066   3.383   4.574
27978SOL     OW84183   2.228   9.670   1.512
27978SOL    HW184184   2.316   9.700   1.491
27978SOL    HW284185   2.207   9.714   1.595
27979SOL     OW84186   6.585  10.584   2.943
27979SOL    HW184187   6.510  10.532   2.972
27979SOL    HW284188   6.601  10.556   2.853
27980SOL     OW84189   7.042   4.554   0.919
27980SOL    HW184190   6.956   4.589   0.940
27980SOL    HW284191   7.025   4.487   0.852
27981SOL     OW84192   8.104   6.347   0.354
27981SOL    HW184193   8.141   6.259   0.362
27981SOL    HW284194   8.114   6.385   0.442
27982SOL     OW84195   6.668  14.798   5.886
27982SOL    HW184196   6.638  14.774   5.974
27982SOL    HW284197   6.633  14.729   5.830
27983SOL     OW84198   5.998  14.733   7.229
27983SOL    HW184199   6.027  14.724   7.138
27983SOL    HW284200   5.996  14.828   7.243
27984SOL     OW84201  12.177   9.409   5.197
27984SOL    HW184202  12.146   9.340   5.256
27984SOL    HW284203  12.227   9.468   5.254
27985SOL     OW84204   8.134  12.975   5.657
27985SOL    HW184205   8.121  13.053   5.603
27985SOL    HW284206   8.193  12.920   5.606
27986SOL     OW84207  10.800  11.158   7.008
27986SOL    HW184208  10.751  11.112   7.076
27986SOL    HW284209  10.804  11.096   6.936
27987SOL     OW84210  15.104  12.776   6.550
27987SOL    HW184211  15.130  12.824   6.472
27987SOL    HW284212  15.151  12.692   6.543
27988SOL     OW84213   3.541   2.920   4.116
27988SOL    HW184214   3.573   2.885   4.033
27988SOL    HW284215   3.493  13.623   4.156
27989SOL     OW84216  10.937  10.981   1.160
27989SOL    HW184217  10.942  11.076   1.168
27989SOL    HW284218  10.889  10.952   1.238
27990SOL     OW84219   7.256   5.199   2.167
27990SOL    HW184220   7.210   5.238   2.093
27990SOL    HW284221   7.245   5.263   2.238
27991SOL     OW84222   4.963  10.168   5.278
27991SOL    HW184223   4.972  10.199   5.188
27991SOL    HW284224   5.052  10.145   5.305
27992SOL     OW84225   7.530   6.213   1.051
27992SOL    HW184226   7.469   6.270   1.098
27992SOL    HW284227   7.477   6.139   1.022
27993SOL     OW84228   4.436   9.103   5.675
27993SOL    HW184229   4.375   9.177   5.684
27993SOL    HW284230   4.392   9.030   5.719
27994SOL     OW84231  15.676   5.250   7.129
27994SOL    HW184232  15.716   5.202   7.056
27994SOL    HW284233  15.634   5.325   7.088
27995SOL     OW84234   7.769   4.357   2.338
27995SOL    HW184235   7.679   4.339   2.314
27995SOL    HW284236   7.820   4.338   2.259
27996SOL     OW84237   9.725   3.994   3.502
27996SOL    HW184238   9.678   4.015   3.421
27996SOL    HW284239   9.667   3.934   3.549
27997SOL     OW84240  12.230   5.877   4.416
27997SOL    HW184241  12.286   5.859   4.491
27997SOL    HW284242  12.266   5.956   4.377
27998SOL     OW84243   4.737  12.584   4.739
27998SOL    HW184244   4.668  12.648   4.720
27998SOL    HW284245   4.690  12.502   4.754
27999SOL     OW84246  10.813   5.057   1.390
27999SOL    HW184247  10.810   5.061   1.486
27999SOL    HW284248  10.897   5.016   1.371
28000SOL     OW84249   3.995   3.848   4.425
28000SOL    HW184250   4.079   3.807   4.447
28000SOL    HW284251   4.012   3.942   4.428
28001SOL     OW84252   4.983   4.763   1.303
28001SOL    HW184253   5.006   4.802   1.218
28001SOL    HW284254   5.066   4.731   1.338
28002SOL     OW84255  12.520  11.709   5.072
28002SOL    HW184256  12.588  11.770   5.044
28002SOL    HW284257  12.438  11.748   5.042
28003SOL     OW84258   9.477   9.156   4.587
28003SOL    HW184259   9.448   9.167   4.497
28003SOL    HW284260   9.400   9.120   4.633
28004SOL     OW84261   1.098   1.135   0.369
28004SOL    HW184262   1.125   1.093   0.451
28004SOL    HW284263   1.018   1.183   0.392
28005SOL     OW84264  11.270  10.447   6.655
28005SOL    HW184265  11.195  10.399   6.620
28005SOL    HW284266  11.324  10.467   6.579
28006SOL     OW84267   7.522  11.515   6.307
28006SOL    HW184268   7.429  11.507   6.287
28006SOL    HW284269   7.538  11.610   6.308
28007SOL     OW84270   7.668   5.862   4.210
28007SOL    HW184271   7.584   5.826   4.183
28007SOL    HW284272   7.645   5.934   4.269
28008SOL     OW84273   7.472   9.084   5.367
28008SOL    HW184274   7.463   9.169   5.411
28008SOL    HW284275   7.384   9.046   5.373
28009SOL     OW84276  12.675   3.673   2.974
28009SOL    HW184277  12.596   3.724   2.996
28009SOL    HW284278  12.740   3.740   2.952
28010SOL     OW84279  11.414  13.464   3.979
28010SOL    HW184280  11.337  13.501   4.023
28010SOL    HW284281  11.486  13.480   4.040
28011SOL     OW84282   8.568  10.819   4.713
28011SOL    HW184283   8.565  10.838   4.619
28011SOL    HW284284   8.628  10.884   4.749
28012SOL     OW84285  11.428  11.836   3.886
28012SOL    HW184286  11.351  11.793   3.850
28012SOL    HW284287  11.473  11.873   3.810
28013SOL     OW84288  11.228   4.212   1.733
28013SOL    HW184289  11.242   4.280   1.799
28013SOL    HW284290  11.299   4.224   1.671
28014SOL     OW84291   2.432   1.212   0.618
28014SOL    HW184292   2.457   1.178   0.704
28014SOL    HW284293   2.506   1.190   0.561
28015SOL     OW84294   9.561   6.031   5.975
28015SOL    HW184295   9.477   6.018   5.930
28015SOL    HW284296   9.585   6.122   5.955
28016SOL     OW84297   6.580   2.682   0.277
28016SOL    HW184298   6.507   2.695   0.338
28016SOL    HW284299   6.585   2.764   0.228
28017SOL     OW84300   7.987  13.405   6.999
28017SOL    HW184301   8.020  13.475   6.941
28017SOL    HW284302   8.057  13.392   7.063
28018SOL     OW84303  10.974  12.047   3.851
28018SOL    HW184304  10.949  11.979   3.914
28018SOL    HW284305  11.057  12.016   3.814
28019SOL     OW84306   7.866   1.780   1.829
28019SOL    HW184307   7.779   1.810   1.804
28019SOL    HW284308   7.880   1.817   1.916
28020SOL     OW84309   7.389   5.987   5.671
28020SOL    HW184310   7.334   5.981   5.749
28020SOL    HW284311   7.359   6.067   5.627
28021SOL     OW84312   7.029   9.813   4.277
28021SOL    HW184313   7.091   9.883   4.296
28021SOL    HW284314   7.078   9.732   4.296
28022SOL     OW84315   9.761  12.702   4.245
28022SOL    HW184316   9.761  12.773   4.310
28022SOL    HW284317   9.818  12.733   4.175
28023SOL     OW84318  11.797  12.910   3.793
28023SOL    HW184319  11.804  12.943   3.704
28023SOL    HW284320  11.711  12.868   3.798
28024SOL     OW84321   2.728   5.608   1.152
28024SOL    HW184322   2.810   5.561   1.162
28024SOL    HW284323   2.711   5.647   1.238
28025SOL     OW84324   8.438   4.446   2.472
28025SOL    HW184325   8.533   4.440   2.487
28025SOL    HW284326   8.401   4.459   2.559
28026SOL     OW84327   8.318  14.153   6.387
28026SOL    HW184328   8.400  14.107   6.372
28026SOL    HW284329   8.335  14.243   6.361
28027SOL     OW84330  13.535  12.299   6.108
28027SOL    HW184331  13.586  12.230   6.151
28027SOL    HW284332  13.452  12.300   6.155
28028SOL     OW84333   3.869  11.169   2.790
28028SOL    HW184334   3.854  11.258   2.823
28028SOL    HW284335   3.880  11.116   2.869
28029SOL     OW84336  13.163   9.257   7.086
28029SOL    HW184337  13.109   9.239   7.010
28029SOL    HW284338  13.242   9.299   7.051
28030SOL     OW84339   4.390   4.443   2.343
28030SOL    HW184340   4.385   4.493   2.424
28030SOL    HW284341   4.307   4.463   2.298
28031SOL     OW84342   5.335   7.826   7.351
28031SOL    HW184343   5.259   7.862   7.397
28031SOL    HW284344   5.398   7.897   7.348
28032SOL     OW84345   7.291   7.448   4.791
28032SOL    HW184346   7.374   7.457   4.745
28032SOL    HW284347   7.276   7.353   4.795
28033SOL     OW84348  10.538   3.691   2.602
28033SOL    HW184349  10.621   3.731   2.626
28033SOL    HW284350  10.529   3.707   2.508
28034SOL     OW84351  13.891   3.558   5.019
28034SOL    HW184352  13.883  14.268   4.949
28034SOL    HW284353  13.964   3.614   4.992
28035SOL     OW84354   7.450   6.410   6.448
28035SOL    HW184355   7.372   6.377   6.493
28035SOL    HW284356   7.479   6.335   6.395
28036SOL     OW84357  12.346  10.007   3.669
28036SOL    HW184358  12.307  10.094   3.681
28036SOL    HW284359  12.437  10.017   3.699
28037SOL     OW84360  11.798   7.997   3.555
28037SOL    HW184361  11.809   8.082   3.511
28037SOL    HW284362  11.841   8.009   3.640
28038SOL     OW84363   6.966   8.725   0.526
28038SOL    HW184364   7.039   8.663   0.540
28038SOL    HW284365   6.915   8.685   0.456
28039SOL     OW84366  10.741  11.177   1.005
28039SOL    HW184367  10.812  11.115   1.018
28039SOL    HW284368  10.682  11.135   0.943
28040SOL     OW84369   6.654   2.709   3.795
28040SOL    HW184370   6.656   2.804   3.789
28040SOL    HW284371   6.690   2.679   3.712
28041SOL     OW84372   4.099  10.868   5.328
28041SOL    HW184373   4.128  10.952   5.294
28041SOL    HW284374   4.150  10.856   5.408
28042SOL     OW84375   8.483  15.670   7.263
28042SOL    HW184376   8.470  15.606   7.333
28042SOL    HW284377   8.487  15.618   7.183
28043SOL     OW84378   6.885   9.171   7.481
28043SOL    HW184379   6.971   9.150   7.519
28043SOL    HW284380   6.834   9.204   7.555
28044SOL     OW84381   7.587  12.930   5.521
28044SOL    HW184382   7.593  12.839   5.551
28044SOL    HW284383   7.496  12.939   5.490
28045SOL     OW84384  11.977  11.007   4.319
28045SOL    HW184385  12.018  11.001   4.233
28045SOL    HW284386  12.000  10.925   4.362
28046SOL     OW84387  10.447   8.721   7.189
28046SOL    HW184388  10.419   8.800   7.235
28046SOL    HW284389  10.389   8.715   7.113
28047SOL     OW84390   3.119  10.804   3.674
28047SOL    HW184391   3.165  10.823   3.756
28047SOL    HW284392   3.119  10.708   3.668
28048SOL     OW84393   8.290  12.531   4.851
28048SOL    HW184394   8.331  12.511   4.767
28048SOL    HW284395   8.359  12.573   4.902
28049SOL     OW84396  13.445   9.216   5.882
28049SOL    HW184397  13.413   9.226   5.792
28049SOL    HW284398  13.450   9.305   5.916
28050SOL     OW84399   0.423   6.773   0.166
28050SOL    HW184400   0.486   6.783   0.237
28050SOL    HW284401   0.462   6.708   0.108
28051SOL     OW84402   5.857   1.981   2.309
28051SOL    HW184403   5.774   2.018   2.340
28051SOL    HW284404   5.918   2.054   2.311
28052SOL     OW84405   9.316   4.247   0.545
28052SOL    HW184406   9.348   4.227   0.456
28052SOL    HW284407   9.320   4.342   0.550
28053SOL     OW84408   4.195   6.911   0.256
28053SOL    HW184409   4.144   6.946   0.182
28053SOL    HW284410   4.268   6.973   0.266
28054SOL     OW84411   6.912   7.814   1.914
28054SOL    HW184412   6.940   7.723   1.926
28054SOL    HW284413   6.948   7.839   1.829
28055SOL     OW84414   9.111   5.772   0.675
28055SOL    HW184415   9.053   5.840   0.708
28055SOL    HW284416   9.070   5.690   0.702
28056SOL     OW84417   2.345   6.621   1.363
28056SOL    HW184418   2.401   6.677   1.416
28056SOL    HW284419   2.264   6.615   1.412
28057SOL     OW84420   2.704   6.894   2.575
28057SOL    HW184421   2.774   6.828   2.578
28057SOL    HW284422   2.656   6.874   2.495
28058SOL     OW84423   5.515   4.939   6.641
28058SOL    HW184424   5.498   4.857   6.595
28058SOL    HW284425   5.479   5.006   6.584
28059SOL     OW84426   3.501   9.075   1.236
28059SOL    HW184427   3.535   9.093   1.323
28059SOL    HW284428   3.426   9.133   1.226
28060SOL     OW84429   6.933   9.444   4.861
28060SOL    HW184430   6.912   9.467   4.770
28060SOL    HW284431   6.888   9.511   4.913
28061SOL     OW84432  15.150  14.819   6.751
28061SOL    HW184433  15.075  14.788   6.702
28061SOL    HW284434  15.118  14.830   6.841
28062SOL     OW84435   4.669   8.947   3.471
28062SOL    HW184436   4.679   8.982   3.559
28062SOL    HW284437   4.753   8.907   3.451
28063SOL     OW84438   9.661  13.481   3.970
28063SOL    HW184439   9.697  13.445   4.051
28063SOL    HW284440   9.657  13.575   3.986
28064SOL     OW84441  13.180   8.880   4.452
28064SOL    HW184442  13.110   8.913   4.509
28064SOL    HW284443  13.137   8.817   4.394
28065SOL     OW84444   7.978  10.342   5.225
28065SOL    HW184445   7.886  10.322   5.208
28065SOL    HW284446   7.993  10.308   5.314
28066SOL     OW84447   8.114   9.290   2.835
28066SOL    HW184448   8.205   9.288   2.805
28066SOL    HW284449   8.083   9.201   2.822
28067SOL     OW84450  10.192   7.027   4.919
28067SOL    HW184451  10.121   7.059   4.864
28067SOL    HW284452  10.266   7.085   4.899
28068SOL     OW84453   8.303   6.624   2.109
28068SOL    HW184454   8.263   6.593   2.027
28068SOL    HW284455   8.230   6.633   2.170
28069SOL     OW84456   9.418   5.698   4.927
28069SOL    HW184457   9.442   5.762   4.995
28069SOL    HW284458   9.355   5.640   4.970
28070SOL     OW84459   7.667  10.997   0.789
28070SOL    HW184460   7.618  10.931   0.838
28070SOL    HW284461   7.725  11.037   0.853
28071SOL     OW84462  10.734   5.690   2.401
28071SOL    HW184463  10.715   5.774   2.443
28071SOL    HW284464  10.723   5.707   2.308
28072SOL     OW84465  13.502  10.210   6.772
28072SOL    HW184466  13.526  10.118   6.771
28072SOL    HW284467  13.406  10.211   6.774
28073SOL     OW84468   8.550  14.318   7.254
28073SOL    HW184469   8.588  14.348   7.336
28073SOL    HW284470   8.531  14.399   7.205
28074SOL     OW84471   9.137  14.876   6.280
28074SOL    HW184472   9.076  14.933   6.234
28074SOL    HW284473   9.111  14.787   6.255
28075SOL     OW84474   2.791   9.091   1.907
28075SOL    HW184475   2.820   9.012   1.952
28075SOL    HW284476   2.788   9.066   1.814
28076SOL     OW84477   5.186   5.636   3.823
28076SOL    HW184478   5.247   5.638   3.749
28076SOL    HW284479   5.242   5.634   3.900
28077SOL     OW84480   8.924   9.650   5.973
28077SOL    HW184481   8.840   9.696   5.979
28077SOL    HW284482   8.950   9.660   5.882
28078SOL     OW84483   9.171  13.440   5.260
28078SOL    HW184484   9.152  13.520   5.309
28078SOL    HW284485   9.126  13.451   5.176
28079SOL     OW84486   8.573   9.850   4.839
28079SOL    HW184487   8.548   9.771   4.888
28079SOL    HW284488   8.503   9.861   4.775
28080SOL     OW84489  11.804   8.641   6.348
28080SOL    HW184490  11.856   8.560   6.342
28080SOL    HW284491  11.730   8.618   6.405
28081SOL     OW84492   9.712   9.825   1.089
28081SOL    HW184493   9.675   9.773   1.161
28081SOL    HW284494   9.806   9.822   1.105
28082SOL     OW84495   9.733  11.957   4.534
28082SOL    HW184496   9.774  11.876   4.565
28082SOL    HW284497   9.645  11.956   4.572
28083SOL     OW84498  11.541   9.915   4.315
28083SOL    HW184499  11.514   9.823   4.311
28083SOL    HW284500  11.630   9.912   4.349
28084SOL     OW84501   4.973   3.929   1.745
28084SOL    HW184502   4.974   4.024   1.740
28084SOL    HW284503   4.884   3.908   1.772
28085SOL     OW84504   8.722  10.973   2.927
28085SOL    HW184505   8.689  10.884   2.912
28085SOL    HW284506   8.660  11.011   2.989
28086SOL     OW84507   9.866   5.628   6.407
28086SOL    HW184508   9.864   5.719   6.379
28086SOL    HW284509   9.835   5.631   6.498
28087SOL     OW84510   4.483   5.957   3.789
28087SOL    HW184511   4.512   6.033   3.840
28087SOL    HW284512   4.507   5.979   3.699
28088SOL     OW84513   9.181  10.763   2.926
28088SOL    HW184514   9.211  10.838   2.874
28088SOL    HW284515   9.234  10.765   3.005
28089SOL     OW84516   6.013   1.801   2.530
28089SOL    HW184517   5.955   1.770   2.461
28089SOL    HW284518   6.028   1.893   2.509
28090SOL     OW84519  12.590  10.245   5.343
28090SOL    HW184520  12.676  10.202   5.337
28090SOL    HW284521  12.607  10.335   5.317
28091SOL     OW84522   8.302   3.145   0.660
28091SOL    HW184523   8.272   3.225   0.701
28091SOL    HW284524   8.371   3.173   0.599
28092SOL     OW84525  14.781  13.795   5.698
28092SOL    HW184526   4.002  13.878   5.650
28092SOL    HW284527   4.022  13.729   5.630
28093SOL     OW84528   8.377   7.164   2.044
28093SOL    HW184529   8.345   7.076   2.060
28093SOL    HW284530   8.431   7.157   1.965
28094SOL     OW84531   0.791   1.341   1.065
28094SOL    HW184532   0.809   1.287   0.989
28094SOL    HW284533   0.877   1.363   1.100
28095SOL     OW84534   9.493   3.197   3.825
28095SOL    HW184535   9.414   3.231   3.867
28095SOL    HW284536   9.479   3.213   3.732
28096SOL     OW84537   5.738   8.141   2.666
28096SOL    HW184538   5.650   8.166   2.696
28096SOL    HW284539   5.796   8.166   2.738
28097SOL     OW84540   2.359  11.753   2.292
28097SOL    HW184541   2.350  11.673   2.240
28097SOL    HW284542   2.453  11.769   2.294
28098SOL     OW84543  10.576  10.275   4.185
28098SOL    HW184544  10.616  10.188   4.187
28098SOL    HW284545  10.612  10.319   4.262
28099SOL     OW84546  11.154  11.041   2.939
28099SOL    HW184547  11.064  11.037   2.908
28099SOL    HW284548  11.192  11.116   2.893
28100SOL     OW84549   6.940   6.613   0.917
28100SOL    HW184550   6.850   6.624   0.946
28100SOL    HW284551   6.993   6.658   0.982
28101SOL     OW84552  11.939   2.464   2.240
28101SOL    HW184553  11.895   2.477   2.325
28101SOL    HW284554  12.005   2.397   2.258
28102SOL     OW84555   4.910   2.144   0.154
28102SOL    HW184556   4.995   2.102   0.164
28102SOL    HW284557   4.929   2.238   0.148
28103SOL     OW84558   2.872   4.401   0.297
28103SOL    HW184559   2.947   4.352   0.331
28103SOL    HW284560   2.857   4.471   0.361
28104SOL     OW84561  12.370  10.328   5.149
28104SOL    HW184562  12.315  10.302   5.223
28104SOL    HW284563  12.459  10.309   5.177
28105SOL     OW84564  12.840  10.978   3.384
28105SOL    HW184565  12.865  11.027   3.306
28105SOL    HW284566  12.787  10.905   3.351
28106SOL     OW84567   9.166   6.757   1.383
28106SOL    HW184568   9.243   6.810   1.404
28106SOL    HW284569   9.095   6.820   1.374
28107SOL     OW84570  11.460   6.752   6.134
28107SOL    HW184571  11.496   6.839   6.153
28107SOL    HW284572  11.510   6.722   6.058
28108SOL     OW84573  12.085   9.641   2.262
28108SOL    HW184574  12.146   9.584   2.216
28108SOL    HW284575  12.000   9.625   2.220
28109SOL     OW84576  10.852   8.353   0.412
28109SOL    HW184577  10.896   8.279   0.454
28109SOL    HW284578  10.763   8.351   0.448
28110SOL     OW84579   4.320  10.658   2.875
28110SOL    HW184580   4.264  10.590   2.911
28110SOL    HW284581   4.406  10.618   2.870
28111SOL     OW84582  10.809   8.274   7.148
28111SOL    HW184583  10.867   8.329   7.095
28111SOL    HW284584  10.784   8.203   7.089
28112SOL     OW84585  14.443   7.561   6.302
28112SOL    HW184586  14.451   7.467   6.316
28112SOL    HW284587  14.380   7.590   6.368
28113SOL     OW84588  11.104  12.002   5.241
28113SOL    HW184589  11.131  11.926   5.188
28113SOL    HW284590  11.009  11.999   5.240
28114SOL     OW84591   2.030   7.119   1.579
28114SOL    HW184592   2.100   7.127   1.644
28114SOL    HW284593   2.021   7.024   1.567
28115SOL     OW84594   5.663  14.194   7.050
28115SOL    HW184595   5.575  14.187   7.013
28115SOL    HW284596   5.654  14.255   7.124
28116SOL     OW84597   9.585   2.589   0.802
28116SOL    HW184598   9.677   2.577   0.780
28116SOL    HW284599   9.550   2.500   0.811
28117SOL     OW84600   6.152  11.068   2.299
28117SOL    HW184601   6.111  11.085   2.384
28117SOL    HW284602   6.130  11.144   2.246
28118SOL     OW84603  12.730   8.698   6.889
28118SOL    HW184604  12.762   8.608   6.885
28118SOL    HW284605  12.639   8.690   6.918
28119SOL     OW84606   2.573   6.406   2.928
28119SOL    HW184607   2.589   6.370   2.841
28119SOL    HW284608   2.499   6.355   2.962
28120SOL     OW84609   5.524   9.867   1.304
28120SOL    HW184610   5.500   9.909   1.221
28120SOL    HW284611   5.608   9.906   1.328
28121SOL     OW84612  10.925  10.749   5.856
28121SOL    HW184613  10.979  10.779   5.929
28121SOL    HW284614  10.849  10.807   5.857
28122SOL     OW84615   7.353   6.887   6.049
28122SOL    HW184616   7.343   6.936   6.131
28122SOL    HW284617   7.401   6.808   6.073
28123SOL     OW84618   1.782   5.110   1.671
28123SOL    HW184619   1.711   5.101   1.608
28123SOL    HW284620   1.750   5.175   1.734
28124SOL     OW84621   4.407   2.265   1.502
28124SOL    HW184622   4.352   2.192   1.475
28124SOL    HW284623   4.493   2.245   1.465
28125SOL     OW84624   9.986  15.762   7.599
28125SOL    HW184625   4.649  10.376   0.062
28125SOL    HW284626   9.936  15.843   7.600
28126SOL     OW84627  12.339  12.274   6.833
28126SOL    HW184628  12.269  12.269   6.898
28126SOL    HW284629  12.306  12.221   6.760
28127SOL     OW84630  10.692  10.505   0.491
28127SOL    HW184631  10.700  10.592   0.530
28127SOL    HW284632  10.783  10.478   0.476
28128SOL     OW84633   2.624   6.687   3.099
28128SOL    HW184634   2.569   6.623   3.143
28128SOL    HW284635   2.562   6.752   3.065
28129SOL     OW84636  11.841   8.072   2.719
28129SOL    HW184637  11.751   8.070   2.752
28129SOL    HW284638  11.858   8.165   2.703
28130SOL     OW84639   6.010   8.979   3.115
28130SOL    HW184640   6.018   8.984   3.020
28130SOL    HW284641   5.938   9.037   3.137
28131SOL     OW84642  15.030   9.005   7.203
28131SOL    HW184643  15.112   9.055   7.202
28131SOL    HW284644  15.008   8.998   7.296
28132SOL     OW84645  12.949   4.584   6.137
28132SOL    HW184646  13.037   4.573   6.102
28132SOL    HW284647  12.894   4.599   6.060
28133SOL     OW84648  11.264   3.617   2.090
28133SOL    HW184649  11.223   3.690   2.137
28133SOL    HW284650  11.241   3.631   1.998
28134SOL     OW84651   3.827   8.875   4.449
28134SOL    HW184652   3.799   8.826   4.527
28134SOL    HW284653   3.866   8.955   4.485
28135SOL     OW84654  10.191   5.848   0.655
28135SOL    HW184655  10.253   5.802   0.599
28135SOL    HW284656  10.201   5.940   0.632
28136SOL     OW84657   2.707  11.094   1.907
28136SOL    HW184658   2.676  11.121   1.993
28136SOL    HW284659   2.633  11.049   1.867
28137SOL     OW84660   4.294   6.564   0.710
28137SOL    HW184661   4.204   6.592   0.699
28137SOL    HW284662   4.339   6.640   0.746
28138SOL     OW84663   7.657  10.407   7.568
28138SOL    HW184664   7.667  10.488   7.617
28138SOL    HW284665   7.669  10.432   7.476
28139SOL     OW84666   4.974   3.624   4.133
28139SOL    HW184667   4.919   3.549   4.112
28139SOL    HW284668   4.913   3.698   4.135
28140SOL     OW84669   3.656   6.336   0.787
28140SOL    HW184670   3.747   6.316   0.765
28140SOL    HW284671   3.619   6.370   0.706
28141SOL     OW84672   3.632   0.535   0.649
28141SOL    HW184673   3.635  11.218   0.679
28141SOL    HW284674   3.561   0.574   0.700
28142SOL     OW84675   6.838   7.644   1.088
28142SOL    HW184676   6.829   7.737   1.110
28142SOL    HW284677   6.932   7.632   1.073
28143SOL     OW84678   4.101  12.130   2.715
28143SOL    HW184679   4.084  12.212   2.761
28143SOL    HW284680   4.031  12.072   2.744
28144SOL     OW84681   8.712   9.567   2.431
28144SOL    HW184682   8.691   9.652   2.390
28144SOL    HW284683   8.638   9.551   2.489
28145SOL     OW84684   3.420  11.748   2.682
28145SOL    HW184685   3.410  11.839   2.708
28145SOL    HW284686   3.334  11.709   2.696
28146SOL     OW84687   1.671   1.615   1.579
28146SOL    HW184688   1.602   1.586   1.638
28146SOL    HW284689   1.698   1.537   1.532
28147SOL     OW84690   5.653   2.403   3.374
28147SOL    HW184691   5.694  13.181   3.460
28147SOL    HW284692   5.723   2.428   3.313
28148SOL     OW84693   7.211  14.938   7.480
28148SOL    HW184694   7.122  14.972   7.467
28148SOL    HW284695   7.266  14.991   7.423
28149SOL     OW84696   8.350   4.297   6.066
28149SOL    HW184697   8.400   4.351   6.127
28149SOL    HW284698   8.268  15.052   6.112
28150SOL     OW84699  15.519  14.552   7.088
28150SOL    HW184700  15.576  14.482   7.057
28150SOL    HW284701  15.486  14.593   7.007
28151SOL     OW84702   8.546   9.447   6.422
28151SOL    HW184703   8.636   9.479   6.422
28151SOL    HW284704   8.548   9.369   6.478
28152SOL     OW84705   7.885  14.156   5.852
28152SOL    HW184706   7.822  14.126   5.787
28152SOL    HW284707   7.921  14.076   5.889
28153SOL     OW84708   6.947  10.525   7.514
28153SOL    HW184709   7.020  10.463   7.514
28153SOL    HW284710   6.978  10.600   7.565
28154SOL     OW84711  12.820   4.806   4.883
28154SOL    HW184712  12.783   4.864   4.948
28154SOL    HW284713  12.745   4.758   4.848
28155SOL     OW84714   5.137   3.860   0.932
28155SOL    HW184715   5.182   3.776   0.927
28155SOL    HW284716   5.065   3.853   0.869
28156SOL     OW84717   5.470   7.002   0.161
28156SOL    HW184718   5.563   6.986   0.145
28156SOL    HW284719   5.429   6.917   0.143
28157SOL     OW84720   5.421  13.588   5.458
28157SOL    HW184721   5.516  13.603   5.457
28157SOL    HW284722   5.411  13.493   5.466
28158SOL     OW84723   9.095   6.263   3.392
28158SOL    HW184724   9.009   6.303   3.392
28158SOL    HW284725   9.098   6.210   3.472
28159SOL     OW84726  10.659   9.468   1.464
28159SOL    HW184727  10.722   9.521   1.415
28159SOL    HW284728  10.687   9.475   1.555
28160SOL     OW84729   2.561   3.850   2.488
28160SOL    HW184730   2.505   3.836   2.412
28160SOL    HW284731   2.629   3.783   2.480
28161SOL     OW84732   6.613   6.404   2.593
28161SOL    HW184733   6.606   6.416   2.688
28161SOL    HW284734   6.652   6.317   2.584
28162SOL     OW84735  10.279  13.699   6.268
28162SOL    HW184736  10.237  13.622   6.306
28162SOL    HW284737  10.259  13.693   6.174
28163SOL     OW84738  10.312   6.089   1.032
28163SOL    HW184739  10.361   6.105   1.112
28163SOL    HW284740  10.282   5.999   1.040
28164SOL     OW84741   9.437   8.404   7.582
28164SOL    HW184742   4.078   2.933   0.001
28164SOL    HW284743   9.466   8.400   7.491
28165SOL     OW84744   9.596  11.196   6.376
28165SOL    HW184745   9.682  11.167   6.407
28165SOL    HW284746   9.604  11.291   6.371
28166SOL     OW84747  10.715   4.129   0.830
28166SOL    HW184748  10.723   4.188   0.756
28166SOL    HW284749  10.692   4.044   0.791
28167SOL     OW84750   5.995   9.189   4.845
28167SOL    HW184751   5.905   9.170   4.871
28167SOL    HW284752   5.996   9.283   4.825
28168SOL     OW84753   7.161   8.489   0.678
28168SOL    HW184754   7.105   8.411   0.674
28168SOL    HW284755   7.179   8.510   0.586
28169SOL     OW84756   6.770  11.866   6.276
28169SOL    HW184757   6.846  11.845   6.223
28169SOL    HW284758   6.805  11.907   6.355
28170SOL     OW84759   8.227   8.072   1.840
28170SOL    HW184760   8.174   8.020   1.899
28170SOL    HW284761   8.192   8.054   1.753
28171SOL     OW84762   6.544   6.925   4.870
28171SOL    HW184763   6.582   6.908   4.956
28171SOL    HW284764   6.562   7.017   4.853
28172SOL     OW84765  13.109  12.286   5.581
28172SOL    HW184766  13.019  12.313   5.601
28172SOL    HW284767  13.108  12.270   5.486
28173SOL     OW84768   3.207   8.365   4.161
28173SOL    HW184769   3.164   8.435   4.211
28173SOL    HW284770   3.195   8.389   4.070
28174SOL     OW84771   3.794   5.222   1.015
28174SOL    HW184772   3.791   5.200   0.921
28174SOL    HW284773   3.733   5.160   1.055
28175SOL     OW84774   6.048   0.413   0.229
28175SOL    HW184775   6.096   0.473   0.171
28175SOL    HW284776   5.971   0.462   0.256
28176SOL     OW84777  14.763   8.651   6.435
28176SOL    HW184778  14.707   8.728   6.445
28176SOL    HW284779  14.802   8.637   6.521
28177SOL     OW84780  10.920   2.794   3.017
28177SOL    HW184781  10.933   2.703   2.991
28177SOL    HW284782  10.873   2.789   3.101
28178SOL     OW84783   8.884   9.228   3.315
28178SOL    HW184784   8.911   9.257   3.402
28178SOL    HW284785   8.942   9.275   3.255
28179SOL     OW84786  11.255  12.292   3.005
28179SOL    HW184787  11.310  12.365   3.034
28179SOL    HW284788  11.178  12.296   3.062
28180SOL     OW84789   7.118   9.052   4.090
28180SOL    HW184790   7.121   8.974   4.035
28180SOL    HW284791   7.209   9.070   4.112
28181SOL     OW84792   6.246  12.082   5.048
28181SOL    HW184793   6.215  12.159   5.096
28181SOL    HW284794   6.341  12.085   5.060
28182SOL     OW84795  12.802   7.600   7.480
28182SOL    HW184796  12.731   7.609   7.543
28182SOL    HW284797  12.839   7.689   7.473
28183SOL     OW84798   8.713   3.003   2.421
28183SOL    HW184799   8.790   3.060   2.415
28183SOL    HW284800   8.727   2.952   2.500
28184SOL     OW84801  13.761  12.819   5.996
28184SOL    HW184802  13.826  12.872   6.042
28184SOL    HW284803  13.763  12.852   5.906
28185SOL     OW84804  10.765   7.615   3.460
28185SOL    HW184805  10.838   7.625   3.399
28185SOL    HW284806  10.734   7.526   3.446
28186SOL     OW84807   9.714   7.051   2.769
28186SOL    HW184808   9.771   7.051   2.846
28186SOL    HW284809   9.626   7.062   2.805
28187SOL     OW84810   6.502  11.074   1.717
28187SOL    HW184811   6.427  11.049   1.772
28187SOL    HW284812   6.540  10.991   1.689
28188SOL     OW84813  14.196  11.464   6.873
28188SOL    HW184814  14.189  11.545   6.924
28188SOL    HW284815  14.110  11.423   6.881
28189SOL     OW84816  11.645  10.647   3.697
28189SOL    HW184817  11.604  10.657   3.783
28189SOL    HW284818  11.630  10.556   3.674
28190SOL     OW84819  12.068  12.228   7.446
28190SOL    HW184820  12.091  12.136   7.433
28190SOL    HW284821  11.976  12.233   7.422
28191SOL     OW84822   6.475   2.028   0.585
28191SOL    HW184823   6.565   2.025   0.552
28191SOL    HW284824   6.478   2.097   0.652
28192SOL     OW84825  11.708   9.720   1.648
28192SOL    HW184826  11.623   9.748   1.681
28192SOL    HW284827  11.722   9.775   1.571
28193SOL     OW84828   7.819   1.802   0.816
28193SOL    HW184829   7.795   1.747   0.890
28193SOL    HW284830   7.742   1.799   0.758
28194SOL     OW84831   6.133  15.457   7.163
28194SOL    HW184832   6.097  15.482   7.078
28194SOL    HW284833   6.075  15.389   7.196
28195SOL     OW84834   5.944  11.263   0.832
28195SOL    HW184835   5.942   0.544   0.755
28195SOL    HW284836   5.911  11.319   0.903
28196SOL     OW84837  10.504   5.691   5.575
28196SOL    HW184838  10.422   5.706   5.622
28196SOL    HW284839  10.526   5.776   5.538
28197SOL     OW84840   7.550   2.116   0.654
28197SOL    HW184841   7.535   2.173   0.730
28197SOL    HW284842   7.554   2.175   0.579
28198SOL     OW84843  11.628  12.984   4.378
28198SOL    HW184844  11.542  13.008   4.342
28198SOL    HW284845  11.690  13.036   4.328
28199SOL     OW84846   6.739   6.804   6.927
28199SOL    HW184847   6.803   6.736   6.947
28199SOL    HW284848   6.783   6.859   6.862
28200SOL     OW84849   8.523   2.667   0.917
28200SOL    HW184850   8.529   2.756   0.952
28200SOL    HW284851   8.544   2.611   0.991
28201SOL     OW84852   8.061   4.585   5.570
28201SOL    HW184853   7.981   4.592   5.518
28201SOL    HW284854   8.034   4.608   5.659
28202SOL     OW84855   7.396   8.322   6.615
28202SOL    HW184856   7.455   8.246   6.622
28202SOL    HW284857   7.452   8.393   6.583
28203SOL     OW84858   8.605   5.098   4.749
28203SOL    HW184859   8.592   5.187   4.715
28203SOL    HW284860   8.646   5.111   4.835
28204SOL     OW84861  11.408  13.768   4.823
28204SOL    HW184862  11.359  13.693   4.856
28204SOL    HW284863  11.404  13.832   4.894
28205SOL     OW84864   4.780  11.952   4.878
28205SOL    HW184865   4.708  11.961   4.816
28205SOL    HW284866   4.817  11.866   4.858
28206SOL     OW84867   2.955   5.527   1.856
28206SOL    HW184868   2.909   5.451   1.818
28206SOL    HW284869   2.932   5.599   1.797
28207SOL     OW84870  13.740  10.572   6.576
28207SOL    HW184871  13.698  10.638   6.522
28207SOL    HW284872  13.800  10.621   6.632
28208SOL     OW84873   8.811   3.323   0.011
28208SOL    HW184874   8.858   3.279   0.081
28208SOL    HW284875   8.834   3.415   0.020
28209SOL     OW84876   3.377   7.696   0.655
28209SOL    HW184877   3.308   7.667   0.596
28209SOL    HW284878   3.420   7.616   0.685
28210SOL     OW84879   0.889   2.920   0.539
28210SOL    HW184880   0.833   2.931   0.615
28210SOL    HW284881   0.878   3.001   0.489
28211SOL     OW84882   4.976   5.795   1.372
28211SOL    HW184883   4.932   5.717   1.405
28211SOL    HW284884   4.909   5.842   1.323
28212SOL     OW84885   8.305  11.664   5.346
28212SOL    HW184886   8.220  11.700   5.372
28212SOL    HW284887   8.361  11.741   5.335
28213SOL     OW84888   9.743   5.447   6.188
28213SOL    HW184889   9.761   5.432   6.095
28213SOL    HW284890   9.814   5.400   6.234
28214SOL     OW84891  10.376   9.935   3.790
28214SOL    HW184892  10.419   9.988   3.856
28214SOL    HW284893  10.447   9.897   3.739
28215SOL     OW84894   5.804  10.345   5.432
28215SOL    HW184895   5.795  10.391   5.515
28215SOL    HW284896   5.812  10.414   5.366
28216SOL     OW84897   6.791   8.393   4.967
28216SOL    HW184898   6.746   8.448   4.903
28216SOL    HW284899   6.829   8.455   5.030
28217SOL     OW84900   9.965   9.215   0.330
28217SOL    HW184901   9.874   9.244   0.329
28217SOL    HW284902   9.971   9.155   0.404
28218SOL     OW84903   4.035  10.398   2.250
28218SOL    HW184904   4.040  10.471   2.312
28218SOL    HW284905   4.072  10.324   2.296
28219SOL     OW84906  10.579  15.079   7.555
28219SOL    HW184907  10.528  15.020   7.611
28219SOL    HW284908  10.532  15.162   7.560
28220SOL     OW84909   3.411   8.152   1.542
28220SOL    HW184910   3.461   8.220   1.588
28220SOL    HW284911   3.358   8.199   1.478
28221SOL     OW84912  13.178  11.370   7.356
28221SOL    HW184913  13.231  11.431   7.407
28221SOL    HW284914  13.088  11.388   7.382
28222SOL     OW84915   0.519   5.703   0.385
28222SOL    HW184916   0.585   5.676   0.322
28222SOL    HW284917   0.467   5.769   0.339
28223SOL     OW84918   2.854  11.989   3.294
28223SOL    HW184919   2.929  12.048   3.289
28223SOL    HW284920   2.778  12.047   3.299
28224SOL     OW84921   6.195   4.991   0.230
28224SOL    HW184922   6.154   4.939   0.160
28224SOL    HW284923   6.122   5.036   0.272
28225SOL     OW84924   9.120   4.247   5.506
28225SOL    HW184925   9.072   4.164   5.495
28225SOL    HW284926   9.171   4.255   5.425
28226SOL     OW84927   5.444   3.820   1.900
28226SOL    HW184928   5.425   3.744   1.955
28226SOL    HW284929   5.377   3.884   1.923
28227SOL     OW84930   9.372  12.605   3.567
28227SOL    HW184931   9.365  12.514   3.596
28227SOL    HW284932   9.317  12.608   3.488
28228SOL     OW84933   8.062   6.156   5.822
28228SOL    HW184934   8.089   6.179   5.733
28228SOL    HW284935   7.995   6.222   5.844
28229SOL     OW84936   5.152   1.624   0.485
28229SOL    HW184937   5.177   1.546   0.535
28229SOL    HW284938   5.234   1.669   0.468
28230SOL     OW84939   7.960   5.355   1.698
28230SOL    HW184940   7.946   5.434   1.750
28230SOL    HW284941   7.989   5.289   1.762
28231SOL     OW84942  10.218  14.884   6.218
28231SOL    HW184943  10.193  14.973   6.195
28231SOL    HW284944  10.187  14.872   6.307
28232SOL     OW84945   9.681  13.936   7.569
28232SOL    HW184946   9.653  13.922   7.478
28232SOL    HW284947   9.639  13.865   7.618
28233SOL     OW84948   1.316   8.252   0.470
28233SOL    HW184949   1.331   8.158   0.471
28233SOL    HW284950   1.250   8.265   0.401
28234SOL     OW84951   9.208  11.687   6.989
28234SOL    HW184952   9.122  11.646   7.005
28234SOL    HW284953   9.262  11.658   7.062
28235SOL     OW84954   5.345   4.159   1.763
28235SOL    HW184955   5.331   4.186   1.854
28235SOL    HW284956   5.434   4.187   1.743
28236SOL     OW84957   8.186   6.572   6.168
28236SOL    HW184958   8.219   6.543   6.084
28236SOL    HW284959   8.121   6.638   6.147
28237SOL     OW84960  12.880   7.531   3.110
28237SOL    HW184961  12.798   7.563   3.148
28237SOL    HW284962  12.853   7.461   3.050
28238SOL     OW84963   4.119   9.103   1.243
28238SOL    HW184964   4.174   9.130   1.317
28238SOL    HW284965   4.123   9.008   1.244
28239SOL     OW84966   9.478  14.565   6.020
28239SOL    HW184967   9.415  14.544   6.089
28239SOL    HW284968   9.479  14.488   5.964
28240SOL     OW84969  10.774  11.331   4.903
28240SOL    HW184970  10.854  11.310   4.951
28240SOL    HW284971  10.804  11.386   4.830
28241SOL     OW84972   9.779   7.096   5.561
28241SOL    HW184973   9.707   7.037   5.586
28241SOL    HW284974   9.843   7.039   5.519
28242SOL     OW84975   7.509  11.673   2.937
28242SOL    HW184976   7.573  11.635   2.876
28242SOL    HW284977   7.552  11.669   3.023
28243SOL     OW84978   5.146   3.042   1.319
28243SOL    HW184979   5.099   3.125   1.316
28243SOL    HW284980   5.231   3.063   1.356
28244SOL     OW84981  15.846  10.012   7.364
28244SOL    HW184982  15.901  10.047   7.434
28244SOL    HW284983  15.855  10.076   7.292
28245SOL     OW84984   5.496   5.204   2.747
28245SOL    HW184985   5.461   5.257   2.818
28245SOL    HW284986   5.483   5.114   2.775
28246SOL     OW84987   5.907   9.830   5.351
28246SOL    HW184988   5.828   9.783   5.324
28246SOL    HW284989   5.969   9.817   5.278
28247SOL     OW84990   8.824   5.801   1.031
28247SOL    HW184991   8.732   5.827   1.036
28247SOL    HW284992   8.846   5.809   0.938
28248SOL     OW84993  12.721   9.640   7.066
28248SOL    HW184994  12.748   9.649   6.974
28248SOL    HW284995  12.751   9.552   7.090
28249SOL     OW84996   4.773   6.436   2.166
28249SOL    HW184997   4.732   6.517   2.135
28249SOL    HW284998   4.725   6.367   2.120
28250SOL     OW84999   9.567   3.311   0.897
28250SOL    HW185000   9.562   3.386   0.839
28250SOL    HW285001   9.512   3.244   0.855
28251SOL     OW85002   3.851   5.962   4.747
28251SOL    HW185003   3.886   5.882   4.784
28251SOL    HW285004   3.869   5.955   4.653
28252SOL     OW85005  13.834  13.987   7.584
28252SOL    HW185006  13.901  13.918   7.593
28252SOL    HW285007  13.882  14.069   7.597
28253SOL     OW85008  11.631   9.555   6.496
28253SOL    HW185009  11.590   9.508   6.423
28253SOL    HW285010  11.714   9.509   6.510
28254SOL     OW85011   7.216   7.588   0.392
28254SOL    HW185012   7.235   7.527   0.463
28254SOL    HW285013   7.121   7.588   0.384
28255SOL     OW85014   4.341   4.755   4.898
28255SOL    HW185015   4.374   4.832   4.854
28255SOL    HW285016   4.328   4.690   4.829
28256SOL     OW85017  11.115  10.185   0.722
28256SOL    HW185018  11.062  10.147   0.651
28256SOL    HW285019  11.111  10.120   0.792
28257SOL     OW85020  13.669  12.026   5.055
28257SOL    HW185021  13.613  11.965   5.104
28257SOL    HW285022  13.620  12.108   5.055
28258SOL     OW85023   2.780   9.372   1.648
28258SOL    HW185024   2.791   9.344   1.739
28258SOL    HW285025   2.865   9.410   1.624
28259SOL     OW85026  11.049  13.208   7.349
28259SOL    HW185027  10.966  13.249   7.373
28259SOL    HW285028  11.080  13.260   7.274
28260SOL     OW85029   5.346   5.239   3.056
28260SOL    HW185030   5.279   5.299   3.025
28260SOL    HW285031   5.428   5.289   3.052
28261SOL     OW85032  11.962   2.924   2.999
28261SOL    HW185033  11.963   2.992   3.065
28261SOL    HW285034  11.903   2.857   3.033
28262SOL     OW85035   7.962   5.006   2.858
28262SOL    HW185036   7.935   4.918   2.830
28262SOL    HW285037   7.934   5.011   2.950
28263SOL     OW85038  11.829  15.410   7.055
28263SOL    HW185039  11.851  15.329   7.102
28263SOL    HW285040  11.783  15.380   6.976
28264SOL     OW85041   7.358   8.236   3.146
28264SOL    HW185042   7.432   8.184   3.115
28264SOL    HW285043   7.332   8.288   3.070
28265SOL     OW85044  12.812  13.553   5.205
28265SOL    HW185045  12.870  13.542   5.130
28265SOL    HW285046  12.725  13.567   5.167
28266SOL     OW85047   3.162  12.255   2.548
28266SOL    HW185048   3.249  12.214   2.545
28266SOL    HW285049   3.134  12.244   2.639
28267SOL     OW85050   4.385   7.978   2.836
28267SOL    HW185051   4.350   8.062   2.867
28267SOL    HW285052   4.478   7.997   2.820
28268SOL     OW85053   3.623   3.220   1.954
28268SOL    HW185054   3.539   3.201   1.913
28268SOL    HW285055   3.687   3.170   1.902
28269SOL     OW85056   4.107   5.528   3.716
28269SOL    HW185057   4.087   5.485   3.799
28269SOL    HW285058   4.066   5.615   3.723
28270SOL     OW85059   9.013   3.057   0.533
28270SOL    HW185060   8.930   3.038   0.576
28270SOL    HW285061   9.066   2.978   0.544
28271SOL     OW85062  14.960  10.508   7.399
28271SOL    HW185063  14.875  10.526   7.360
28271SOL    HW285064  15.022  10.558   7.345
28272SOL     OW85065   7.655  10.603   4.070
28272SOL    HW185066   7.679  10.521   4.114
28272SOL    HW285067   7.631  10.577   3.981
28273SOL     OW85068   8.086   7.206   3.649
28273SOL    HW185069   8.089   7.111   3.643
28273SOL    HW285070   8.003   7.231   3.609
28274SOL     OW85071   5.370   9.539   4.370
28274SOL    HW185072   5.342   9.448   4.379
28274SOL    HW285073   5.290   9.589   4.359
28275SOL     OW85074  10.952   8.656   6.272
28275SOL    HW185075  10.872   8.700   6.301
28275SOL    HW285076  10.941   8.566   6.300
28276SOL     OW85077   7.492   7.409   2.585
28276SOL    HW185078   7.562   7.376   2.641
28276SOL    HW285079   7.447   7.331   2.553
28277SOL     OW85080   4.104  12.191   4.218
28277SOL    HW185081   4.149  12.136   4.155
28277SOL    HW285082   4.062  12.130   4.278
28278SOL     OW85083   4.015   1.120   1.550
28278SOL    HW185084   3.971  11.854   1.625
28278SOL    HW285085   3.989   1.212   1.555
28279SOL     OW85086   7.960  11.849   6.746
28279SOL    HW185087   7.987  11.776   6.802
28279SOL    HW285088   8.042  11.889   6.718
28280SOL     OW85089   7.833   7.606   0.838
28280SOL    HW185090   7.821   7.546   0.765
28280SOL    HW285091   7.801   7.559   0.914
28281SOL     OW85092   3.263   8.286   2.299
28281SOL    HW185093   3.291   8.203   2.260
28281SOL    HW285094   3.224   8.334   2.226
28282SOL     OW85095   5.241   8.684   0.635
28282SOL    HW185096   5.297   8.757   0.610
28282SOL    HW285097   5.249   8.622   0.563
28283SOL     OW85098   4.436   9.530   6.263
28283SOL    HW185099   4.479   9.519   6.178
28283SOL    HW285100  15.123   9.492   6.251
28284SOL     OW85101   8.810   5.155   2.949
28284SOL    HW185102   8.733   5.100   2.962
28284SOL    HW285103   8.777   5.235   2.909
28285SOL     OW85104   7.710   4.195   2.014
28285SOL    HW185105   7.761   4.273   1.989
28285SOL    HW285106   7.638   4.229   2.067
28286SOL     OW85107   9.045   2.541   1.691
28286SOL    HW185108   8.992   2.585   1.757
28286SOL    HW285109   9.121   2.508   1.740
28287SOL     OW85110   6.367   7.996   4.240
28287SOL    HW185111   6.407   7.910   4.251
28287SOL    HW285112   6.288   7.980   4.188
28288SOL     OW85113  14.266   7.257   7.428
28288SOL    HW185114  14.267   7.258   7.524
28288SOL    HW285115  14.186   7.209   7.406
28289SOL     OW85116  10.612   9.418   5.591
28289SOL    HW185117  10.555   9.450   5.661
28289SOL    HW285118  10.657   9.496   5.558
28290SOL     OW85119   7.195   0.827   0.142
28290SOL    HW185120   7.115   0.858   0.099
28290SOL    HW285121   7.265   0.879   0.102
28291SOL     OW85122   8.111  10.185   5.029
28291SOL    HW185123   8.064  10.231   4.959
28291SOL    HW285124   8.081  10.227   5.110
28292SOL     OW85125  11.095   7.200   6.635
28292SOL    HW185126  11.122   7.220   6.724
28292SOL    HW285127  11.167   7.231   6.580
28293SOL     OW85128   2.554   6.474   3.510
28293SOL    HW185129   2.643   6.464   3.545
28293SOL    HW285130   2.561   6.548   3.449
28294SOL     OW85131   5.733   5.614   5.683
28294SOL    HW185132   5.651   5.624   5.730
28294SOL    HW285133   5.719   5.540   5.624
28295SOL     OW85134   5.039   4.696   0.229
28295SOL    HW185135   4.958   4.703   0.179
28295SOL    HW285136   5.107   4.728   0.170
28296SOL     OW85137   7.128  12.066   2.382
28296SOL    HW185138   7.110  12.035   2.293
28296SOL    HW285139   7.049  12.114   2.406
28297SOL     OW85140   2.964   2.414   1.332
28297SOL    HW185141   2.869   2.406   1.341
28297SOL    HW285142   2.994   2.323   1.322
28298SOL     OW85143   3.232  11.266   4.290
28298SOL    HW185144   3.142  11.297   4.305
28298SOL    HW285145   3.264  11.317   4.216
28299SOL     OW85146  10.535   7.672   2.924
28299SOL    HW185147  10.590   7.674   3.003
28299SOL    HW285148  10.591   7.632   2.857
28300SOL     OW85149   8.488  11.146   3.622
28300SOL    HW185150   8.543  11.070   3.608
28300SOL    HW285151   8.439  11.156   3.540
28301SOL     OW85152   8.582  14.010   4.666
28301SOL    HW185153   8.628   3.301   4.613
28301SOL    HW285154   8.557  14.057   4.745
28302SOL     OW85155  11.432   7.509   2.907
28302SOL    HW185156  11.434   7.588   2.853
28302SOL    HW285157  11.444   7.438   2.844
28303SOL     OW85158   7.379   3.228   3.272
28303SOL    HW185159   7.387   3.142   3.230
28303SOL    HW285160   7.458   3.275   3.246
28304SOL     OW85161   6.642   4.378   2.782
28304SOL    HW185162   6.696   4.447   2.819
28304SOL    HW285163   6.578   4.425   2.727
28305SOL     OW85164   4.684   5.509   5.542
28305SOL    HW185165   4.699   5.415   5.527
28305SOL    HW285166   4.757   5.552   5.497
28306SOL     OW85167   5.132   7.237   4.085
28306SOL    HW185168   5.222   7.270   4.080
28306SOL    HW285169   5.088   7.298   4.144
28307SOL     OW85170  11.223   2.734   1.080
28307SOL    HW185171  11.135   2.709   1.050
28307SOL    HW285172  11.281   2.671   1.037
28308SOL     OW85173  13.167  13.810   4.750
28308SOL    HW185174  13.166  13.806   4.846
28308SOL    HW285175  13.243  13.758   4.724
28309SOL     OW85176  10.250   9.683   5.005
28309SOL    HW185177  10.341   9.656   5.018
28309SOL    HW285178  10.199   9.610   5.041
28310SOL     OW85179  10.198  15.634   6.916
28310SOL    HW185180  10.162   4.847   6.828
28310SOL    HW285181  10.136  15.692   6.960
28311SOL     OW85182   1.734   7.757   1.672
28311SOL    HW185183   1.826   7.780   1.684
28311SOL    HW285184   1.686   7.826   1.718
28312SOL     OW85185   5.843  14.985   7.101
28312SOL    HW185186   5.767  14.942   7.062
28312SOL    HW285187   5.918  14.952   7.051
28313SOL     OW85188   5.622   5.569   6.768
28313SOL    HW185189   5.579   5.622   6.834
28313SOL    HW285190   5.649   5.490   6.815
28314SOL     OW85191   6.936  11.671   1.978
28314SOL    HW185192   6.919  11.580   1.953
28314SOL    HW285193   7.028  11.672   2.003
28315SOL     OW85194   4.507   5.041   3.600
28315SOL    HW185195   4.583   5.098   3.616
28315SOL    HW285196   4.432   5.095   3.624
28316SOL     OW85197  12.814   5.654   5.556
28316SOL    HW185198  12.809   5.602   5.636
28316SOL    HW285199  12.892   5.621   5.511
28317SOL     OW85200  12.105   6.059   7.466
28317SOL    HW185201  12.039   6.128   7.460
28317SOL    HW285202  12.131   6.059   7.558
28318SOL     OW85203   9.629   4.743   0.474
28318SOL    HW185204   9.686   4.820   0.485
28318SOL    HW285205   9.685   4.678   0.433
28319SOL     OW85206   7.423   3.106   4.059
28319SOL    HW185207   7.510   3.070   4.041
28319SOL    HW285208   7.386   3.046   4.124
28320SOL     OW85209   7.855   9.917   0.488
28320SOL    HW185210   7.832   9.844   0.545
28320SOL    HW285211   7.915   9.879   0.424
28321SOL     OW85212   9.996   3.980   3.083
28321SOL    HW185213   9.966   3.942   3.165
28321SOL    HW285214  10.006   3.905   3.023
28322SOL     OW85215   6.420   7.488   2.942
28322SOL    HW185216   6.403   7.442   3.024
28322SOL    HW285217   6.357   7.452   2.880
28323SOL     OW85218   4.214  10.890   1.318
28323SOL    HW185219   4.225  10.896   1.413
28323SOL    HW285220   4.253  10.805   1.295
28324SOL     OW85221   1.245   7.705   0.316
28324SOL    HW185222   1.227   7.751   0.234
28324SOL    HW285223   1.158   7.684   0.351
28325SOL     OW85224   4.604   7.368   3.177
28325SOL    HW185225   4.541   7.392   3.245
28325SOL    HW285226   4.681   7.421   3.197
28326SOL     OW85227  11.763   3.469   2.137
28326SOL    HW185228  11.673   3.469   2.169
28326SOL    HW285229  11.817   3.477   2.216
28327SOL     OW85230   8.283  12.499   6.118
28327SOL    HW185231   8.372  12.490   6.084
28327SOL    HW285232   8.294  12.501   6.213
28328SOL     OW85233   7.548   5.833   1.073
28328SOL    HW185234   7.500   5.779   1.009
28328SOL    HW285235   7.508   5.811   1.157
28329SOL     OW85236  11.583   8.451   2.257
28329SOL    HW185237  11.532   8.500   2.193
28329SOL    HW285238  11.572   8.499   2.339
28330SOL     OW85239  14.366   8.554   5.757
28330SOL    HW185240  14.439   8.595   5.711
28330SOL    HW285241  14.406   8.508   5.831
28331SOL     OW85242  15.029   6.802   7.297
28331SOL    HW185243  14.978   6.770   7.223
28331SOL    HW285244  15.039   6.896   7.281
28332SOL     OW85245  10.056   3.600   0.850
28332SOL    HW185246  10.133   3.657   0.847
28332SOL    HW285247  10.056   3.555   0.766
28333SOL     OW85248  10.194  12.318   2.364
28333SOL    HW185249  10.147  12.235   2.372
28333SOL    HW285250  10.254  12.319   2.438
28334SOL     OW85251  12.586   6.726   2.851
28334SOL    HW185252  12.601   6.633   2.831
28334SOL    HW285253  12.571   6.728   2.946
28335SOL     OW85254   7.490  13.284   7.100
28335SOL    HW185255   7.556  13.270   7.168
28335SOL    HW285256   7.507  13.372   7.067
28336SOL     OW85257   8.106   9.165   1.528
28336SOL    HW185258   8.119   9.235   1.463
28336SOL    HW285259   8.169   9.185   1.597
28337SOL     OW85260   6.478   5.541   3.237
28337SOL    HW185261   6.411   5.503   3.294
28337SOL    HW285262   6.444   5.627   3.213
28338SOL     OW85263   6.798   6.786   6.146
28338SOL    HW185264   6.872   6.840   6.175
28338SOL    HW285265   6.721   6.827   6.187
28339SOL     OW85266   3.917   3.657   1.896
28339SOL    HW185267   3.857   3.669   1.822
28339SOL    HW285268   4.004   3.655   1.856
28340SOL     OW85269   3.922  11.457   4.955
28340SOL    HW185270   3.828  11.469   4.948
28340SOL    HW285271   3.935  11.412   5.039
28341SOL     OW85272   8.186   8.699   5.212
28341SOL    HW185273   8.246   8.684   5.285
28341SOL    HW285274   8.135   8.618   5.206
28342SOL     OW85275   9.593   3.282   3.311
28342SOL    HW185276   9.510   3.267   3.267
28342SOL    HW285277   9.598   3.214   3.378
28343SOL     OW85278  13.834  11.767   7.115
28343SOL    HW185279  13.885  11.745   7.193
28343SOL    HW285280  13.743  11.761   7.143
28344SOL     OW85281  11.708  11.314   7.074
28344SOL    HW185282  11.774  11.376   7.043
28344SOL    HW285283  11.629  11.367   7.088
28345SOL     OW85284  13.033   4.799   5.145
28345SOL    HW185285  13.078   4.868   5.096
28345SOL    HW285286  13.103   4.739   5.171
28346SOL     OW85287  11.360   6.655   7.085
28346SOL    HW185288  11.345   6.732   7.139
28346SOL    HW285289  11.399   6.591   7.144
28347SOL     OW85290   9.258   7.125   0.401
28347SOL    HW185291   9.230   7.216   0.411
28347SOL    HW285292   9.203   7.077   0.463
28348SOL     OW85293   6.003  11.824   2.400
28348SOL    HW185294   6.035  11.734   2.406
28348SOL    HW285295   6.051  11.871   2.469
28349SOL     OW85296  13.675  10.278   4.634
28349SOL    HW185297  13.727  10.202   4.661
28349SOL    HW285298  13.694  10.345   4.700
28350SOL     OW85299  11.019  13.662   6.619
28350SOL    HW185300  11.057  13.741   6.659
28350SOL    HW285301  11.084  13.635   6.555
28351SOL     OW85302   7.163   9.563   3.055
28351SOL    HW185303   7.085   9.509   3.051
28351SOL    HW285304   7.235   9.502   3.039
28352SOL     OW85305   6.003   9.835   1.190
28352SOL    HW185306   6.054   9.757   1.170
28352SOL    HW285307   5.992   9.880   1.106
28353SOL     OW85308  12.430  11.144   7.258
28353SOL    HW185309  12.390  11.088   7.324
28353SOL    HW285310  12.461  11.220   7.308
28354SOL     OW85311   7.234   5.733   1.635
28354SOL    HW185312   7.255   5.784   1.556
28354SOL    HW285313   7.283   5.776   1.705
28355SOL     OW85314   7.538   9.756   7.037
28355SOL    HW185315   7.501   9.728   6.953
28355SOL    HW285316   7.495   9.840   7.055
28356SOL     OW85317  15.308  12.375   6.844
28356SOL    HW185318  15.369  12.372   6.770
28356SOL    HW285319  15.263  12.291   6.843
28357SOL     OW85320  11.854   6.190   6.328
28357SOL    HW185321  11.901   6.272   6.343
28357SOL    HW285322  11.859   6.145   6.413
28358SOL     OW85323   6.952   6.917   2.974
28358SOL    HW185324   7.040   6.953   2.965
28358SOL    HW285325   6.900   6.966   2.910
28359SOL     OW85326   7.943  12.714   7.201
28359SOL    HW185327   7.909  12.683   7.284
28359SOL    HW285328   8.038  12.712   7.212
28360SOL     OW85329   6.457   9.540   2.152
28360SOL    HW185330   6.429   9.631   2.141
28360SOL    HW285331   6.549   9.539   2.127
28361SOL     OW85332  15.558  15.291   7.379
28361SOL    HW185333  15.611  15.217   7.408
28361SOL    HW285334  15.480  15.251   7.339
28362SOL     OW85335  12.881  10.205   3.302
28362SOL    HW185336  12.858  10.182   3.212
28362SOL    HW285337  12.945  10.139   3.328
28363SOL     OW85338  10.254   6.834   3.040
28363SOL    HW185339  10.196   6.910   3.031
28363SOL    HW285340  10.197   6.759   3.024
28364SOL     OW85341  12.588   8.632   3.355
28364SOL    HW185342  12.643   8.708   3.334
28364SOL    HW285343  12.630   8.593   3.431
28365SOL     OW85344   4.012  12.648   4.559
28365SOL    HW185345   3.936  12.638   4.616
28365SOL    HW285346   4.055  12.563   4.562
28366SOL     OW85347   3.831   5.948   1.258
28366SOL    HW185348   3.872   5.912   1.337
28366SOL    HW285349   3.742   5.912   1.259
28367SOL     OW85350   9.094   7.918   0.592
28367SOL    HW185351   9.087   7.938   0.499
28367SOL    HW285352   9.144   7.837   0.596
28368SOL     OW85353   7.914  11.672   7.520
28368SOL    HW185354   7.961  11.631   7.448
28368SOL    HW285355   7.979  11.682   7.589
28369SOL     OW85356   0.109   9.697   0.154
28369SOL    HW185357  10.822   9.688   0.082
28369SOL    HW285358   0.185   9.645   0.127
28370SOL     OW85359   4.613   4.131   3.829
28370SOL    HW185360   4.598   4.224   3.844
28370SOL    HW285361   4.654   4.127   3.743
28371SOL     OW85362  10.907   5.452   6.260
28371SOL    HW185363  10.973   5.420   6.198
28371SOL    HW285364  10.944   5.534   6.294
28372SOL     OW85365  13.518   4.572   6.252
28372SOL    HW185366  13.494   4.480   6.244
28372SOL    HW285367  13.546   4.597   6.164
28373SOL     OW85368   8.863  10.873   7.136
28373SOL    HW185369   8.906  10.955   7.114
28373SOL    HW285370   8.932  10.807   7.127
28374SOL     OW85371   4.095   7.253   0.346
28374SOL    HW185372   4.056   7.341   0.348
28374SOL    HW285373   4.043   7.205   0.283
28375SOL     OW85374   9.951   4.870   1.785
28375SOL    HW185375   9.869   4.821   1.782
28375SOL    HW285376   9.947   4.929   1.710
28376SOL     OW85377   9.314  13.429   4.075
28376SOL    HW185378   9.321  13.335   4.056
28376SOL    HW285379   9.387  13.447   4.134
28377SOL     OW85380   4.769   6.525   1.778
28377SOL    HW185381   4.795   6.445   1.823
28377SOL    HW285382   4.694   6.558   1.828
28378SOL     OW85383   3.905   9.260   5.210
28378SOL    HW185384   3.817   9.235   5.240
28378SOL    HW285385   3.962   9.244   5.286
28379SOL     OW85386   6.225  10.932   4.209
28379SOL    HW185387   6.270  10.885   4.139
28379SOL    HW285388   6.238  11.025   4.187
28380SOL     OW85389   3.010   9.872   3.207
28380SOL    HW185390   2.975   9.959   3.223
28380SOL    HW285391   2.963   9.816   3.269
28381SOL     OW85392   5.203   8.476   0.419
28381SOL    HW185393   5.195   8.555   0.366
28381SOL    HW285394   5.159   8.408   0.367
28382SOL     OW85395  11.795  10.634   4.117
28382SOL    HW185396  11.852  10.711   4.121
28382SOL    HW285397  11.788  10.604   4.208
28383SOL     OW85398   7.922   8.331   6.330
28383SOL    HW185399   7.855   8.378   6.280
28383SOL    HW285400   8.004   8.352   6.286
28384SOL     OW85401   7.523   5.212   5.387
28384SOL    HW185402   7.547   5.178   5.301
28384SOL    HW285403   7.430   5.231   5.380
28385SOL     OW85404   5.169   8.877   3.567
28385SOL    HW185405   5.141   8.949   3.511
28385SOL    HW285406   5.112   8.881   3.643
28386SOL     OW85407   3.435  11.596   1.567
28386SOL    HW185408   3.379  11.618   1.492
28386SOL    HW285409   3.502  11.538   1.530
28387SOL     OW85410  12.892  11.083   6.567
28387SOL    HW185411  12.895  11.158   6.626
28387SOL    HW285412  12.837  11.019   6.612
28388SOL     OW85413  13.319   2.922   3.791
28388SOL    HW185414  13.272   2.960   3.866
28388SOL    HW285415  13.411   2.943   3.807
28389SOL     OW85416   6.126   3.107   1.886
28389SOL    HW185417   6.068   3.059   1.827
28389SOL    HW285418   6.192   3.043   1.912
28390SOL     OW85419   4.943   7.007   5.678
28390SOL    HW185420   4.928   6.928   5.625
28390SOL    HW285421   5.018   6.985   5.733
28391SOL     OW85422   2.452   3.496   2.875
28391SOL    HW185423   2.534   3.448   2.869
28391SOL    HW285424   2.451   3.552   2.798
28392SOL     OW85425   2.527  11.389   3.194
28392SOL    HW185426   2.567  11.471   3.163
28392SOL    HW285427   2.448  11.417   3.241
28393SOL     OW85428  12.060   4.372   3.767
28393SOL    HW185429  12.049   4.279   3.745
28393SOL    HW285430  11.979   4.413   3.739
28394SOL     OW85431   5.680   3.343   0.019
28394SOL    HW185432  11.146   8.684   7.611
28394SOL    HW285433  10.995   8.676   7.606
28395SOL     OW85434  11.172   8.974   4.736
28395SOL    HW185435  11.223   8.938   4.664
28395SOL    HW285436  11.107   9.030   4.694
28396SOL     OW85437   1.941   7.554   2.469
28396SOL    HW185438   1.974   7.613   2.537
28396SOL    HW285439   1.960   7.466   2.503
28397SOL     OW85440  10.456  11.223   3.957
28397SOL    HW185441  10.453  11.292   4.023
28397SOL    HW285442  10.519  11.159   3.991
28398SOL     OW85443  11.204   9.888   7.036
28398SOL    HW185444  11.163   9.914   6.954
28398SOL    HW285445  11.286   9.937   7.038
28399SOL     OW85446   2.055   9.572   0.279
28399SOL    HW185447   2.015   9.637   0.336
28399SOL    HW285448   1.983   9.540   0.224
28400SOL     OW85449  12.053   6.218   4.140
28400SOL    HW185450  12.061   6.180   4.053
28400SOL    HW285451  12.077   6.310   4.129
28401SOL     OW85452  10.639  14.285   7.124
28401SOL    HW185453  10.584  14.213   7.154
28401SOL    HW285454  10.700  14.246   7.062
28402SOL     OW85455  11.776   6.662   7.220
28402SOL    HW185456  11.868   6.636   7.226
28402SOL    HW285457  11.777   6.742   7.169
28403SOL     OW85458   8.281   9.422   4.772
28403SOL    HW185459   8.309   9.331   4.769
28403SOL    HW285460   8.361   9.472   4.753
28404SOL     OW85461   6.585   8.213   1.852
28404SOL    HW185462   6.518   8.155   1.817
28404SOL    HW285463   6.538   8.275   1.907
28405SOL     OW85464   6.774   5.120   1.760
28405SOL    HW185465   6.796   5.029   1.740
28405SOL    HW285466   6.713   5.115   1.834
28406SOL     OW85467  11.856   7.399   2.892
28406SOL    HW185468  11.929   7.346   2.923
28406SOL    HW285469  11.814   7.433   2.971
28407SOL     OW85470   8.775  13.721   6.450
28407SOL    HW185471   8.848  13.747   6.506
28407SOL    HW285472   8.774  13.625   6.456
28408SOL     OW85473   3.055  11.975   3.056
28408SOL    HW185474   3.137  11.947   3.097
28408SOL    HW285475   3.013  11.893   3.029
28409SOL     OW85476  14.202  14.382   5.400
28409SOL    HW185477  14.237  14.294   5.414
28409SOL    HW285478  14.228  14.431   5.477
28410SOL     OW85479   5.214  13.571   5.786
28410SOL    HW185480   5.175  13.653   5.816
28410SOL    HW285481   5.181  13.505   5.848
28411SOL     OW85482   6.300   6.768   6.343
28411SOL    HW185483   6.209   6.765   6.315
28411SOL    HW285484   6.343   6.699   6.293
28412SOL     OW85485   1.015   5.398   0.239
28412SOL    HW185486   1.092   5.360   0.282
28412SOL    HW285487   1.044   5.483   0.207
28413SOL     OW85488   3.364   4.397   4.666
28413SOL    HW185489   3.299   4.329   4.647
28413SOL    HW285490   3.435   4.351   4.710
28414SOL     OW85491   6.891   7.476   3.624
28414SOL    HW185492   6.900   7.422   3.545
28414SOL    HW285493   6.831   7.427   3.680
28415SOL     OW85494   7.120  11.933   5.057
28415SOL    HW185495   7.196  11.950   5.001
28415SOL    HW285496   7.047  11.927   4.996
28416SOL     OW85497   8.119   2.456   1.329
28416SOL    HW185498   8.138   2.517   1.401
28416SOL    HW285499   8.068   2.508   1.267
28417SOL     OW85500  15.601  13.191   7.341
28417SOL    HW185501  15.688  13.170   7.306
28417SOL    HW285502  15.541  13.135   7.292
28418SOL     OW85503   8.772  10.278   0.407
28418SOL    HW185504   8.813  10.363   0.425
28418SOL    HW285505   8.813  10.248   0.326
28419SOL     OW85506   3.200   5.879   2.506
28419SOL    HW185507   3.166   5.886   2.417
28419SOL    HW285508   3.287   5.838   2.496
28420SOL     OW85509  11.901  14.027   4.612
28420SOL    HW185510  11.879   3.323   4.674
28420SOL    HW285511  11.996  14.017   4.620
28421SOL     OW85512  10.995  12.295   5.210
28421SOL    HW185513  10.959  12.357   5.274
28421SOL    HW285514  11.048  12.350   5.151
28422SOL     OW85515   9.814   7.431   7.469
28422SOL    HW185516   9.816   7.396   7.380
28422SOL    HW285517   9.869   7.371   7.520
28423SOL     OW85518   7.738   3.337   1.005
28423SOL    HW185519   7.662   3.389   0.979
28423SOL    HW285520   7.751   3.357   1.098
28424SOL     OW85521   6.986  14.271   5.289
28424SOL    HW185522   6.997  14.293   5.381
28424SOL    HW285523   7.054  14.207   5.271
28425SOL     OW85524   6.494  12.813   5.957
28425SOL    HW185525   6.521  12.808   5.865
28425SOL    HW285526   6.519  12.901   5.985
28426SOL     OW85527  10.913   3.767   1.907
28426SOL    HW185528  10.839   3.825   1.889
28426SOL    HW285529  10.882   3.712   1.979
28427SOL     OW85530  10.989   9.390   7.314
28427SOL    HW185531  11.066   9.420   7.267
28427SOL    HW285532  11.012   9.301   7.342
28428SOL     OW85533   7.825   2.399   2.429
28428SOL    HW185534   7.741   2.434   2.399
28428SOL    HW285535   7.864   2.360   2.350
28429SOL     OW85536  11.723   2.661   3.665
28429SOL    HW185537  11.722  13.340   3.663
28429SOL    HW285538  11.721   2.683   3.759
28430SOL     OW85539   9.863  11.824   5.673
28430SOL    HW185540   9.844  11.885   5.744
28430SOL    HW285541   9.954  11.797   5.688
28431SOL     OW85542   8.035   6.942   3.528
28431SOL    HW185543   8.098   6.871   3.513
28431SOL    HW285544   8.052   7.004   3.457
28432SOL     OW85545  11.874   8.261   1.858
28432SOL    HW185546  11.867   8.166   1.848
28432SOL    HW285547  11.925   8.272   1.938
28433SOL     OW85548   9.348   2.098   2.859
28433SOL    HW185549   9.327   2.023   2.804
28433SOL    HW285550   9.395   2.158   2.801
28434SOL     OW85551   8.643   9.103   0.734
28434SOL    HW185552   8.706   9.121   0.804
28434SOL    HW285553   8.689   9.044   0.675
28435SOL     OW85554   4.973   6.548   2.626
28435SOL    HW185555   5.002   6.503   2.705
28435SOL    HW285556   5.050   6.550   2.570
28436SOL     OW85557   8.688   7.770   5.843
28436SOL    HW185558   8.620   7.705   5.862
28436SOL    HW285559   8.757   7.750   5.906
28437SOL     OW85560   7.181   7.578   0.851
28437SOL    HW185561   7.257   7.599   0.797
28437SOL    HW285562   7.115   7.547   0.790
28438SOL     OW85563  14.546   5.426   6.925
28438SOL    HW185564  14.625   5.414   6.978
28438SOL    HW285565  14.578   5.429   6.835
28439SOL     OW85566   6.718   5.655   3.084
28439SOL    HW185567   6.807   5.684   3.061
28439SOL    HW285568   6.730   5.574   3.133
28440SOL     OW85569   9.014   9.347   2.494
28440SOL    HW185570   9.055   9.315   2.575
28440SOL    HW285571   8.988   9.437   2.514
28441SOL     OW85572   4.222   8.967   5.790
28441SOL    HW185573   4.150   8.913   5.823
28441SOL    HW285574   4.241   9.027   5.862
28442SOL     OW85575   8.864   5.416   0.413
28442SOL    HW185576   8.798   5.474   0.452
28442SOL    HW285577   8.946   5.442   0.455
28443SOL     OW85578  12.891   4.050   3.176
28443SOL    HW185579  12.852   3.977   3.225
28443SOL    HW285580  12.816   4.093   3.135
28444SOL     OW85581   9.142   5.273   1.341
28444SOL    HW185582   9.186   5.201   1.385
28444SOL    HW285583   9.133   5.244   1.250
28445SOL     OW85584   9.636   7.006   1.944
28445SOL    HW185585   9.593   7.043   1.867
28445SOL    HW285586   9.681   7.080   1.984
28446SOL     OW85587  11.736   7.730   3.707
28446SOL    HW185588  11.675   7.763   3.772
28446SOL    HW285589  11.793   7.804   3.686
28447SOL     OW85590   8.781   2.973   2.852
28447SOL    HW185591   8.798   3.065   2.830
28447SOL    HW285592   8.690   2.972   2.883
28448SOL     OW85593  11.348   9.362   3.449
28448SOL    HW185594  11.309   9.320   3.525
28448SOL    HW285595  11.310   9.450   3.447
28449SOL     OW85596   8.976   6.338   7.345
28449SOL    HW185597   9.050   6.357   7.402
28449SOL    HW285598   9.007   6.267   7.288
28450SOL     OW85599   6.599   3.222   4.353
28450SOL    HW185600   6.604   3.295   4.291
28450SOL    HW285601   6.565   3.149   4.302
28451SOL     OW85602   3.421   6.648   2.850
28451SOL    HW185603   3.449   6.561   2.879
28451SOL    HW285604   3.330   6.637   2.824
28452SOL     OW85605   8.834   7.439   5.291
28452SOL    HW185606   8.876   7.503   5.234
28452SOL    HW285607   8.867   7.354   5.261
28453SOL     OW85608   5.486  13.068   7.594
28453SOL    HW185609   5.523  13.150   7.561
28453SOL    HW285610   5.562  13.009   7.601
28454SOL     OW85611   9.211   8.549   6.421
28454SOL    HW185612   9.196   8.454   6.421
28454SOL    HW285613   9.205   8.575   6.329
28455SOL     OW85614   5.950   5.150   5.562
28455SOL    HW185615   5.872   5.102   5.590
28455SOL    HW285616   5.915   5.233   5.528
28456SOL     OW85617   9.754   9.207   5.973
28456SOL    HW185618   9.843   9.230   5.946
28456SOL    HW285619   9.737   9.261   6.050
28457SOL     OW85620   2.721  11.277   1.281
28457SOL    HW185621   2.654  11.331   1.323
28457SOL    HW285622   2.773  11.339   1.231
28458SOL     OW85623   5.271  11.353   6.430
28458SOL    HW185624   5.294  11.294   6.358
28458SOL    HW285625   5.176  11.343   6.441
28459SOL     OW85626   9.366   4.060   3.148
28459SOL    HW185627   9.295   4.121   3.131
28459SOL    HW285628   9.363   3.998   3.075
28460SOL     OW85629  12.048   8.221   2.120
28460SOL    HW185630  11.993   8.218   2.198
28460SOL    HW285631  12.042   8.132   2.084
28461SOL     OW85632   2.288   7.073   1.122
28461SOL    HW185633   2.266   6.993   1.169
28461SOL    HW285634   2.381   7.062   1.098
28462SOL     OW85635   9.890   2.036   0.126
28462SOL    HW185636   9.936   2.080   0.197
28462SOL    HW285637   9.921   2.080   0.047
28463SOL     OW85638   4.553   4.633   1.450
28463SOL    HW185639   4.546   4.541   1.424
28463SOL    HW285640   4.486   4.643   1.518
28464SOL     OW85641   7.227   7.823   6.324
28464SOL    HW185642   7.202   7.737   6.357
28464SOL    HW285643   7.316   7.812   6.292
28465SOL     OW85644   9.959   2.883   2.244
28465SOL    HW185645  10.007   2.929   2.175
28465SOL    HW285646  10.016   2.885   2.320
28466SOL     OW85647   5.086   3.868   2.766
28466SOL    HW185648   5.130   3.782   2.763
28466SOL    HW285649   5.059   3.879   2.857
28467SOL     OW85650   8.568  10.363   3.107
28467SOL    HW185651   8.584  10.412   3.188
28467SOL    HW285652   8.530  10.281   3.136
28468SOL     OW85653   1.027   6.182   1.235
28468SOL    HW185654   1.035   6.094   1.198
28468SOL    HW285655   1.112   6.223   1.218
28469SOL     OW85656   4.744   3.837   0.773
28469SOL    HW185657   4.671   3.803   0.722
28469SOL    HW285658   4.772   3.915   0.726
28470SOL     OW85659   4.497   5.507   3.440
28470SOL    HW185660   4.464   5.452   3.511
28470SOL    HW285661   4.421   5.560   3.413
28471SOL     OW85662   2.334   2.453   0.606
28471SOL    HW185663   2.263   2.504   0.644
28471SOL    HW285664   2.306   2.436   0.516
28472SOL     OW85665   4.429   0.793   0.184
28472SOL    HW185666   4.430   0.766   0.276
28472SOL    HW285667   4.405   0.886   0.186
28473SOL     OW85668  12.547  11.792   2.962
28473SOL    HW185669  12.579  11.735   2.892
28473SOL    HW285670  12.460  11.820   2.932
28474SOL     OW85671  11.027   3.369   0.505
28474SOL    HW185672  10.984   3.452   0.524
28474SOL    HW285673  11.004   3.312   0.578
28475SOL     OW85674  11.549  14.881   7.463
28475SOL    HW185675  11.546  14.862   7.556
28475SOL    HW285676  11.561  14.976   7.459
28476SOL     OW85677   3.574   9.088   1.493
28476SOL    HW185678   3.654   9.036   1.479
28476SOL    HW285679   3.532   9.048   1.569
28477SOL     OW85680   5.883  11.009   5.679
28477SOL    HW185681   5.974  10.978   5.684
28477SOL    HW285682   5.834  10.947   5.734
28478SOL     OW85683   8.630  10.724   2.596
28478SOL    HW185684   8.686  10.789   2.554
28478SOL    HW285685   8.691  10.666   2.642
28479SOL     OW85686   5.244  15.060   7.215
28479SOL    HW185687   5.233  15.139   7.267
28479SOL    HW285688   5.256  14.990   7.279
28480SOL     OW85689   7.499   5.537   0.475
28480SOL    HW185690   7.434   5.491   0.421
28480SOL    HW285691   7.541   5.469   0.526
28481SOL     OW85692  11.799   8.925   4.546
28481SOL    HW185693  11.879   8.952   4.590
28481SOL    HW285694  11.757   8.865   4.608
28482SOL     OW85695   5.378   9.207   5.625
28482SOL    HW185696   5.393   9.302   5.621
28482SOL    HW285697   5.404   9.183   5.714
28483SOL     OW85698   5.031  12.459   2.579
28483SOL    HW185699   5.119  12.427   2.559
28483SOL    HW285700   5.033  12.552   2.559
28484SOL     OW85701   9.047  11.713   5.136
28484SOL    HW185702   9.128  11.721   5.086
28484SOL    HW285703   9.021  11.621   5.125
28485SOL     OW85704  10.979   7.123   2.316
28485SOL    HW185705  10.968   7.205   2.365
28485SOL    HW285706  10.939   7.056   2.371
28486SOL     OW85707  11.547  10.199   3.422
28486SOL    HW185708  11.627  10.147   3.414
28486SOL    HW285709  11.477  10.141   3.392
28487SOL     OW85710  12.007   4.896   3.862
28487SOL    HW185711  12.086   4.917   3.912
28487SOL    HW285712  11.945   4.965   3.888
28488SOL     OW85713   4.803  11.705   1.910
28488SOL    HW185714   4.840  11.786   1.947
28488SOL    HW285715   4.711  11.708   1.935
28489SOL     OW85716  10.441   7.965   1.913
28489SOL    HW185717  10.522   7.952   1.864
28489SOL    HW285718  10.456   7.924   1.998
28490SOL     OW85719   4.743  10.829   6.374
28490SOL    HW185720   4.647  10.834   6.371
28490SOL    HW285721   4.772  10.875   6.295
28491SOL     OW85722  11.767   6.546   2.187
28491SOL    HW185723  11.770   6.497   2.105
28491SOL    HW285724  11.837   6.508   2.240
28492SOL     OW85725  14.792  10.228   6.058
28492SOL    HW185726  14.839  10.242   6.141
28492SOL    HW285727  14.843  10.278   5.994
28493SOL     OW85728  10.111   2.435   0.249
28493SOL    HW185729  10.095   2.439   0.154
28493SOL    HW285730  10.111   2.341   0.268
28494SOL     OW85731  11.785  12.864   7.045
28494SOL    HW185732  11.810  12.905   6.962
28494SOL    HW285733  11.823  12.777   7.042
28495SOL     OW85734   7.290  11.360   6.465
28495SOL    HW185735   7.287  11.426   6.396
28495SOL    HW285736   7.199  11.336   6.481
28496SOL     OW85737  10.292  12.127   4.410
28496SOL    HW185738  10.373  12.104   4.456
28496SOL    HW285739  10.302  12.220   4.389
28497SOL     OW85740   3.709   9.848   3.133
28497SOL    HW185741   3.790   9.893   3.109
28497SOL    HW285742   3.661   9.839   3.051
28498SOL     OW85743   4.067   5.295   4.031
28498SOL    HW185744   3.999   5.355   4.002
28498SOL    HW285745   4.034   5.257   4.112
28499SOL     OW85746  11.454  10.075   3.865
28499SOL    HW185747  11.497  10.147   3.911
28499SOL    HW285748  11.411  10.117   3.790
28500SOL     OW85749   3.618  10.463   0.050
28500SOL    HW185750   3.629  10.479   0.143
28500SOL    HW285751   3.568  10.539   0.019
28501SOL     OW85752   7.247   5.234   0.179
28501SOL    HW185753   7.205   5.157   0.218
28501SOL    HW285754   7.326   5.200   0.138
28502SOL     OW85755  12.209   6.650   3.719
28502SOL    HW185756  12.146   6.663   3.648
28502SOL    HW285757  12.177   6.706   3.790
28503SOL     OW85758  13.943   4.717   5.397
28503SOL    HW185759  14.021   4.772   5.403
28503SOL    HW285760  13.977   4.628   5.383
28504SOL     OW85761  11.031   7.553   1.364
28504SOL    HW185762  10.972   7.483   1.393
28504SOL    HW285763  11.087   7.570   1.439
28505SOL     OW85764  10.853   5.025   5.295
28505SOL    HW185765  10.785   5.078   5.255
28505SOL    HW285766  10.934   5.073   5.280
28506SOL     OW85767  11.781  10.516   7.422
28506SOL    HW185768  11.790  10.454   7.350
28506SOL    HW285769  11.690  10.505   7.452
28507SOL     OW85770   3.620   6.049   1.732
28507SOL    HW185771   3.525   6.056   1.744
28507SOL    HW285772   3.655   6.039   1.821
28508SOL     OW85773   3.988   5.886   2.323
28508SOL    HW185774   3.990   5.961   2.382
28508SOL    HW285775   3.922   5.908   2.257
28509SOL     OW85776   3.853   8.393   1.965
28509SOL    HW185777   3.817   8.328   1.905
28509SOL    HW285778   3.776   8.430   2.009
28510SOL     OW85779   2.982  11.842   2.221
28510SOL    HW185780   2.909  11.843   2.283
28510SOL    HW285781   2.963  11.916   2.163
28511SOL     OW85782  10.599   4.188   4.271
28511SOL    HW185783  10.562   4.260   4.322
28511SOL    HW285784  10.693   4.208   4.267
28512SOL     OW85785  10.030  15.381   7.343
28512SOL    HW185786  10.097  15.369   7.411
28512SOL    HW285787  10.012  15.475   7.343
28513SOL     OW85788   3.563   7.947   0.860
28513SOL    HW185789   3.541   7.888   0.932
28513SOL    HW285790   3.527   8.032   0.886
28514SOL     OW85791  10.781   0.554   0.593
28514SOL    HW185792  10.789   0.502   0.513
28514SOL    HW285793  10.851   0.619   0.586
28515SOL     OW85794   5.167   8.425   2.143
28515SOL    HW185795   5.169   8.389   2.055
28515SOL    HW285796   5.079   8.464   2.151
28516SOL     OW85797   7.081  13.496   4.711
28516SOL    HW185798   7.035  13.450   4.780
28516SOL    HW285799   7.015  13.511   4.643
28517SOL     OW85800   3.841  10.820   0.379
28517SOL    HW185801   3.838  10.900   0.432
28517SOL    HW285802   3.931  10.789   0.387
28518SOL     OW85803   3.694  11.808   2.303
28518SOL    HW185804   3.787  11.830   2.314
28518SOL    HW285805   3.662  11.872   2.239
28519SOL     OW85806   9.377   1.844   1.243
28519SOL    HW185807   9.459   1.861   1.289
28519SOL    HW285808   9.317   1.912   1.274
28520SOL     OW85809   7.653   9.904   0.337
28520SOL    HW185810   7.578   9.901   0.396
28520SOL    HW285811   7.723   9.945   0.388
28521SOL     OW85812  11.663   7.388   3.646
28521SOL    HW185813  11.654   7.293   3.648
28521SOL    HW285814  11.664   7.414   3.738
28522SOL     OW85815  13.775   9.501   5.164
28522SOL    HW185816  13.710   9.502   5.093
28522SOL    HW285817  13.794   9.593   5.181
28523SOL     OW85818   7.194  10.035   5.865
28523SOL    HW185819   7.236  10.026   5.779
28523SOL    HW285820   7.222   9.958   5.914
28524SOL     OW85821   7.935  13.393   3.887
28524SOL    HW185822   7.854  13.442   3.871
28524SOL    HW285823   8.004  13.460   3.887
28525SOL     OW85824   4.795   5.925   4.190
28525SOL    HW185825   4.772   6.011   4.155
28525SOL    HW285826   4.832   5.878   4.115
28526SOL     OW85827   4.967  11.804   5.662
28526SOL    HW185828   4.987  11.711   5.646
28526SOL    HW285829   5.037  11.851   5.618
28527SOL     OW85830   6.443   6.627   4.770
28527SOL    HW185831   6.535   6.620   4.742
28527SOL    HW285832   6.442   6.703   4.829
28528SOL     OW85833   9.321   5.308   1.834
28528SOL    HW185834   9.413   5.301   1.858
28528SOL    HW285835   9.276   5.326   1.917
28529SOL     OW85836   9.699   8.235   4.482
28529SOL    HW185837   9.693   8.163   4.418
28529SOL    HW285838   9.609   8.245   4.514
28530SOL     OW85839  13.742  12.933   4.285
28530SOL    HW185840  13.719  12.885   4.206
28530SOL    HW285841   3.064  12.930   4.288
28531SOL     OW85842   8.279  12.256   2.571
28531SOL    HW185843   8.284  12.345   2.538
28531SOL    HW285844   8.368  12.237   2.603
28532SOL     OW85845   6.638  12.141   4.544
28532SOL    HW185846   6.616  12.068   4.602
28532SOL    HW285847   6.711  12.185   4.588
28533SOL     OW85848   7.993   9.468   2.134
28533SOL    HW185849   7.956   9.533   2.194
28533SOL    HW285850   8.027   9.519   2.061
28534SOL     OW85851  10.909   4.634   1.378
28534SOL    HW185852  10.873   4.599   1.460
28534SOL    HW285853  10.843   4.611   1.313
28535SOL     OW85854  10.305   7.728   2.476
28535SOL    HW185855  10.249   7.792   2.432
28535SOL    HW285856  10.393   7.747   2.442
28536SOL     OW85857   5.516   2.820   1.087
28536SOL    HW185858   5.421   2.808   1.096
28536SOL    HW285859   5.537   2.890   1.148
28537SOL     OW85860  10.389   7.867   4.096
28537SOL    HW185861  10.397   7.833   4.185
28537SOL    HW285862  10.366   7.790   4.044
28538SOL     OW85863   7.540   2.983   0.069
28538SOL    HW185864   7.519   3.055   0.009
28538SOL    HW285865   7.628   2.955   0.043
28539SOL     OW85866   8.206  10.153   1.530
28539SOL    HW185867   8.242  10.228   1.484
28539SOL    HW285868   8.284  10.105   1.560
28540SOL     OW85869   9.979   9.407   3.172
28540SOL    HW185870   9.925   9.484   3.156
28540SOL    HW285871   9.924   9.333   3.145
28541SOL     OW85872  10.634   6.514   3.963
28541SOL    HW185873  10.698   6.584   3.950
28541SOL    HW285874  10.685   6.433   3.958
28542SOL     OW85875   5.889   5.600   3.341
28542SOL    HW185876   5.886   5.578   3.248
28542SOL    HW285877   5.802   5.633   3.362
28543SOL     OW85878   1.868   1.898   0.007
28543SOL    HW185879   7.344   7.260   7.601
28543SOL    HW285880   7.217   7.322   7.546
28544SOL     OW85881   5.288  11.830   6.270
28544SOL    HW185882   5.383  11.842   6.263
28544SOL    HW285883   5.273  11.740   6.244
28545SOL     OW85884   7.560   7.219   6.422
28545SOL    HW185885   7.511   7.266   6.490
28545SOL    HW285886   7.652   7.233   6.446
28546SOL     OW85887  12.761   5.263   6.660
28546SOL    HW185888  12.675   5.295   6.631
28546SOL    HW285889  12.799   5.223   6.582
28547SOL     OW85890   4.459   1.826   2.509
28547SOL    HW185891   4.533  12.572   2.563
28547SOL    HW285892   4.396   1.862   2.572
28548SOL     OW85893   3.883   8.833   2.190
28548SOL    HW185894   3.820   8.780   2.237
28548SOL    HW285895   3.963   8.781   2.189
28549SOL     OW85896   8.130   4.657   1.976
28549SOL    HW185897   8.130   4.611   2.060
28549SOL    HW285898   8.055   4.716   1.981
28550SOL     OW85899   4.535   7.273   4.354
28550SOL    HW185900   4.446   7.306   4.367
28550SOL    HW285901   4.527   7.213   4.280
28551SOL     OW85902  12.679  13.941   5.868
28551SOL    HW185903  12.651  14.028   5.897
28551SOL    HW285904  12.620  13.880   5.913
28552SOL     OW85905   5.949   7.109   6.947
28552SOL    HW185906   5.985   7.083   7.032
28552SOL    HW285907   6.024   7.144   6.899
28553SOL     OW85908  11.071   5.362   2.661
28553SOL    HW185909  11.131   5.322   2.725
28553SOL    HW285910  10.988   5.369   2.708
28554SOL     OW85911   9.520   9.030   5.951
28554SOL    HW185912   9.608   9.064   5.938
28554SOL    HW285913   9.492   9.001   5.864
28555SOL     OW85914  11.585  13.639   6.364
28555SOL    HW185915  11.627  13.605   6.443
28555SOL    HW285916  11.517  13.575   6.343
28556SOL     OW85917  12.118   8.810   7.308
28556SOL    HW185918  12.096   8.836   7.219
28556SOL    HW285919  12.139   8.892   7.353
28557SOL     OW85920   9.761   8.063   7.226
28557SOL    HW185921   9.769   7.968   7.218
28557SOL    HW285922   9.673   8.082   7.197
28558SOL     OW85923   7.731   7.898   5.144
28558SOL    HW185924   7.720   7.803   5.147
28558SOL    HW285925   7.810   7.912   5.092
28559SOL     OW85926  12.629   5.271   2.756
28559SOL    HW185927  12.629   5.355   2.710
28559SOL    HW285928  12.539   5.240   2.751
28560SOL     OW85929   8.820  11.541   4.452
28560SOL    HW185930   8.743  11.486   4.465
28560SOL    HW285931   8.815  11.607   4.521
28561SOL     OW85932   5.411  13.972   6.376
28561SOL    HW185933   5.503  13.992   6.396
28561SOL    HW285934   5.416  13.894   6.320
28562SOL     OW85935  11.987   4.688   6.162
28562SOL    HW185936  12.031   4.769   6.188
28562SOL    HW285937  11.964   4.701   6.070
28563SOL     OW85938   1.871   3.575   1.132
28563SOL    HW185939   1.857   3.621   1.214
28563SOL    HW285940   1.943   3.514   1.150
28564SOL     OW85941  14.839   7.257   5.832
28564SOL    HW185942  14.870   7.347   5.817
28564SOL    HW285943  14.769   7.266   5.896
28565SOL     OW85944   9.449   9.742   2.519
28565SOL    HW185945   9.461   9.818   2.575
28565SOL    HW285946   9.482   9.769   2.434
28566SOL     OW85947   1.904  10.009   2.087
28566SOL    HW185948   1.909   9.922   2.047
28566SOL    HW285949   1.988  10.049   2.067
28567SOL     OW85950   6.931   9.230   7.204
28567SOL    HW185951   6.901   9.230   7.295
28567SOL    HW285952   6.991   9.304   7.198
28568SOL     OW85953  13.373   7.451   6.140
28568SOL    HW185954  13.440   7.390   6.109
28568SOL    HW285955  13.291   7.400   6.137
28569SOL     OW85956   9.920   5.623   6.924
28569SOL    HW185957   9.944   5.608   7.016
28569SOL    HW285958   9.838   5.574   6.913
28570SOL     OW85959  10.155  10.898   5.632
28570SOL    HW185960  10.210  10.939   5.565
28570SOL    HW285961  10.217  10.848   5.686
28571SOL     OW85962  11.679  10.475   5.390
28571SOL    HW185963  11.635  10.401   5.433
28571SOL    HW285964  11.772  10.462   5.409
28572SOL     OW85965  12.590  11.588   3.948
28572SOL    HW185966  12.661  11.553   3.894
28572SOL    HW285967  12.518  11.602   3.887
28573SOL     OW85968  10.550   3.809   1.791
28573SOL    HW185969  10.592   3.744   1.735
28573SOL    HW285970  10.619   3.871   1.812
28574SOL     OW85971   8.041  15.204   6.867
28574SOL    HW185972   8.121  15.249   6.896
28574SOL    HW285973   8.051  15.114   6.899
28575SOL     OW85974  10.313  10.601   2.135
28575SOL    HW185975  10.293  10.631   2.046
28575SOL    HW285976  10.287  10.674   2.191
28576SOL     OW85977  10.092   1.161   0.903
28576SOL    HW185978  10.098   1.124   0.992
28576SOL    HW285979  10.183   1.176   0.878
28577SOL     OW85980   6.124  12.079   7.119
28577SOL    HW185981   6.105  12.101   7.028
28577SOL    HW285982   6.216  12.104   7.130
28578SOL     OW85983  11.436   3.685   1.582
28578SOL    HW185984  11.360   3.728   1.622
28578SOL    HW285985  11.416   3.592   1.587
28579SOL     OW85986   1.759   7.131   0.614
28579SOL    HW185987   1.673   7.088   0.610
28579SOL    HW285988   1.782   7.131   0.707
28580SOL     OW85989  11.476  13.395   6.598
28580SOL    HW185990  11.463  13.480   6.641
28580SOL    HW285991  11.397  13.346   6.618
28581SOL     OW85992  12.428   5.207   6.138
28581SOL    HW185993  12.348   5.156   6.130
28581SOL    HW285994  12.484   5.176   6.066
28582SOL     OW85995  10.441  11.104   2.700
28582SOL    HW185996  10.509  11.051   2.741
28582SOL    HW285997  10.471  11.195   2.711
28583SOL     OW85998  10.777   8.159   1.254
28583SOL    HW185999  10.763   8.250   1.226
28583SOL    HW286000  10.836   8.166   1.329
28584SOL     OW86001   7.172   8.635   2.720
28584SOL    HW186002   7.233   8.703   2.750
28584SOL    HW286003   7.220   8.588   2.653
28585SOL     OW86004   4.701   8.587   5.188
28585SOL    HW186005   4.796   8.593   5.187
28585SOL    HW286006   4.681   8.495   5.169
28586SOL     OW86007   3.240  11.627   2.053
28586SOL    HW186008   3.197  11.712   2.045
28586SOL    HW286009   3.183  11.577   2.112
28587SOL     OW86010  10.128   4.414   3.148
28587SOL    HW186011  10.131   4.378   3.237
28587SOL    HW286012  10.048   4.379   3.110
28588SOL     OW86013  12.919   6.304   3.245
28588SOL    HW186014  12.969   6.385   3.235
28588SOL    HW286015  12.914   6.290   3.339
28589SOL     OW86016   8.766   6.951   7.156
28589SOL    HW186017   8.844   6.969   7.208
28589SOL    HW286018   8.737   6.864   7.183
28590SOL     OW86019   9.001  12.508   5.496
28590SOL    HW186020   9.092  12.505   5.468
28590SOL    HW286021   8.954  12.458   5.429
28591SOL     OW86022  15.589  10.424   7.364
28591SOL    HW186023  15.680  10.450   7.351
28591SOL    HW286024  15.544  10.452   7.285
28592SOL     OW86025  14.135  14.847   5.854
28592SOL    HW186026  14.092  14.928   5.881
28592SOL    HW286027  14.072  14.778   5.875
28593SOL     OW86028  13.095  14.313   5.033
28593SOL    HW186029  13.137  14.251   4.972
28593SOL    HW286030  13.002  14.305   5.014
28594SOL     OW86031   8.090  10.863   6.000
28594SOL    HW186032   8.017  10.924   6.011
28594SOL    HW286033   8.080  10.829   5.911
28595SOL     OW86034   8.531   6.687   6.112
28595SOL    HW186035   8.618   6.688   6.152
28595SOL    HW286036   8.544   6.721   6.024
28596SOL     OW86037  10.617   9.872   6.903
28596SOL    HW186038  10.536   9.911   6.935
28596SOL    HW286039  10.626   9.791   6.953
28597SOL     OW86040   6.571   5.500   5.575
28597SOL    HW186041   6.597   5.588   5.547
28597SOL    HW286042   6.638   5.475   5.639
28598SOL     OW86043   8.980   9.341   1.499
28598SOL    HW186044   8.888   9.354   1.476
28598SOL    HW286045   8.995   9.247   1.489
28599SOL     OW86046  13.742  13.351   6.585
28599SOL    HW186047  13.698  13.431   6.613
28599SOL    HW286048  13.711  13.283   6.645
28600SOL     OW86049   6.507  10.863   5.156
28600SOL    HW186050   6.421  10.848   5.196
28600SOL    HW286051   6.557  10.783   5.175
28601SOL     OW86052   4.098  10.904   3.782
28601SOL    HW186053   4.011  10.868   3.765
28601SOL    HW286054   4.082  10.989   3.824
28602SOL     OW86055   4.998  11.892   6.206
28602SOL    HW186056   4.972  11.867   6.117
28602SOL    HW286057   5.093  11.884   6.206
28603SOL     OW86058   7.094   0.078   0.028
28603SOL    HW186059  12.539   5.520   7.594
28603SOL    HW286060   7.151  10.817   0.097
28604SOL     OW86061   6.315   0.868   0.360
28604SOL    HW186062   6.246   0.917   0.315
28604SOL    HW286063   6.358   0.818   0.290
28605SOL     OW86064   8.209   5.556   4.483
28605SOL    HW186065   8.207   5.470   4.441
28605SOL    HW286066   8.118   5.576   4.501
28606SOL     OW86067   6.717   9.694   1.627
28606SOL    HW186068   6.784   9.636   1.664
28606SOL    HW286069   6.635   9.648   1.644
28607SOL     OW86070  12.769  10.395   3.820
28607SOL    HW186071  12.859  10.364   3.811
28607SOL    HW286072  12.776  10.466   3.883
28608SOL     OW86073   6.956   3.104   2.113
28608SOL    HW186074   7.021   3.069   2.052
28608SOL    HW286075   6.891   3.034   2.123
28609SOL     OW86076  11.084   8.157   7.024
28609SOL    HW186077  11.116   8.163   7.115
28609SOL    HW286078  11.054   8.245   7.004
28610SOL     OW86079   4.002  14.327   5.238
28610SOL    HW186080   4.017  14.291   5.325
28610SOL    HW286081   4.047  14.267   5.179
28611SOL     OW86082   7.453   9.204   5.686
28611SOL    HW186083   7.519   9.135   5.677
28611SOL    HW286084   7.370   9.157   5.694
28612SOL     OW86085  11.155  11.323   2.503
28612SOL    HW186086  11.061  11.307   2.503
28612SOL    HW286087  11.169  11.387   2.433
28613SOL     OW86088   2.056  11.628   2.788
28613SOL    HW186089  12.810  11.623   2.882
28613SOL    HW286090   1.970  11.634   2.745
28614SOL     OW86091   4.539   7.960   3.162
28614SOL    HW186092   4.467   7.903   3.136
28614SOL    HW286093   4.497   8.027   3.216
28615SOL     OW86094   8.583   2.512   2.416
28615SOL    HW186095   8.649   2.476   2.476
28615SOL    HW286096   8.503   2.515   2.468
28616SOL     OW86097  12.950   3.603   4.098
28616SOL    HW186098  12.986   3.655   4.026
28616SOL    HW286099  12.861   3.637   4.111
28617SOL     OW86100   9.988   9.606   6.959
28617SOL    HW186101  10.043   9.684   6.962
28617SOL    HW286102   9.917   9.624   7.020
28618SOL     OW86103   1.934   1.441   0.655
28618SOL    HW186104   1.901   1.405   0.573
28618SOL    HW286105   1.996   1.376   0.686
28619SOL     OW86106   5.791   2.956   2.415
28619SOL    HW186107   5.787   2.919   2.503
28619SOL    HW286108   5.828   2.887   2.361
28620SOL     OW86109   8.080   7.203   5.863
28620SOL    HW186110   8.085   7.231   5.954
28620SOL    HW286111   8.085   7.107   5.867
28621SOL     OW86112   2.208   4.194   0.257
28621SOL    HW186113   2.148   4.266   0.234
28621SOL    HW286114   2.230   4.154   0.174
28622SOL     OW86115   1.143   1.851   0.431
28622SOL    HW186116   1.082   1.783   0.402
28622SOL    HW286117   1.089   1.914   0.478
28623SOL     OW86118  10.700   7.911   0.138
28623SOL    HW186119  10.659   7.996   0.124
28623SOL    HW286120  10.765   7.903   0.067
28624SOL     OW86121  12.291  11.987   2.968
28624SOL    HW186122  12.298  12.070   3.014
28624SOL    HW286123  12.323  12.006   2.879
28625SOL     OW86124  11.072   4.868   6.752
28625SOL    HW186125  11.105   4.859   6.663
28625SOL    HW286126  10.981   4.839   6.747
28626SOL     OW86127   4.542   4.348   1.049
28626SOL    HW186128   4.633   4.331   1.074
28626SOL    HW286129   4.513   4.265   1.010
28627SOL     OW86130   5.063   4.350   5.280
28627SOL    HW186131   5.075   4.263   5.241
28627SOL    HW286132   4.973   4.351   5.311
28628SOL     OW86133   2.909  10.884   2.133
28628SOL    HW186134   2.892  10.974   2.161
28628SOL    HW286135   3.000  10.868   2.159
28629SOL     OW86136   3.723  10.150   3.013
28629SOL    HW186137   3.785  10.111   3.075
28629SOL    HW286138   3.748  10.114   2.928
28630SOL     OW86139   8.300   5.589   1.649
28630SOL    HW186140   8.373   5.531   1.626
28630SOL    HW286141   8.248   5.538   1.711
28631SOL     OW86142  14.542   8.762   6.755
28631SOL    HW186143  14.511   8.808   6.833
28631SOL    HW286144  14.632   8.735   6.777
28632SOL     OW86145   5.142   7.418   2.076
28632SOL    HW186146   5.163   7.377   1.992
28632SOL    HW286147   5.223   7.409   2.127
28633SOL     OW86148  13.069  11.497   6.355
28633SOL    HW186149  13.092  11.425   6.414
28633SOL    HW286150  13.022  11.454   6.284
28634SOL     OW86151  13.917  12.522   6.940
28634SOL    HW186152  13.865  12.602   6.936
28634SOL    HW286153  13.995  12.542   6.887
28635SOL     OW86154   7.529  12.500   6.161
28635SOL    HW186155   7.592  12.514   6.091
28635SOL    HW286156   7.582  12.500   6.241
28636SOL     OW86157  10.253  10.364   0.259
28636SOL    HW186158  10.225  10.293   0.201
28636SOL    HW286159  10.303  10.320   0.327
28637SOL     OW86160   8.687   6.640   0.643
28637SOL    HW186161   8.693   6.632   0.548
28637SOL    HW286162   8.774   6.614   0.674
28638SOL     OW86163  11.407   6.160   5.180
28638SOL    HW186164  11.383   6.100   5.109
28638SOL    HW286165  11.483   6.208   5.146
28639SOL     OW86166   6.058   4.706   0.248
28639SOL    HW186167   6.113   4.729   0.173
28639SOL    HW286168   6.119   4.674   0.314
28640SOL     OW86169   2.628   3.329   3.509
28640SOL    HW186170   2.569   3.315   3.583
28640SOL    HW286171   2.650   3.240   3.479
28641SOL     OW86172  10.458   3.515   4.432
28641SOL    HW186173  10.441   3.608   4.421
28641SOL    HW286174  10.551   3.510   4.457
28642SOL     OW86175  12.126   3.545   4.726
28642SOL    HW186176  12.171   3.464   4.700
28642SOL    HW286177  12.107   3.589   4.643
28643SOL     OW86178  10.730   9.014   2.043
28643SOL    HW186179  10.730   8.939   1.983
28643SOL    HW286180  10.654   8.999   2.100
28644SOL     OW86181  11.789  11.139   6.540
28644SOL    HW186182  11.764  11.115   6.629
28644SOL    HW286183  11.797  11.055   6.494
28645SOL     OW86184  10.448  13.788   7.077
28645SOL    HW186185  10.434  13.883   7.068
28645SOL    HW286186  10.482  13.761   6.991
28646SOL     OW86187  13.154   3.032   3.600
28646SOL    HW186188  13.167   3.111   3.651
28646SOL    HW286189  13.189   2.962   3.655
28647SOL     OW86190  14.127   6.099   5.316
28647SOL    HW186191  14.052   6.156   5.333
28647SOL    HW286192  14.089   6.011   5.307
28648SOL     OW86193  10.519   6.242   0.495
28648SOL    HW186194  10.536   6.336   0.503
28648SOL    HW286195  10.598   6.207   0.455
28649SOL     OW86196  12.707   5.799   6.377
28649SOL    HW186197  12.668   5.718   6.345
28649SOL    HW286198  12.719   5.783   6.471
28650SOL     OW86199  12.732   9.680   4.573
28650SOL    HW186200  12.763   9.689   4.483
28650SOL    HW286201  12.781   9.746   4.622
28651SOL     OW86202   6.574   1.520   0.766
28651SOL    HW186203   6.526   1.438   0.756
28651SOL    HW286204   6.605   1.519   0.856
28652SOL     OW86205   6.193   6.543   2.141
28652SOL    HW186206   6.210   6.563   2.234
28652SOL    HW286207   6.232   6.457   2.128
28653SOL     OW86208   4.514  13.787   5.405
28653SOL    HW186209   4.563  13.869   5.406
28653SOL    HW286210   4.434  13.806   5.455
28654SOL     OW86211   9.235   6.144   1.927
28654SOL    HW186212   9.255   6.106   1.841
28654SOL    HW286213   9.162   6.204   1.911
28655SOL     OW86214   8.967   6.392   0.945
28655SOL    HW186215   8.905   6.430   1.007
28655SOL    HW286216   8.913   6.346   0.882
28656SOL     OW86217  14.966  10.179   6.858
28656SOL    HW186218  15.022  10.231   6.917
28656SOL    HW286219  14.879  10.217   6.870
28657SOL     OW86220   6.979   4.126   4.232
28657SOL    HW186221   6.920   4.112   4.307
28657SOL    HW286222   6.939   4.198   4.184
28658SOL     OW86223   8.083   9.874   7.254
28658SOL    HW186224   8.075   9.962   7.219
28658SOL    HW286225   8.049   9.817   7.185
28659SOL     OW86226  10.128   2.284   1.724
28659SOL    HW186227  10.221   2.259   1.722
28659SOL    HW286228  10.098   2.257   1.811
28660SOL     OW86229   0.915   6.127   0.348
28660SOL    HW186230   0.888   6.057   0.408
28660SOL    HW286231   0.885   6.208   0.391
28661SOL     OW86232   5.595   4.529   2.636
28661SOL    HW186233   5.537   4.461   2.670
28661SOL    HW286234   5.682   4.502   2.664
28662SOL     OW86235   8.412   6.907   5.057
28662SOL    HW186236   8.421   6.905   4.962
28662SOL    HW286237   8.430   6.818   5.085
28663SOL     OW86238  11.122   5.452   1.652
28663SOL    HW186239  11.147   5.373   1.603
28663SOL    HW286240  11.197   5.468   1.710
28664SOL     OW86241  10.024   7.490   7.136
28664SOL    HW186242  10.048   7.406   7.176
28664SOL    HW286243  10.105   7.519   7.093
28665SOL     OW86244   2.286   9.464   0.379
28665SOL    HW186245   2.207   9.444   0.329
28665SOL    HW286246   2.317   9.547   0.342
28666SOL     OW86247  12.889   8.504   3.660
28666SOL    HW186248  12.911   8.568   3.728
28666SOL    HW286249  12.807   8.464   3.691
28667SOL     OW86250   8.536   4.264   4.079
28667SOL    HW186251   8.472   4.332   4.101
28667SOL    HW286252   8.620   4.310   4.075
28668SOL     OW86253   9.493   6.945   3.487
28668SOL    HW186254   9.485   6.992   3.404
28668SOL    HW286255   9.461   7.006   3.553
28669SOL     OW86256   6.228   8.309   0.825
28669SOL    HW186257   6.202   8.328   0.915
28669SOL    HW286258   6.148   8.278   0.782
28670SOL     OW86259   1.191   8.835   1.134
28670SOL    HW186260   1.223   8.923   1.112
28670SOL    HW286261   1.202   8.785   1.053
28671SOL     OW86262   4.550   8.766   5.840
28671SOL    HW186263   4.509   8.720   5.766
28671SOL    HW286264   4.483   8.764   5.909
28672SOL     OW86265   8.515   8.880   5.355
28672SOL    HW186266   8.440   8.896   5.297
28672SOL    HW286267   8.539   8.789   5.339
28673SOL     OW86268  12.917   8.379   7.022
28673SOL    HW186269  12.827   8.366   6.993
28673SOL    HW286270  12.910   8.439   7.097
28674SOL     OW86271   8.721  10.988   1.110
28674SOL    HW186272   8.779  11.014   1.183
28674SOL    HW286273   8.635  11.022   1.135
28675SOL     OW86274   5.450  14.919   6.476
28675SOL    HW186275   5.380  14.854   6.484
28675SOL    HW286276   5.433  14.963   6.393
28676SOL     OW86277   5.364   6.551   1.299
28676SOL    HW186278   5.419   6.619   1.260
28676SOL    HW286279   5.388   6.552   1.392
28677SOL     OW86280   6.627   6.112   6.398
28677SOL    HW186281   6.630   6.206   6.380
28677SOL    HW286282   6.565   6.077   6.334
28678SOL     OW86283   9.197   9.810   6.707
28678SOL    HW186284   9.212   9.900   6.734
28678SOL    HW286285   9.109   9.810   6.669
28679SOL     OW86286   6.128  12.135   1.934
28679SOL    HW186287   6.163  12.051   1.964
28679SOL    HW286288   6.036  12.119   1.917
28680SOL     OW86289   1.688   3.487   1.959
28680SOL    HW186290   1.627   3.418   1.984
28680SOL    HW286291   1.677   3.497   1.865
28681SOL     OW86292  11.608  11.705   3.236
28681SOL    HW186293  11.658  11.785   3.217
28681SOL    HW286294  11.548  11.695   3.162
28682SOL     OW86295  14.502   8.997   7.237
28682SOL    HW186296  14.517   8.912   7.277
28682SOL    HW286297  14.547   9.059   7.295
28683SOL     OW86298   5.983   3.329   1.688
28683SOL    HW186299   6.011   3.283   1.767
28683SOL    HW286300   6.044   3.403   1.681
28684SOL     OW86301  10.625   6.745   6.099
28684SOL    HW186302  10.542   6.701   6.081
28684SOL    HW286303  10.607   6.798   6.177
28685SOL     OW86304   8.818   9.062   3.859
28685SOL    HW186305   8.806   8.977   3.900
28685SOL    HW286306   8.729   9.092   3.840
28686SOL     OW86307  11.264  10.421   2.981
28686SOL    HW186308  11.237  10.330   2.972
28686SOL    HW286309  11.241  10.444   3.071
28687SOL     OW86310  12.351   7.022   3.640
28687SOL    HW186311  12.412   6.976   3.699
28687SOL    HW286312  12.403   7.041   3.562
28688SOL     OW86313   2.675   3.831   1.138
28688SOL    HW186314   2.603   3.842   1.200
28688SOL    HW286315   2.752   3.816   1.194
28689SOL     OW86316   7.721  14.220   6.712
28689SOL    HW186317   7.791  14.284   6.701
28689SOL    HW286318   7.707  14.185   6.624
28690SOL     OW86319   6.283  10.298   5.370
28690SOL    HW186320   6.296  10.203   5.371
28690SOL    HW286321   6.369  10.334   5.388
28691SOL     OW86322   5.432   9.970   3.693
28691SOL    HW186323   5.431   9.875   3.683
28691SOL    HW286324   5.393   9.985   3.779
28692SOL     OW86325   3.332   1.982   2.099
28692SOL    HW186326   3.401   2.018   2.156
28692SOL    HW286327   3.294   2.059   2.057
28693SOL     OW86328  11.939   4.555   5.339
28693SOL    HW186329  11.935   4.500   5.417
28693SOL    HW286330  11.887   4.508   5.274
28694SOL     OW86331   7.126   4.416   3.924
28694SOL    HW186332   7.170   4.500   3.933
28694SOL    HW286333   7.189   4.360   3.879
28695SOL     OW86334  14.620   9.270   5.596
28695SOL    HW186335  14.596   9.206   5.529
28695SOL    HW286336  14.715   9.274   5.592
28696SOL     OW86337   1.504   2.212   0.765
28696SOL    HW186338   1.510   2.127   0.722
28696SOL    HW286339   1.555   2.272   0.711
28697SOL     OW86340   9.904   7.080   4.901
28697SOL    HW186341   9.968   7.119   4.840
28697SOL    HW286342   9.845   7.030   4.844
28698SOL     OW86343   7.112  10.825   7.266
28698SOL    HW186344   7.049  10.880   7.314
28698SOL    HW286345   7.163  10.888   7.215
28699SOL     OW86346   4.247   3.778   3.581
28699SOL    HW186347   4.336   3.805   3.559
28699SOL    HW286348   4.195   3.804   3.505
28700SOL     OW86349   1.218   6.927   1.181
28700SOL    HW186350   1.130   6.917   1.146
28700SOL    HW286351   1.276   6.914   1.105
28701SOL     OW86352  10.803   2.456   2.818
28701SOL    HW186353  10.879   2.494   2.861
28701SOL    HW286354  10.840   2.396   2.753
28702SOL     OW86355   7.060   2.816   3.961
28702SOL    HW186356   7.114   2.889   3.933
28702SOL    HW286357   6.984   2.817   3.903
28703SOL     OW86358   9.011  10.020   2.555
28703SOL    HW186359   9.081   9.971   2.598
28703SOL    HW286360   9.025  10.111   2.581
28704SOL     OW86361   9.252   4.516   1.619
28704SOL    HW186362   9.298   4.599   1.628
28704SOL    HW286363   9.317   4.457   1.581
28705SOL     OW86364   6.213  13.308   5.746
28705SOL    HW186365   6.146  13.245   5.719
28705SOL    HW286366   6.186  13.390   5.704
28706SOL     OW86367   8.128  11.423   2.512
28706SOL    HW186368   8.129  11.374   2.594
28706SOL    HW286369   8.208  11.397   2.467
28707SOL     OW86370   4.052  10.610   5.397
28707SOL    HW186371   3.961  10.581   5.393
28707SOL    HW286372   4.053  10.694   5.352
28708SOL     OW86373   4.926  13.129   4.435
28708SOL    HW186374   4.849  13.077   4.411
28708SOL    HW286375   5.000  13.069   4.423
28709SOL     OW86376  10.473   6.135   0.082
28709SOL    HW186377  10.411   6.198   0.118
28709SOL    HW286378  15.837  11.516   7.608
28710SOL     OW86379   9.710   6.118   5.101
28710SOL    HW186380   9.766   6.092   5.029
28710SOL    HW286381   9.761   6.183   5.149
28711SOL     OW86382  15.039  10.358   7.054
28711SOL    HW186383  14.988  10.430   7.092
28711SOL    HW286384  15.122  10.360   7.102
28712SOL     OW86385  10.578  12.664   3.746
28712SOL    HW186386  10.501  12.705   3.786
28712SOL    HW286387  10.652  12.693   3.799
28713SOL     OW86388  11.073   6.307   5.584
28713SOL    HW186389  11.134   6.342   5.520
28713SOL    HW286390  11.052   6.219   5.553
28714SOL     OW86391  10.839   7.555   4.355
28714SOL    HW186392  10.791   7.618   4.301
28714SOL    HW286393  10.801   7.564   4.442
28715SOL     OW86394   1.798   6.818   1.197
28715SOL    HW186395   1.736   6.875   1.245
28715SOL    HW286396   1.774   6.830   1.105
28716SOL     OW86397  11.336   5.454   5.888
28716SOL    HW186398  11.365   5.503   5.966
28716SOL    HW286399  11.336   5.363   5.915
28717SOL     OW86400   4.024   8.634   2.740
28717SOL    HW186401   4.118   8.622   2.730
28717SOL    HW286402   3.985   8.589   2.665
28718SOL     OW86403   2.001   9.489   2.063
28718SOL    HW186404   1.946   9.414   2.085
28718SOL    HW286405   1.957   9.564   2.102
28719SOL     OW86406   2.589   7.874   1.634
28719SOL    HW186407   2.590   7.895   1.728
28719SOL    HW286408   2.530   7.799   1.626
28720SOL     OW86409  12.314  13.015   3.969
28720SOL    HW186410  12.396  13.063   3.960
28720SOL    HW286411  12.340  12.926   3.989
28721SOL     OW86412  15.053   8.122   7.073
28721SOL    HW186413  15.113   8.117   6.999
28721SOL    HW286414  14.968   8.141   7.033
28722SOL     OW86415   9.926   2.438   0.906
28722SOL    HW186416   9.948   2.401   0.992
28722SOL    HW286417   9.919   2.532   0.921
28723SOL     OW86418  12.732   5.429   4.295
28723SOL    HW186419  12.728   5.389   4.208
28723SOL    HW286420  12.642   5.424   4.328
28724SOL     OW86421   7.350   8.086   4.629
28724SOL    HW186422   7.317   8.122   4.711
28724SOL    HW286423   7.271   8.064   4.579
28725SOL     OW86424  12.334   6.692   5.973
28725SOL    HW186425  12.411   6.695   6.031
28725SOL    HW286426  12.306   6.601   5.975
28726SOL     OW86427   5.960  10.101   6.322
28726SOL    HW186428   6.029  10.129   6.382
28726SOL    HW286429   5.964  10.006   6.324
28727SOL     OW86430   7.930   0.830   0.432
28727SOL    HW186431   7.958   0.782   0.354
28727SOL    HW286432   7.949   0.771   0.505
28728SOL     OW86433   7.627   9.969   3.806
28728SOL    HW186434   7.570   9.956   3.731
28728SOL    HW286435   7.629   9.884   3.850
28729SOL     OW86436  13.535   5.771   4.989
28729SOL    HW186437  13.572   5.826   4.920
28729SOL    HW286438  13.599   5.773   5.060
28730SOL     OW86439   6.201  12.926   3.555
28730SOL    HW186440   6.108  12.942   3.572
28730SOL    HW286441   6.202  12.878   3.472
28731SOL     OW86442   8.232   8.615   1.041
28731SOL    HW186443   8.296   8.663   0.988
28731SOL    HW286444   8.266   8.622   1.131
28732SOL     OW86445  11.338   4.209   2.550
28732SOL    HW186446  11.270   4.159   2.506
28732SOL    HW286447  11.290   4.272   2.604
28733SOL     OW86448  10.194  12.952   3.284
28733SOL    HW186449  10.189  12.953   3.380
28733SOL    HW286450  10.125  12.891   3.258
28734SOL     OW86451   7.381   3.550   0.684
28734SOL    HW186452   7.471   3.532   0.711
28734SOL    HW286453   7.365   3.489   0.612
28735SOL     OW86454  15.486   6.989   7.569
28735SOL    HW186455  15.557   7.031   7.521
28735SOL    HW286456  10.103   1.640   0.038
28736SOL     OW86457  10.308   6.760   4.327
28736SOL    HW186458  10.374   6.730   4.265
28736SOL    HW286459  10.266   6.834   4.282
28737SOL     OW86460   5.655   6.858   4.545
28737SOL    HW186461   5.625   6.817   4.464
28737SOL    HW286462   5.579   6.908   4.575
28738SOL     OW86463  10.857   9.487   0.402
28738SOL    HW186464  10.902   9.513   0.321
28738SOL    HW286465  10.795   9.419   0.374
28739SOL     OW86466   4.872   2.081   1.491
28739SOL    HW186467   4.900   2.172   1.484
28739SOL    HW286468   4.794   2.075   1.436
28740SOL     OW86469  14.156   5.909   4.797
28740SOL    HW186470  14.211   5.939   4.870
28740SOL    HW286471  14.117   5.828   4.829
28741SOL     OW86472   6.176   7.899   2.168
28741SOL    HW186473   6.181   7.913   2.262
28741SOL    HW286474   6.247   7.839   2.148
28742SOL     OW86475   4.143   9.144   0.044
28742SOL    HW186476   9.457  14.539   7.602
28742SOL    HW286477   4.125   9.064   0.093
28743SOL     OW86478   6.052   8.518   3.553
28743SOL    HW186479   6.114   8.586   3.528
28743SOL    HW286480   6.083   8.489   3.639
28744SOL     OW86481  13.338  10.197   7.601
28744SOL    HW186482   7.994   4.772   0.060
28744SOL    HW286483  13.379  10.283   7.590
28745SOL     OW86484   8.797   5.421   5.961
28745SOL    HW186485   8.804   5.502   6.012
28745SOL    HW286486   8.826   5.446   5.873
28746SOL     OW86487   9.575  11.679   4.650
28746SOL    HW186488   9.669  11.661   4.641
28746SOL    HW286489   9.546  11.698   4.560
28747SOL     OW86490   8.615   8.165   4.995
28747SOL    HW186491   8.573   8.112   5.063
28747SOL    HW286492   8.551   8.169   4.925
28748SOL     OW86493   6.697   5.597   4.241
28748SOL    HW186494   6.612   5.569   4.207
28748SOL    HW286495   6.678   5.673   4.295
28749SOL     OW86496  12.476   6.176   7.205
28749SOL    HW186497  12.386   6.142   7.203
28749SOL    HW286498  12.516   6.134   7.282
28750SOL     OW86499  12.240   4.009   2.769
28750SOL    HW186500  12.220   3.948   2.839
28750SOL    HW286501  12.250   4.094   2.812
28751SOL     OW86502   8.493   9.099   2.609
28751SOL    HW186503   8.574   9.049   2.601
28751SOL    HW286504   8.449   9.087   2.525
28752SOL     OW86505   3.024   8.028   2.158
28752SOL    HW186506   3.117   8.026   2.133
28752SOL    HW286507   2.999   7.936   2.164
28753SOL     OW86508   6.228   5.898   2.359
28753SOL    HW186509   6.202   5.990   2.353
28753SOL    HW286510   6.320   5.897   2.331
28754SOL     OW86511   2.212   7.383   2.544
28754SOL    HW186512   2.199   7.467   2.588
28754SOL    HW286513   2.222   7.320   2.615
28755SOL     OW86514   3.851   5.704   2.537
28755SOL    HW186515   3.915   5.753   2.485
28755SOL    HW286516   3.843   5.754   2.618
28756SOL     OW86517  13.490  13.761   6.362
28756SOL    HW186518  13.459  13.673   6.384
28756SOL    HW286519  13.585  13.751   6.354
28757SOL     OW86520   4.492   3.946   1.994
28757SOL    HW186521   4.473   3.935   2.087
28757SOL    HW286522   4.428   4.011   1.964
28758SOL     OW86523   3.409  11.529   3.396
28758SOL    HW186524   3.406  11.609   3.344
28758SOL    HW286525   3.444  11.556   3.480
28759SOL     OW86526  13.294   8.754   5.667
28759SOL    HW186527  13.367   8.724   5.721
28759SOL    HW286528  13.247   8.816   5.723
28760SOL     OW86529  13.158   5.228   6.808
28760SOL    HW186530  13.200   5.242   6.723
28760SOL    HW286531  13.072   5.268   6.799
28761SOL     OW86532   6.251   8.920   1.772
28761SOL    HW186533   6.315   8.923   1.843
28761SOL    HW286534   6.292   8.864   1.706
28762SOL     OW86535  10.922  10.608   2.326
28762SOL    HW186536  10.852  10.573   2.382
28762SOL    HW286537  10.998  10.614   2.384
28763SOL     OW86538  10.141   9.588   4.499
28763SOL    HW186539  10.069   9.533   4.532
28763SOL    HW286540  10.150   9.563   4.407
28764SOL     OW86541   3.959  10.887   1.259
28764SOL    HW186542   4.052  10.897   1.241
28764SOL    HW286543   3.939  10.955   1.324
28765SOL     OW86544  13.750  14.175   5.454
28765SOL    HW186545  13.687  14.153   5.386
28765SOL    HW286546  13.829  14.202   5.406
28766SOL     OW86547   4.237   0.619   0.558
28766SOL    HW186548   4.238   0.702   0.605
28766SOL    HW286549   4.329   0.594   0.552
28767SOL     OW86550  11.573   8.182   4.020
28767SOL    HW186551  11.489   8.221   3.995
28767SOL    HW286552  11.567   8.171   4.114
28768SOL     OW86553  13.204   7.889   4.990
28768SOL    HW186554  13.251   7.909   5.070
28768SOL    HW286555  13.192   7.794   4.991
28769SOL     OW86556  13.011  11.435   4.648
28769SOL    HW186557  13.090  11.485   4.626
28769SOL    HW286558  12.960  11.435   4.567
28770SOL     OW86559   6.989   5.603   2.030
28770SOL    HW186560   7.007   5.694   2.004
28770SOL    HW286561   6.921   5.574   1.970
28771SOL     OW86562   1.578   7.449   1.621
28771SOL    HW186563   1.575   7.366   1.667
28771SOL    HW286564   1.563   7.515   1.689
28772SOL     OW86565  10.003  14.761   7.243
28772SOL    HW186566  10.097  14.765   7.223
28772SOL    HW286567   9.974  14.680   7.203
28773SOL     OW86568   9.519   8.807   2.150
28773SOL    HW186569   9.528   8.886   2.203
28773SOL    HW286570   9.510   8.840   2.060
28774SOL     OW86571  11.954  11.657   2.779
28774SOL    HW186572  12.043  11.660   2.745
28774SOL    HW286573  11.942  11.742   2.821
28775SOL     OW86574   8.783   7.701   5.580
28775SOL    HW186575   8.775   7.720   5.673
28775SOL    HW286576   8.708   7.646   5.560
28776SOL     OW86577   8.650  10.802   1.829
28776SOL    HW186578   8.647  10.749   1.909
28776SOL    HW286579   8.712  10.756   1.773
28777SOL     OW86580  10.814   1.296   0.146
28777SOL    HW186581  10.811   1.325   0.237
28777SOL    HW286582  10.750   1.225   0.142
28778SOL     OW86583   9.269   3.375   3.858
28778SOL    HW186584   9.308   3.449   3.904
28778SOL    HW286585   9.205   3.413   3.799
28779SOL     OW86586  12.814   5.658   6.870
28779SOL    HW186587  12.811   5.746   6.909
28779SOL    HW286588  12.795   5.673   6.777
28780SOL     OW86589   9.076  12.398   5.061
28780SOL    HW186590   9.137  12.472   5.063
28780SOL    HW286591   9.048  12.387   5.152
28781SOL     OW86592   4.699   7.766   2.350
28781SOL    HW186593   4.638   7.713   2.299
28781SOL    HW286594   4.675   7.749   2.441
28782SOL     OW86595   3.953   9.476   0.041
28782SOL    HW186596   9.262  14.873   7.605
28782SOL    HW286597   3.965   9.561   0.082
28783SOL     OW86598   2.016   1.701   2.107
28783SOL    HW186599   2.065   1.628   2.143
28783SOL    HW286600   1.924   1.676   2.117
28784SOL     OW86601   6.646   3.046   2.957
28784SOL    HW186602   6.683   3.003   2.880
28784SOL    HW286603   6.689   3.131   2.960
28785SOL     OW86604   3.338   6.252   2.983
28785SOL    HW186605   3.270   6.220   2.924
28785SOL    HW286606   3.318   6.212   3.068
28786SOL     OW86607   6.052   0.888   1.250
28786SOL    HW186608   6.028  11.631   1.337
28786SOL    HW286609   6.037   0.983   1.254
28787SOL     OW86610   8.140   7.855   1.578
28787SOL    HW186611   8.187   7.775   1.600
28787SOL    HW286612   8.133   7.903   1.661
28788SOL     OW86613  10.444   6.438   2.126
28788SOL    HW186614  10.451   6.400   2.038
28788SOL    HW286615  10.535   6.449   2.155
28789SOL     OW86616   9.974  13.316   6.572
28789SOL    HW186617   9.973  13.407   6.540
28789SOL    HW286618  10.061  13.305   6.611
28790SOL     OW86619   5.048  11.298   0.818
28790SOL    HW186620   5.140  11.316   0.796
28790SOL    HW286621   5.052  11.257   0.904
28791SOL     OW86622  11.884   2.307   2.024
28791SOL    HW186623  11.943   2.377   2.050
28791SOL    HW286624  11.933   2.226   2.039
28792SOL     OW86625   9.956   9.279   1.015
28792SOL    HW186626   9.899   9.206   1.041
28792SOL    HW286627  10.016   9.290   1.088
28793SOL     OW86628  14.436  14.710   7.162
28793SOL    HW186629  14.455  14.800   7.188
28793SOL    HW286630  14.482  14.656   7.227
28794SOL     OW86631  13.092  12.112   6.355
28794SOL    HW186632  13.123  12.189   6.306
28794SOL    HW286633  13.011  12.087   6.312
28795SOL     OW86634   6.269   7.511   4.329
28795SOL    HW186635   6.295   7.422   4.353
28795SOL    HW286636   6.300   7.565   4.402
28796SOL     OW86637   1.952   5.776   2.021
28796SOL    HW186638   2.007   5.706   1.987
28796SOL    HW286639   1.870   5.767   1.972
28797SOL     OW86640   7.033   6.119   7.449
28797SOL    HW186641   7.060   6.176   7.521
28797SOL    HW286642   7.100   6.051   7.447
28798SOL     OW86643   7.401  14.171   5.068
28798SOL    HW186644   7.373  14.111   4.999
28798SOL    HW286645   7.322  14.222   5.088
28799SOL     OW86646  12.583  14.177   4.851
28799SOL    HW186647  12.619  14.088   4.855
28799SOL    HW286648  12.571   3.420   4.758
28800SOL     OW86649   8.643   2.049   1.642
28800SOL    HW186650   8.642   2.138   1.678
28800SOL    HW286651   8.646   1.992   1.719
28801SOL     OW86652   6.688  13.300   6.706
28801SOL    HW186653   6.759  13.256   6.753
28801SOL    HW286654   6.727  13.383   6.679
28802SOL     OW86655  12.668   5.916   5.774
28802SOL    HW186656  12.633   5.908   5.685
28802SOL    HW286657  12.658   5.828   5.811
28803SOL     OW86658  11.297   3.345   2.018
28803SOL    HW186659  11.280   3.436   1.995
28803SOL    HW286660  11.346   3.349   2.100
28804SOL     OW86661   8.163   3.276   3.972
28804SOL    HW186662   8.208   3.212   3.917
28804SOL    HW286663   8.227   3.347   3.983
28805SOL     OW86664   3.976  12.365   2.809
28805SOL    HW186665   3.915  12.439   2.799
28805SOL    HW286666   4.036  12.393   2.878
28806SOL     OW86667   5.658  11.441   5.840
28806SOL    HW186668   5.719  11.383   5.794
28806SOL    HW286669   5.679  11.430   5.932
28807SOL     OW86670   8.235  12.587   6.626
28807SOL    HW186671   8.312  12.571   6.572
28807SOL    HW286672   8.261  12.660   6.683
28808SOL     OW86673   2.974   8.542   3.496
28808SOL    HW186674   2.964   8.451   3.523
28808SOL    HW286675   2.947   8.593   3.573
28809SOL     OW86676  14.350   8.299   5.081
28809SOL    HW186677  14.262   8.335   5.091
28809SOL    HW286678   3.579   8.266   4.991
28810SOL     OW86679   8.614  10.511   6.699
28810SOL    HW186680   8.701  10.501   6.661
28810SOL    HW286681   8.564  10.561   6.634
28811SOL     OW86682  14.356   5.001   6.494
28811SOL    HW186683  14.439   4.992   6.448
28811SOL    HW286684  14.362   4.939   6.567
28812SOL     OW86685   3.316  10.851   2.847
28812SOL    HW186686   3.271  10.881   2.768
28812SOL    HW286687   3.246  10.839   2.911
28813SOL     OW86688   8.718  10.645   5.882
28813SOL    HW186689   8.793  10.694   5.917
28813SOL    HW286690   8.647  10.662   5.945
28814SOL     OW86691   5.279   6.167   3.710
28814SOL    HW186692   5.283   6.080   3.751
28814SOL    HW286693   5.317   6.154   3.623
28815SOL     OW86694   5.142   9.429   2.142
28815SOL    HW186695   5.090   9.349   2.134
28815SOL    HW286696   5.231   9.401   2.121
28816SOL     OW86697  13.614   6.912   6.743
28816SOL    HW186698  13.534   6.907   6.692
28816SOL    HW286699  13.647   6.822   6.745
28817SOL     OW86700  14.722   7.623   6.272
28817SOL    HW186701  14.639   7.606   6.316
28817SOL    HW286702  14.698   7.648   6.182
28818SOL     OW86703   6.369  14.235   6.020
28818SOL    HW186704   6.371  14.141   6.041
28818SOL    HW286705   6.277  14.260   6.032
28819SOL     OW86706   3.239   6.495   3.553
28819SOL    HW186707   3.328   6.477   3.583
28819SOL    HW286708   3.231   6.448   3.470
28820SOL     OW86709   5.836   6.531   1.713
28820SOL    HW186710   5.866   6.523   1.622
28820SOL    HW286711   5.912   6.507   1.765
28821SOL     OW86712   9.719   3.623   1.459
28821SOL    HW186713   9.809   3.656   1.467
28821SOL    HW286714   9.696   3.640   1.368
28822SOL     OW86715   5.961   5.498   1.803
28822SOL    HW186716   5.985   5.526   1.715
28822SOL    HW286717   5.999   5.564   1.861
28823SOL     OW86718   4.234   4.411   5.681
28823SOL    HW186719   4.247   4.368   5.597
28823SOL    HW286720   4.139   4.417   5.691
28824SOL     OW86721   9.590  12.937   3.398
28824SOL    HW186722   9.510  12.963   3.444
28824SOL    HW286723   9.618  12.856   3.441
28825SOL     OW86724   9.757   8.864   0.554
28825SOL    HW186725   9.797   8.922   0.490
28825SOL    HW286726   9.683   8.913   0.588
28826SOL     OW86727   6.511   9.673   4.330
28826SOL    HW186728   6.510   9.768   4.322
28826SOL    HW286729   6.578   9.644   4.268
28827SOL     OW86730   7.083   7.708   5.343
28827SOL    HW186731   7.153   7.763   5.378
28827SOL    HW286732   7.003   7.743   5.381
28828SOL     OW86733   4.227   2.217   2.909
28828SOL    HW186734   4.256   2.126   2.917
28828SOL    HW286735   4.223   2.232   2.814
28829SOL     OW86736  11.774  10.879   5.285
28829SOL    HW186737  11.729  10.795   5.285
28829SOL    HW286738  11.865  10.857   5.265
28830SOL     OW86739   4.245  12.036   1.935
28830SOL    HW186740   4.159  11.994   1.942
28830SOL    HW286741   4.235   1.323   1.862
28831SOL     OW86742   7.269  10.234   1.675
28831SOL    HW186743   7.217  10.238   1.595
28831SOL    HW286744   7.356  10.263   1.649
28832SOL     OW86745   4.754   8.948   3.058
28832SOL    HW186746   4.847   8.925   3.064
28832SOL    HW286747   4.752   9.030   3.010
28833SOL     OW86748   2.718   6.059   3.719
28833SOL    HW186749   2.770   6.114   3.661
28833SOL    HW286750   2.730   6.098   3.806
28834SOL     OW86751  12.887   7.905   5.633
28834SOL    HW186752  12.908   7.864   5.717
28834SOL    HW286753  12.867   7.996   5.655
28835SOL     OW86754   4.704   8.838   0.173
28835SOL    HW186755   4.776   8.850   0.235
28835SOL    HW286756   4.626   8.861   0.223
28836SOL     OW86757   8.963  13.779   7.179
28836SOL    HW186758   9.022  13.766   7.105
28836SOL    HW286759   8.940  13.872   7.176
28837SOL     OW86760   5.453   5.436   0.133
28837SOL    HW186761   5.416   5.490   0.063
28837SOL    HW286762   5.436   5.485   0.213
28838SOL     OW86763   5.531   8.021   2.023
28838SOL    HW186764   5.576   8.045   1.942
28838SOL    HW286765   5.585   8.058   2.093
28839SOL     OW86766   7.557   9.113   1.207
28839SOL    HW186767   7.480   9.159   1.242
28839SOL    HW286768   7.627   9.178   1.212
28840SOL     OW86769  10.087  11.040   4.019
28840SOL    HW186770  10.008  11.029   4.072
28840SOL    HW286771  10.159  11.013   4.076
28841SOL     OW86772  11.038  11.860   2.767
28841SOL    HW186773  10.962  11.818   2.806
28841SOL    HW286774  11.008  11.948   2.744
28842SOL     OW86775  10.973  15.314   7.049
28842SOL    HW186776  10.961  15.409   7.051
28842SOL    HW286777  10.987  15.294   6.957
28843SOL     OW86778   5.868   4.351   0.974
28843SOL    HW186779   5.957   4.379   0.955
28843SOL    HW286780   5.815   4.396   0.908
28844SOL     OW86781  11.231   5.165   6.132
28844SOL    HW186782  11.245   5.155   6.038
28844SOL    HW286783  11.310   5.129   6.172
28845SOL     OW86784  16.024   8.286   7.430
28845SOL    HW186785   5.331   8.276   7.380
28845SOL    HW286786  16.041   8.240   7.512
28846SOL     OW86787   4.297   8.234   0.359
28846SOL    HW186788   4.343   8.166   0.408
28846SOL    HW286789   4.297   8.310   0.418
28847SOL     OW86790   6.857   7.874   1.204
28847SOL    HW186791   6.904   7.887   1.286
28847SOL    HW286792   6.878   7.952   1.152
28848SOL     OW86793   8.503   8.407   2.574
28848SOL    HW186794   8.541   8.346   2.637
28848SOL    HW286795   8.449   8.352   2.518
28849SOL     OW86796   9.265  12.980   5.458
28849SOL    HW186797   9.197  12.929   5.415
28849SOL    HW286798   9.284  12.931   5.539
28850SOL     OW86799   5.462  13.024   5.690
28850SOL    HW186800   5.502  13.007   5.604
28850SOL    HW286801   5.462  12.939   5.734
28851SOL     OW86802   1.542  11.998   1.749
28851SOL    HW186803   1.560  11.941   1.824
28851SOL    HW286804   1.485  11.946   1.693
28852SOL     OW86805   9.209   7.825   5.364
28852SOL    HW186806   9.261   7.906   5.357
28852SOL    HW286807   9.273   7.759   5.390
28853SOL     OW86808   2.996   2.369   1.631
28853SOL    HW186809   2.994   2.381   1.536
28853SOL    HW286810   2.906   2.385   1.659
28854SOL     OW86811   9.832  13.338   4.145
28854SOL    HW186812   9.894  13.341   4.073
28854SOL    HW286813   9.866  13.270   4.203
28855SOL     OW86814  10.629  14.109   6.686
28855SOL    HW186815  10.618  14.075   6.596
28855SOL    HW286816  10.549  14.158   6.703
28856SOL     OW86817  12.987  10.487   6.278
28856SOL    HW186818  13.053  10.525   6.220
28856SOL    HW286819  12.955  10.410   6.230
28857SOL     OW86820   4.774   5.836   1.014
28857SOL    HW186821   4.767   5.897   1.087
28857SOL    HW286822   4.701   5.775   1.026
28858SOL     OW86823   9.018  11.266   0.992
28858SOL    HW186824   9.101  11.294   1.031
28858SOL    HW286825   9.042  11.199   0.928
28859SOL     OW86826  13.866   8.977   7.313
28859SOL    HW186827  13.841   8.922   7.239
28859SOL    HW286828  13.929   9.039   7.276
28860SOL     OW86829   5.619  10.742   0.865
28860SOL    HW186830   5.535  10.725   0.908
28860SOL    HW286831   5.597  10.796   0.789
28861SOL     OW86832  11.937   5.801   4.958
28861SOL    HW186833  12.008   5.746   4.991
28861SOL    HW286834  11.953   5.806   4.863
28862SOL     OW86835   3.814   6.018   5.114
28862SOL    HW186836   3.725   5.987   5.100
28862SOL    HW286837   3.825   6.089   5.050
28863SOL     OW86838   6.336   2.361   2.574
28863SOL    HW186839   6.428   2.338   2.587
28863SOL    HW286840   6.333   2.455   2.591
28864SOL     OW86841   9.852  11.317   7.610
28864SOL    HW186842   4.466   5.947   0.085
28864SOL    HW286843   9.785  11.374   7.575
28865SOL     OW86844  10.519   4.029   1.066
28865SOL    HW186845  10.593   4.080   1.100
28865SOL    HW286846  10.543   3.938   1.086
28866SOL     OW86847   9.981  12.802   4.423
28866SOL    HW186848  10.076  12.796   4.433
28866SOL    HW286849   9.966  12.785   4.330
28867SOL     OW86850  12.184   3.472   2.666
28867SOL    HW186851  12.106   3.525   2.656
28867SOL    HW286852  12.257   3.533   2.653
28868SOL     OW86853   7.911  12.523   2.978
28868SOL    HW186854   7.898  12.588   2.910
28868SOL    HW286855   7.828  12.476   2.983
28869SOL     OW86856   5.412  14.416   7.004
28869SOL    HW186857   5.331  14.442   7.048
28869SOL    HW286858   5.448  14.497   6.968
28870SOL     OW86859   3.077   6.466   3.121
28870SOL    HW186860   2.988   6.500   3.117
28870SOL    HW286861   3.082   6.402   3.050
28871SOL     OW86862   0.182   5.611   0.055
28871SOL    HW186863   5.618  10.967   7.597
28871SOL    HW286864   0.155   5.700   0.031
28872SOL     OW86865   4.732  11.477   6.498
28872SOL    HW186866   4.689  11.494   6.581
28872SOL    HW286867   4.663  11.485   6.432
28873SOL     OW86868   4.660   5.588   4.659
28873SOL    HW186869   4.702   5.541   4.587
28873SOL    HW286870   4.732   5.613   4.716
28874SOL     OW86871   4.508   7.006   2.573
28874SOL    HW186872   4.601   7.027   2.572
28874SOL    HW286873   4.487   6.983   2.483
28875SOL     OW86874  10.587  10.873   4.334
28875SOL    HW186875  10.513  10.822   4.301
28875SOL    HW286876  10.565  10.891   4.425
28876SOL     OW86877   2.549   6.205   2.096
28876SOL    HW186878   2.601   6.141   2.047
28876SOL    HW286879   2.601   6.285   2.094
28877SOL     OW86880   4.607   8.699   5.426
28877SOL    HW186881   4.667   8.767   5.456
28877SOL    HW286882   4.639   8.675   5.339
28878SOL     OW86883   1.828  12.100   2.483
28878SOL    HW186884   1.917  12.125   2.508
28878SOL    HW286885   1.837  12.012   2.446
28879SOL     OW86886   9.430  13.289   7.069
28879SOL    HW186887   9.514  13.282   7.114
28879SOL    HW286888   9.377  13.346   7.124
28880SOL     OW86889   4.945  12.607   5.867
28880SOL    HW186890   4.880  12.649   5.924
28880SOL    HW286891   4.954  12.666   5.793
28881SOL     OW86892   8.367   4.437   3.965
28881SOL    HW186893   8.387   4.354   3.921
28881SOL    HW286894   8.283   4.422   4.007
28882SOL     OW86895   5.467   5.661   7.008
28882SOL    HW186896   5.524   5.648   7.083
28882SOL    HW286897   5.429   5.748   7.021
28883SOL     OW86898   5.830   1.737   1.328
28883SOL    HW186899   5.742   1.760   1.358
28883SOL    HW286900   5.823   1.645   1.303
28884SOL     OW86901   8.232   6.083   6.113
28884SOL    HW186902   8.184   6.159   6.146
28884SOL    HW286903   8.171   6.010   6.123
28885SOL     OW86904  13.133  14.289   6.889
28885SOL    HW186905  13.197  14.356   6.868
28885SOL    HW286906  13.175  14.236   6.957
28886SOL     OW86907  15.287   9.960   6.454
28886SOL    HW186908  15.246  10.038   6.493
28886SOL    HW286909  15.235   9.943   6.376
28887SOL     OW86910  12.841   2.212   3.098
28887SOL    HW186911  12.813   2.159   3.024
28887SOL    HW286912  12.811  12.938   3.175
28888SOL     OW86913  11.380   5.575   6.147
28888SOL    HW186914  11.457   5.529   6.179
28888SOL    HW286915  11.347   5.623   6.223
28889SOL     OW86916   3.355  13.101   4.064
28889SOL    HW186917   3.405  13.104   4.146
28889SOL    HW286918   3.380  13.018   4.024
28890SOL     OW86919   5.780   4.347   5.964
28890SOL    HW186920   5.864   4.372   5.924
28890SOL    HW286921   5.725   4.425   5.953
28891SOL     OW86922   3.621   8.723   4.122
28891SOL    HW186923   3.572   8.730   4.040
28891SOL    HW286924   3.589   8.642   4.162
28892SOL     OW86925   8.220   7.056   3.848
28892SOL    HW186926   8.154   6.996   3.883
28892SOL    HW286927   8.266   7.006   3.781
28893SOL     OW86928   6.991  11.022   1.142
28893SOL    HW186929   7.022  10.968   1.216
28893SOL    HW286930   6.924  10.968   1.100
28894SOL     OW86931   9.403   4.778   6.250
28894SOL    HW186932   9.468   4.728   6.200
28894SOL    HW286933   9.443   4.863   6.263
28895SOL     OW86934   5.193   3.961   1.196
28895SOL    HW186935   5.224   3.880   1.236
28895SOL    HW286936   5.175   3.938   1.105
28896SOL     OW86937   3.834  11.068   1.458
28896SOL    HW186938   3.827  11.137   1.524
28896SOL    HW286939   3.751  11.073   1.410
28897SOL     OW86940   7.818   9.191   2.788
28897SOL    HW186941   7.816   9.272   2.840
28897SOL    HW286942   7.753   9.206   2.719
28898SOL     OW86943   6.936   5.028   3.182
28898SOL    HW186944   6.849   4.990   3.191
28898SOL    HW286945   6.921   5.120   3.162
28899SOL     OW86946   0.753   8.102   0.681
28899SOL    HW186947   0.783   8.171   0.621
28899SOL    HW286948   0.824   8.038   0.681
28900SOL     OW86949   7.445  12.187   4.972
28900SOL    HW186950   7.531  12.220   4.947
28900SOL    HW286951   7.423  12.235   5.051
28901SOL     OW86952   5.414   7.495   0.967
28901SOL    HW186953   5.499   7.506   0.924
28901SOL    HW286954   5.432   7.509   1.060
28902SOL     OW86955   3.265   9.886   2.550
28902SOL    HW186956   3.287   9.796   2.527
28902SOL    HW286957   3.347   9.934   2.538
28903SOL     OW86958   2.391  11.964   1.718
28903SOL    HW186959   2.479  11.951   1.684
28903SOL    HW286960   2.383   1.284   1.730
28904SOL     OW86961   2.314   5.331   0.817
28904SOL    HW186962   2.229   5.330   0.862
28904SOL    HW286963   2.378   5.346   0.886
28905SOL     OW86964   8.405  10.197   7.419
28905SOL    HW186965   8.392  10.103   7.427
28905SOL    HW286966   8.346  10.224   7.349
28906SOL     OW86967   8.676  10.524   4.145
28906SOL    HW186968   8.695  10.493   4.233
28906SOL    HW286969   8.725  10.605   4.137
28907SOL     OW86970  10.552  10.661   2.594
28907SOL    HW186971  10.612  10.621   2.656
28907SOL    HW286972  10.473  10.606   2.598
28908SOL     OW86973  12.079   7.970   2.819
28908SOL    HW186974  12.094   8.009   2.905
28908SOL    HW286975  11.984   7.974   2.807
28909SOL     OW86976   7.186   6.610   6.113
28909SOL    HW186977   7.183   6.533   6.170
28909SOL    HW286978   7.280   6.624   6.096
28910SOL     OW86979  13.414  12.722   3.886
28910SOL    HW186980  13.348  12.724   3.955
28910SOL    HW286981  13.433  12.629   3.873
28911SOL     OW86982   6.645   4.847   4.688
28911SOL    HW186983   6.718   4.797   4.725
28911SOL    HW286984   6.597   4.879   4.764
28912SOL     OW86985   3.918   3.939   1.633
28912SOL    HW186986   4.003   3.901   1.612
28912SOL    HW286987   3.889   3.979   1.552
28913SOL     OW86988   6.364   1.706   0.045
28913SOL    HW186989   6.341   1.793   0.013
28913SOL    HW286990   6.459   1.710   0.061
28914SOL     OW86991   5.597   3.224   1.751
28914SOL    HW186992   5.626   3.309   1.785
28914SOL    HW286993   5.534   3.192   1.815
28915SOL     OW86994   5.518   4.846   3.970
28915SOL    HW186995   5.506   4.848   4.065
28915SOL    HW286996   5.476   4.926   3.938
28916SOL     OW86997   6.918  13.002   7.104
28916SOL    HW186998   7.002  12.966   7.076
28916SOL    HW286999   6.873  12.929   7.145
28917SOL     OW87000   8.596   9.590   0.287
28917SOL    HW187001   8.686   9.622   0.290
28917SOL    HW287002   8.549   9.655   0.235
28918SOL     OW87003   5.807   8.795   0.930
28918SOL    HW187004   5.892   8.750   0.924
28918SOL    HW287005   5.742   8.724   0.923
28919SOL     OW87006   9.507   8.756   5.035
28919SOL    HW187007   9.558   8.802   4.969
28919SOL    HW287008   9.421   8.743   4.994
28920SOL     OW87009   9.649   4.407   5.527
28920SOL    HW187010   9.726   4.461   5.543
28920SOL    HW287011   9.578   4.454   5.570
28921SOL     OW87012  10.968   5.369   0.668
28921SOL    HW187013  10.956   5.293   0.611
28921SOL    HW287014  11.043   5.415   0.631
28922SOL     OW87015   7.045  11.848   4.041
28922SOL    HW187016   7.082  11.812   4.122
28922SOL    HW287017   6.988  11.779   4.007
28923SOL     OW87018  14.399   6.645   6.640
28923SOL    HW187019  14.307   6.672   6.634
28923SOL    HW287020  14.435   6.698   6.711
28924SOL     OW87021   9.838   6.261   4.718
28924SOL    HW187022   9.855   6.316   4.795
28924SOL    HW287023   9.848   6.171   4.750
28925SOL     OW87024   4.409   8.994   2.275
28925SOL    HW187025   4.344   8.977   2.342
28925SOL    HW287026   4.417   9.089   2.272
28926SOL     OW87027   5.371   3.752   1.513
28926SOL    HW187028   5.384   3.703   1.595
28926SOL    HW287029   5.286   3.794   1.523
28927SOL     OW87030   4.376   8.752   5.581
28927SOL    HW187031   4.341   8.817   5.521
28927SOL    HW287032   4.460   8.727   5.543
28928SOL     OW87033   7.580   5.182   1.200
28928SOL    HW187034   7.612   5.157   1.113
28928SOL    HW287035   7.648   5.239   1.235
28929SOL     OW87036   7.036  11.735   4.624
28929SOL    HW187037   6.943  11.735   4.645
28929SOL    HW287038   7.063  11.644   4.633
28930SOL     OW87039  11.085  11.184   3.167
28930SOL    HW187040  10.993  11.209   3.157
28930SOL    HW287041  11.097  11.111   3.106
28931SOL     OW87042   8.004   3.790   0.432
28931SOL    HW187043   8.078   3.836   0.472
28931SOL    HW287044   7.961   3.856   0.378
28932SOL     OW87045   9.395   6.254   0.273
28932SOL    HW187046   9.406   6.349   0.266
28932SOL    HW287047   9.323   6.243   0.335
28933SOL     OW87048  13.618  11.702   7.238
28933SOL    HW187049  13.560  11.638   7.197
28933SOL    HW287050  13.575  11.722   7.321
28934SOL     OW87051  13.169   9.682   4.151
28934SOL    HW187052  13.157   9.589   4.168
28934SOL    HW287053  13.255   9.702   4.187
28935SOL     OW87054   8.268   3.181   0.985
28935SOL    HW187055   8.346   3.135   0.957
28935SOL    HW287056   8.273   3.266   0.941
28936SOL     OW87057  10.512   6.078   1.934
28936SOL    HW187058  10.447   6.019   1.970
28936SOL    HW287059  10.473   6.110   1.852
28937SOL     OW87060   4.930   9.307   6.337
28937SOL    HW187061   5.024   9.292   6.334
28937SOL    HW287062   4.903   9.266   6.420
28938SOL     OW87063   6.768   6.942   7.452
28938SOL    HW187064   6.821   7.017   7.480
28938SOL    HW287065   6.732   6.968   7.367
28939SOL     OW87066   7.418   9.367   3.541
28939SOL    HW187067   7.418   9.448   3.593
28939SOL    HW287068   7.510   9.338   3.543
28940SOL     OW87069  10.702   7.642   6.034
28940SOL    HW187070  10.687   7.670   6.124
28940SOL    HW287071  10.685   7.547   6.035
28941SOL     OW87072   3.705  10.735   2.531
28941SOL    HW187073   3.679  10.812   2.582
28941SOL    HW287074   3.639  10.669   2.551
28942SOL     OW87075   8.624  10.267   0.679
28942SOL    HW187076   8.702  10.295   0.633
28942SOL    HW287077   8.563  10.242   0.610
28943SOL     OW87078  10.591   7.213   3.918
28943SOL    HW187079  10.512   7.267   3.917
28943SOL    HW287080  10.577   7.152   3.990
28944SOL     OW87081   5.166  14.193   6.070
28944SOL    HW187082   5.196  14.121   6.016
28944SOL    HW287083   5.114  14.248   6.011
28945SOL     OW87084   7.369   8.931   1.780
28945SOL    HW187085   7.421   8.932   1.861
28945SOL    HW287086   7.401   8.854   1.733
28946SOL     OW87087   6.737   7.087   6.382
28946SOL    HW187088   6.670   7.026   6.352
28946SOL    HW287089   6.701   7.127   6.461
28947SOL     OW87090   4.664   9.212   4.293
28947SOL    HW187091   4.727   9.154   4.252
28947SOL    HW287092   4.713   9.293   4.311
28948SOL     OW87093  10.281  10.488   5.979
28948SOL    HW187094  10.327  10.555   6.029
28948SOL    HW287095  10.331  10.480   5.898
28949SOL     OW87096   6.024   9.127   1.746
28949SOL    HW187097   6.074   9.052   1.715
28949SOL    HW287098   5.942   9.090   1.779
28950SOL     OW87099  11.903  11.736   5.244
28950SOL    HW187100  11.919  11.642   5.252
28950SOL    HW287101  11.875  11.748   5.153
28951SOL     OW87102   4.989   4.969   4.635
28951SOL    HW187103   5.003   4.881   4.670
28951SOL    HW287104   5.073   5.013   4.648
28952SOL     OW87105   4.869   8.667   6.783
28952SOL    HW187106   4.963   8.683   6.786
28952SOL    HW287107   4.857   8.587   6.834
28953SOL     OW87108   1.286   7.487   0.877
28953SOL    HW187109   1.217   7.421   0.870
28953SOL    HW287110   1.366   7.437   0.894
28954SOL     OW87111   8.424  10.244   0.483
28954SOL    HW187112   8.436  10.285   0.398
28954SOL    HW287113   8.335  10.208   0.480
28955SOL     OW87114  11.467  11.426   2.619
28955SOL    HW187115  11.399  11.477   2.661
28955SOL    HW287116  11.541  11.486   2.610
28956SOL     OW87117  10.706   2.551   0.335
28956SOL    HW187118  10.651   2.628   0.346
28956SOL    HW287119  10.788   2.573   0.380
28957SOL     OW87120   6.391  13.244   4.556
28957SOL    HW187121   6.305  13.208   4.536
28957SOL    HW287122   6.405  13.223   4.649
28958SOL     OW87123   7.431   2.657   3.756
28958SOL    HW187124   7.369   2.727   3.734
28958SOL    HW287125   7.504   2.669   3.694
28959SOL     OW87126   4.057   2.646   2.067
28959SOL    HW187127   4.131   2.705   2.074
28959SOL    HW287128   4.095   2.558   2.071
28960SOL     OW87129  11.301   7.042   4.917
28960SOL    HW187130  11.337   6.965   4.961
28960SOL    HW287131  11.371   7.108   4.922
28961SOL     OW87132  11.749   5.271   5.981
28961SOL    HW187133  11.730   5.296   5.890
28961SOL    HW287134  11.835   5.309   5.998
28962SOL     OW87135   9.544  12.367   4.590
28962SOL    HW187136   9.597  12.395   4.516
28962SOL    HW287137   9.604  12.371   4.665
28963SOL     OW87138  11.762  14.367   7.433
28963SOL    HW187139  11.716  14.367   7.516
28963SOL    HW287140  11.774  14.460   7.412
28964SOL     OW87141   6.997   8.071   2.401
28964SOL    HW187142   7.065   8.056   2.467
28964SOL    HW287143   6.915   8.055   2.448
28965SOL     OW87144   8.880  14.120   4.756
28965SOL    HW187145   8.919  14.054   4.813
28965SOL    HW287146   8.808  14.156   4.808
28966SOL     OW87147  11.288   7.722   7.322
28966SOL    HW187148  11.378   7.749   7.340
28966SOL    HW287149  11.247   7.799   7.284
28967SOL     OW87150  11.042   6.399   0.438
28967SOL    HW187151  11.006   6.471   0.386
28967SOL    HW287152  10.966   6.351   0.469
28968SOL     OW87153   7.301   9.160   6.738
28968SOL    HW187154   7.213   9.195   6.724
28968SOL    HW287155   7.334   9.209   6.814
28969SOL     OW87156   8.189  12.727   7.331
28969SOL    HW187157   8.154  12.785   7.399
28969SOL    HW287158   8.177  12.639   7.366
28970SOL     OW87159  14.004   7.879   6.131
28970SOL    HW187160  13.927   7.836   6.094
28970SOL    HW287161  14.074   7.814   6.122
28971SOL     OW87162   8.370  10.027   1.965
28971SOL    HW187163   8.299  10.017   2.028
28971SOL    HW287164   8.343  10.099   1.909
28972SOL     OW87165   3.496   5.689   1.698
28972SOL    HW187166   3.557   5.626   1.737
28972SOL    HW287167   3.444   5.722   1.772
28973SOL     OW87168   2.068   2.717   2.155
28973SOL    HW187169   2.027   2.664   2.223
28973SOL    HW287170   2.093   2.654   2.088
28974SOL     OW87171   3.812  10.150   1.164
28974SOL    HW187172   3.860  10.131   1.245
28974SOL    HW287173   3.861  10.105   1.095
28975SOL     OW87174   6.400   5.314   2.265
28975SOL    HW187175   6.348   5.342   2.190
28975SOL    HW287176   6.486   5.353   2.250
28976SOL     OW87177  11.240  10.979   4.777
28976SOL    HW187178  11.210  10.995   4.688
28976SOL    HW287179  11.162  10.951   4.824
28977SOL     OW87180   5.386  10.408   2.510
28977SOL    HW187181   5.313  10.408   2.448
28977SOL    HW287182   5.455  10.459   2.467
28978SOL     OW87183   9.705   5.023   6.589
28978SOL    HW187184   9.691   4.971   6.510
28978SOL    HW287185   9.771   4.974   6.638
28979SOL     OW87186   3.661  13.091   4.635
28979SOL    HW187187   3.687  13.177   4.601
28979SOL    HW287188   3.624  13.046   4.559
28980SOL     OW87189   6.683   5.287   1.281
28980SOL    HW187190   6.662   5.221   1.347
28980SOL    HW287191   6.748   5.245   1.224
28981SOL     OW87192  15.073  11.932   7.047
28981SOL    HW187193  15.119  11.923   6.964
28981SOL    HW287194  14.991  11.884   7.035
28982SOL     OW87195  13.945  13.231   5.761
28982SOL    HW187196  14.004  13.302   5.737
28982SOL    HW287197  13.998  13.152   5.751
28983SOL     OW87198   5.331   7.292   2.405
28983SOL    HW187199   5.306   7.379   2.436
28983SOL    HW287200   5.385   7.309   2.327
28984SOL     OW87201   4.453   2.713   0.717
28984SOL    HW187202   4.401   2.764   0.779
28984SOL    HW287203   4.442   2.759   0.633
28985SOL     OW87204   5.897   4.266   5.336
28985SOL    HW187205   5.928   4.241   5.249
28985SOL    HW287206   5.951   4.216   5.397
28986SOL     OW87207   3.556   7.623   4.854
28986SOL    HW187208   3.630   7.566   4.872
28986SOL    HW287209   3.593   7.696   4.805
28987SOL     OW87210   8.496   6.532   7.585
28987SOL    HW187211   8.558   6.467   7.551
28987SOL    HW287212   8.460   6.574   7.507
28988SOL     OW87213   2.141   9.600   1.244
28988SOL    HW187214   2.163   9.644   1.327
28988SOL    HW287215   2.200   9.524   1.242
28989SOL     OW87216   7.990  10.627   5.396
28989SOL    HW187217   7.905  10.636   5.438
28989SOL    HW287218   8.052  10.616   5.468
28990SOL     OW87219   1.315   0.924   0.473
28990SOL    HW187220   1.251   0.859   0.500
28990SOL    HW287221   1.396   0.897   0.516
28991SOL     OW87222   4.975   2.185   1.831
28991SOL    HW187223   4.891   2.160   1.869
28991SOL    HW287224   4.960   2.272   1.795
28992SOL     OW87225   7.244   0.428   0.005
28992SOL    HW187226  12.719   5.793   7.593
28992SOL    HW287227   7.248   0.413   0.100
28993SOL     OW87228   3.944   3.582   2.139
28993SOL    HW187229   3.923   3.580   2.045
28993SOL    HW287230   3.977   3.494   2.158
28994SOL     OW87231   8.374   3.816   4.224
28994SOL    HW187232   8.386   3.734   4.272
28994SOL    HW287233   8.460   3.857   4.223
28995SOL     OW87234   3.855   3.359   0.152
28995SOL    HW187235   3.940   3.403   0.153
28995SOL    HW287236   3.791   3.430   0.151
28996SOL     OW87237  10.748  11.195   3.919
28996SOL    HW187238  10.838  11.227   3.920
28996SOL    HW287239  10.755  11.104   3.888
28997SOL     OW87240   4.130  11.733   2.828
28997SOL    HW187241   4.045  11.720   2.870
28997SOL    HW287242   4.166  11.645   2.817
28998SOL     OW87243   0.442   9.435   0.391
28998SOL    HW187244   0.489   9.355   0.414
28998SOL    HW287245   0.505   9.486   0.340
28999SOL     OW87246   7.772   8.848   2.818
28999SOL    HW187247   7.865   8.851   2.797
28999SOL    HW287248   7.768   8.813   2.907
29000SOL     OW87249   6.988  10.832   4.653
29000SOL    HW187250   7.042  10.854   4.577
29000SOL    HW287251   6.990  10.736   4.658
29001SOL     OW87252   2.507   6.510   1.595
29001SOL    HW187253   2.495   6.539   1.685
29001SOL    HW287254   2.434   6.451   1.579
29002SOL     OW87255   1.045   1.944   1.201
29002SOL    HW187256   1.037   1.961   1.107
29002SOL    HW287257   1.060   2.031   1.240
29003SOL     OW87258   6.373  14.932   6.421
29003SOL    HW187259   6.357  14.843   6.452
29003SOL    HW287260   6.453  14.960   6.467
29004SOL     OW87261   7.497   7.482   1.846
29004SOL    HW187262   7.432   7.485   1.775
29004SOL    HW287263   7.541   7.398   1.834
29005SOL     OW87264  13.308   3.687   5.042
29005SOL    HW187265  13.380   3.638   5.003
29005SOL    HW287266  13.233   3.628   5.037
29006SOL     OW87267  10.722   5.938   2.525
29006SOL    HW187268  10.688   6.003   2.464
29006SOL    HW287269  10.801   5.977   2.561
29007SOL     OW87270  15.387  11.940   7.078
29007SOL    HW187271  15.296  11.917   7.096
29007SOL    HW287272  15.424  11.961   7.163
29008SOL     OW87273   5.329  13.420   6.223
29008SOL    HW187274   5.280  13.477   6.281
29008SOL    HW287275   5.282  13.424   6.140
29009SOL     OW87276   3.803   9.448   2.604
29009SOL    HW187277   3.820   9.430   2.512
29009SOL    HW287278   3.708   9.441   2.612
29010SOL     OW87279   7.999  10.184   3.678
29010SOL    HW187280   8.012  10.090   3.691
29010SOL    HW287281   7.905  10.197   3.686
29011SOL     OW87282   5.315   8.687   1.120
29011SOL    HW187283   5.321   8.719   1.211
29011SOL    HW287284   5.226   8.707   1.093
29012SOL     OW87285   7.850   8.891   3.808
29012SOL    HW187286   7.811   8.839   3.878
29012SOL    HW287287   7.787   8.962   3.793
29013SOL     OW87288   4.313   8.798   4.255
29013SOL    HW187289   4.392   8.791   4.201
29013SOL    HW287290   4.273   8.880   4.227
29014SOL     OW87291   6.616   5.626   6.982
29014SOL    HW187292   6.546   5.594   6.926
29014SOL    HW287293   6.676   5.551   6.991
29015SOL     OW87294  10.462   6.955   2.817
29015SOL    HW187295  10.498   7.032   2.772
29015SOL    HW287296  10.386   6.989   2.864
29016SOL     OW87297  11.433   5.310   2.651
29016SOL    HW187298  11.516   5.322   2.698
29016SOL    HW287299  11.419   5.215   2.651
29017SOL     OW87300   8.111   6.595   2.957
29017SOL    HW187301   8.135   6.608   2.865
29017SOL    HW287302   8.070   6.677   2.983
29018SOL     OW87303   5.530   7.282   5.722
29018SOL    HW187304   5.590   7.327   5.662
29018SOL    HW287305   5.482   7.352   5.765
29019SOL     OW87306  12.657  12.436   2.993
29019SOL    HW187307  12.671  12.368   3.059
29019SOL    HW287308  12.568  12.468   3.010
29020SOL     OW87309   5.372   9.575   2.542
29020SOL    HW187310   5.323   9.501   2.507
29020SOL    HW287311   5.359   9.645   2.478
29021SOL     OW87312   7.470   7.524   1.533
29021SOL    HW187313   7.531   7.561   1.596
29021SOL    HW287314   7.523   7.464   1.480
29022SOL     OW87315   3.078   6.966   3.796
29022SOL    HW187316   2.987   6.967   3.768
29022SOL    HW287317   3.078   7.006   3.883
29023SOL     OW87318   3.902   7.306   3.050
29023SOL    HW187319   3.931   7.219   3.024
29023SOL    HW287320   3.829   7.290   3.110
29024SOL     OW87321   9.564   8.636   6.216
29024SOL    HW187322   9.615   8.649   6.296
29024SOL    HW287323   9.543   8.724   6.186
29025SOL     OW87324   3.011   7.966   1.075
29025SOL    HW187325   2.988   7.874   1.088
29025SOL    HW287326   3.028   7.974   0.981
29026SOL     OW87327  11.387  11.505   1.319
29026SOL    HW187328  11.356  11.596   1.323
29026SOL    HW287329  11.330  11.463   1.255
29027SOL     OW87330   6.353   3.005   0.172
29027SOL    HW187331   6.273   2.957   0.190
29027SOL    HW287332   6.342   3.089   0.217
29028SOL     OW87333   4.855   4.320   1.035
29028SOL    HW187334   4.923   4.345   1.098
29028SOL    HW287335   4.902   4.301   0.954
29029SOL     OW87336   4.069   2.841   2.730
29029SOL    HW187337   4.013   2.869   2.802
29029SOL    HW287338   4.102   2.756   2.757
29030SOL     OW87339  11.704  13.544   6.085
29030SOL    HW187340  11.710  13.507   6.173
29030SOL    HW287341  11.791  13.580   6.068
29031SOL     OW87342   7.913   6.731   6.836
29031SOL    HW187343   7.870   6.654   6.871
29031SOL    HW287344   7.964   6.766   6.910
29032SOL     OW87345   3.334   9.842   0.181
29032SOL    HW187346   3.288   9.785   0.242
29032SOL    HW287347   3.289   9.830   0.097
29033SOL     OW87348  12.634  14.265   6.519
29033SOL    HW187349  12.657  14.195   6.457
29033SOL    HW287350  12.678  14.342   6.484
29034SOL     OW87351   9.917  10.597   7.288
29034SOL    HW187352   9.901  10.591   7.382
29034SOL    HW287353   9.965  10.679   7.277
29035SOL     OW87354   0.336   5.303   0.203
29035SOL    HW187355   0.289   5.386   0.217
29035SOL    HW287356   0.291   5.261   0.130
29036SOL     OW87357   6.427   2.640   2.120
29036SOL    HW187358   6.508   2.638   2.069
29036SOL    HW287359   6.362   2.677   2.061
29037SOL     OW87360  10.641   9.039   4.247
29037SOL    HW187361  10.655   9.110   4.309
29037SOL    HW287362  10.718   9.041   4.190
29038SOL     OW87363   5.043  10.001   6.662
29038SOL    HW187364   5.045   9.913   6.699
29038SOL    HW287365   4.949  10.020   6.651
29039SOL     OW87366   3.019   2.388   2.624
29039SOL    HW187367   3.006   2.329   2.550
29039SOL    HW287368   2.941   2.443   2.626
29040SOL     OW87369   8.235   3.841   3.892
29040SOL    HW187370   8.283   3.833   3.810
29040SOL    HW287371   8.148   3.807   3.872
29041SOL     OW87372   7.734   9.303   7.388
29041SOL    HW187373   7.775   9.230   7.433
29041SOL    HW287374   7.782   9.380   7.418
29042SOL     OW87375  11.128   8.151   3.448
29042SOL    HW187376  11.103   8.098   3.373
29042SOL    HW287377  11.045   8.168   3.494
29043SOL     OW87378  10.713   5.397   6.558
29043SOL    HW187379  10.647   5.464   6.540
29043SOL    HW287380  10.680   5.318   6.515
29044SOL     OW87381   5.304   3.373   4.203
29044SOL    HW187382   5.239   3.337   4.143
29044SOL    HW287383   5.296   3.318   4.282
29045SOL     OW87384   9.462   4.778   3.576
29045SOL    HW187385   9.455   4.705   3.638
29045SOL    HW287386   9.543   4.759   3.527
29046SOL     OW87387  11.110   6.990   3.766
29046SOL    HW187388  11.083   6.905   3.799
29046SOL    HW287389  11.194   7.007   3.809
29047SOL     OW87390   5.786  12.404   7.571
29047SOL    HW187391   0.402   6.945   0.014
29047SOL    HW287392   5.869  12.449   7.581
29048SOL     OW87393   3.807  10.552   4.301
29048SOL    HW187394   3.718  10.564   4.335
29048SOL    HW287395   3.826  10.633   4.254
29049SOL     OW87396   9.956  11.685   2.548
29049SOL    HW187397   9.894  11.723   2.610
29049SOL    HW287398   9.920  11.598   2.529
29050SOL     OW87399  10.639  10.207   1.398
29050SOL    HW187400  10.554  10.190   1.358
29050SOL    HW287401  10.630  10.293   1.439
29051SOL     OW87402   5.397   7.269   0.692
29051SOL    HW187403   5.484   7.269   0.732
29051SOL    HW287404   5.349   7.336   0.739
29052SOL     OW87405   8.343  11.223   3.934
29052SOL    HW187406   8.337  11.313   3.902
29052SOL    HW287407   8.315  11.170   3.859
29053SOL     OW87408   7.322   8.292   0.396
29053SOL    HW187409   7.386   8.338   0.342
29053SOL    HW287410   7.254   8.357   0.412
29054SOL     OW87411   5.392   5.725   1.003
29054SOL    HW187412   5.356   5.728   0.915
29054SOL    HW287413   5.483   5.753   0.994
29055SOL     OW87414   4.535   2.417   2.712
29055SOL    HW187415   4.506   2.418   2.621
29055SOL    HW287416   4.581   2.333   2.721
29056SOL     OW87417   3.357   8.764   2.544
29056SOL    HW187418   3.376   8.708   2.469
29056SOL    HW287419   3.443   8.787   2.579
29057SOL     OW87420   8.434   4.480   6.274
29057SOL    HW187421   8.404   4.515   6.358
29057SOL    HW287422   8.529   4.476   6.282
29058SOL     OW87423   1.203   1.673   0.967
29058SOL    HW187424   1.255   1.593   0.980
29058SOL    HW287425   1.195   1.711   1.055
29059SOL     OW87426   1.106   3.338   0.565
29059SOL    HW187427   1.065   3.420   0.591
29059SOL    HW287428   1.074   3.322   0.476
29060SOL     OW87429   9.120   3.103   1.598
29060SOL    HW187430   9.164   3.120   1.515
29060SOL    HW287431   9.185   3.055   1.649
29061SOL     OW87432  10.431   4.750   2.859
29061SOL    HW187433  10.470   4.682   2.804
29061SOL    HW287434  10.454   4.725   2.949
29062SOL     OW87435  11.172   3.822   1.897
29062SOL    HW187436  11.180   3.741   1.847
29062SOL    HW287437  11.083   3.820   1.931
29063SOL     OW87438   2.150   2.874   0.018
29063SOL    HW187439   2.241   2.896   0.002
29063SOL    HW287440   2.136   2.893   0.111
29064SOL     OW87441  11.206   7.216   0.721
29064SOL    HW187442   0.503   7.179   0.669
29064SOL    HW287443  11.159   7.140   0.755
29065SOL     OW87444   5.979   2.454   3.389
29065SOL    HW187445   6.044   2.433   3.322
29065SOL    HW287446   5.946  13.143   3.418
29066SOL     OW87447  10.302   7.246   6.496
29066SOL    HW187448  10.272   7.179   6.557
29066SOL    HW287449  10.351   7.197   6.429
29067SOL     OW87450  13.900  11.182   4.649
29067SOL    HW187451  13.923  11.273   4.669
29067SOL    HW287452  13.847  11.189   4.569
29068SOL     OW87453  11.541   4.174   5.517
29068SOL    HW187454  11.548   4.080   5.500
29068SOL    HW287455  11.521   4.212   5.432
29069SOL     OW87456   6.330   7.231   1.991
29069SOL    HW187457   6.391   7.209   2.061
29069SOL    HW287458   6.248   7.251   2.036
29070SOL     OW87459   9.136   6.312   2.769
29070SOL    HW187460   9.114   6.294   2.678
29070SOL    HW287461   9.083   6.388   2.792
29071SOL     OW87462   4.489   6.064   1.402
29071SOL    HW187463   4.398   6.046   1.379
29071SOL    HW287464   4.507   6.006   1.477
29072SOL     OW87465   8.993   5.101   6.829
29072SOL    HW187466   9.082   5.110   6.797
29072SOL    HW287467   9.003   5.082   6.922
29073SOL     OW87468   1.788  11.297   1.332
29073SOL    HW187469   1.836  11.350   1.396
29073SOL    HW287470   1.801  11.207   1.361
29074SOL     OW87471  10.678   8.875   7.056
29074SOL    HW187472  10.697   8.783   7.078
29074SOL    HW287473  10.607   8.870   6.992
29075SOL     OW87474  11.481   2.902   1.453
29075SOL    HW187475  11.495   2.917   1.359
29075SOL    HW287476  11.476   2.990   1.490
29076SOL     OW87477   5.824   1.088   1.018
29076SOL    HW187478   5.892   1.021   1.011
29076SOL    HW287479   5.753   1.057   0.962
29077SOL     OW87480   9.131   4.400   1.910
29077SOL    HW187481   9.040   4.419   1.887
29077SOL    HW287482   9.146   4.311   1.878
29078SOL     OW87483   4.237   5.581   3.468
29078SOL    HW187484   4.202   5.558   3.554
29078SOL    HW287485   4.203   5.669   3.451
29079SOL     OW87486  11.641   7.132   3.157
29079SOL    HW187487  11.675   7.117   3.068
29079SOL    HW287488  11.609   7.222   3.156
29080SOL     OW87489  10.360   3.189   3.859
29080SOL    HW187490  10.275   3.222   3.889
29080SOL    HW287491  10.423   3.223   3.922
29081SOL     OW87492   9.287   7.097   5.644
29081SOL    HW187493   9.304   7.115   5.552
29081SOL    HW287494   9.195   7.117   5.657
29082SOL     OW87495   7.374   9.492   6.989
29082SOL    HW187496   7.421   9.519   6.911
29082SOL    HW287497   7.402   9.402   7.005
29083SOL     OW87498   3.488   9.235   0.007
29083SOL    HW187499   8.960  14.622   7.583
29083SOL    HW287500   3.505   9.269   0.095
29084SOL     OW87501   9.410   4.858   1.139
29084SOL    HW187502   9.477   4.820   1.082
29084SOL    HW287503   9.335   4.800   1.129
29085SOL     OW87504   6.629  14.505   7.329
29085SOL    HW187505   6.671  14.472   7.250
29085SOL    HW287506   6.537  14.479   7.321
29086SOL     OW87507   8.305   0.761   0.350
29086SOL    HW187508   8.225   0.770   0.401
29086SOL    HW287509   8.341   0.850   0.346
29087SOL     OW87510  11.223  12.549   5.458
29087SOL    HW187511  11.292  12.541   5.524
29087SOL    HW287512  11.244  12.628   5.409
29088SOL     OW87513  11.320   3.890   5.159
29088SOL    HW187514  11.336   3.796   5.153
29088SOL    HW287515  11.283   3.913   5.073
29089SOL     OW87516  11.117   5.726   6.595
29089SOL    HW187517  11.056   5.787   6.554
29089SOL    HW287518  11.071   5.643   6.597
29090SOL     OW87519  11.842  12.592   2.734
29090SOL    HW187520  11.750  12.616   2.721
29090SOL    HW287521  11.854  12.513   2.682
29091SOL     OW87522   6.028   9.845   5.070
29091SOL    HW187523   6.094   9.878   5.009
29091SOL    HW287524   5.952   9.827   5.016
29092SOL     OW87525  10.949   9.136   5.330
29092SOL    HW187526  10.896   9.076   5.382
29092SOL    HW287527  11.015   9.170   5.391
29093SOL     OW87528  13.318  11.800   4.988
29093SOL    HW187529  13.238  11.852   4.982
29093SOL    HW287530  13.386  11.864   5.009
29094SOL     OW87531   6.820   3.454   1.178
29094SOL    HW187532   6.730   3.471   1.150
29094SOL    HW287533   6.871   3.525   1.139
29095SOL     OW87534   8.444   9.536   4.122
29095SOL    HW187535   8.501   9.531   4.199
29095SOL    HW287536   8.356   9.517   4.155
29096SOL     OW87537  11.532   6.885   4.108
29096SOL    HW187538  11.514   6.857   4.198
29096SOL    HW287539  11.540   6.803   4.059
29097SOL     OW87540  10.696   6.163   3.563
29097SOL    HW187541  10.781   6.174   3.606
29097SOL    HW287542  10.707   6.206   3.478
29098SOL     OW87543   5.591  10.235   2.211
29098SOL    HW187544   5.583  10.329   2.225
29098SOL    HW287545   5.503  10.206   2.188
29099SOL     OW87546   8.726   9.431   4.095
29099SOL    HW187547   8.691   9.358   4.044
29099SOL    HW287548   8.812   9.401   4.125
29100SOL     OW87549   8.089   8.079   6.599
29100SOL    HW187550   8.041   8.098   6.679
29100SOL    HW287551   8.024   8.041   6.540
29101SOL     OW87552   9.810  12.439   3.213
29101SOL    HW187553   9.845  12.352   3.193
29101SOL    HW287554   9.727  12.421   3.257
29102SOL     OW87555   2.149   7.010   0.899
29102SOL    HW187556   2.202   7.065   0.956
29102SOL    HW287557   2.205   6.994   0.823
29103SOL     OW87558  14.065  11.967   5.426
29103SOL    HW187559  14.005  11.923   5.486
29103SOL    HW287560  14.014  12.039   5.388
29104SOL     OW87561  12.892   8.742   5.374
29104SOL    HW187562  12.980   8.777   5.365
29104SOL    HW287563  12.892   8.697   5.459
29105SOL     OW87564   4.196   6.447   1.966
29105SOL    HW187565   4.257   6.521   1.960
29105SOL    HW287566   4.131   6.464   1.897
29106SOL     OW87567   6.800   9.399   2.712
29106SOL    HW187568   6.826   9.468   2.651
29106SOL    HW287569   6.779   9.324   2.657
29107SOL     OW87570  14.976  13.727   7.091
29107SOL    HW187571  14.949  13.770   7.172
29107SOL    HW287572  14.984  13.634   7.115
29108SOL     OW87573  11.030   3.091   4.336
29108SOL    HW187574  11.092   3.135   4.278
29108SOL    HW287575  10.975   3.161   4.371
29109SOL     OW87576  10.265   8.455   4.465
29109SOL    HW187577  10.293   8.421   4.380
29109SOL    HW287578  10.266   8.550   4.454
29110SOL     OW87579   8.484  11.783   7.295
29110SOL    HW187580   8.511  11.860   7.345
29110SOL    HW287581   8.564  11.750   7.255
29111SOL     OW87582   5.774  12.131   4.526
29111SOL    HW187583   5.795  12.138   4.619
29111SOL    HW287584   5.814  12.048   4.499
29112SOL     OW87585  11.708   7.527   7.366
29112SOL    HW187586  11.794   7.539   7.406
29112SOL    HW287587  11.668   7.457   7.417
29113SOL     OW87588  10.419   2.971   3.630
29113SOL    HW187589  10.446   3.020   3.707
29113SOL    HW287590  10.357   3.028   3.585
29114SOL     OW87591  10.252   8.098   6.128
29114SOL    HW187592  10.195   8.175   6.125
29114SOL    HW287593  10.212   8.037   6.066
29115SOL     OW87594   4.400   4.443   0.750
29115SOL    HW187595   4.425   4.361   0.793
29115SOL    HW287596   4.336   4.482   0.809
29116SOL     OW87597   8.172   1.719   0.541
29116SOL    HW187598   8.173   1.808   0.504
29116SOL    HW287599   8.253   1.679   0.509
29117SOL     OW87600   4.027  13.210   5.043
29117SOL    HW187601   4.103  13.226   4.987
29117SOL    HW287602   4.002  13.296   5.075
29118SOL     OW87603   5.550   6.173   4.469
29118SOL    HW187604   5.629   6.171   4.524
29118SOL    HW287605   5.582   6.198   4.382
29119SOL     OW87606   2.608   6.726   3.470
29119SOL    HW187607   2.599   6.816   3.440
29119SOL    HW287608   2.702   6.707   3.461
29120SOL     OW87609  15.505   9.617   7.049
29120SOL    HW187610  15.553   9.664   6.980
29120SOL    HW287611  15.562   9.621   7.125
29121SOL     OW87612   9.649  10.930   6.217
29121SOL    HW187613   9.709  10.937   6.291
29121SOL    HW287614   9.574  10.984   6.241
29122SOL     OW87615   9.944   6.143   2.706
29122SOL    HW187616  10.003   6.139   2.631
29122SOL    HW287617   9.877   6.076   2.687
29123SOL     OW87618  10.816   7.719   6.955
29123SOL    HW187619  10.865   7.800   6.971
29123SOL    HW287620  10.786   7.691   7.042
29124SOL     OW87621   4.087   5.159   5.700
29124SOL    HW187622   4.038   5.240   5.684
29124SOL    HW287623   4.132   5.142   5.617
29125SOL     OW87624   5.948   9.562   6.058
29125SOL    HW187625   5.939   9.637   5.998
29125SOL    HW287626   5.969   9.602   6.142
29126SOL     OW87627   9.621  11.657   6.079
29126SOL    HW187628   9.709  11.638   6.046
29126SOL    HW287629   9.573  11.689   6.003
29127SOL     OW87630   3.936  12.558   4.800
29127SOL    HW187631   3.972  12.641   4.830
29127SOL    HW287632   4.011  12.508   4.769
29128SOL     OW87633   7.578  14.223   6.218
29128SOL    HW187634   7.602  14.312   6.243
29128SOL    HW287635   7.486  14.230   6.190
29129SOL     OW87636   7.335  11.441   3.649
29129SOL    HW187637   7.298  11.489   3.723
29129SOL    HW287638   7.282  11.361   3.643
29130SOL     OW87639   5.552   2.152   2.680
29130SOL    HW187640   5.548   2.225   2.741
29130SOL    HW287641   5.626   2.172   2.623
29131SOL     OW87642  12.665   8.043   3.586
29131SOL    HW187643  12.590   8.016   3.638
29131SOL    HW287644  12.734   8.059   3.650
29132SOL     OW87645   7.271   9.301   3.240
29132SOL    HW187646   7.314   9.381   3.209
29132SOL    HW287647   7.270   9.243   3.164
29133SOL     OW87648   7.347   9.065   0.773
29133SOL    HW187649   7.407   9.049   0.700
29133SOL    HW287650   7.396   9.041   0.851
29134SOL     OW87651  11.305   9.480   5.759
29134SOL    HW187652  11.367   9.514   5.694
29134SOL    HW287653  11.245   9.552   5.775
29135SOL     OW87654   6.504  14.193   5.059
29135SOL    HW187655   6.478  14.118   5.113
29135SOL    HW287656   6.567  14.157   4.996
29136SOL     OW87657   7.057   8.259   3.006
29136SOL    HW187658   7.110   8.315   2.949
29136SOL    HW287659   7.070   8.295   3.093
29137SOL     OW87660   9.090   3.495   3.699
29137SOL    HW187661   9.005   3.495   3.743
29137SOL    HW287662   9.079   3.433   3.626
29138SOL     OW87663   6.254  12.872   6.712
29138SOL    HW187664   6.240  12.966   6.727
29138SOL    HW287665   6.315  12.846   6.781
29139SOL     OW87666   8.301  13.178   7.562
29139SOL    HW187667   8.345  13.243   7.507
29139SOL    HW287668   8.356  13.100   7.555
29140SOL     OW87669  10.687  14.991   6.116
29140SOL    HW187670  10.612  15.013   6.061
29140SOL    HW287671  10.716  14.905   6.085
29141SOL     OW87672   4.592   9.844   5.847
29141SOL    HW187673   4.605   9.881   5.760
29141SOL    HW287674   4.539   9.766   5.831
29142SOL     OW87675   5.754  10.406   3.200
29142SOL    HW187676   5.684  10.431   3.261
29142SOL    HW287677   5.781  10.489   3.160
29143SOL     OW87678   1.031  11.303   1.088
29143SOL    HW187679   1.094  11.313   1.160
29143SOL    HW287680   1.038  11.211   1.063
29144SOL     OW87681   7.615   9.748   4.615
29144SOL    HW187682   7.677   9.678   4.594
29144SOL    HW287683   7.619   9.754   4.711
29145SOL     OW87684   7.775  10.570   5.114
29145SOL    HW187685   7.762  10.612   5.028
29145SOL    HW287686   7.705  10.607   5.168
29146SOL     OW87687   9.008  12.799   4.759
29146SOL    HW187688   9.085  12.800   4.816
29146SOL    HW287689   9.042  12.816   4.672
29147SOL     OW87690   8.512   8.226   3.374
29147SOL    HW187691   8.497   8.199   3.465
29147SOL    HW287692   8.437   8.282   3.354
29148SOL     OW87693   2.704   5.544   3.624
29148SOL    HW187694   2.682   5.455   3.594
29148SOL    HW287695   2.688   5.599   3.547
29149SOL     OW87696  12.036  12.208   3.839
29149SOL    HW187697  12.019  12.181   3.929
29149SOL    HW287698  12.000  12.138   3.785
29150SOL     OW87699  13.319   9.083   4.298
29150SOL    HW187700  13.292   9.001   4.338
29150SOL    HW287701  13.312   9.067   4.204
29151SOL     OW87702   1.963   6.469   0.430
29151SOL    HW187703   2.040   6.525   0.427
29151SOL    HW287704   1.894   6.520   0.389
29152SOL     OW87705   7.910   7.470   0.093
29152SOL    HW187706   7.824   7.428   0.102
29152SOL    HW287707   7.894   7.562   0.114
29153SOL     OW87708   7.085   3.312   1.206
29153SOL    HW187709   6.990   3.321   1.212
29153SOL    HW287710   7.119   3.393   1.244
29154SOL     OW87711  10.739  13.021   4.540
29154SOL    HW187712  10.781  13.063   4.615
29154SOL    HW287713  10.773  12.932   4.540
29155SOL     OW87714   4.594  11.828   2.763
29155SOL    HW187715   4.663  11.833   2.697
29155SOL    HW287716   4.587  11.917   2.798
29156SOL     OW87717  13.740   4.587   5.085
29156SOL    HW187718  13.648   4.598   5.061
29156SOL    HW287719  13.769   4.674   5.111
29157SOL     OW87720   6.048  10.533   4.664
29157SOL    HW187721   5.967  10.492   4.635
29157SOL    HW287722   6.111  10.461   4.671
29158SOL     OW87723   2.265   3.081   0.513
29158SOL    HW187724   2.325   3.009   0.534
29158SOL    HW287725   2.215   3.094   0.594
29159SOL     OW87726   9.702   8.711   6.464
29159SOL    HW187727   9.648   8.702   6.543
29159SOL    HW287728   9.747   8.794   6.475
29160SOL     OW87729   2.886   6.996   0.440
29160SOL    HW187730   2.907   7.035   0.524
29160SOL    HW287731   2.879   7.070   0.380
29161SOL     OW87732   1.609   5.469   1.656
29161SOL    HW187733   1.622   5.499   1.567
29161SOL    HW287734   1.547   5.531   1.694
29162SOL     OW87735  10.844  12.679   3.481
29162SOL    HW187736  10.815  12.623   3.409
29162SOL    HW287737  10.764  12.723   3.511
29163SOL     OW87738   5.304  14.073   5.868
29163SOL    HW187739   5.362  14.148   5.857
29163SOL    HW287740   5.272  14.053   5.779
29164SOL     OW87741   8.754  10.493   6.447
29164SOL    HW187742   8.717  10.579   6.427
29164SOL    HW287743   8.846  10.510   6.468
29165SOL     OW87744   5.015   5.871   2.925
29165SOL    HW187745   5.028   5.883   3.020
29165SOL    HW287746   5.062   5.944   2.886
29166SOL     OW87747   9.224   4.205   1.225
29166SOL    HW187748   9.138   4.174   1.200
29166SOL    HW287749   9.277   4.198   1.146
29167SOL     OW87750   1.579   5.231   0.658
29167SOL    HW187751   1.571   5.183   0.740
29167SOL    HW287752   1.610   5.318   0.683
29168SOL     OW87753   3.538  11.362   4.283
29168SOL    HW187754   3.501  11.348   4.370
29168SOL    HW287755   3.625  11.399   4.300
29169SOL     OW87756  11.068  11.073   2.252
29169SOL    HW187757  10.986  11.122   2.259
29169SOL    HW287758  11.053  11.011   2.182
29170SOL     OW87759   3.744   7.227   1.187
29170SOL    HW187760   3.654   7.194   1.183
29170SOL    HW287761   3.757   7.271   1.103
29171SOL     OW87762   9.233  13.622   4.334
29171SOL    HW187763   9.249  13.690   4.399
29171SOL    HW287764   9.311  13.624   4.278
29172SOL     OW87765   1.884   7.246   2.439
29172SOL    HW187766   1.824   7.191   2.388
29172SOL    HW287767   1.829   7.317   2.472
29173SOL     OW87768   4.038   3.518   3.919
29173SOL    HW187769   4.073   3.471   3.844
29173SOL    HW287770   4.076   3.606   3.913
29174SOL     OW87771  10.925   4.922   3.712
29174SOL    HW187772  10.903   4.906   3.621
29174SOL    HW287773  11.006   4.973   3.709
29175SOL     OW87774   9.837  13.779   5.960
29175SOL    HW187775   9.764  13.835   5.929
29175SOL    HW287776   9.826  13.698   5.911
29176SOL     OW87777  10.899   6.416   6.270
29176SOL    HW187778  10.812   6.413   6.311
29176SOL    HW287779  10.881   6.422   6.176
29177SOL     OW87780  12.905   3.252   3.543
29177SOL    HW187781  12.887   3.239   3.450
29177SOL    HW287782  12.952   3.173   3.570
29178SOL     OW87783   9.072   6.899   0.864
29178SOL    HW187784   9.026   6.946   0.933
29178SOL    HW287785   9.002   6.858   0.812
29179SOL     OW87786   3.263  10.106   2.235
29179SOL    HW187787   3.282  10.199   2.246
29179SOL    HW287788   3.193  10.088   2.298
29180SOL     OW87789   9.046   8.600   0.645
29180SOL    HW187790   9.114   8.661   0.618
29180SOL    HW287791   9.000   8.645   0.716
29181SOL     OW87792  11.349   5.125   6.437
29181SOL    HW187793  11.284   5.192   6.416
29181SOL    HW287794  11.303   5.042   6.428
29182SOL     OW87795  11.935   9.390   2.629
29182SOL    HW187796  12.017   9.341   2.624
29182SOL    HW287797  11.879   9.350   2.563
29183SOL     OW87798  13.258  11.926   3.880
29183SOL    HW187799  13.348  11.894   3.886
29183SOL    HW287800  13.263  11.999   3.818
29184SOL     OW87801   3.224   1.585   1.313
29184SOL    HW187802   3.304   1.578   1.260
29184SOL    HW287803   3.159   1.536   1.263
29185SOL     OW87804   9.702   5.277   0.755
29185SOL    HW187805   9.771   5.272   0.821
29185SOL    HW287806   9.737   5.338   0.689
29186SOL     OW87807   6.844   5.321   4.214
29186SOL    HW187808   6.784   5.291   4.146
29186SOL    HW287809   6.823   5.414   4.226
29187SOL     OW87810   9.589   7.482   2.307
29187SOL    HW187811   9.534   7.483   2.386
29187SOL    HW287812   9.548   7.415   2.251
29188SOL     OW87813  11.793   5.564   5.470
29188SOL    HW187814  11.843   5.538   5.547
29188SOL    HW287815  11.746   5.643   5.498
29189SOL     OW87816  11.212   4.693   3.679
29189SOL    HW187817  11.192   4.723   3.590
29189SOL    HW287818  11.161   4.612   3.688
29190SOL     OW87819   7.090   6.202   6.123
29190SOL    HW187820   7.168   6.157   6.154
29190SOL    HW287821   7.017   6.150   6.155
29191SOL     OW87822   4.130   8.170   2.538
29191SOL    HW187823   4.034   8.168   2.531
29191SOL    HW287824   4.154   8.081   2.564
29192SOL     OW87825   5.461   8.356   7.282
29192SOL    HW187826   5.543   8.318   7.312
29192SOL    HW287827   5.480   8.449   7.270
29193SOL     OW87828   9.199   1.098   1.519
29193SOL    HW187829   9.120   1.131   1.562
29193SOL    HW287830   9.265  11.870   1.588
29194SOL     OW87831  11.766   5.271   5.311
29194SOL    HW187832  11.851   5.313   5.310
29194SOL    HW287833  11.777   5.192   5.258
29195SOL     OW87834  12.587   5.345   6.310
29195SOL    HW187835  12.545   5.276   6.258
29195SOL    HW287836  12.680   5.334   6.294
29196SOL     OW87837   8.876   5.314   4.899
29196SOL    HW187838   8.815   5.387   4.901
29196SOL    HW287839   8.955   5.350   4.858
29197SOL     OW87840  14.235  12.947   6.948
29197SOL    HW187841  14.301  12.941   6.879
29197SOL    HW287842  14.259  12.878   7.010
29198SOL     OW87843   5.883   8.875   7.534
29198SOL    HW187844   5.965   8.918   7.513
29198SOL    HW287845   5.907   8.805   7.595
29199SOL     OW87846   7.210   6.692   0.844
29199SOL    HW187847   7.190   6.752   0.772
29199SOL    HW287848   7.152   6.617   0.830
29200SOL     OW87849  14.333   5.800   6.560
29200SOL    HW187850  14.328   5.895   6.549
29200SOL    HW287851  14.397   5.788   6.630
29201SOL     OW87852   8.624  11.772   4.153
29201SOL    HW187853   8.570  11.693   4.154
29201SOL    HW287854   8.579  11.831   4.094
29202SOL     OW87855   7.629  13.562   7.274
29202SOL    HW187856   7.679  13.643   7.263
29202SOL    HW287857   7.539  13.587   7.258
29203SOL     OW87858  13.840   6.632   4.829
29203SOL    HW187859  13.864   6.675   4.748
29203SOL    HW287860  13.917   6.639   4.884
29204SOL     OW87861   7.645   7.608   5.188
29204SOL    HW187862   7.621   7.537   5.129
29204SOL    HW287863   7.740   7.600   5.197
29205SOL     OW87864  13.322  10.739   7.328
29205SOL    HW187865  13.362  10.744   7.241
29205SOL    HW287866  13.228  10.736   7.311
29206SOL     OW87867   9.479  13.076   4.552
29206SOL    HW187868   9.454  13.125   4.631
29206SOL    HW287869   9.412  13.008   4.544
29207SOL     OW87870   8.464  11.094   1.868
29207SOL    HW187871   8.373  11.123   1.860
29207SOL    HW287872   8.500  11.150   1.937
29208SOL     OW87873   9.579  11.442   6.258
29208SOL    HW187874   9.526  11.385   6.202
29208SOL    HW287875   9.576  11.528   6.216
29209SOL     OW87876   5.550   4.894   2.901
29209SOL    HW187877   5.611   4.821   2.904
29209SOL    HW287878   5.578   4.952   2.971
29210SOL     OW87879  13.373   4.025   5.285
29210SOL    HW187880  13.451   4.023   5.231
29210SOL    HW287881  13.406   4.027   5.375
29211SOL     OW87882   9.412   9.502   6.676
29211SOL    HW187883   9.367   9.538   6.752
29211SOL    HW287884   9.420   9.408   6.694
29212SOL     OW87885   7.729   6.073   5.177
29212SOL    HW187886   7.750   5.991   5.134
29212SOL    HW287887   7.684   6.048   5.257
29213SOL     OW87888   5.331   5.309   1.742
29213SOL    HW187889   5.317   5.374   1.811
29213SOL    HW287890   5.404   5.256   1.773
29214SOL     OW87891   6.166   0.648   0.146
29214SOL    HW187892   6.103   0.702   0.193
29214SOL    HW287893   6.182   0.695   0.065
29215SOL     OW87894  13.247  13.548   7.349
29215SOL    HW187895  13.165  13.508   7.319
29215SOL    HW287896  13.220  13.618   7.407
29216SOL     OW87897  14.998  10.628   6.364
29216SOL    HW187898  15.086  10.600   6.391
29216SOL    HW287899  14.944  10.615   6.442
29217SOL     OW87900   8.350   2.168   2.951
29217SOL    HW187901   8.423   2.120   2.911
29217SOL    HW287902   8.379   2.184   3.041
29218SOL     OW87903  10.656  11.546   6.370
29218SOL    HW187904  10.632  11.577   6.457
29218SOL    HW287905  10.750  11.530   6.375
29219SOL     OW87906  11.522  13.226   6.306
29219SOL    HW187907  11.601  13.233   6.360
29219SOL    HW287908  11.554  13.193   6.222
29220SOL     OW87909  11.310  11.422   6.148
29220SOL    HW187910  11.315  11.422   6.052
29220SOL    HW287911  11.322  11.513   6.173
29221SOL     OW87912  11.806  14.391   5.841
29221SOL    HW187913  11.838  14.300   5.841
29221SOL    HW287914  11.881  14.442   5.809
29222SOL     OW87915   9.959  10.195   4.552
29222SOL    HW187916   9.963  10.103   4.525
29222SOL    HW287917   9.924  10.193   4.641
29223SOL     OW87918   9.442   6.516   5.079
29223SOL    HW187919   9.467   6.515   5.172
29223SOL    HW287920   9.526   6.515   5.032
29224SOL     OW87921   9.725  11.061   1.015
29224SOL    HW187922   9.778  10.983   0.996
29224SOL    HW287923   9.780  11.112   1.075
29225SOL     OW87924   6.310  11.427   4.623
29225SOL    HW187925   6.268  11.355   4.671
29225SOL    HW287926   6.403  11.418   4.641
29226SOL     OW87927   7.228  14.003   4.829
29226SOL    HW187928   7.171  13.958   4.766
29226SOL    HW287929   7.228  14.095   4.800
29227SOL     OW87930  12.379   6.472   4.291
29227SOL    HW187931  12.313   6.531   4.327
29227SOL    HW287932  12.387   6.402   4.356
29228SOL     OW87933  10.725  12.808   2.894
29228SOL    HW187934  10.808   2.078   2.880
29228SOL    HW287935  10.689  12.847   2.974
29229SOL     OW87936  10.436  10.427   0.469
29229SOL    HW187937  10.388  10.504   0.501
29229SOL    HW287938  10.527  10.456   0.465
29230SOL     OW87939   5.274   5.702   2.173
29230SOL    HW187940   5.288   5.746   2.257
29230SOL    HW287941   5.359   5.664   2.150
29231SOL     OW87942   5.532   6.846   6.066
29231SOL    HW187943   5.595   6.784   6.029
29231SOL    HW287944   5.558   6.931   6.032
29232SOL     OW87945   9.668   5.732   4.151
29232SOL    HW187946   9.752   5.778   4.146
29232SOL    HW287947   9.627   5.750   4.066
29233SOL     OW87948   6.142   8.823   4.111
29233SOL    HW187949   6.051   8.795   4.123
29233SOL    HW287950   6.157   8.814   4.017
29234SOL     OW87951  11.482   5.646   4.556
29234SOL    HW187952  11.502   5.663   4.648
29234SOL    HW287953  11.403   5.697   4.538
29235SOL     OW87954  13.186   6.342   7.267
29235SOL    HW187955  13.134   6.387   7.334
29235SOL    HW287956  13.142   6.257   7.257
29236SOL     OW87957  11.247  13.873   6.638
29236SOL    HW187958  11.235  13.856   6.545
29236SOL    HW287959  11.287  13.960   6.642
29237SOL     OW87960   9.752   9.940   6.188
29237SOL    HW187961   9.740   9.858   6.235
29237SOL    HW287962   9.664   9.968   6.163
29238SOL     OW87963  14.964  14.363   6.575
29238SOL    HW187964  15.002  14.449   6.559
29238SOL    HW287965  14.959  14.356   6.670
29239SOL     OW87966   1.995   6.562   2.099
29239SOL    HW187967   1.923   6.547   2.161
29239SOL    HW287968   2.008   6.657   2.101
29240SOL     OW87969   5.967   5.924   4.096
29240SOL    HW187970   5.886   5.968   4.070
29240SOL    HW287971   5.943   5.831   4.100
29241SOL     OW87972   1.299   2.334   0.631
29241SOL    HW187973   1.342   2.305   0.550
29241SOL    HW287974   1.349   2.291   0.700
29242SOL     OW87975   1.543   1.946   0.221
29242SOL    HW187976   1.463   1.898   0.201
29242SOL    HW287977   1.608   1.911   0.159
29243SOL     OW87978  10.109  15.024   6.752
29243SOL    HW187979  10.129  15.103   6.703
29243SOL    HW287980  10.177  15.020   6.819
29244SOL     OW87981   2.990   8.820   0.499
29244SOL    HW187982   2.904   8.836   0.461
29244SOL    HW287983   2.977   8.832   0.593
29245SOL     OW87984   9.672  13.453   6.225
29245SOL    HW187985   9.624  13.388   6.277
29245SOL    HW287986   9.605  13.510   6.189
29246SOL     OW87987   9.243  11.288   7.253
29246SOL    HW187988   9.301  11.283   7.177
29246SOL    HW287989   9.222  11.197   7.274
29247SOL     OW87990   7.523  11.312   4.995
29247SOL    HW187991   7.544  11.239   5.053
29247SOL    HW287992   7.430  11.303   4.978
29248SOL     OW87993   9.856   7.967   6.167
29248SOL    HW187994   9.872   8.026   6.093
29248SOL    HW287995   9.922   7.992   6.232
29249SOL     OW87996  10.499   5.467   2.076
29249SOL    HW187997  10.530   5.551   2.042
29249SOL    HW287998  10.403   5.475   2.076
29250SOL     OW87999   6.124   8.353   5.704
29250SOL    HW188000   6.191   8.347   5.773
29250SOL    HW288001   6.043   8.374   5.751
29251SOL     OW88002   6.714   8.634   1.590
29251SOL    HW188003   6.636   8.641   1.646
29251SOL    HW288004   6.769   8.569   1.634
29252SOL     OW88005  13.415  12.782   7.047
29252SOL    HW188006  13.403  12.697   7.004
29252SOL    HW288007  13.327  12.810   7.070
29253SOL     OW88008   5.336  12.571   7.108
29253SOL    HW188009   5.374  12.591   7.022
29253SOL    HW288010   5.400  12.515   7.150
29254SOL     OW88011   6.259  11.236   4.335
29254SOL    HW188012   6.314  11.236   4.256
29254SOL    HW288013   6.295  11.166   4.389
29255SOL     OW88014  10.445  10.722   0.358
29255SOL    HW188015  10.360  10.677   0.360
29255SOL    HW288016  10.428  10.808   0.397
29256SOL     OW88017  12.303   9.581   7.294
29256SOL    HW188018  12.243   9.619   7.358
29256SOL    HW288019  12.261   9.499   7.267
29257SOL     OW88020   6.789   7.644   5.506
29257SOL    HW188021   6.700   7.635   5.540
29257SOL    HW288022   6.828   7.558   5.518
29258SOL     OW88023   9.517   9.439   1.013
29258SOL    HW188024   9.605   9.413   1.043
29258SOL    HW288025   9.534   9.500   0.941
29259SOL     OW88026   8.069  12.794   4.717
29259SOL    HW188027   8.144  12.790   4.776
29259SOL    HW288028   8.077  12.715   4.663
29260SOL     OW88029   7.978  10.582   6.876
29260SOL    HW188030   8.033  10.661   6.873
29260SOL    HW288031   7.901  10.604   6.824
29261SOL     OW88032   7.164   3.442   3.302
29261SOL    HW188033   7.219   3.364   3.308
29261SOL    HW288034   7.147   3.452   3.208
29262SOL     OW88035   7.142  10.344   2.610
29262SOL    HW188036   7.056  10.306   2.629
29262SOL    HW288037   7.202  10.270   2.606
29263SOL     OW88038  10.786   8.261   5.272
29263SOL    HW188039  10.752   8.344   5.238
29263SOL    HW288040  10.708   8.212   5.298
29264SOL     OW88041   3.703   0.296   0.335
29264SOL    HW188042   3.651   0.373   0.357
29264SOL    HW288043   3.791   0.330   0.316
29265SOL     OW88044   8.087   4.147   5.484
29265SOL    HW188045   8.024   4.107   5.423
29265SOL    HW288046   8.155   4.080   5.495
29266SOL     OW88047   8.940   8.660   1.945
29266SOL    HW188048   8.940   8.583   2.003
29266SOL    HW288049   8.931   8.734   2.005
29267SOL     OW88050   4.263   8.215   2.939
29267SOL    HW188051   4.206   8.158   2.990
29267SOL    HW288052   4.235   8.304   2.960
29268SOL     OW88053  10.828  10.769   5.173
29268SOL    HW188054  10.740  10.738   5.196
29268SOL    HW288055  10.850  10.830   5.244
29269SOL     OW88056  11.943   7.774   6.837
29269SOL    HW188057  11.974   7.704   6.780
29269SOL    HW288058  11.857   7.797   6.802
29270SOL     OW88059   3.606   7.473   2.083
29270SOL    HW188060   3.514   7.499   2.083
29270SOL    HW288061   3.650   7.540   2.135
29271SOL     OW88062   3.757   6.366   4.431
29271SOL    HW188063   3.819   6.397   4.365
29271SOL    HW288064   3.805   6.372   4.514
29272SOL     OW88065  13.843   6.196   6.576
29272SOL    HW188066  13.847   6.266   6.641
29272SOL    HW288067  13.927   6.150   6.586
29273SOL     OW88068  11.687   9.253   6.671
29273SOL    HW188069  11.639   9.257   6.754
29273SOL    HW288070  11.678   9.163   6.642
29274SOL     OW88071   6.733  13.518   4.741
29274SOL    HW188072   6.796  13.496   4.809
29274SOL    HW288073   6.647  13.506   4.783
29275SOL     OW88074   8.657   7.205   3.270
29275SOL    HW188075   8.597   7.277   3.248
29275SOL    HW288076   8.666   7.210   3.365
29276SOL     OW88077   9.448   5.186   5.657
29276SOL    HW188078   9.428   5.214   5.568
29276SOL    HW288079   9.422   5.094   5.660
29277SOL     OW88080   5.302   8.240   5.327
29277SOL    HW188081   5.350   8.244   5.409
29277SOL    HW288082   5.290   8.146   5.311
29278SOL     OW88083   5.653   9.838   6.318
29278SOL    HW188084   5.630   9.780   6.391
29278SOL    HW288085   5.639   9.785   6.240
29279SOL     OW88086  13.255  14.934   6.516
29279SOL    HW188087  13.184  14.974   6.465
29279SOL    HW288088  13.334  14.978   6.486
29280SOL     OW88089   4.484  10.762   1.424
29280SOL    HW188090   4.562  10.778   1.477
29280SOL    HW288091   4.411  10.797   1.475
29281SOL     OW88092   6.219   3.567   2.211
29281SOL    HW188093   6.181   3.652   2.186
29281SOL    HW288094   6.291   3.554   2.150
29282SOL     OW88095  10.120   4.494   2.756
29282SOL    HW188096  10.125   4.583   2.793
29282SOL    HW288097  10.033   4.489   2.718
29283SOL     OW88098   9.506   8.051   5.776
29283SOL    HW188099   9.557   8.044   5.857
29283SOL    HW288100   9.504   7.962   5.741
29284SOL     OW88101   9.209   8.057   2.109
29284SOL    HW188102   9.280   7.997   2.084
29284SOL    HW288103   9.134   7.999   2.124
29285SOL     OW88104   5.183   3.399   1.496
29285SOL    HW188105   5.112   3.386   1.432
29285SOL    HW288106   5.230   3.475   1.465
29286SOL     OW88107   8.004   6.205   7.472
29286SOL    HW188108   8.022   6.164   7.557
29286SOL    HW288109   7.924   6.256   7.487
29287SOL     OW88110   8.995  10.913   0.487
29287SOL    HW188111   8.972  10.881   0.400
29287SOL    HW288112   8.928  10.979   0.506
29288SOL     OW88113  11.947   8.959   3.376
29288SOL    HW188114  11.936   9.054   3.370
29288SOL    HW288115  12.041   8.946   3.377
29289SOL     OW88116  12.313   9.944   2.837
29289SOL    HW188117  12.297   9.890   2.915
29289SOL    HW288118  12.257  10.021   2.850
29290SOL     OW88119   2.256   3.183   0.188
29290SOL    HW188120   2.252   3.092   0.216
29290SOL    HW288121   2.176   3.196   0.136
29291SOL     OW88122   9.518   7.508   7.358
29291SOL    HW188123   9.485   7.419   7.346
29291SOL    HW288124   9.602   7.497   7.403
29292SOL     OW88125   3.039   4.713   0.448
29292SOL    HW188126   2.974   4.647   0.473
29292SOL    HW288127   3.086   4.731   0.529
29293SOL     OW88128   7.597   6.447   1.931
29293SOL    HW188129   7.655   6.517   1.962
29293SOL    HW288130   7.536   6.491   1.872
29294SOL     OW88131  10.347  12.693   6.934
29294SOL    HW188132  10.428  12.723   6.975
29294SOL    HW288133  10.364  12.602   6.910
29295SOL     OW88134   5.004   9.092   5.728
29295SOL    HW188135   5.031   9.157   5.792
29295SOL    HW288136   5.066   9.020   5.737
29296SOL     OW88137   8.021   8.490   5.122
29296SOL    HW188138   7.932   8.512   5.093
29296SOL    HW288139   8.025   8.395   5.119
29297SOL     OW88140  14.530   6.818   6.803
29297SOL    HW188141  14.623   6.824   6.781
29297SOL    HW288142  14.529   6.803   6.898
29298SOL     OW88143   3.066   1.399   0.465
29298SOL    HW188144   3.025   1.334   0.408
29298SOL    HW288145   3.100   1.347   0.539
29299SOL     OW88146   2.348   6.340   2.358
29299SOL    HW188147   2.276   6.354   2.420
29299SOL    HW288148   2.418   6.397   2.389
29300SOL     OW88149  10.849   4.977   4.965
29300SOL    HW188150  10.866   4.891   4.928
29300SOL    HW288151  10.925   4.995   5.020
29301SOL     OW88152  10.125  14.848   6.462
29301SOL    HW188153  10.035  14.881   6.458
29301SOL    HW288154  10.151  14.862   6.553
29302SOL     OW88155   7.496   6.031   2.085
29302SOL    HW188156   7.467   6.001   2.171
29302SOL    HW288157   7.437   5.988   2.023
29303SOL     OW88158   2.660   5.804   0.078
29303SOL    HW188159   8.043  11.230   7.609
29303SOL    HW288160   2.677   5.877   0.136
29304SOL     OW88161  11.286   8.424   7.294
29304SOL    HW188162  11.193   8.449   7.291
29304SOL    HW288163  11.307   8.399   7.204
29305SOL     OW88164  15.055  15.632   6.929
29305SOL    HW188165  15.148  15.615   6.917
29305SOL    HW288166  15.013  15.547   6.919
29306SOL     OW88167   7.575  14.650   5.632
29306SOL    HW188168   7.543  14.736   5.603
29306SOL    HW288169   7.495  14.603   5.655
29307SOL     OW88170   7.563  12.274   7.312
29307SOL    HW188171   7.554  12.358   7.356
29307SOL    HW288172   7.655  12.270   7.285
29308SOL     OW88173   6.383   9.044   1.073
29308SOL    HW188174   6.361   9.019   0.983
29308SOL    HW288175   6.413   9.134   1.066
29309SOL     OW88176  13.238  12.504   6.922
29309SOL    HW188177  13.238  12.547   6.837
29309SOL    HW288178  13.228  12.411   6.903
29310SOL     OW88179  10.073   5.536   3.258
29310SOL    HW188180   9.987   5.506   3.289
29310SOL    HW288181  10.121   5.456   3.238
29311SOL     OW88182  10.132   6.057   0.499
29311SOL    HW188183  10.198   6.125   0.482
29311SOL    HW288184  10.131   6.005   0.419
29312SOL     OW88185   9.087  10.437   4.489
29312SOL    HW188186   9.021  10.381   4.530
29312SOL    HW288187   9.158  10.378   4.465
29313SOL     OW88188   8.994  14.306   6.452
29313SOL    HW188189   8.905  14.287   6.422
29313SOL    HW288190   8.993  14.399   6.473
29314SOL     OW88191   8.630   6.267   4.881
29314SOL    HW188192   8.542   6.232   4.895
29314SOL    HW288193   8.647   6.251   4.788
29315SOL     OW88194   9.144   3.653   0.868
29315SOL    HW188195   9.170   3.639   0.959
29315SOL    HW288196   9.089   3.577   0.847
29316SOL     OW88197   8.302  10.767   6.501
29316SOL    HW188198   8.248  10.708   6.450
29316SOL    HW288199   8.241  10.828   6.542
29317SOL     OW88200  12.034   8.511   7.497
29317SOL    HW188201  12.057   8.440   7.437
29317SOL    HW288202  12.117   8.553   7.518
29318SOL     OW88203   5.942   5.400   2.259
29318SOL    HW188204   5.934   5.310   2.229
29318SOL    HW288205   6.029   5.406   2.299
29319SOL     OW88206  10.016   2.314   1.221
29319SOL    HW188207  10.112   2.323   1.216
29319SOL    HW288208   9.989   2.380   1.284
29320SOL     OW88209   7.128   6.831   2.508
29320SOL    HW188210   7.128   6.927   2.508
29320SOL    HW288211   7.037   6.807   2.525
29321SOL     OW88212   4.552   6.304   2.017
29321SOL    HW188213   4.623   6.254   1.977
29321SOL    HW288214   4.553   6.278   2.109
29322SOL     OW88215   8.892   7.841   4.650
29322SOL    HW188216   8.867   7.914   4.707
29322SOL    HW288217   8.814   7.786   4.646
29323SOL     OW88218   8.526   5.477   6.977
29323SOL    HW188219   8.480   5.540   7.032
29323SOL    HW288220   8.601   5.526   6.942
29324SOL     OW88221   2.391   5.726   0.805
29324SOL    HW188222   2.370   5.820   0.806
29324SOL    HW288223   2.469   5.720   0.749
29325SOL     OW88224   7.405  10.994   7.325
29325SOL    HW188225   7.324  10.974   7.373
29325SOL    HW288226   7.382  11.068   7.269
29326SOL     OW88227  12.949  11.587   6.960
29326SOL    HW188228  12.989  11.665   6.997
29326SOL    HW288229  13.016  11.551   6.901
29327SOL     OW88230   7.042   6.444   6.297
29327SOL    HW188231   7.003   6.394   6.225
29327SOL    HW288232   6.969   6.490   6.337
29328SOL     OW88233   5.708  14.356   6.471
29328SOL    HW188234   5.627  14.315   6.440
29328SOL    HW288235   5.703  14.349   6.566
29329SOL     OW88236  13.755   8.751   4.428
29329SOL    HW188237  13.848   8.729   4.425
29329SOL    HW288238  13.714   8.695   4.362
29330SOL     OW88239   7.172  12.807   3.758
29330SOL    HW188240   7.087  12.840   3.787
29330SOL    HW288241   7.225  12.802   3.837
29331SOL     OW88242   6.975   9.795   4.765
29331SOL    HW188243   7.009   9.766   4.850
29331SOL    HW288244   7.035   9.756   4.701
29332SOL     OW88245  11.113  13.926   5.847
29332SOL    HW188246  11.187  13.946   5.789
29332SOL    HW288247  11.039  13.915   5.787
29333SOL     OW88248   0.745  10.946   0.587
29333SOL    HW188249   0.795  10.925   0.666
29333SOL    HW288250   0.749  11.042   0.581
29334SOL     OW88251   1.043   5.132   0.124
29334SOL    HW188252   1.015   5.219   0.150
29334SOL    HW288253   1.137   5.141   0.104
29335SOL     OW88254   9.917   0.685   0.011
29335SOL    HW188255  15.275   6.102   7.543
29335SOL    HW288256   9.914   0.764   0.065
29336SOL     OW88257  12.305   3.188   2.878
29336SOL    HW188258  12.268   3.262   2.928
29336SOL    HW288259  12.352   3.137   2.944
29337SOL     OW88260   2.637   8.886   3.494
29337SOL    HW188261   2.697   8.881   3.420
29337SOL    HW288262   2.694   8.903   3.570
29338SOL     OW88263   4.779  14.042   6.539
29338SOL    HW188264   4.688  14.059   6.562
29338SOL    HW288265   4.785  13.947   6.531
29339SOL     OW88266   8.319   1.822   2.458
29339SOL    HW188267   8.316   1.892   2.393
29339SOL    HW288268   8.341   1.867   2.540
29340SOL     OW88269   9.299   5.393   4.269
29340SOL    HW188270   9.296   5.349   4.184
29340SOL    HW288271   9.359   5.340   4.321
29341SOL     OW88272   1.775   2.720   1.406
29341SOL    HW188273   1.753   2.752   1.493
29341SOL    HW288274   1.695   2.732   1.355
29342SOL     OW88275   5.189  13.550   6.419
29342SOL    HW188276   5.249  13.520   6.487
29342SOL    HW288277   5.148  13.628   6.457
29343SOL     OW88278   5.877  10.134   4.086
29343SOL    HW188279   5.835  10.217   4.066
29343SOL    HW288280   5.876  10.086   4.003
29344SOL     OW88281   4.227  10.445   3.050
29344SOL    HW188282   4.268  10.411   3.129
29344SOL    HW288283   4.189  10.368   3.007
29345SOL     OW88284  12.961  13.233   6.465
29345SOL    HW188285  12.961  13.309   6.406
29345SOL    HW288286  12.999  13.162   6.413
29346SOL     OW88287   9.996  12.425   4.721
29346SOL    HW188288  10.006  12.461   4.809
29346SOL    HW288289  10.060  12.354   4.717
29347SOL     OW88290  13.616   8.130   4.808
29347SOL    HW188291  13.542   8.104   4.753
29347SOL    HW288292  13.576   8.157   4.890
29348SOL     OW88293  11.531  15.266   7.227
29348SOL    HW188294  11.510  15.338   7.168
29348SOL    HW288295  11.574  15.201   7.172
29349SOL     OW88296   4.462  11.258   2.289
29349SOL    HW188297   4.380  11.278   2.244
29349SOL    HW288298   4.437  11.199   2.360
29350SOL     OW88299   2.616   1.835   1.349
29350SOL    HW188300   2.549   1.898   1.377
29350SOL    HW288301   2.617   1.769   1.418
29351SOL     OW88302   8.063   3.066   2.761
29351SOL    HW188303   8.099   2.988   2.720
29351SOL    HW288304   8.120   3.137   2.733
29352SOL     OW88305   5.586  11.709   2.395
29352SOL    HW188306   5.654  11.703   2.328
29352SOL    HW288307   5.606  11.636   2.454
29353SOL     OW88308  12.800  12.217   5.627
29353SOL    HW188309  12.786  12.236   5.534
29353SOL    HW288310  12.730  12.265   5.672
29354SOL     OW88311   7.483  11.562   4.597
29354SOL    HW188312   7.490  11.607   4.512
29354SOL    HW288313   7.412  11.608   4.642
29355SOL     OW88314   4.600   1.696   1.016
29355SOL    HW188315   4.588   1.666   1.106
29355SOL    HW288316   4.513   1.727   0.990
29356SOL     OW88317  14.489  11.512   6.899
29356SOL    HW188318  14.514  11.456   6.825
29356SOL    HW288319  14.393  11.512   6.898
29357SOL     OW88320   4.304   5.498   0.121
29357SOL    HW188321   4.236   5.438   0.153
29357SOL    HW288322   4.314   5.562   0.191
29358SOL     OW88323   7.058   8.003   0.851
29358SOL    HW188324   7.078   8.007   0.757
29358SOL    HW288325   7.002   7.925   0.860
29359SOL     OW88326   5.019  10.991   0.697
29359SOL    HW188327   5.028  11.073   0.746
29359SOL    HW288328   5.049  10.923   0.757
29360SOL     OW88329   8.355   8.035   4.020
29360SOL    HW188330   8.386   8.088   4.093
29360SOL    HW288331   8.338   7.949   4.058
29361SOL     OW88332   8.985   1.141   0.447
29361SOL    HW188333   8.949   1.220   0.407
29361SOL    HW288334   9.039   1.174   0.519
29362SOL     OW88335   7.239   9.013   5.782
29362SOL    HW188336   7.161   9.026   5.727
29362SOL    HW288337   7.278   8.932   5.749
29363SOL     OW88338   2.459   4.140   1.670
29363SOL    HW188339   2.535   4.121   1.724
29363SOL    HW288340   2.424   4.222   1.705
29364SOL     OW88341  10.160   9.804   4.777
29364SOL    HW188342  10.247   9.777   4.747
29364SOL    HW288343  10.159   9.782   4.870
29365SOL     OW88344   1.633   0.647   0.826
29365SOL    HW188345   1.677   0.710   0.883
29365SOL    HW288346   1.541   0.652   0.850
29366SOL     OW88347   6.950   8.794   4.820
29366SOL    HW188348   6.934   8.835   4.735
29366SOL    HW288349   6.871   8.814   4.871
29367SOL     OW88350   2.248   7.527   1.471
29367SOL    HW188351   2.183   7.458   1.483
29367SOL    HW288352   2.205   7.590   1.413
29368SOL     OW88353  10.379  11.102   4.596
29368SOL    HW188354  10.392  11.116   4.689
29368SOL    HW288355  10.345  11.012   4.590
29369SOL     OW88356   5.755  15.480   7.487
29369SOL    HW188357   5.758  15.572   7.513
29369SOL    HW288358   5.835  15.442   7.524
29370SOL     OW88359   6.436   3.307   4.559
29370SOL    HW188360   6.435  13.992   4.592
29370SOL    HW288361   6.529   3.324   4.541
29371SOL     OW88362   3.521   5.945   0.729
29371SOL    HW188363   3.593   5.926   0.668
29371SOL    HW288364   3.562   5.945   0.815
29372SOL     OW88365  13.242   6.049   6.458
29372SOL    HW188366  13.166   5.992   6.445
29372SOL    HW288367  13.209   6.138   6.444
29373SOL     OW88368   5.051   6.216   2.627
29373SOL    HW188369   5.141   6.246   2.641
29373SOL    HW288370   5.042   6.209   2.532
29374SOL     OW88371   3.941  11.726   3.594
29374SOL    HW188372   3.872  11.715   3.659
29374SOL    HW288373   3.955  11.821   3.589
29375SOL     OW88374   6.874   8.256   4.732
29375SOL    HW188375   6.950   8.200   4.714
29375SOL    HW288376   6.877   8.271   4.827
29376SOL     OW88377   9.409   5.599   0.747
29376SOL    HW188378   9.331   5.555   0.712
29376SOL    HW288379   9.480   5.569   0.690
29377SOL     OW88380   9.348  14.865   6.945
29377SOL    HW188381   9.377  14.933   6.885
29377SOL    HW288382   9.295  14.912   7.010
29378SOL     OW88383   6.945   3.617   4.713
29378SOL    HW188384   6.884   3.663   4.656
29378SOL    HW288385   6.892   3.590   4.788
29379SOL     OW88386   5.555  10.508   6.831
29379SOL    HW188387   5.568  10.563   6.754
29379SOL    HW288388   5.622  10.537   6.893
29380SOL     OW88389  13.595   9.592   7.101
29380SOL    HW188390  13.637   9.544   7.173
29380SOL    HW288391  13.600   9.532   7.027
29381SOL     OW88392   7.902   2.887   1.743
29381SOL    HW188393   7.832   2.832   1.777
29381SOL    HW288394   7.867   2.976   1.747
29382SOL     OW88395   8.084  10.820   1.557
29382SOL    HW188396   8.130  10.768   1.491
29382SOL    HW288397   8.063  10.757   1.626
29383SOL     OW88398   7.073   4.690   0.446
29383SOL    HW188399   7.103   4.749   0.515
29383SOL    HW288400   6.991   4.654   0.479
29384SOL     OW88401   7.325  10.734   6.462
29384SOL    HW188402   7.261  10.791   6.505
29384SOL    HW288403   7.278  10.699   6.386
29385SOL     OW88404  10.956   2.515   3.502
29385SOL    HW188405  10.985   2.564   3.425
29385SOL    HW288406  10.993   2.562   3.576
29386SOL     OW88407  12.901  12.958   7.549
29386SOL    HW188408  12.857  13.043   7.546
29386SOL    HW288409  12.831  12.894   7.535
29387SOL     OW88410   8.075   1.277   0.667
29387SOL    HW188411   8.050   1.240   0.583
29387SOL    HW288412   8.168   1.300   0.657
29388SOL     OW88413   6.777  11.937   4.396
29388SOL    HW188414   6.763  12.012   4.454
29388SOL    HW288415   6.688  11.908   4.374
29389SOL     OW88416   9.065   3.772   2.010
29389SOL    HW188417   9.106   3.728   1.936
29389SOL    HW288418   9.064   3.865   1.985
29390SOL     OW88419  11.409   4.762   0.909
29390SOL    HW188420  11.459   4.780   0.988
29390SOL    HW288421  11.350   4.690   0.935
29391SOL     OW88422   4.263   5.840   3.462
29391SOL    HW188423   4.191   5.900   3.444
29391SOL    HW288424   4.342   5.888   3.435
29392SOL     OW88425   4.181   6.595   4.707
29392SOL    HW188426   4.244   6.663   4.683
29392SOL    HW288427   4.097   6.628   4.674
29393SOL     OW88428   6.653   5.126   4.354
29393SOL    HW188429   6.634   5.216   4.380
29393SOL    HW288430   6.744   5.112   4.380
29394SOL     OW88431  15.393  13.007   7.305
29394SOL    HW188432  15.328  13.030   7.239
29394SOL    HW288433  15.400  12.911   7.299
29395SOL     OW88434   6.836   3.686   0.519
29395SOL    HW188435   6.753   3.657   0.557
29395SOL    HW288436   6.819   3.690   0.424
29396SOL     OW88437  13.203   9.912   3.937
29396SOL    HW188438  13.276   9.942   3.991
29396SOL    HW288439  13.165   9.840   3.987
29397SOL     OW88440   8.777   8.135   2.119
29397SOL    HW188441   8.827   8.202   2.072
29397SOL    HW288442   8.757   8.175   2.204
29398SOL     OW88443   7.413   3.874   0.487
29398SOL    HW188444   7.472   3.863   0.413
29398SOL    HW288445   7.361   3.793   0.489
29399SOL     OW88446   9.410  13.346   5.349
29399SOL    HW188447   9.423  13.252   5.360
29399SOL    HW288448   9.315  13.357   5.345
29400SOL     OW88449   9.273   9.166   5.853
29400SOL    HW188450   9.368   9.166   5.849
29400SOL    HW288451   9.251   9.119   5.933
29401SOL     OW88452   8.319   4.884   3.680
29401SOL    HW188453   8.308   4.852   3.770
29401SOL    HW288454   8.233   4.874   3.640
29402SOL     OW88455  12.793   6.779   4.962
29402SOL    HW188456  12.758   6.868   4.957
29402SOL    HW288457  12.883   6.787   4.930
29403SOL     OW88458  10.940  14.821   6.314
29403SOL    HW188459  10.849  14.813   6.344
29403SOL    HW288460  10.968  14.908   6.342
29404SOL     OW88461  11.894  11.263   6.184
29404SOL    HW188462  11.903  11.180   6.231
29404SOL    HW288463  11.934  11.328   6.242
29405SOL     OW88464   3.581   4.169   3.301
29405SOL    HW188465   3.615   4.166   3.212
29405SOL    HW288466   3.506   4.109   3.301
29406SOL     OW88467   7.180   6.890   3.234
29406SOL    HW188468   7.124   6.836   3.177
29406SOL    HW288469   7.174   6.848   3.320
29407SOL     OW88470   8.094   6.936   7.540
29407SOL    HW188471   8.125   6.933   7.450
29407SOL    HW288472   8.171   6.918   7.593
29408SOL     OW88473  10.525  11.507   7.172
29408SOL    HW188474  10.497  11.585   7.123
29408SOL    HW288475  10.591  11.539   7.233
29409SOL     OW88476  13.028   4.322   5.460
29409SOL    HW188477  12.999   4.245   5.509
29409SOL    HW288478  13.112   4.297   5.423
29410SOL     OW88479   3.174   6.753   3.627
29410SOL    HW188480   3.145   6.763   3.718
29410SOL    HW288481   3.186   6.658   3.616
29411SOL     OW88482   9.247   7.651   0.410
29411SOL    HW188483   9.335   7.613   0.416
29411SOL    HW288484   9.212   7.616   0.328
29412SOL     OW88485   5.381   6.562   7.199
29412SOL    HW188486   5.298   6.588   7.240
29412SOL    HW288487   5.436   6.640   7.204
29413SOL     OW88488   6.158  11.306   2.695
29413SOL    HW188489   6.222  11.376   2.708
29413SOL    HW288490   6.183  11.239   2.759
29414SOL     OW88491  10.515   6.022   4.139
29414SOL    HW188492  10.485   6.054   4.054
29414SOL    HW288493  10.505   5.927   4.135
29415SOL     OW88494  11.984  12.752   3.236
29415SOL    HW188495  12.027  12.827   3.195
29415SOL    HW288496  11.931  12.713   3.166
29416SOL     OW88497  11.663   5.153   1.988
29416SOL    HW188498  11.737   5.213   1.988
29416SOL    HW288499  11.691   5.081   2.046
29417SOL     OW88500  11.464   9.792   6.194
29417SOL    HW188501  11.544   9.756   6.232
29417SOL    HW288502  11.479   9.791   6.100
29418SOL     OW88503  14.104  14.737   6.621
29418SOL    HW188504  14.172  14.780   6.570
29418SOL    HW288505  14.043  14.702   6.556
29419SOL     OW88506   6.386   2.510   0.827
29419SOL    HW188507   6.396   2.492   0.921
29419SOL    HW288508   6.443   2.445   0.785
29420SOL     OW88509   9.250   8.449   0.698
29420SOL    HW188510   9.278   8.371   0.650
29420SOL    HW288511   9.181   8.487   0.643
29421SOL     OW88512  11.744  10.398   4.982
29421SOL    HW188513  11.806  10.338   4.939
29421SOL    HW288514  11.661  10.351   4.982
29422SOL     OW88515   5.510   8.943   0.282
29422SOL    HW188516   5.493   8.851   0.261
29422SOL    HW288517   5.584   8.967   0.226
29423SOL     OW88518   8.590  11.462   6.578
29423SOL    HW188519   8.512  11.414   6.550
29423SOL    HW288520   8.660  11.398   6.575
29424SOL     OW88521   5.199  11.762   5.917
29424SOL    HW188522   5.159  11.706   5.850
29424SOL    HW288523   5.264  11.707   5.960
29425SOL     OW88524   6.364   6.043   3.275
29425SOL    HW188525   6.451   6.011   3.296
29425SOL    HW288526   6.346   6.109   3.342
29426SOL     OW88527  11.353   5.252   2.117
29426SOL    HW188528  11.329   5.339   2.085
29426SOL    HW288529  11.448   5.249   2.109
29427SOL     OW88530  12.718   7.313   3.663
29427SOL    HW188531  12.697   7.370   3.738
29427SOL    HW288532  12.673   7.354   3.589
29428SOL     OW88533   2.017  11.711   1.412
29428SOL    HW188534   1.925  11.731   1.431
29428SOL    HW288535   2.066  11.773   1.467
29429SOL     OW88536   5.269   2.415   3.054
29429SOL    HW188537   5.296   2.359   3.126
29429SOL    HW288538   5.194   2.370   3.015
29430SOL     OW88539   4.364  11.667   2.572
29430SOL    HW188540   4.354  11.628   2.659
29430SOL    HW288541   4.274  11.675   2.539
29431SOL     OW88542   5.185   3.516   0.615
29431SOL    HW188543   5.159   3.434   0.657
29431SOL    HW288544   5.281   3.516   0.622
29432SOL     OW88545   9.067   7.084   2.320
29432SOL    HW188546   9.065   7.166   2.270
29432SOL    HW288547   9.159   7.073   2.344
29433SOL     OW88548   7.393   9.715   2.638
29433SOL    HW188549   7.457   9.644   2.644
29433SOL    HW288550   7.425   9.783   2.696
29434SOL     OW88551   6.817  13.853   5.856
29434SOL    HW188552   6.788  13.935   5.816
29434SOL    HW288553   6.849  13.879   5.942
29435SOL     OW88554  15.829  13.051   7.248
29435SOL    HW188555  15.905  13.072   7.303
29435SOL    HW288556   5.084  13.071   7.159
29436SOL     OW88557   1.422   8.884   0.671
29436SOL    HW188558   1.488   8.903   0.738
29436SOL    HW288559   1.454   8.805   0.628
29437SOL     OW88560  14.588  11.842   6.525
29437SOL    HW188561  14.542  11.807   6.601
29437SOL    HW288562  14.550  11.929   6.512
29438SOL     OW88563   7.136  11.309   5.959
29438SOL    HW188564   7.137  11.289   5.865
29438SOL    HW288565   7.048  11.285   5.988
29439SOL     OW88566   4.206   5.245   1.780
29439SOL    HW188567   4.209   5.259   1.686
29439SOL    HW288568   4.118   5.210   1.797
29440SOL     OW88569  13.714   6.414   4.492
29440SOL    HW188570  13.691   6.379   4.406
29440SOL    HW288571  13.809   6.427   4.487
29441SOL     OW88572   9.002   4.600   6.299
29441SOL    HW188573   9.055   4.635   6.371
29441SOL    HW288574   8.951   4.530   6.339
29442SOL     OW88575   6.730  11.665   4.549
29442SOL    HW188576   6.783  11.681   4.472
29442SOL    HW288577   6.640  11.659   4.516
29443SOL     OW88578   5.565   8.903   1.872
29443SOL    HW188579   5.482   8.919   1.828
29443SOL    HW288580   5.632   8.924   1.807
29444SOL     OW88581   8.227   8.312   0.521
29444SOL    HW188582   8.221   8.374   0.593
29444SOL    HW288583   8.314   8.329   0.483
29445SOL     OW88584   7.873   9.159   0.665
29445SOL    HW188585   7.892   9.251   0.648
29445SOL    HW288586   7.952   9.125   0.706
29446SOL     OW88587   3.397  10.903   4.448
29446SOL    HW188588   3.358  10.947   4.373
29446SOL    HW288589   3.326  10.896   4.512
29447SOL     OW88590  10.072   5.622   3.930
29447SOL    HW188591  10.137   5.553   3.920
29447SOL    HW288592  10.059   5.655   3.841
29448SOL     OW88593   9.817  10.076   0.985
29448SOL    HW188594   9.732  10.032   0.983
29448SOL    HW288595   9.864  10.042   0.909
29449SOL     OW88596  14.547  14.270   6.871
29449SOL    HW188597  14.630  14.288   6.914
29449SOL    HW288598  14.565  14.194   6.815
29450SOL     OW88599   8.540   7.813   2.186
29450SOL    HW188600   8.460   7.865   2.173
29450SOL    HW288601   8.581   7.852   2.264
29451SOL     OW88602   3.927   2.998   1.171
29451SOL    HW188603   3.962   2.927   1.118
29451SOL    HW288604   3.835   2.975   1.184
29452SOL     OW88605  12.589   8.330   4.604
29452SOL    HW188606  12.677   8.344   4.570
29452SOL    HW288607  12.602   8.289   4.689
29453SOL     OW88608   2.402   2.935   3.112
29453SOL    HW188609   2.433   3.002   3.174
29453SOL    HW288610   2.312   2.960   3.095
29454NA      NA88611   2.340   6.555   0.233
29455NA      NA88612   3.863  10.714   1.762
29456NA      NA88613  11.527   8.908   2.658
29457NA      NA88614   6.450  11.662   7.243
29458NA      NA88615   6.364   1.827   0.676
29459NA      NA88616  12.206   7.132   7.253
29460NA      NA88617   5.733   4.813   2.259
29461NA      NA88618  13.119   8.124   6.499
29462NA      NA88619   6.337   8.726   7.230
29463NA      NA88620   8.368   3.027   0.251
29464NA      NA88621   3.080   8.161   3.177
29465NA      NA88622   5.332   5.750   4.356
29466NA      NA88623   2.169   3.275   2.581
29467NA      NA88624   2.700   4.780   1.334
29468NA      NA88625   8.033  14.124   7.424
29469NA      NA88626   8.344   8.652   7.053
29470NA      NA88627   5.588  12.436   3.787
29471NA      NA88628   7.246  13.275   3.734
29472NA      NA88629   9.394   6.694   2.496
29473NA      NA88630   9.287   7.634   5.866
29474NA      NA88631   6.552  11.270   1.616
29475NA      NA88632   8.842   5.009   0.344
29476NA      NA88633   8.000  10.573   5.170
29477NA      NA88634  11.229   7.741   4.082
29478NA      NA88635  10.344  11.277   4.433
29479NA      NA88636   8.138   4.156   1.152
29480NA      NA88637  13.301  12.256   5.723
29481NA      NA88638  10.227   5.513   5.544
29482NA      NA88639   8.645   8.099   3.249
29483NA      NA88640  10.781   9.788   4.147
29484NA      NA88641   6.602   8.327   1.059
29485NA      NA88642  13.171  13.280   6.941
29486NA      NA88643   9.381  10.274   2.408
29487NA      NA88644   9.744  11.877   5.484
29488NA      NA88645  11.121   6.855   4.416
29489NA      NA88646   5.299  11.620   2.190
29490NA      NA88647  13.830   9.240   4.643
29491NA      NA88648   7.646   9.748   0.195
29492NA      NA88649   5.281   4.326   4.220
29493NA      NA88650   5.720  12.352   5.231
29494NA      NA88651  10.696   3.159   0.508
29495NA      NA88652  12.530  15.356   7.422
29496NA      NA88653   6.007   5.571   3.578
29497NA      NA88654  11.409   7.353   5.675
29498NA      NA88655   2.295   1.659   0.429
29499NA      NA88656  12.944   4.828   5.342
29500NA      NA88657  10.689  15.702   7.423
29501NA      NA88658  13.598  14.189   6.420
29502NA      NA88659   3.076   6.832   2.718
29503NA      NA88660   9.112   9.056   5.458
29504NA      NA88661  11.116   7.620   1.002
29505NA      NA88662   1.061   6.915   1.372
29506NA      NA88663   4.818   5.694   3.825
29507NA      NA88664   8.444  13.001   5.834
29508NA      NA88665   7.138  11.511   3.223
29509NA      NA88666   8.343   5.862   2.678
29510NA      NA88667   3.611   2.312   2.126
29511NA      NA88668  12.929   6.147   5.245
29512NA      NA88669  12.886   5.029   3.376
29513NA      NA88670   3.921   9.764   0.750
29514NA      NA88671   2.591   8.107   1.303
29515NA      NA88672   5.817   5.148   0.052
29516NA      NA88673   3.505   9.504   3.082
29517NA      NA88674   4.253   3.687   2.591
29518NA      NA88675   5.400  11.983   6.713
29519NA      NA88676   7.934   9.269   6.875
29520NA      NA88677   8.400  11.479   5.748
29521NA      NA88678   9.077  10.873   2.028
29522NA      NA88679   8.107   4.641   5.976
29523NA      NA88680   6.472   9.116   1.753
29524NA      NA88681  12.514   4.283   5.369
29525NA      NA88682  14.173   8.418   6.214
29526NA      NA88683  11.753  13.841   4.574
29527NA      NA88684   4.104   6.043   5.466
29528NA      NA88685   1.794   1.807   1.621
29529NA      NA88686  10.604   8.964   6.582
29530NA      NA88687   4.370   6.185   2.855
29531NA      NA88688   9.905   5.183   4.175
29532NA      NA88689   6.005   3.452   4.000
29533NA      NA88690   9.658   8.697   2.419
29534NA      NA88691   7.707  11.077   1.365
29535NA      NA88692  10.826  13.230   4.133
29536CL      CL88693   0.822   6.978   0.225
29537CL      CL88694  13.288   8.241   6.326
29538CL      CL88695   8.112   9.732   1.456
29539CL      CL88696   2.663   6.828   2.277
29540CL      CL88697  11.965   6.086   5.760
29541CL      CL88698  10.446   7.707   4.347
29542CL      CL88699  10.788   3.761   2.946
29543CL      CL88700   3.320   3.649   0.781
29544CL      CL88701  13.141   5.275   5.217
29545CL      CL88702   2.003   5.858   2.649
29546CL      CL88703  13.993   6.646   6.969
29547CL      CL88704  10.468   5.140   0.239
29548CL      CL88705  10.510  10.613   7.324
29549CL      CL88706   6.276  10.595   0.709
29550CL      CL88707  13.845   9.702   4.664
29551CL      CL88708  13.396   4.337   5.868
29552CL      CL88709  10.338   7.423   3.899
29553CL      CL88710  11.405  13.344   5.360
29554CL      CL88711   3.569   7.783   3.713
29555CL      CL88712   6.825   1.506   1.013
29556CL      CL88713  11.224   4.520   1.041
29557CL      CL88714   8.573  11.366   4.550
29558CL      CL88715  12.390   4.842   6.003
29559CL      CL88716   7.115  13.381   6.632
29560CL      CL88717  14.943   9.422   6.182
29561CL      CL88718   7.274  13.188   5.165
29562CL      CL88719  11.988   2.035   2.071
29563CL      CL88720  12.581  14.505   6.058
29564CL      CL88721   3.155   8.943   2.965
29565CL      CL88722   3.302  11.326   3.815
29566CL      CL88723   5.422   5.656   3.636
29567CL      CL88724   5.676   8.475   6.460
29568CL      CL88725  11.198  12.262   7.203
29569CL      CL88726  11.395  12.425   6.429
29570CL      CL88727   6.908  11.042   3.281
29571CL      CL88728   4.097   2.072   2.195
29572CL      CL88729   8.585   2.083   2.541
29573CL      CL88730   3.400   2.451   1.970
29574CL      CL88731   9.173  10.226   3.613
29575CL      CL88732  13.524   9.327   6.423
29576CL      CL88733   4.635   5.258   3.845
29577CL      CL88734   5.816   2.274   2.107
29578CL      CL88735   9.126   9.321   4.847
29579CL      CL88736   6.414  11.534   5.123
29580CL      CL88737   4.552  11.155   5.385
29581CL      CL88738   3.967   6.663   3.895
29582CL      CL88739   7.047   9.640   6.592
29583CL      CL88740  11.496   6.580   4.278
29584CL      CL88741   7.479   6.933   1.148
29585CL      CL88742   6.315   3.497   1.441
29586CL      CL88743   3.846   6.565   0.442
29587CL      CL88744   8.287   2.851   1.230
29588CL      CL88745   6.243   6.235   2.088
29589CL      CL88746   9.266   2.675   3.287
29590CL      CL88747  10.341   6.882   6.349
29591CL      CL88748  10.072   5.811   5.086
29592CL      CL88749  11.606   7.264   6.328
29593CL      CL88750   8.415   8.172   2.388
29594CL      CL88751   7.240   5.927   2.570
29595CL      CL88752   3.880  12.458   3.379
29596CL      CL88753   5.594   5.384   4.037
29597CL      CL88754   3.107   4.779   1.054
29598CL      CL88755   5.938  13.476   7.599
29599CL      CL88756   6.701  10.651   4.038
29600CL      CL88757   8.706  12.773   6.212
29601CL      CL88758   2.987  11.613   1.204
29602CL      CL88759   5.684  11.549   7.232
29603CL      CL88760   8.380   5.785   3.706
29604CL      CL88761   6.506   7.596   5.653
29605CL      CL88762   6.690   3.967   0.220
29606CL      CL88763  11.845   5.396   2.012
29607CL      CL88764   5.387  10.378   4.049
29608CL      CL88765   5.646   7.245   7.387
29609CL      CL88766  10.488  10.515   5.757
29610CL      CL88767  12.518  11.626   2.693
29611CL      CL88768   8.477   5.135   0.930
29612CL      CL88769   9.691   7.017   4.697
29613CL      CL88770   9.513   5.498   6.720
29614CL      CL88771   3.816   1.574   1.356
29615CL      CL88772  13.450  10.570   5.963
29616CL      CL88773   3.597   8.569   2.107
29617CL      CL88774  13.148  13.221   7.466
  10.77449  10.77449   7.61872   0.00000   0.00000   0.00000   0.00000   5.38725   5.38725
