Protein in water t=   0.00000 step= 0
39897
    1GLY      N    1   1.419   4.382   5.515
    1GLY     H1    2   1.331   4.373   5.460
    1GLY     H2    3   1.409   4.471   5.568
    1GLY     H3    4   1.492   4.396   5.442
    1GLY     CA    5   1.435   4.264   5.607
    1GLY    HA1    6   1.458   4.182   5.541
    1GLY    HA2    7   1.519   4.281   5.673
    1GLY      C    8   1.315   4.225   5.686
    1GLY      O    9   1.199   4.248   5.650
    2ALA      N   10   1.349   4.156   5.793
    2ALA     HN   11   1.444   4.132   5.813
    2ALA     CA   12   5.371   8.202   0.051
    2ALA     HA   13   1.219   4.010   5.803
    2ALA     CB   14   5.433   8.121   0.172
    2ALA    HB1   15   5.486   8.036   0.123
    2ALA    HB2   16   5.509   8.177   0.230
    2ALA    HB3   17   5.356   8.065   0.230
    2ALA      C   18   5.251   0.054   0.102
    2ALA      O   19   5.266   0.175   0.125
    3MET      N   20   5.135   8.212   0.127
    3MET     HN   21   5.135   8.116   0.100
    3MET     CA   22   5.015   0.034   0.179
    3MET     HA   23   4.988   0.124   0.125
    3MET     CB   24   4.895   8.161   0.179
    3MET    HB1   25   4.871   8.150   0.071
    3MET    HB2   26   4.934   8.059   0.202
    3MET     CG   27   4.760   8.181   0.253
    3MET    HG1   28   4.707   8.088   0.223
    3MET    HG2   29   4.780   8.169   0.362
    3MET     SD   30   4.668   0.102   0.225
    3MET     CE   31   4.547   0.121   0.358
    3MET    HE1   32   4.566   0.222   0.400
    3MET    HE2   33   4.439   0.128   0.330
    3MET    HE3   34   4.564   0.052   0.443
    3MET      C   35   5.035   0.090   0.317
    3MET      O   36   5.096   0.034   0.413
    4GLY      N   37   4.981   0.209   0.336
    4GLY     HN   38   4.919   0.247   0.268
    4GLY     CA   39   5.003   0.297   0.446
    4GLY    HA1   40   5.105   0.287   0.480
    4GLY    HA2   41   4.978   0.395   0.407
    4GLY      C   42   4.922   0.265   0.569
    4GLY      O   43   4.850   0.163   0.593
    5PRO      N   44   4.923   0.361   0.665
    5PRO     CD   45   5.017   0.481   0.655
    5PRO    HD1   46   4.984   0.548   0.572
    5PRO    HD2   47   5.121   0.453   0.631
    5PRO     CA   48   4.848   0.362   0.785
    5PRO     HA   49   4.879   0.274   0.839
    5PRO     CB   50   4.882   0.499   0.853
    5PRO    HB1   51   4.796   0.569   0.844
    5PRO    HB2   52   4.914   0.480   0.958
    5PRO     CG   53   5.007   0.561   0.783
    5PRO    HG1   54   4.986   0.668   0.761
    5PRO    HG2   55   5.105   0.541   0.830
    5PRO      C   56   4.698   0.351   0.768
    5PRO      O   57   4.635   0.403   0.675
    6SER      N   58   4.634   0.294   0.870
    6SER     HN   59   4.687   0.251   0.943
    6SER     CA   60   4.494   0.287   0.882
    6SER     HA   61   4.440   0.340   0.805
    6SER     CB   62   4.428   0.150   0.880
    6SER    HB1   63   4.476   0.083   0.954
    6SER    HB2   64   4.319   0.161   0.901
    6SER     OG   65   4.444   0.092   0.748
    6SER    HG1   66   4.538   0.079   0.733
    6SER      C   67   4.448   0.351   1.007
    6SER      O   68   4.484   0.312   1.111
    7TYR      N   69   4.357   0.443   0.995
    7TYR     HN   70   4.321   0.473   0.907
    7TYR     CA   71   4.282   0.511   1.102
    7TYR     HA   72   4.199   0.562   1.055
    7TYR     CB   73   4.196   0.412   1.196
    7TYR    HB1   74   4.270   0.378   1.271
    7TYR    HB2   75   4.117   0.472   1.247
    7TYR     CG   76   4.129   0.299   1.126
    7TYR    CD1   77   4.026   0.315   1.030
    7TYR    HD1   78   3.987   0.415   1.017
    7TYR    CE1   79   3.965   0.211   0.969
    7TYR    HE1   80   3.898   0.238   0.889
    7TYR     CZ   81   4.012   0.082   0.988
    7TYR     OH   82   3.959   8.204   0.911
    7TYR     HH   83   4.009   8.127   0.939
    7TYR    CD2   84   4.171   0.165   1.149
    7TYR    HD2   85   4.252   0.149   1.218
    7TYR    CE2   86   4.113   0.058   1.084
    7TYR    HE2   87   4.152   8.190   1.107
    7TYR      C   88   4.372   0.613   1.170
    7TYR      O   89   4.370   0.636   1.292
    8GLY      N   90   4.464   0.677   1.091
    8GLY     HN   91   4.469   0.654   0.994
    8GLY     CA   92   4.558   0.775   1.146
    8GLY    HA1   93   4.569   0.864   1.086
    8GLY    HA2   94   4.547   0.796   1.251
    8GLY      C   95   4.698   0.715   1.153
    8GLY      O   96   4.715   0.593   1.150
    9ARG      N   97   4.807   0.797   1.163
    9ARG     HN   98   4.799   0.891   1.196
    9ARG     CA   99   4.946   0.746   1.139
    9ARG     HA  100   4.954   0.717   1.035
    9ARG     CB  101   5.046   0.867   1.151
    9ARG    HB1  102   5.045   0.904   1.256
    9ARG    HB2  103   5.147   0.828   1.131
    9ARG     CG  104   5.038   0.985   1.052
    9ARG    HG1  105   5.037   0.962   0.943
    9ARG    HG2  106   4.943   1.040   1.074
    9ARG     CD  107   5.143   1.097   1.081
    9ARG    HD1  108   5.127   1.187   1.018
    9ARG    HD2  109   5.123   1.132   1.185
    9ARG     NE  110   5.284   1.041   1.064
    9ARG     HE  111   5.295   0.945   1.040
    9ARG     CZ  112   5.393   1.109   1.069
    9ARG    NH1  113   5.395   1.243   1.070
    9ARG   HH11  114   5.305   1.273   1.102
    9ARG   HH12  115   5.482   1.292   1.071
    9ARG    NH2  116   5.509   1.042   1.063
    9ARG   HH21  117   5.510   0.943   1.069
    9ARG   HH22  118   5.600   1.081   1.050
    9ARG      C  119   4.990   0.637   1.230
    9ARG      O  120   5.067   0.548   1.191
   10SER      N  121   4.948   0.642   1.362
   10SER     HN  122   4.896   0.721   1.394
   10SER     CA  123   4.977   0.542   1.462
   10SER     HA  124   5.081   0.514   1.454
   10SER     CB  125   4.965   0.587   1.604
   10SER    HB1  126   4.862   0.615   1.636
   10SER    HB2  127   4.998   0.504   1.670
   10SER     OG  128   5.046   0.693   1.639
   10SER    HG1  129   5.025   0.769   1.583
   10SER      C  130   4.891   0.417   1.448
   10SER      O  131   4.772   0.435   1.420
   11ARG      N  132   4.939   0.295   1.476
   11ARG     HN  133   5.033   0.275   1.499
   11ARG     CA  134   4.863   0.167   1.477
   11ARG     HA  135   4.782   0.180   1.406
   11ARG     CB  136   4.946   0.045   1.439
   11ARG    HB1  137   5.016   0.016   1.520
   11ARG    HB2  138   4.874   8.189   1.439
   11ARG     CG  139   4.993   0.056   1.293
   11ARG    HG1  140   4.980   8.187   1.244
   11ARG    HG2  141   4.926   0.129   1.242
   11ARG     CD  142   5.132   0.125   1.263
   11ARG    HD1  143   5.138   0.164   1.159
   11ARG    HD2  144   5.156   0.199   1.343
   11ARG     NE  145   5.233   0.017   1.279
   11ARG     HE  146   5.204   8.151   1.274
   11ARG     CZ  147   5.357   0.025   1.241
   11ARG    NH1  148   5.415   0.139   1.206
   11ARG   HH11  149   5.363   0.225   1.215
   11ARG   HH12  150   5.502   0.130   1.158
   11ARG    NH2  151   5.426   8.143   1.232
   11ARG   HH21  152   5.418   8.076   1.306
   11ARG   HH22  153   5.520   8.158   1.203
   11ARG      C  154   4.790   0.141   1.606
   11ARG      O  155   4.814   0.217   1.702
   12SER      N  156   4.693   0.052   1.616
   12SER     HN  157   4.665   8.227   1.538
   12SER     CA  158   4.624   0.024   1.741
   12SER     HA  159   4.602   0.111   1.801
   12SER     CB  160   4.491   8.185   1.702
   12SER    HB1  161   4.437   0.039   1.652
   12SER    HB2  162   4.478   8.103   1.628
   12SER     OG  163   4.420   8.146   1.821
   12SER    HG1  164   4.348   8.210   1.827
   12SER      C  165   4.702   8.173   1.837
   12SER      O  166   4.771   8.081   1.801
   13ARG      N  167   4.705   8.209   1.965
   13ARG     HN  168   4.654   0.059   1.997
   13ARG     CA  169   4.775   8.138   2.067
   13ARG     HA  170   4.874   8.111   2.035
   13ARG     CB  171   4.812   8.229   2.187
   13ARG    HB1  172   4.722   0.031   2.244
   13ARG    HB2  173   4.858   8.162   2.263
   13ARG     CG  174   4.900   0.120   2.154
   13ARG    HG1  175   4.872   0.166   2.057
   13ARG    HG2  176   4.900   0.212   2.217
   13ARG     CD  177   5.053   0.095   2.136
   13ARG    HD1  178   5.068   0.016   2.060
   13ARG    HD2  179   5.107   0.184   2.097
   13ARG     NE  180   5.108   0.050   2.272
   13ARG     HE  181   5.051   8.227   2.335
   13ARG     CZ  182   5.229   0.063   2.318
   13ARG    NH1  183   5.331   0.111   2.251
   13ARG   HH11  184   5.317   0.110   2.152
   13ARG   HH12  185   5.424   0.098   2.284
   13ARG    NH2  186   5.250   0.031   2.443
   13ARG   HH21  187   5.173   0.003   2.501
   13ARG   HH22  188   5.331   0.070   2.487
   13ARG      C  189   4.716   8.006   2.102
   13ARG      O  190   4.601   7.974   2.084
   14SER      N  191   4.795   7.918   2.157
   14SER     HN  192   4.890   7.945   2.151
   14SER     CA  193   4.767   7.787   2.208
   14SER     HA  194   4.735   7.733   2.120
   14SER     CB  195   4.890   7.706   2.256
   14SER    HB1  196   4.939   7.758   2.340
   14SER    HB2  197   4.858   7.602   2.281
   14SER     OG  198   4.988   7.687   2.156
   14SER    HG1  199   5.012   7.778   2.140
   14SER      C  200   4.662   7.782   2.310
   14SER      O  201   4.655   7.871   2.394
   15ARG      N  202   4.578   7.675   2.312
   15ARG     HN  203   4.565   7.616   2.232
   15ARG     CA  204   4.477   7.642   2.409
   15ARG     HA  205   4.507   7.680   2.506
   15ARG     CB  206   4.340   7.690   2.360
   15ARG    HB1  207   4.314   7.638   2.265
   15ARG    HB2  208   4.254   7.656   2.422
   15ARG     CG  209   4.328   7.839   2.351
   15ARG    HG1  210   4.381   7.868   2.258
   15ARG    HG2  211   4.222   7.859   2.325
   15ARG     CD  212   4.353   7.925   2.474
   15ARG    HD1  213   4.286   7.893   2.557
   15ARG    HD2  214   4.455   7.915   2.516
   15ARG     NE  215   4.324   8.066   2.434
   15ARG     HE  216   4.231   8.100   2.450
   15ARG     CZ  217   4.420   8.152   2.417
   15ARG    NH1  218   4.543   8.124   2.396
   15ARG   HH11  219   4.572   8.031   2.420
   15ARG   HH12  220   4.600   8.200   2.427
   15ARG    NH2  221   4.391   0.050   2.415
   15ARG   HH21  222   4.298   0.082   2.396
   15ARG   HH22  223   4.468   0.113   2.406
   15ARG      C  224   4.469   7.490   2.421
   15ARG      O  225   4.519   7.415   2.342
   16SER      N  226   4.407   7.434   2.528
   16SER     HN  227   4.353   7.500   2.580
   16SER     CA  228   4.409   7.291   2.567
   16SER     HA  229   4.512   7.259   2.573
   16SER     CB  230   4.348   7.260   2.710
   16SER    HB1  231   4.398   7.322   2.787
   16SER    HB2  232   4.240   7.283   2.699
   16SER     OG  233   4.378   7.127   2.757
   16SER    HG1  234   4.395   7.134   2.851
   16SER      C  235   4.357   7.188   2.467
   16SER      O  236   4.261   7.217   2.401
   17ARG      N  237   4.429   7.077   2.441
   17ARG     HN  238   4.503   7.054   2.503
   17ARG     CA  239   4.397   6.974   2.342
   17ARG     HA  240   4.368   7.019   2.248
   17ARG     CB  241   4.527   6.886   2.297
   17ARG    HB1  242   4.582   6.861   2.390
   17ARG    HB2  243   4.495   6.799   2.236
   17ARG     CG  244   4.623   6.965   2.211
   17ARG    HG1  245   4.707   6.894   2.197
   17ARG    HG2  246   4.589   6.970   2.105
   17ARG     CD  247   4.686   7.099   2.252
   17ARG    HD1  248   4.613   7.183   2.258
   17ARG    HD2  249   4.743   7.090   2.347
   17ARG     NE  250   4.783   7.127   2.139
   17ARG     HE  251   4.778   7.086   2.048
   17ARG     CZ  252   4.864   7.228   2.130
   17ARG    NH1  253   4.881   7.318   2.223
   17ARG   HH11  254   4.854   7.295   2.317
   17ARG   HH12  255   4.943   7.393   2.205
   17ARG    NH2  256   4.941   7.238   2.022
   17ARG   HH21  257   4.960   7.161   1.961
   17ARG   HH22  258   5.011   7.307   2.035
   17ARG      C  259   4.279   6.888   2.383
   17ARG      O  260   4.271   6.853   2.498
   18SER      N  261   4.186   6.865   2.285
   18SER     HN  262   4.199   6.908   2.196
   18SER     CA  263   4.061   6.798   2.304
   18SER     HA  264   3.997   6.854   2.371
   18SER     CB  265   3.992   6.785   2.167
   18SER    HB1  266   3.985   6.888   2.128
   18SER    HB2  267   4.067   6.728   2.108
   18SER     OG  268   3.858   6.713   2.176
   18SER    HG1  269   3.800   6.782   2.208
   18SER      C  270   4.076   6.654   2.364
   18SER      O  271   4.172   6.589   2.334
   19ARG      N  272   3.973   6.605   2.429
   19ARG     HN  273   3.889   6.656   2.447
   19ARG     CA  274   3.965   6.471   2.482
   19ARG     HA  275   4.060   6.420   2.477
   19ARG     CB  276   3.913   6.469   2.625
   19ARG    HB1  277   3.810   6.512   2.621
   19ARG    HB2  278   3.914   6.363   2.659
   19ARG     CG  279   4.001   6.553   2.721
   19ARG    HG1  280   3.994   6.660   2.695
   19ARG    HG2  281   3.965   6.538   2.825
   19ARG     CD  282   4.150   6.518   2.730
   19ARG    HD1  283   4.164   6.417   2.774
   19ARG    HD2  284   4.191   6.516   2.627
   19ARG     NE  285   4.216   6.620   2.814
   19ARG     HE  286   4.181   6.712   2.829
   19ARG     CZ  287   4.310   6.592   2.905
   19ARG    NH1  288   4.376   6.477   2.916
   19ARG   HH11  289   4.386   6.410   2.842
   19ARG   HH12  290   4.450   6.475   2.983
   19ARG    NH2  291   4.315   6.681   3.005
   19ARG   HH21  292   4.266   6.767   2.990
   19ARG   HH22  293   4.369   6.667   3.088
   19ARG      C  294   3.875   6.382   2.400
   19ARG      O  295   3.823   6.283   2.451
   20SER      N  296   3.859   6.414   2.272
   20SER     HN  297   3.910   6.492   2.238
   20SER     CA  298   3.769   6.352   2.177
   20SER     HA  299   3.789   6.399   2.082
   20SER     CB  300   3.802   6.196   2.163
   20SER    HB1  301   3.911   6.188   2.145
   20SER    HB2  302   3.774   6.140   2.255
   20SER     OG  303   3.725   6.144   2.056
   20SER    HG1  304   3.756   6.185   1.976
   20SER      C  305   3.628   6.385   2.208
   20SER      O  306   3.583   6.375   2.324
   21ARG      N  307   3.550   6.439   2.107
   21ARG     HN  308   3.595   6.465   2.022
   21ARG     CA  309   3.410   6.451   2.117
   21ARG     HA  310   3.376   6.430   2.217
   21ARG     CB  311   3.373   6.600   2.070
   21ARG    HB1  312   3.406   6.614   1.965
   21ARG    HB2  313   3.263   6.613   2.086
   21ARG     CG  314   3.444   6.710   2.151
   21ARG    HG1  315   3.554   6.709   2.142
   21ARG    HG2  316   3.415   6.813   2.121
   21ARG     CD  317   3.410   6.723   2.311
   21ARG    HD1  318   3.454   6.819   2.344
   21ARG    HD2  319   3.300   6.722   2.329
   21ARG     NE  320   3.467   6.609   2.391
   21ARG     HE  321   3.521   6.538   2.346
   21ARG     CZ  322   3.448   6.594   2.520
   21ARG    NH1  323   3.396   6.679   2.600
   21ARG   HH11  324   3.360   6.765   2.564
   21ARG   HH12  325   3.367   6.641   2.688
   21ARG    NH2  326   3.486   6.480   2.567
   21ARG   HH21  327   3.550   6.425   2.514
   21ARG   HH22  328   3.485   6.452   2.663
   21ARG      C  329   3.344   6.357   2.019
   21ARG      O  330   3.228   6.361   1.993
   22SER      N  331   3.424   6.260   1.967
   22SER     HN  332   3.521   6.258   1.988
   22SER     CA  333   3.376   6.145   1.892
   22SER     HA  334   3.317   6.174   1.806
   22SER     CB  335   3.493   6.061   1.849
   22SER    HB1  336   3.577   6.117   1.803
   22SER    HB2  337   3.538   6.020   1.942
   22SER     OG  338   3.463   5.954   1.756
   22SER    HG1  339   3.411   5.893   1.809
   22SER      C  340   3.270   6.062   1.970
   22SER      O  341   3.297   6.040   2.087
   23ARG      N  342   3.152   6.030   1.917
   23ARG     HN  343   3.119   6.056   1.826
   23ARG     CA  344   3.049   5.959   1.989
   23ARG     HA  345   3.097   5.927   2.080
   23ARG     CB  346   2.934   6.055   2.011
   23ARG    HB1  347   2.894   6.081   1.911
   23ARG    HB2  348   2.856   6.009   2.076
   23ARG     CG  349   2.973   6.190   2.075
   23ARG    HG1  350   3.045   6.238   2.006
   23ARG    HG2  351   2.876   6.245   2.078
   23ARG     CD  352   3.015   6.191   2.220
   23ARG    HD1  353   2.959   6.124   2.290
   23ARG    HD2  354   3.119   6.154   2.213
   23ARG     NE  355   3.014   6.333   2.267
   23ARG     HE  356   2.963   6.405   2.221
   23ARG     CZ  357   3.071   6.372   2.388
   23ARG    NH1  358   3.144   6.290   2.468
   23ARG   HH11  359   3.166   6.197   2.439
   23ARG   HH12  360   3.174   6.316   2.560
   23ARG    NH2  361   3.050   6.490   2.428
   23ARG   HH21  362   2.986   6.547   2.377
   23ARG   HH22  363   3.086   6.516   2.518
   23ARG      C  364   2.996   5.839   1.902
   23ARG      O  365   2.955   5.858   1.790
   24SER      N  366   2.997   5.719   1.961
   24SER     HN  367   3.037   5.706   2.051
   24SER     CA  368   2.955   5.599   1.891
   24SER     HA  369   2.988   5.583   1.789
   24SER     CB  370   3.002   5.470   1.962
   24SER    HB1  371   2.988   5.479   2.072
   24SER    HB2  372   2.944   5.384   1.921
   24SER     OG  373   3.147   5.456   1.948
   24SER    HG1  374   3.167   5.462   1.854
   24SER      C  375   2.802   5.592   1.884
   24SER    OT1  376   2.740   5.551   1.982
   24SER    OT2  377   2.740   5.614   1.773
   25SOL     OW  378   0.859   2.855   2.881
   25SOL    HW1  379   0.914   2.906   2.940
   25SOL    HW2  380   0.861   2.903   2.798
   26SOL     OW  381   4.247   4.694   3.900
   26SOL    HW1  382   4.249   4.752   3.824
   26SOL    HW2  383   4.176   4.729   3.955
   27SOL     OW  384   0.641   3.261   3.080
   27SOL    HW1  385   0.680   3.340   3.041
   27SOL    HW2  386   0.647   3.275   3.174
   28SOL     OW  387   3.499   1.671   0.796
   28SOL    HW1  388   3.588   1.703   0.781
   28SOL    HW2  389   3.509   1.600   0.859
   29SOL     OW  390   1.324   3.184   4.935
   29SOL    HW1  391   1.420   3.181   4.940
   29SOL    HW2  392   1.295   3.111   4.990
   30SOL     OW  393   2.548   5.530   1.083
   30SOL    HW1  394   2.484   5.541   1.154
   30SOL    HW2  395   2.495   5.506   1.007
   31SOL     OW  396   6.089   3.707   2.865
   31SOL    HW1  397   6.161   3.701   2.927
   31SOL    HW2  398   6.057   3.617   2.856
   32SOL     OW  399   5.492   0.178   4.348
   32SOL    HW1  400   5.522   0.269   4.349
   32SOL    HW2  401   5.567   0.128   4.317
   33SOL     OW  402   5.611   0.011   1.594
   33SOL    HW1  403   5.675   8.188   1.643
   33SOL    HW2  404   5.529   8.229   1.642
   34SOL     OW  405   3.278   7.053   5.210
   34SOL    HW1  406   3.273   7.117   5.139
   34SOL    HW2  407   3.237   6.974   5.174
   35SOL     OW  408   1.915   4.215   4.033
   35SOL    HW1  409   1.985   4.253   4.085
   35SOL    HW2  410   1.835   4.233   4.083
   36SOL     OW  411   0.818   2.747   3.874
   36SOL    HW1  412   0.780   2.795   3.948
   36SOL    HW2  413   0.883   2.807   3.837
   37SOL     OW  414   2.285   6.552   1.606
   37SOL    HW1  415   2.202   6.596   1.586
   37SOL    HW2  416   2.290   6.479   1.544
   38SOL     OW  417   6.173   6.376   1.223
   38SOL    HW1  418   6.108   6.360   1.291
   38SOL    HW2  419   6.252   6.333   1.255
   39SOL     OW  420   8.212   4.548   1.434
   39SOL    HW1  421   8.160   4.627   1.449
   39SOL    HW2  422   0.057   4.578   1.381
   40SOL     OW  423   2.421   7.964   0.696
   40SOL    HW1  424   2.354   7.970   0.628
   40SOL    HW2  425   2.501   7.997   0.654
   41SOL     OW  426   5.859   6.722   1.235
   41SOL    HW1  427   5.799   6.726   1.160
   41SOL    HW2  428   5.861   6.629   1.259
   42SOL     OW  429   2.788   4.915   4.071
   42SOL    HW1  430   2.724   4.886   4.136
   42SOL    HW2  431   2.759   4.874   3.989
   43SOL     OW  432   0.871   5.383   0.849
   43SOL    HW1  433   0.879   5.421   0.761
   43SOL    HW2  434   0.855   5.290   0.834
   44SOL     OW  435   1.224   4.340   3.179
   44SOL    HW1  436   1.218   4.245   3.166
   44SOL    HW2  437   1.219   4.376   3.090
   45SOL     OW  438   2.343   3.056   5.193
   45SOL    HW1  439   2.255   3.023   5.211
   45SOL    HW2  440   2.329   3.133   5.138
   46SOL     OW  441   6.845   2.729   0.189
   46SOL    HW1  442   6.834   2.636   0.169
   46SOL    HW2  443   6.904   2.761   0.121
   47SOL     OW  444   2.006   8.214   5.706
   47SOL    HW1  445   1.916   8.220   5.673
   47SOL    HW2  446   2.019   8.121   5.723
   48SOL     OW  447   1.572   0.284   2.678
   48SOL    HW1  448   1.486   0.306   2.641
   48SOL    HW2  449   1.594   0.199   2.640
   49SOL     OW  450   1.396   4.743   1.038
   49SOL    HW1  451   1.444   4.736   1.120
   49SOL    HW2  452   1.308   4.712   1.059
   50SOL     OW  453   2.975   6.662   1.957
   50SOL    HW1  454   2.987   6.594   1.891
   50SOL    HW2  455   2.954   6.741   1.907
   51SOL     OW  456   7.916   1.695   0.679
   51SOL    HW1  457   7.836   1.748   0.675
   51SOL    HW2  458   7.977   1.747   0.732
   52SOL     OW  459   4.161   3.835   2.977
   52SOL    HW1  460   4.179   3.741   2.968
   52SOL    HW2  461   4.067   3.844   2.960
   53SOL     OW  462   5.134   0.857   5.813
   53SOL    HW1  463   5.133   0.762   5.805
   53SOL    HW2  464   1.110   4.993   0.017
   54SOL     OW  465   2.332   5.290   1.903
   54SOL    HW1  466   2.355   5.381   1.921
   54SOL    HW2  467   2.261   5.271   1.964
   55SOL     OW  468   6.730   5.844   3.658
   55SOL    HW1  469   6.651   5.897   3.661
   55SOL    HW2  470   6.753   5.841   3.565
   56SOL     OW  471   0.414   1.089   3.780
   56SOL    HW1  472   0.330   1.117   3.743
   56SOL    HW2  473   0.433   1.006   3.736
   57SOL     OW  474   2.838   4.389   2.962
   57SOL    HW1  475   2.820   4.319   2.900
   57SOL    HW2  476   2.934   4.394   2.964
   58SOL     OW  477   1.689   6.190   4.042
   58SOL    HW1  478   1.611   6.179   3.988
   58SOL    HW2  479   1.657   6.226   4.124
   59SOL     OW  480   2.066   7.438   5.536
   59SOL    HW1  481   1.990   7.438   5.594
   59SOL    HW2  482   2.140   7.423   5.594
   60SOL     OW  483   6.312   0.592   2.862
   60SOL    HW1  484   6.353   0.676   2.881
   60SOL    HW2  485   6.382   0.540   2.823
   61SOL     OW  486   1.583   1.195   4.416
   61SOL    HW1  487   1.505   1.140   4.409
   61SOL    HW2  488   1.627   1.186   4.331
   62SOL     OW  489   5.458   0.738   2.617
   62SOL    HW1  490   5.369   0.742   2.652
   62SOL    HW2  491   5.469   0.647   2.590
   63SOL     OW  492   0.188   2.332   4.447
   63SOL    HW1  493   0.207   2.252   4.497
   63SOL    HW2  494   0.095   2.348   4.461
   64SOL     OW  495   4.474   0.180   5.554
   64SOL    HW1  496   4.552   0.229   5.581
   64SOL    HW2  497   4.403   0.221   5.603
   65SOL     OW  498   0.058   7.740   0.520
   65SOL    HW1  499   0.114   7.683   0.467
   65SOL    HW2  500   8.199   7.721   0.489
   66SOL     OW  501   0.577   6.656   1.257
   66SOL    HW1  502   0.541   6.600   1.326
   66SOL    HW2  503   0.555   6.612   1.175
   67SOL     OW  504   1.689   3.727   3.074
   67SOL    HW1  505   1.677   3.816   3.107
   67SOL    HW2  506   1.630   3.721   2.999
   68SOL     OW  507   2.504   0.518   2.084
   68SOL    HW1  508   2.536   0.502   1.995
   68SOL    HW2  509   2.460   0.436   2.108
   69SOL     OW  510   0.741   2.440   4.499
   69SOL    HW1  511   0.674   2.474   4.559
   69SOL    HW2  512   0.695   2.429   4.416
   70SOL     OW  513   7.940   1.693   4.107
   70SOL    HW1  514   7.896   1.737   4.180
   70SOL    HW2  515   7.947   1.760   4.039
   71SOL     OW  516   2.195   1.039   3.024
   71SOL    HW1  517   2.145   0.976   3.075
   71SOL    HW2  518   2.134   1.111   3.007
   72SOL     OW  519   5.813   3.183   1.666
   72SOL    HW1  520   5.793   3.184   1.572
   72SOL    HW2  521   5.825   3.090   1.687
   73SOL     OW  522   7.105   5.296   0.025
   73SOL    HW1  523   2.923   1.205   5.780
   73SOL    HW2  524   7.065   5.226   0.076
   74SOL     OW  525   3.166   5.162   0.924
   74SOL    HW1  526   3.229   5.217   0.878
   74SOL    HW2  527   3.149   5.209   1.006
   75SOL     OW  528   5.355   5.101   4.580
   75SOL    HW1  529   5.364   5.078   4.672
   75SOL    HW2  530   5.376   5.194   4.577
   76SOL     OW  531   0.414   6.043   3.521
   76SOL    HW1  532   0.359   5.972   3.554
   76SOL    HW2  533   0.491   5.999   3.484
   77SOL     OW  534   4.394   1.980   5.280
   77SOL    HW1  535   4.302   1.960   5.296
   77SOL    HW2  536   4.441   1.931   5.348
   78SOL     OW  537   3.468   1.109   1.322
   78SOL    HW1  538   3.472   1.163   1.401
   78SOL    HW2  539   3.555   1.118   1.283
   79SOL     OW  540   0.622   0.363   3.520
   79SOL    HW1  541   0.539   0.349   3.565
   79SOL    HW2  542   0.686   0.315   3.573
   80SOL     OW  543   3.536   5.982   5.092
   80SOL    HW1  544   3.505   6.050   5.152
   80SOL    HW2  545   3.631   5.982   5.102
   81SOL     OW  546   0.937   4.983   2.860
   81SOL    HW1  547   1.006   4.940   2.910
   81SOL    HW2  548   0.917   4.922   2.789
   82SOL     OW  549   4.638   5.281   0.902
   82SOL    HW1  550   4.698   5.352   0.927
   82SOL    HW2  551   4.576   5.276   0.974
   83SOL     OW  552   4.908   6.193   0.044
   83SOL    HW1  553   0.831   2.128   5.791
   83SOL    HW2  554   4.935   6.103   0.028
   84SOL     OW  555   4.421   7.306   0.947
   84SOL    HW1  556   4.492   7.351   0.900
   84SOL    HW2  557   4.352   7.295   0.881
   85SOL     OW  558   6.122   4.718   4.789
   85SOL    HW1  559   6.148   4.726   4.697
   85SOL    HW2  560   6.205   4.721   4.837
   86SOL     OW  561   3.557   2.982   1.629
   86SOL    HW1  562   3.619   3.012   1.563
   86SOL    HW2  563   3.605   2.988   1.712
   87SOL     OW  564   1.478   6.616   5.563
   87SOL    HW1  565   1.488   6.703   5.601
   87SOL    HW2  566   1.503   6.556   5.634
   88SOL     OW  567   4.504   0.261   3.008
   88SOL    HW1  568   4.451   0.250   2.929
   88SOL    HW2  569   4.474   0.192   3.067
   89SOL     OW  570   6.847   0.254   2.538
   89SOL    HW1  571   6.770   0.280   2.487
   89SOL    HW2  572   6.821   0.173   2.582
   90SOL     OW  573   3.452   4.258   1.190
   90SOL    HW1  574   3.464   4.166   1.212
   90SOL    HW2  575   3.420   4.298   1.271
   91SOL     OW  576   0.542   5.278   2.006
   91SOL    HW1  577   0.481   5.310   2.072
   91SOL    HW2  578   0.499   5.201   1.969
   92SOL     OW  579   0.367   6.585   0.095
   92SOL    HW1  580   0.304   6.607   0.027
   92SOL    HW2  581   0.324   6.610   0.177
   93SOL     OW  582   6.930   4.448   1.330
   93SOL    HW1  583   6.959   4.529   1.287
   93SOL    HW2  584   6.915   4.473   1.421
   94SOL     OW  585   6.161   0.823   5.262
   94SOL    HW1  586   6.125   0.823   5.173
   94SOL    HW2  587   6.085   0.808   5.318
   95SOL     OW  588   7.207   6.078   5.493
   95SOL    HW1  589   7.292   6.061   5.451
   95SOL    HW2  590   7.180   5.993   5.527
   96SOL     OW  591   4.143   4.422   4.168
   96SOL    HW1  592   4.158   4.344   4.222
   96SOL    HW2  593   4.141   4.494   4.231
   97SOL     OW  594   5.880   7.922   1.928
   97SOL    HW1  595   5.824   7.869   1.871
   97SOL    HW2  596   5.840   7.914   2.014
   98SOL     OW  597   0.875   6.514   1.831
   98SOL    HW1  598   0.923   6.582   1.877
   98SOL    HW2  599   0.819   6.561   1.770
   99SOL     OW  600   3.604   4.199   3.271
   99SOL    HW1  601   3.538   4.256   3.312
   99SOL    HW2  602   3.559   4.115   3.259
  100SOL     OW  603   2.060   7.138   0.955
  100SOL    HW1  604   1.991   7.205   0.948
  100SOL    HW2  605   2.026   7.075   1.018
  101SOL     OW  606   1.769   5.297   4.490
  101SOL    HW1  607   1.705   5.310   4.420
  101SOL    HW2  608   1.778   5.384   4.530
  102SOL     OW  609   3.648   4.176   2.767
  102SOL    HW1  610   3.650   4.223   2.684
  102SOL    HW2  611   3.684   4.090   2.746
  103SOL     OW  612   1.062   2.074   1.770
  103SOL    HW1  613   1.110   2.027   1.702
  103SOL    HW2  614   1.039   2.158   1.730
  104SOL     OW  615   2.048   2.540   0.791
  104SOL    HW1  616   2.012   2.621   0.755
  104SOL    HW2  617   1.993   2.471   0.753
  105SOL     OW  618   7.016   4.189   5.680
  105SOL    HW1  619   7.098   4.236   5.696
  105SOL    HW2  620   6.976   4.234   5.605
  106SOL     OW  621   6.899   8.211   3.821
  106SOL    HW1  622   6.909   8.186   3.913
  106SOL    HW2  623   6.889   8.128   3.774
  107SOL     OW  624   2.792   1.533   4.506
  107SOL    HW1  625   2.705   1.536   4.467
  107SOL    HW2  626   2.815   1.625   4.522
  108SOL     OW  627   3.913   5.694   1.647
  108SOL    HW1  628   3.856   5.639   1.701
  108SOL    HW2  629   3.991   5.640   1.631
  109SOL     OW  630   3.667   4.286   0.601
  109SOL    HW1  631   3.708   4.208   0.637
  109SOL    HW2  632   3.588   4.254   0.558
  110SOL     OW  633   0.149   6.935   1.142
  110SOL    HW1  634   0.140   6.954   1.049
  110SOL    HW2  635   0.240   6.907   1.152
  111SOL     OW  636   6.887   4.050   5.306
  111SOL    HW1  637   6.832   4.107   5.360
  111SOL    HW2  638   6.950   4.012   5.367
  112SOL     OW  639   3.375   5.278   1.423
  112SOL    HW1  640   3.338   5.365   1.438
  112SOL    HW2  641   3.334   5.223   1.490
  113SOL     OW  642   1.618   6.837   2.544
  113SOL    HW1  643   1.685   6.769   2.544
  113SOL    HW2  644   1.602   6.855   2.451
  114SOL     OW  645   4.058   7.752   0.108
  114SOL    HW1  646   4.097   7.799   0.181
  114SOL    HW2  647   4.044   7.663   0.141
  115SOL     OW  648   7.657   7.109   0.355
  115SOL    HW1  649   7.696   7.043   0.297
  115SOL    HW2  650   7.572   7.073   0.379
  116SOL     OW  651   4.970   1.442   1.354
  116SOL    HW1  652   4.941   1.500   1.284
  116SOL    HW2  653   4.963   1.495   1.434
  117SOL     OW  654   0.750   2.777   4.839
  117SOL    HW1  655   0.783   2.709   4.898
  117SOL    HW2  656   0.764   2.741   4.751
  118SOL     OW  657   1.950   0.393   1.961
  118SOL    HW1  658   1.911   0.311   1.990
  118SOL    HW2  659   1.882   0.459   1.977
  119SOL     OW  660   7.286   6.715   5.708
  119SOL    HW1  661   7.295   6.809   5.723
  119SOL    HW2  662   7.241   6.683   5.786
  120SOL     OW  663   5.602   5.381   5.462
  120SOL    HW1  664   5.534   5.379   5.394
  120SOL    HW2  665   5.629   5.290   5.472
  121SOL     OW  666   7.662   6.254   2.990
  121SOL    HW1  667   7.733   6.318   2.996
  121SOL    HW2  668   7.588   6.303   2.955
  122SOL     OW  669   4.337   1.104   2.562
  122SOL    HW1  670   4.309   1.194   2.548
  122SOL    HW2  671   4.255   1.055   2.569
  123SOL     OW  672   2.612   2.532   1.657
  123SOL    HW1  673   2.522   2.560   1.641
  123SOL    HW2  674   2.653   2.607   1.700
  124SOL     OW  675   2.668   3.402   5.676
  124SOL    HW1  676   2.683   3.459   5.752
  124SOL    HW2  677   2.739   3.337   5.680
  125SOL     OW  678   3.991   4.184   2.927
  125SOL    HW1  679   4.065   4.207   2.983
  125SOL    HW2  680   3.914   4.193   2.984
  126SOL     OW  681   4.957   5.925   4.698
  126SOL    HW1  682   5.046   5.896   4.677
  126SOL    HW2  683   4.911   5.922   4.614
  127SOL     OW  684   0.691   1.747   1.902
  127SOL    HW1  685   0.786   1.749   1.889
  127SOL    HW2  686   0.662   1.836   1.881
  128SOL     OW  687   7.310   4.179   1.989
  128SOL    HW1  688   7.402   4.187   2.013
  128SOL    HW2  689   7.292   4.085   1.995
  129SOL     OW  690   3.727   6.931   2.273
  129SOL    HW1  691   3.735   6.924   2.368
  129SOL    HW2  692   3.695   7.020   2.258
  130SOL     OW  693   1.131   4.702   1.080
  130SOL    HW1  694   1.117   4.706   1.175
  130SOL    HW2  695   1.046   4.677   1.044
  131SOL     OW  696   4.589   1.539   2.167
  131SOL    HW1  697   4.502   1.514   2.136
  131SOL    HW2  698   4.608   1.620   2.120
  132SOL     OW  699   3.599   1.174   1.619
  132SOL    HW1  700   3.571   1.261   1.590
  132SOL    HW2  701   3.695   1.177   1.616
  133SOL     OW  702   0.007   0.513   5.348
  133SOL    HW1  703   0.066   0.586   5.365
  133SOL    HW2  704   0.028   0.449   5.416
  134SOL     OW  705   5.505   1.431   5.557
  134SOL    HW1  706   5.458   1.483   5.622
  134SOL    HW2  707   5.593   1.469   5.555
  135SOL     OW  708   1.397   1.456   3.017
  135SOL    HW1  709   1.464   1.417   3.072
  135SOL    HW2  710   1.323   1.395   3.022
  136SOL     OW  711   3.716   5.446   3.901
  136SOL    HW1  712   3.725   5.377   3.835
  136SOL    HW2  713   3.718   5.527   3.851
  137SOL     OW  714   0.484   6.457   2.447
  137SOL    HW1  715   0.517   6.400   2.378
  137SOL    HW2  716   0.398   6.486   2.416
  138SOL     OW  717   3.869   0.356   3.005
  138SOL    HW1  718   3.959   0.390   3.004
  138SOL    HW2  719   3.865   0.298   2.929
  139SOL     OW  720   1.758   4.615   5.640
  139SOL    HW1  721   1.772   4.520   5.646
  139SOL    HW2  722   1.844   4.650   5.615
  140SOL     OW  723   6.453   3.080   2.544
  140SOL    HW1  724   6.503   3.062   2.465
  140SOL    HW2  725   6.429   3.172   2.537
  141SOL     OW  726   3.005   7.886   3.227
  141SOL    HW1  727   3.010   7.978   3.201
  141SOL    HW2  728   2.972   7.889   3.317
  142SOL     OW  729   1.981   3.824   4.098
  142SOL    HW1  730   2.038   3.831   4.175
  142SOL    HW2  731   1.893   3.815   4.135
  143SOL     OW  732   4.235   6.547   0.783
  143SOL    HW1  733   4.266   6.463   0.816
  143SOL    HW2  734   4.315   6.599   0.772
  144SOL     OW  735   1.963   0.740   4.133
  144SOL    HW1  736   2.027   0.734   4.204
  144SOL    HW2  737   2.014   0.727   4.053
  145SOL     OW  738   0.215   5.617   3.788
  145SOL    HW1  739   0.144   5.554   3.782
  145SOL    HW2  740   0.231   5.627   3.882
  146SOL     OW  741   4.389   4.533   5.556
  146SOL    HW1  742   4.474   4.543   5.598
  146SOL    HW2  743   4.356   4.450   5.589
  147SOL     OW  744   1.623   1.858   1.040
  147SOL    HW1  745   1.553   1.897   0.987
  147SOL    HW2  746   1.693   1.923   1.038
  148SOL     OW  747   2.868   3.003   2.917
  148SOL    HW1  748   2.900   2.949   2.845
  148SOL    HW2  749   2.931   2.988   2.988
  149SOL     OW  750   7.182   4.106   0.297
  149SOL    HW1  751   7.255   4.152   0.339
  149SOL    HW2  752   7.110   4.169   0.299
  150SOL     OW  753   4.077   1.432   0.952
  150SOL    HW1  754   4.078   1.469   0.864
  150SOL    HW2  755   4.067   1.338   0.938
  151SOL     OW  756   2.090   3.633   0.004
  151SOL    HW1  757   2.037   3.618   0.082
  151SOL    HW2  758   6.152   7.807   5.769
  152SOL     OW  759   3.766   1.019   2.482
  152SOL    HW1  760   3.820   1.072   2.424
  152SOL    HW2  761   3.687   1.001   2.431
  153SOL     OW  762   5.946   0.837   2.925
  153SOL    HW1  763   5.900   0.915   2.892
  153SOL    HW2  764   5.881   0.767   2.919
  154SOL     OW  765   2.391   0.343   3.225
  154SOL    HW1  766   2.305   0.325   3.187
  154SOL    HW2  767   2.435   0.398   3.160
  155SOL     OW  768   4.407   8.169   5.080
  155SOL    HW1  769   4.326   8.120   5.093
  155SOL    HW2  770   4.430   8.201   5.167
  156SOL     OW  771   2.237   1.488   0.112
  156SOL    HW1  772   2.236   1.405   0.159
  156SOL    HW2  773   2.222   1.464   0.021
  157SOL     OW  774   0.818   1.258   2.768
  157SOL    HW1  775   0.772   1.178   2.793
  157SOL    HW2  776   0.850   1.294   2.851
  158SOL     OW  777   2.551   4.258   5.280
  158SOL    HW1  778   2.619   4.297   5.335
  158SOL    HW2  779   2.493   4.213   5.342
  159SOL     OW  780   0.670   1.244   1.974
  159SOL    HW1  781   0.640   1.250   2.065
  159SOL    HW2  782   0.600   1.285   1.923
  160SOL     OW  783   5.130   7.910   2.513
  160SOL    HW1  784   5.217   7.926   2.548
  160SOL    HW2  785   5.083   7.993   2.524
  161SOL     OW  786   1.722   2.678   3.662
  161SOL    HW1  787   1.792   2.615   3.645
  161SOL    HW2  788   1.642   2.634   3.633
  162SOL     OW  789   5.732   0.034   4.262
  162SOL    HW1  790   5.733   8.171   4.238
  162SOL    HW2  791   5.822   0.063   4.248
  163SOL     OW  792   6.012   5.443   1.665
  163SOL    HW1  793   6.019   5.406   1.577
  163SOL    HW2  794   5.924   5.482   1.668
  164SOL     OW  795   6.940   7.331   3.942
  164SOL    HW1  796   6.960   7.319   4.035
  164SOL    HW2  797   6.848   7.358   3.941
  165SOL     OW  798   2.527   0.871   4.944
  165SOL    HW1  799   2.434   0.893   4.954
  165SOL    HW2  800   2.573   0.933   5.000
  166SOL     OW  801   2.301   2.565   2.469
  166SOL    HW1  802   2.319   2.569   2.563
  166SOL    HW2  803   2.375   2.516   2.432
  167SOL     OW  804   1.223   1.647   3.276
  167SOL    HW1  805   1.216   1.579   3.209
  167SOL    HW2  806   1.205   1.729   3.230
  168SOL     OW  807   5.875   5.739   1.464
  168SOL    HW1  808   5.838   5.657   1.497
  168SOL    HW2  809   5.832   5.753   1.380
  169SOL     OW  810   1.261   5.327   3.701
  169SOL    HW1  811   1.235   5.267   3.771
  169SOL    HW2  812   1.356   5.332   3.707
  170SOL     OW  813   3.512   1.709   3.144
  170SOL    HW1  814   3.561   1.652   3.204
  170SOL    HW2  815   3.544   1.685   3.057
  171SOL     OW  816   6.834   1.994   4.917
  171SOL    HW1  817   6.868   1.973   5.004
  171SOL    HW2  818   6.739   1.989   4.927
  172SOL     OW  819   5.297   6.143   5.774
  172SOL    HW1  820   5.249   6.062   5.788
  172SOL    HW2  821   5.252   6.185   5.700
  173SOL     OW  822   6.952   0.118   5.608
  173SOL    HW1  823   6.968   0.025   5.592
  173SOL    HW2  824   6.974   0.130   5.700
  174SOL     OW  825   3.868   7.138   2.475
  174SOL    HW1  826   3.791   7.143   2.531
  174SOL    HW2  827   3.855   7.206   2.409
  175SOL     OW  828   0.112   6.422   4.653
  175SOL    HW1  829   0.076   6.501   4.693
  175SOL    HW2  830   0.164   6.454   4.579
  176SOL     OW  831   4.306   1.231   0.294
  176SOL    HW1  832   4.322   1.288   0.369
  176SOL    HW2  833   4.357   1.269   0.223
  177SOL     OW  834   7.249   5.008   5.737
  177SOL    HW1  835   7.267   5.063   5.814
  177SOL    HW2  836   7.154   5.008   5.730
  178SOL     OW  837   1.511   6.576   5.011
  178SOL    HW1  838   1.416   6.583   5.014
  178SOL    HW2  839   1.537   6.633   4.939
  179SOL     OW  840   7.277   5.532   3.722
  179SOL    HW1  841   7.319   5.617   3.705
  179SOL    HW2  842   7.344   5.481   3.768
  180SOL     OW  843   3.390   0.025   3.155
  180SOL    HW1  844   3.439   0.080   3.217
  180SOL    HW2  845   3.401   0.069   3.071
  181SOL     OW  846   2.570   7.204   2.250
  181SOL    HW1  847   2.587   7.124   2.300
  181SOL    HW2  848   2.629   7.269   2.288
  182SOL     OW  849   2.232   5.514   5.191
  182SOL    HW1  850   2.321   5.526   5.224
  182SOL    HW2  851   2.214   5.421   5.206
  183SOL     OW  852   8.053   3.338   2.197
  183SOL    HW1  853   8.023   3.421   2.233
  183SOL    HW2  854   8.140   3.325   2.236
  184SOL     OW  855   2.432   7.818   3.324
  184SOL    HW1  856   2.448   7.909   3.348
  184SOL    HW2  857   2.497   7.799   3.256
  185SOL     OW  858   3.529   0.880   0.905
  185SOL    HW1  859   3.572   0.917   0.828
  185SOL    HW2  860   3.588   0.811   0.935
  186SOL     OW  861   2.822   6.965   2.488
  186SOL    HW1  862   2.735   6.989   2.520
  186SOL    HW2  863   2.817   6.870   2.474
  187SOL     OW  864   6.673   6.934   3.662
  187SOL    HW1  865   6.633   6.847   3.654
  187SOL    HW2  866   6.600   6.993   3.680
  188SOL     OW  867   3.367   1.530   0.286
  188SOL    HW1  868   3.405   1.570   0.208
  188SOL    HW2  869   3.325   1.450   0.254
  189SOL     OW  870   7.406   0.135   2.982
  189SOL    HW1  871   7.474   0.092   3.035
  189SOL    HW2  872   7.370   0.202   3.039
  190SOL     OW  873   8.184   7.695   5.291
  190SOL    HW1  874   0.048   7.689   5.312
  190SOL    HW2  875   8.169   7.788   5.275
  191SOL     OW  876   4.207   0.084   0.229
  191SOL    HW1  877   4.155   0.124   0.298
  191SOL    HW2  878   4.280   0.042   0.275
  192SOL     OW  879   0.231   2.330   0.408
  192SOL    HW1  880   0.162   2.380   0.364
  192SOL    HW2  881   0.306   2.390   0.410
  193SOL     OW  882   6.881   0.851   1.620
  193SOL    HW1  883   6.859   0.934   1.662
  193SOL    HW2  884   6.959   0.871   1.569
  194SOL     OW  885   3.758   3.055   0.521
  194SOL    HW1  886   3.751   3.147   0.497
  194SOL    HW2  887   3.843   3.028   0.487
  195SOL     OW  888   5.808   1.064   3.145
  195SOL    HW1  889   5.737   1.119   3.179
  195SOL    HW2  890   5.763   0.991   3.102
  196SOL     OW  891   1.220   2.090   3.366
  196SOL    HW1  892   1.256   2.179   3.367
  196SOL    HW2  893   1.283   2.038   3.416
  197SOL     OW  894   6.988   0.401   3.692
  197SOL    HW1  895   6.975   0.462   3.765
  197SOL    HW2  896   6.899   0.375   3.667
  198SOL     OW  897   7.981   0.973   4.213
  198SOL    HW1  898   8.062   0.962   4.164
  198SOL    HW2  899   7.949   1.059   4.187
  199SOL     OW  900   7.547   2.341   3.745
  199SOL    HW1  901   7.542   2.281   3.671
  199SOL    HW2  902   7.534   2.428   3.706
  200SOL     OW  903   0.153   3.679   5.003
  200SOL    HW1  904   0.209   3.755   4.990
  200SOL    HW2  905   0.190   3.635   5.079
  201SOL     OW  906   6.761   5.125   1.900
  201SOL    HW1  907   6.852   5.137   1.875
  201SOL    HW2  908   6.730   5.052   1.846
  202SOL     OW  909   0.386   2.870   0.036
  202SOL    HW1  910   4.464   7.019   5.774
  202SOL    HW2  911   0.423   2.785   0.012
  203SOL     OW  912   0.500   3.312   3.917
  203SOL    HW1  913   0.552   3.328   3.995
  203SOL    HW2  914   0.550   3.247   3.867
  204SOL     OW  915   3.542   1.980   2.674
  204SOL    HW1  916   3.603   1.963   2.603
  204SOL    HW2  917   3.516   1.893   2.705
  205SOL     OW  918   0.572   2.520   1.206
  205SOL    HW1  919   0.555   2.597   1.261
  205SOL    HW2  920   0.558   2.550   1.116
  206SOL     OW  921   6.724   2.203   5.425
  206SOL    HW1  922   6.735   2.126   5.369
  206SOL    HW2  923   6.765   2.275   5.376
  207SOL     OW  924   4.321   2.375   4.093
  207SOL    HW1  925   4.377   2.423   4.032
  207SOL    HW2  926   4.346   2.283   4.081
  208SOL     OW  927   2.429   3.076   4.895
  208SOL    HW1  928   2.355   3.053   4.839
  208SOL    HW2  929   2.484   2.998   4.896
  209SOL     OW  930   2.182   4.979   5.670
  209SOL    HW1  931   2.150   4.953   5.757
  209SOL    HW2  932   2.108   5.024   5.630
  210SOL     OW  933   4.384   2.907   3.923
  210SOL    HW1  934   4.330   2.973   3.880
  210SOL    HW2  935   4.362   2.914   4.016
  211SOL     OW  936   1.236   7.271   0.478
  211SOL    HW1  937   1.252   7.364   0.491
  211SOL    HW2  938   1.284   7.248   0.399
  212SOL     OW  939   1.278   2.757   0.591
  212SOL    HW1  940   1.306   2.846   0.570
  212SOL    HW2  941   1.233   2.765   0.675
  213SOL     OW  942   4.827   5.248   5.022
  213SOL    HW1  943   4.912   5.284   5.047
  213SOL    HW2  944   4.778   5.242   5.104
  214SOL     OW  945   4.146   4.194   3.929
  214SOL    HW1  946   4.167   4.276   3.973
  214SOL    HW2  947   4.186   4.202   3.842
  215SOL     OW  948   5.229   8.043   3.679
  215SOL    HW1  949   5.223   8.096   3.599
  215SOL    HW2  950   5.310   7.993   3.669
  216SOL     OW  951   1.516   7.810   3.911
  216SOL    HW1  952   1.481   7.894   3.881
  216SOL    HW2  953   1.523   7.758   3.831
  217SOL     OW  954   7.945   2.188   1.971
  217SOL    HW1  955   7.940   2.207   1.877
  217SOL    HW2  956   7.914   2.268   2.014
  218SOL     OW  957   3.616   1.136   4.305
  218SOL    HW1  958   3.644   1.227   4.304
  218SOL    HW2  959   3.575   1.124   4.391
  219SOL     OW  960   4.077   4.870   2.602
  219SOL    HW1  961   4.009   4.900   2.541
  219SOL    HW2  962   4.035   4.802   2.654
  220SOL     OW  963   5.627   6.468   5.145
  220SOL    HW1  964   5.641   6.553   5.186
  220SOL    HW2  965   5.698   6.460   5.081
  221SOL     OW  966   6.726   8.073   5.797
  221SOL    HW1  967   6.726   8.047   5.705
  221SOL    HW2  968   6.647   8.126   5.808
  222SOL     OW  969   6.304   5.221   4.021
  222SOL    HW1  970   6.231   5.181   4.068
  222SOL    HW2  971   6.374   5.229   4.086
  223SOL     OW  972   4.145   5.629   3.637
  223SOL    HW1  973   4.088   5.557   3.663
  223SOL    HW2  974   4.107   5.706   3.679
  224SOL     OW  975   6.462   0.967   3.681
  224SOL    HW1  976   6.505   1.011   3.608
  224SOL    HW2  977   6.533   0.922   3.727
  225SOL     OW  978   7.908   6.320   0.356
  225SOL    HW1  979   7.813   6.308   0.363
  225SOL    HW2  980   7.918   6.405   0.314
  226SOL     OW  981   2.864   7.327   1.137
  226SOL    HW1  982   2.868   7.290   1.225
  226SOL    HW2  983   2.819   7.260   1.085
  227SOL     OW  984   1.649   3.431   3.099
  227SOL    HW1  985   1.650   3.356   3.159
  227SOL    HW2  986   1.655   3.508   3.156
  228SOL     OW  987   7.766   5.235   4.139
  228SOL    HW1  988   7.708   5.265   4.209
  228SOL    HW2  989   7.719   5.256   4.058
  229SOL     OW  990   7.162   4.734   5.385
  229SOL    HW1  991   7.110   4.673   5.333
  229SOL    HW2  992   7.136   4.717   5.475
  230SOL     OW  993   3.076   1.799   4.588
  230SOL    HW1  994   3.035   1.822   4.505
  230SOL    HW2  995   3.167   1.827   4.579
  231SOL     OW  996   0.857   1.400   2.295
  231SOL    HW1  997   0.841   1.423   2.387
  231SOL    HW2  998   0.933   1.453   2.270
  232SOL     OW  999   2.993   0.706   0.630
  232SOL    HW1 1000   2.951   0.733   0.712
  232SOL    HW2 1001   3.082   0.681   0.656
  233SOL     OW 1002   6.123   6.329   0.967
  233SOL    HW1 1003   6.131   6.371   1.053
  233SOL    HW2 1004   6.030   6.307   0.959
  234SOL     OW 1005   6.068   1.410   3.597
  234SOL    HW1 1006   6.070   1.327   3.550
  234SOL    HW2 1007   5.987   1.408   3.648
  235SOL     OW 1008   4.282   5.692   2.826
  235SOL    HW1 1009   4.257   5.712   2.916
  235SOL    HW2 1010   4.302   5.777   2.787
  236SOL     OW 1011   3.766   6.503   3.412
  236SOL    HW1 1012   3.844   6.558   3.402
  236SOL    HW2 1013   3.693   6.564   3.408
  237SOL     OW 1014   0.995   1.691   0.139
  237SOL    HW1 1015   0.916   1.671   0.189
  237SOL    HW2 1016   0.981   1.647   0.055
  238SOL     OW 1017   7.629   0.339   3.110
  238SOL    HW1 1018   7.659   0.289   3.186
  238SOL    HW2 1019   7.606   0.425   3.146
  239SOL     OW 1020   1.410   0.711   0.248
  239SOL    HW1 1021   1.498   0.685   0.220
  239SOL    HW2 1022   1.360   0.719   0.167
  240SOL     OW 1023   5.802   6.467   0.437
  240SOL    HW1 1024   5.789   6.442   0.528
  240SOL    HW2 1025   5.800   6.384   0.389
  241SOL     OW 1026   5.136   6.256   0.796
  241SOL    HW1 1027   5.142   6.173   0.749
  241SOL    HW2 1028   5.157   6.322   0.730
  242SOL     OW 1029   2.822   2.046   5.175
  242SOL    HW1 1030   2.748   2.000   5.215
  242SOL    HW2 1031   2.890   2.045   5.242
  243SOL     OW 1032   5.639   2.034   2.452
  243SOL    HW1 1033   5.622   1.979   2.376
  243SOL    HW2 1034   5.689   2.108   2.417
  244SOL     OW 1035   6.337   6.827   1.310
  244SOL    HW1 1036   6.410   6.874   1.351
  244SOL    HW2 1037   6.359   6.735   1.322
  245SOL     OW 1038   4.778   1.575   1.606
  245SOL    HW1 1039   4.735   1.499   1.567
  245SOL    HW2 1040   4.816   1.542   1.687
  246SOL     OW 1041   0.217   7.590   1.120
  246SOL    HW1 1042   0.225   7.685   1.120
  246SOL    HW2 1043   0.205   7.566   1.212
  247SOL     OW 1044   6.829   8.119   2.175
  247SOL    HW1 1045   6.819   8.176   2.251
  247SOL    HW2 1046   6.828   8.178   2.100
  248SOL     OW 1047   5.823   7.470   1.332
  248SOL    HW1 1048   5.823   7.404   1.401
  248SOL    HW2 1049   5.855   7.550   1.374
  249SOL     OW 1050   8.179   2.810   3.225
  249SOL    HW1 1051   8.205   2.778   3.311
  249SOL    HW2 1052   0.021   2.869   3.199
  250SOL     OW 1053   0.692   0.475   2.490
  250SOL    HW1 1054   0.718   0.383   2.500
  250SOL    HW2 1055   0.661   0.501   2.577
  251SOL     OW 1056   1.855   3.051   4.297
  251SOL    HW1 1057   1.856   3.052   4.201
  251SOL    HW2 1058   1.774   3.096   4.321
  252SOL     OW 1059   6.828   1.577   0.574
  252SOL    HW1 1060   6.772   1.628   0.515
  252SOL    HW2 1061   6.843   1.495   0.527
  253SOL     OW 1062   6.215   0.183   5.667
  253SOL    HW1 1063   6.197   0.090   5.655
  253SOL    HW2 1064   6.310   0.191   5.658
  254SOL     OW 1065   5.599   6.821   1.065
  254SOL    HW1 1066   5.625   6.904   1.105
  254SOL    HW2 1067   5.618   6.833   0.972
  255SOL     OW 1068   2.045   2.178   4.850
  255SOL    HW1 1069   2.059   2.090   4.885
  255SOL    HW2 1070   1.990   2.222   4.915
  256SOL     OW 1071   5.024   7.511   3.734
  256SOL    HW1 1072   5.089   7.552   3.791
  256SOL    HW2 1073   4.976   7.585   3.696
  257SOL     OW 1074   0.750   3.930   1.747
  257SOL    HW1 1075   0.682   3.954   1.684
  257SOL    HW2 1076   0.806   3.868   1.700
  258SOL     OW 1077   6.455   1.929   0.490
  258SOL    HW1 1078   6.402   1.851   0.475
  258SOL    HW2 1079   6.543   1.896   0.506
  259SOL     OW 1080   4.610   2.816   0.673
  259SOL    HW1 1081   4.636   2.823   0.581
  259SOL    HW2 1082   4.640   2.729   0.700
  260SOL     OW 1083   2.946   5.492   0.543
  260SOL    HW1 1084   2.864   5.455   0.510
  260SOL    HW2 1085   3.009   5.420   0.538
  261SOL     OW 1086   3.491   3.529   1.311
  261SOL    HW1 1087   3.466   3.458   1.252
  261SOL    HW2 1088   3.541   3.486   1.380
  262SOL     OW 1089   0.796   1.382   0.679
  262SOL    HW1 1090   0.756   1.368   0.593
  262SOL    HW2 1091   0.884   1.414   0.660
  263SOL     OW 1092   3.385   0.467   2.224
  263SOL    HW1 1093   3.352   0.489   2.311
  263SOL    HW2 1094   3.352   0.379   2.208
  264SOL     OW 1095   4.566   4.703   2.627
  264SOL    HW1 1096   4.628   4.775   2.613
  264SOL    HW2 1097   4.614   4.625   2.600
  265SOL     OW 1098   7.363   6.891   2.810
  265SOL    HW1 1099   7.284   6.850   2.776
  265SOL    HW2 1100   7.396   6.943   2.737
  266SOL     OW 1101   7.611   1.474   0.313
  266SOL    HW1 1102   7.645   1.433   0.234
  266SOL    HW2 1103   7.689   1.499   0.362
  267SOL     OW 1104   3.075   0.263   4.548
  267SOL    HW1 1105   2.985   0.236   4.528
  267SOL    HW2 1106   3.101   0.317   4.473
  268SOL     OW 1107   6.271   0.446   1.853
  268SOL    HW1 1108   6.353   0.404   1.877
  268SOL    HW2 1109   6.207   0.375   1.851
  269SOL     OW 1110   6.294   6.595   0.937
  269SOL    HW1 1111   6.200   6.581   0.926
  269SOL    HW2 1112   6.327   6.512   0.971
  270SOL     OW 1113   1.630   2.709   3.250
  270SOL    HW1 1114   1.575   2.636   3.276
  270SOL    HW2 1115   1.719   2.681   3.272
  271SOL     OW 1116   3.439   1.341   3.998
  271SOL    HW1 1117   3.459   1.417   3.943
  271SOL    HW2 1118   3.466   1.266   3.945
  272SOL     OW 1119   5.418   4.234   1.796
  272SOL    HW1 1120   5.442   4.217   1.705
  272SOL    HW2 1121   5.501   4.247   1.841
  273SOL     OW 1122   4.391   6.146   3.455
  273SOL    HW1 1123   4.328   6.077   3.475
  273SOL    HW2 1124   4.370   6.173   3.366
  274SOL     OW 1125   5.756   4.514   5.354
  274SOL    HW1 1126   5.772   4.434   5.404
  274SOL    HW2 1127   5.769   4.488   5.263
  275SOL     OW 1128   4.602   7.193   5.125
  275SOL    HW1 1129   4.573   7.150   5.044
  275SOL    HW2 1130   4.522   7.206   5.175
  276SOL     OW 1131   6.452   4.151   4.266
  276SOL    HW1 1132   6.457   4.139   4.171
  276SOL    HW2 1133   6.442   4.245   4.278
  277SOL     OW 1134   7.501   6.504   5.624
  277SOL    HW1 1135   7.568   6.554   5.670
  277SOL    HW2 1136   7.421   6.555   5.635
  278SOL     OW 1137   0.405   5.123   3.257
  278SOL    HW1 1138   0.480   5.065   3.249
  278SOL    HW2 1139   0.403   5.147   3.350
  279SOL     OW 1140   0.276   7.376   4.809
  279SOL    HW1 1141   0.185   7.368   4.838
  279SOL    HW2 1142   0.278   7.457   4.759
  280SOL     OW 1143   6.898   0.068   3.307
  280SOL    HW1 1144   6.890   8.226   3.244
  280SOL    HW2 1145   6.861   0.033   3.388
  281SOL     OW 1146   5.741   2.250   2.309
  281SOL    HW1 1147   5.835   2.257   2.325
  281SOL    HW2 1148   5.708   2.339   2.323
  282SOL     OW 1149   6.131   2.386   1.941
  282SOL    HW1 1150   6.225   2.383   1.959
  282SOL    HW2 1151   6.119   2.467   1.891
  283SOL     OW 1152   6.782   5.316   2.691
  283SOL    HW1 1153   6.854   5.334   2.751
  283SOL    HW2 1154   6.722   5.389   2.703
  284SOL     OW 1155   1.354   3.848   4.865
  284SOL    HW1 1156   1.445   3.847   4.836
  284SOL    HW2 1157   1.338   3.939   4.889
  285SOL     OW 1158   1.184   5.000   4.082
  285SOL    HW1 1159   1.242   5.047   4.023
  285SOL    HW2 1160   1.182   4.911   4.048
  286SOL     OW 1161   4.782   2.777   5.309
  286SOL    HW1 1162   4.756   2.867   5.292
  286SOL    HW2 1163   4.701   2.726   5.302
  287SOL     OW 1164   0.098   5.018   3.904
  287SOL    HW1 1165   0.107   4.998   3.997
  287SOL    HW2 1166   0.175   4.978   3.863
  288SOL     OW 1167   5.272   1.657   1.286
  288SOL    HW1 1168   5.230   1.639   1.202
  288SOL    HW2 1169   5.341   1.721   1.265
  289SOL     OW 1170   6.206   4.096   3.166
  289SOL    HW1 1171   6.265   4.111   3.240
  289SOL    HW2 1172   6.122   4.132   3.194
  290SOL     OW 1173   8.229   5.828   4.916
  290SOL    HW1 1174   0.064   5.793   4.854
  290SOL    HW2 1175   8.145   5.794   4.886
  291SOL     OW 1176   6.177   4.655   5.261
  291SOL    HW1 1177   6.256   4.707   5.247
  291SOL    HW2 1178   6.116   4.685   5.193
  292SOL     OW 1179   3.760   1.725   5.780
  292SOL    HW1 1180   3.845   1.682   5.790
  292SOL    HW2 1181   3.778   1.802   5.726
  293SOL     OW 1182   0.841   5.073   4.069
  293SOL    HW1 1183   0.766   5.125   4.098
  293SOL    HW2 1184   0.915   5.111   4.116
  294SOL     OW 1185   2.902   5.503   2.785
  294SOL    HW1 1186   2.987   5.476   2.751
  294SOL    HW2 1187   2.901   5.471   2.875
  295SOL     OW 1188   2.993   1.441   4.912
  295SOL    HW1 1189   2.913   1.492   4.900
  295SOL    HW2 1190   3.053   1.476   4.847
  296SOL     OW 1191   4.514   2.598   4.263
  296SOL    HW1 1192   4.548   2.590   4.352
  296SOL    HW2 1193   4.425   2.564   4.269
  297SOL     OW 1194   0.100   7.658   2.611
  297SOL    HW1 1195   0.045   7.623   2.681
  297SOL    HW2 1196   0.185   7.673   2.652
  298SOL     OW 1197   6.613   5.551   5.088
  298SOL    HW1 1198   6.621   5.632   5.038
  298SOL    HW2 1199   6.643   5.574   5.176
  299SOL     OW 1200   3.307   6.759   4.391
  299SOL    HW1 1201   3.367   6.698   4.348
  299SOL    HW2 1202   3.341   6.767   4.480
  300SOL     OW 1203   0.435   7.105   1.500
  300SOL    HW1 1204   0.469   7.113   1.411
  300SOL    HW2 1205   0.372   7.176   1.509
  301SOL     OW 1206   3.716   3.640   5.659
  301SOL    HW1 1207   3.652   3.574   5.685
  301SOL    HW2 1208   3.705   3.649   5.564
  302SOL     OW 1209   4.542   2.135   4.322
  302SOL    HW1 1210   4.525   2.166   4.411
  302SOL    HW2 1211   4.564   2.042   4.332
  303SOL     OW 1212   2.970   7.474   0.797
  303SOL    HW1 1213   3.050   7.447   0.842
  303SOL    HW2 1214   2.959   7.566   0.820
  304SOL     OW 1215   2.487   2.437   5.524
  304SOL    HW1 1216   2.445   2.443   5.610
  304SOL    HW2 1217   2.445   2.505   5.472
  305SOL     OW 1218   0.911   6.789   3.140
  305SOL    HW1 1219   0.849   6.739   3.086
  305SOL    HW2 1220   0.889   6.764   3.230
  306SOL     OW 1221   0.918   5.017   1.451
  306SOL    HW1 1222   1.009   5.029   1.478
  306SOL    HW2 1223   0.867   5.073   1.510
  307SOL     OW 1224   4.779   1.913   5.315
  307SOL    HW1 1225   4.840   1.889   5.385
  307SOL    HW2 1226   4.790   2.007   5.305
  308SOL     OW 1227   1.180   8.042   3.881
  308SOL    HW1 1228   1.274   8.059   3.872
  308SOL    HW2 1229   1.154   8.088   3.961
  309SOL     OW 1230   3.883   5.514   0.328
  309SOL    HW1 1231   3.952   5.448   0.339
  309SOL    HW2 1232   3.927   5.597   0.345
  310SOL     OW 1233   1.025   6.875   5.725
  310SOL    HW1 1234   1.121   6.878   5.731
  310SOL    HW2 1235   1.007   6.866   5.631
  311SOL     OW 1236   2.378   2.710   1.624
  311SOL    HW1 1237   2.324   2.744   1.696
  311SOL    HW2 1238   2.338   2.747   1.545
  312SOL     OW 1239   0.719   6.216   3.897
  312SOL    HW1 1240   0.627   6.202   3.919
  312SOL    HW2 1241   0.730   6.172   3.813
  313SOL     OW 1242   1.424   2.428   3.804
  313SOL    HW1 1243   1.367   2.501   3.780
  313SOL    HW2 1244   1.365   2.363   3.842
  314SOL     OW 1245   5.045   7.350   3.011
  314SOL    HW1 1246   5.131   7.330   2.974
  314SOL    HW2 1247   5.045   7.445   3.022
  315SOL     OW 1248   2.050   6.054   5.711
  315SOL    HW1 1249   2.131   6.011   5.737
  315SOL    HW2 1250   2.032   6.116   5.782
  316SOL     OW 1251   7.401   6.285   5.735
  316SOL    HW1 1252   7.318   6.263   5.694
  316SOL    HW2 1253   7.443   6.345   5.674
  317SOL     OW 1254   3.771   4.875   0.461
  317SOL    HW1 1255   3.776   4.959   0.415
  317SOL    HW2 1256   3.799   4.895   0.550
  318SOL     OW 1257   7.332   6.180   0.055
  318SOL    HW1 1258   3.246   2.058   5.783
  318SOL    HW2 1259   7.248   6.225   0.050
  319SOL     OW 1260   1.767   2.362   1.118
  319SOL    HW1 1261   1.850   2.409   1.128
  319SOL    HW2 1262   1.708   2.427   1.079
  320SOL     OW 1263   2.144   0.737   4.883
  320SOL    HW1 1264   2.063   0.696   4.913
  320SOL    HW2 1265   2.200   0.664   4.858
  321SOL     OW 1266   2.739   1.841   2.842
  321SOL    HW1 1267   2.790   1.782   2.897
  321SOL    HW2 1268   2.783   1.926   2.851
  322SOL     OW 1269   4.051   5.634   2.414
  322SOL    HW1 1270   4.115   5.582   2.462
  322SOL    HW2 1271   3.979   5.647   2.476
  323SOL     OW 1272   0.780   5.647   0.859
  323SOL    HW1 1273   0.801   5.554   0.869
  323SOL    HW2 1274   0.861   5.687   0.826
  324SOL     OW 1275   7.308   3.044   1.705
  324SOL    HW1 1276   7.297   3.138   1.716
  324SOL    HW2 1277   7.261   3.024   1.624
  325SOL     OW 1278   4.132   8.043   0.090
  325SOL    HW1 1279   4.227   8.057   0.084
  325SOL    HW2 1280   4.120   8.001   0.175
  326SOL     OW 1281   3.192   5.453   4.982
  326SOL    HW1 1282   3.246   5.423   4.909
  326SOL    HW2 1283   3.114   5.491   4.940
  327SOL     OW 1284   2.868   3.914   1.124
  327SOL    HW1 1285   2.951   3.866   1.122
  327SOL    HW2 1286   2.879   3.980   1.192
  328SOL     OW 1287   2.929   3.700   4.101
  328SOL    HW1 1288   2.835   3.704   4.081
  328SOL    HW2 1289   2.957   3.791   4.103
  329SOL     OW 1290   8.202   4.908   4.541
  329SOL    HW1 1291   8.124   4.931   4.591
  329SOL    HW2 1292   0.034   4.876   4.607
  330SOL     OW 1293   2.749   4.876   0.084
  330SOL    HW1 1294   2.770   4.830   0.165
  330SOL    HW2 1295   2.656   4.860   0.071
  331SOL     OW 1296   2.333   0.268   4.893
  331SOL    HW1 1297   2.241   0.242   4.903
  331SOL    HW2 1298   2.357   0.303   4.979
  332SOL     OW 1299   2.025   3.387   4.146
  332SOL    HW1 1300   2.046   3.298   4.175
  332SOL    HW2 1301   2.104   3.417   4.101
  333SOL     OW 1302   5.494   4.991   0.033
  333SOL    HW1 1303   5.427   4.946   0.084
  333SOL    HW2 1304   1.351   0.866   5.761
  334SOL     OW 1305   5.098   6.162   5.225
  334SOL    HW1 1306   5.044   6.212   5.286
  334SOL    HW2 1307   5.176   6.216   5.212
  335SOL     OW 1308   0.417   7.367   2.125
  335SOL    HW1 1309   0.327   7.354   2.097
  335SOL    HW2 1310   0.443   7.283   2.164
  336SOL     OW 1311   3.851   8.086   4.727
  336SOL    HW1 1312   3.875   8.154   4.790
  336SOL    HW2 1313   3.921   8.021   4.733
  337SOL     OW 1314   6.623   1.377   3.045
  337SOL    HW1 1315   6.714   1.348   3.038
  337SOL    HW2 1316   6.598   1.355   3.135
  338SOL     OW 1317   3.852   4.076   1.843
  338SOL    HW1 1318   3.846   4.138   1.916
  338SOL    HW2 1319   3.815   3.995   1.877
  339SOL     OW 1320   4.200   6.025   5.533
  339SOL    HW1 1321   4.223   6.047   5.623
  339SOL    HW2 1322   4.284   6.008   5.491
  340SOL     OW 1323   7.572   0.476   5.515
  340SOL    HW1 1324   7.605   0.540   5.451
  340SOL    HW2 1325   7.495   0.518   5.553
  341SOL     OW 1326   6.543   4.048   1.959
  341SOL    HW1 1327   6.568   4.137   1.933
  341SOL    HW2 1328   6.507   4.057   2.047
  342SOL     OW 1329   2.052   8.217   1.393
  342SOL    HW1 1330   2.001   0.024   1.320
  342SOL    HW2 1331   1.993   8.155   1.435
  343SOL     OW 1332   0.198   1.260   1.034
  343SOL    HW1 1333   0.191   1.222   1.121
  343SOL    HW2 1334   0.110   1.294   1.016
  344SOL     OW 1335   3.080   7.305   2.980
  344SOL    HW1 1336   2.998   7.292   3.028
  344SOL    HW2 1337   3.138   7.348   3.042
  345SOL     OW 1338   1.075   2.670   5.067
  345SOL    HW1 1339   0.985   2.678   5.035
  345SOL    HW2 1340   1.122   2.742   5.024
  346SOL     OW 1341   0.897   8.011   0.314
  346SOL    HW1 1342   0.988   7.980   0.316
  346SOL    HW2 1343   0.881   8.033   0.222
  347SOL     OW 1344   7.909   1.104   1.707
  347SOL    HW1 1345   7.882   1.106   1.799
  347SOL    HW2 1346   7.892   1.014   1.679
  348SOL     OW 1347   2.184   0.027   1.795
  348SOL    HW1 1348   2.123   0.083   1.747
  348SOL    HW2 1349   2.209   0.080   1.871
  349SOL     OW 1350   4.630   0.965   5.660
  349SOL    HW1 1351   4.620   0.992   5.569
  349SOL    HW2 1352   4.724   0.969   5.675
  350SOL     OW 1353   2.884   1.225   4.114
  350SOL    HW1 1354   2.874   1.171   4.035
  350SOL    HW2 1355   2.974   1.257   4.110
  351SOL     OW 1356   1.983   5.198   5.792
  351SOL    HW1 1357   1.939   5.282   5.807
  351SOL    HW2 1358   6.168   1.081   0.038
  352SOL     OW 1359   2.460   6.513   3.849
  352SOL    HW1 1360   2.494   6.504   3.938
  352SOL    HW2 1361   2.502   6.442   3.800
  353SOL     OW 1362   1.007   2.570   1.057
  353SOL    HW1 1363   0.925   2.616   1.039
  353SOL    HW2 1364   0.995   2.533   1.145
  354SOL     OW 1365   5.709   1.134   5.007
  354SOL    HW1 1366   5.715   1.136   4.911
  354SOL    HW2 1367   5.635   1.192   5.027
  355SOL     OW 1368   4.983   2.876   5.546
  355SOL    HW1 1369   4.939   2.955   5.515
  355SOL    HW2 1370   4.979   2.815   5.472
  356SOL     OW 1371   5.094   5.338   3.348
  356SOL    HW1 1372   5.141   5.415   3.316
  356SOL    HW2 1373   5.158   5.293   3.404
  357SOL     OW 1374   2.037   4.522   5.010
  357SOL    HW1 1375   2.074   4.582   4.945
  357SOL    HW2 1376   2.109   4.505   5.070
  358SOL     OW 1377   5.637   6.899   1.922
  358SOL    HW1 1378   5.631   6.804   1.911
  358SOL    HW2 1379   5.550   6.925   1.951
  359SOL     OW 1380   5.422   6.812   1.695
  359SOL    HW1 1381   5.502   6.862   1.676
  359SOL    HW2 1382   5.361   6.838   1.626
  360SOL     OW 1383   5.241   7.128   1.640
  360SOL    HW1 1384   5.171   7.086   1.691
  360SOL    HW2 1385   5.265   7.063   1.574
  361SOL     OW 1386   6.569   5.413   0.000
  361SOL    HW1 1387   6.646   5.467   0.016
  361SOL    HW2 1388   2.487   1.224   5.768
  362SOL     OW 1389   1.141   5.799   1.627
  362SOL    HW1 1390   1.215   5.853   1.655
  362SOL    HW2 1391   1.174   5.751   1.551
  363SOL     OW 1392   8.139   0.047   4.805
  363SOL    HW1 1393   8.191   0.015   4.879
  363SOL    HW2 1394   8.168   8.224   4.731
  364SOL     OW 1395   6.269   4.783   0.307
  364SOL    HW1 1396   6.189   4.827   0.336
  364SOL    HW2 1397   6.279   4.808   0.215
  365SOL     OW 1398   3.147   4.563   4.832
  365SOL    HW1 1399   3.231   4.517   4.832
  365SOL    HW2 1400   3.083   4.495   4.853
  366SOL     OW 1401   2.137   1.732   1.531
  366SOL    HW1 1402   2.161   1.699   1.445
  366SOL    HW2 1403   2.198   1.689   1.591
  367SOL     OW 1404   4.712   5.344   4.168
  367SOL    HW1 1405   4.704   5.402   4.244
  367SOL    HW2 1406   4.682   5.259   4.200
  368SOL     OW 1407   0.303   2.750   4.537
  368SOL    HW1 1408   0.283   2.681   4.601
  368SOL    HW2 1409   0.307   2.704   4.453
  369SOL     OW 1410   6.063   1.323   0.289
  369SOL    HW1 1411   6.148   1.296   0.254
  369SOL    HW2 1412   6.012   1.242   0.296
  370SOL     OW 1413   5.300   4.481   1.755
  370SOL    HW1 1414   5.338   4.396   1.779
  370SOL    HW2 1415   5.235   4.460   1.688
  371SOL     OW 1416   3.169   0.350   0.527
  371SOL    HW1 1417   3.229   0.287   0.487
  371SOL    HW2 1418   3.200   0.358   0.617
  372SOL     OW 1419   5.848   5.342   3.624
  372SOL    HW1 1420   5.896   5.391   3.691
  372SOL    HW2 1421   5.914   5.322   3.558
  373SOL     OW 1422   6.417   5.163   5.534
  373SOL    HW1 1423   6.392   5.088   5.588
  373SOL    HW2 1424   6.396   5.137   5.445
  374SOL     OW 1425   7.713   6.643   5.755
  374SOL    HW1 1426   3.533   2.518   0.005
  374SOL    HW2 1427   7.791   6.675   5.800
  375SOL     OW 1428   2.024   2.679   4.790
  375SOL    HW1 1429   1.996   2.763   4.755
  375SOL    HW2 1430   1.950   2.649   4.843
  376SOL     OW 1431   2.309   2.835   4.052
  376SOL    HW1 1432   2.218   2.861   4.065
  376SOL    HW2 1433   2.350   2.849   4.137
  377SOL     OW 1434   1.956   7.690   1.466
  377SOL    HW1 1435   2.021   7.650   1.408
  377SOL    HW2 1436   1.910   7.753   1.411
  378SOL     OW 1437   3.189   2.359   4.540
  378SOL    HW1 1438   3.094   2.367   4.544
  378SOL    HW2 1439   3.207   2.338   4.448
  379SOL     OW 1440   1.410   1.790   5.311
  379SOL    HW1 1441   1.466   1.776   5.235
  379SOL    HW2 1442   1.345   1.853   5.281
  380SOL     OW 1443   1.046   6.720   0.309
  380SOL    HW1 1444   1.068   6.812   0.323
  380SOL    HW2 1445   1.024   6.687   0.396
  381SOL     OW 1446   5.806   0.434   2.060
  381SOL    HW1 1447   5.749   0.383   2.003
  381SOL    HW2 1448   5.840   0.503   2.003
  382SOL     OW 1449   1.017   1.381   5.566
  382SOL    HW1 1450   1.008   1.459   5.620
  382SOL    HW2 1451   1.013   1.414   5.476
  383SOL     OW 1452   1.862   2.172   0.466
  383SOL    HW1 1453   1.790   2.147   0.407
  383SOL    HW2 1454   1.909   2.090   0.482
  384SOL     OW 1455   3.556   6.281   3.106
  384SOL    HW1 1456   3.537   6.301   3.015
  384SOL    HW2 1457   3.497   6.337   3.156
  385SOL     OW 1458   6.321   1.916   3.648
  385SOL    HW1 1459   6.345   1.833   3.606
  385SOL    HW2 1460   6.234   1.900   3.684
  386SOL     OW 1461   0.617   7.173   0.517
  386SOL    HW1 1462   0.588   7.196   0.429
  386SOL    HW2 1463   0.598   7.079   0.524
  387SOL     OW 1464   3.977   1.727   5.552
  387SOL    HW1 1465   3.991   1.779   5.631
  387SOL    HW2 1466   4.057   1.675   5.542
  388SOL     OW 1467   0.079   5.912   1.553
  388SOL    HW1 1468   0.092   5.817   1.558
  388SOL    HW2 1469   0.050   5.936   1.641
  389SOL     OW 1470   7.278   4.115   3.651
  389SOL    HW1 1471   7.297   4.108   3.558
  389SOL    HW2 1472   7.216   4.188   3.657
  390SOL     OW 1473   2.015   6.195   3.064
  390SOL    HW1 1474   1.947   6.178   2.998
  390SOL    HW2 1475   2.078   6.124   3.052
  391SOL     OW 1476   0.729   6.067   3.672
  391SOL    HW1 1477   0.711   6.115   3.591
  391SOL    HW2 1478   0.801   6.008   3.650
  392SOL     OW 1479   5.435   2.057   1.917
  392SOL    HW1 1480   5.518   2.040   1.962
  392SOL    HW2 1481   5.387   2.115   1.976
  393SOL     OW 1482   3.165   4.927   5.487
  393SOL    HW1 1483   3.096   4.873   5.525
  393SOL    HW2 1484   3.134   5.017   5.499
  394SOL     OW 1485   2.557   7.670   2.784
  394SOL    HW1 1486   2.635   7.622   2.813
  394SOL    HW2 1487   2.528   7.623   2.706
  395SOL     OW 1488   2.281   4.381   3.340
  395SOL    HW1 1489   2.292   4.326   3.417
  395SOL    HW2 1490   2.187   4.383   3.324
  396SOL     OW 1491   7.874   2.345   5.355
  396SOL    HW1 1492   7.813   2.350   5.429
  396SOL    HW2 1493   7.924   2.426   5.359
  397SOL     OW 1494   0.055   3.207   0.784
  397SOL    HW1 1495   0.142   3.229   0.818
  397SOL    HW2 1496   0.055   3.111   0.780
  398SOL     OW 1497   2.645   1.515   0.846
  398SOL    HW1 1498   2.663   1.592   0.792
  398SOL    HW2 1499   2.715   1.515   0.911
  399SOL     OW 1500   1.631   2.991   2.517
  399SOL    HW1 1501   1.686   3.051   2.467
  399SOL    HW2 1502   1.693   2.932   2.560
  400SOL     OW 1503   4.824   7.087   4.380
  400SOL    HW1 1504   4.879   7.033   4.436
  400SOL    HW2 1505   4.870   7.089   4.296
  401SOL     OW 1506   3.839   6.428   4.730
  401SOL    HW1 1507   3.827   6.520   4.753
  401SOL    HW2 1508   3.847   6.383   4.814
  402SOL     OW 1509   6.260   0.150   0.754
  402SOL    HW1 1510   6.177   0.196   0.766
  402SOL    HW2 1511   6.243   0.061   0.784
  403SOL     OW 1512   0.161   0.767   1.450
  403SOL    HW1 1513   0.196   0.723   1.528
  403SOL    HW2 1514   0.221   0.840   1.435
  404SOL     OW 1515   7.611   2.248   2.142
  404SOL    HW1 1516   7.632   2.309   2.213
  404SOL    HW2 1517   7.567   2.302   2.076
  405SOL     OW 1518   0.719   6.384   3.151
  405SOL    HW1 1519   0.627   6.394   3.175
  405SOL    HW2 1520   0.732   6.289   3.144
  406SOL     OW 1521   1.069   0.654   5.556
  406SOL    HW1 1522   1.111   0.601   5.488
  406SOL    HW2 1523   0.989   0.605   5.578
  407SOL     OW 1524   5.957   2.042   2.239
  407SOL    HW1 1525   5.947   2.125   2.192
  407SOL    HW2 1526   6.021   1.993   2.188
  408SOL     OW 1527   8.216   8.208   4.291
  408SOL    HW1 1528   8.197   8.118   4.265
  408SOL    HW2 1529   8.161   0.032   4.233
  409SOL     OW 1530   6.403   3.819   3.372
  409SOL    HW1 1531   6.394   3.741   3.318
  409SOL    HW2 1532   6.314   3.838   3.402
  410SOL     OW 1533   7.471   2.310   5.463
  410SOL    HW1 1534   7.443   2.365   5.390
  410SOL    HW2 1535   7.390   2.277   5.501
  411SOL     OW 1536   2.017   0.237   1.704
  411SOL    HW1 1537   2.029   0.288   1.624
  411SOL    HW2 1538   1.988   0.301   1.769
  412SOL     OW 1539   6.310   6.067   5.280
  412SOL    HW1 1540   6.380   6.052   5.343
  412SOL    HW2 1541   6.247   6.121   5.327
  413SOL     OW 1542   7.279   3.009   5.047
  413SOL    HW1 1543   7.323   2.924   5.055
  413SOL    HW2 1544   7.337   3.061   4.992
  414SOL     OW 1545   1.809   6.364   5.268
  414SOL    HW1 1546   1.896   6.394   5.243
  414SOL    HW2 1547   1.768   6.441   5.308
  415SOL     OW 1548   3.159   1.953   1.633
  415SOL    HW1 1549   3.232   1.896   1.657
  415SOL    HW2 1550   3.123   1.982   1.717
  416SOL     OW 1551   3.744   6.030   2.544
  416SOL    HW1 1552   3.698   5.976   2.480
  416SOL    HW2 1553   3.771   6.108   2.495
  417SOL     OW 1554   6.374   6.053   0.829
  417SOL    HW1 1555   6.390   6.027   0.920
  417SOL    HW2 1556   6.431   6.129   0.815
  418SOL     OW 1557   1.406   5.627   1.710
  418SOL    HW1 1558   1.364   5.643   1.795
  418SOL    HW2 1559   1.457   5.706   1.693
  419SOL     OW 1560   0.077   2.800   3.462
  419SOL    HW1 1561   0.151   2.747   3.432
  419SOL    HW2 1562   0.115   2.886   3.481
  420SOL     OW 1563   5.875   3.643   2.550
  420SOL    HW1 1564   5.803   3.660   2.490
  420SOL    HW2 1565   5.834   3.643   2.637
  421SOL     OW 1566   7.854   1.469   3.971
  421SOL    HW1 1567   7.932   1.463   3.916
  421SOL    HW2 1568   7.869   1.546   4.026
  422SOL     OW 1569   7.548   4.449   3.201
  422SOL    HW1 1570   7.569   4.361   3.231
  422SOL    HW2 1571   7.559   4.504   3.279
  423SOL     OW 1572   7.219   3.630   4.982
  423SOL    HW1 1573   7.147   3.569   4.996
  423SOL    HW2 1574   7.183   3.715   5.008
  424SOL     OW 1575   1.346   0.259   0.733
  424SOL    HW1 1576   1.267   0.223   0.692
  424SOL    HW2 1577   1.321   0.273   0.824
  425SOL     OW 1578   6.360   3.564   5.468
  425SOL    HW1 1579   6.404   3.621   5.531
  425SOL    HW2 1580   6.318   3.497   5.522
  426SOL     OW 1581   2.587   2.526   4.167
  426SOL    HW1 1582   2.640   2.599   4.135
  426SOL    HW2 1583   2.499   2.546   4.135
  427SOL     OW 1584   4.635   3.520   4.350
  427SOL    HW1 1585   4.718   3.523   4.398
  427SOL    HW2 1586   4.572   3.486   4.413
  428SOL     OW 1587   2.709   3.633   3.714
  428SOL    HW1 1588   2.755   3.647   3.631
  428SOL    HW2 1589   2.628   3.589   3.689
  429SOL     OW 1590   6.079   4.110   2.912
  429SOL    HW1 1591   6.132   4.125   2.990
  429SOL    HW2 1592   6.050   4.197   2.886
  430SOL     OW 1593   1.887   1.872   4.927
  430SOL    HW1 1594   1.812   1.878   4.868
  430SOL    HW2 1595   1.861   1.921   5.005
  431SOL     OW 1596   6.588   2.028   0.954
  431SOL    HW1 1597   6.520   2.011   0.889
  431SOL    HW2 1598   6.545   2.084   1.019
  432SOL     OW 1599   7.133   0.990   0.425
  432SOL    HW1 1600   7.131   0.895   0.431
  432SOL    HW2 1601   7.119   1.008   0.332
  433SOL     OW 1602   4.577   5.936   1.431
  433SOL    HW1 1603   4.566   5.949   1.525
  433SOL    HW2 1604   4.541   5.849   1.415
  434SOL     OW 1605   0.688   6.957   4.249
  434SOL    HW1 1606   0.750   6.964   4.321
  434SOL    HW2 1607   0.649   6.870   4.258
  435SOL     OW 1608   4.944   2.370   0.399
  435SOL    HW1 1609   4.957   2.286   0.354
  435SOL    HW2 1610   5.026   2.418   0.385
  436SOL     OW 1611   1.772   7.157   3.646
  436SOL    HW1 1612   1.759   7.062   3.646
  436SOL    HW2 1613   1.866   7.169   3.657
  437SOL     OW 1614   7.394   4.186   2.919
  437SOL    HW1 1615   7.404   4.246   2.845
  437SOL    HW2 1616   7.398   4.099   2.880
  438SOL     OW 1617   4.655   0.158   2.511
  438SOL    HW1 1618   4.686   0.225   2.451
  438SOL    HW2 1619   4.721   0.156   2.581
  439SOL     OW 1620   0.009   7.348   4.545
  439SOL    HW1 1621   0.075   7.294   4.501
  439SOL    HW2 1622   0.029   7.338   4.638
  440SOL     OW 1623   2.083   1.428   5.206
  440SOL    HW1 1624   2.005   1.476   5.179
  440SOL    HW2 1625   2.143   1.496   5.236
  441SOL     OW 1626   3.914   3.420   2.208
  441SOL    HW1 1627   3.932   3.492   2.148
  441SOL    HW2 1628   3.831   3.383   2.177
  442SOL     OW 1629   7.372   3.587   4.738
  442SOL    HW1 1630   7.404   3.503   4.705
  442SOL    HW2 1631   7.327   3.566   4.820
  443SOL     OW 1632   0.380   7.778   0.592
  443SOL    HW1 1633   0.435   7.855   0.580
  443SOL    HW2 1634   0.330   7.772   0.511
  444SOL     OW 1635   0.295   0.925   4.910
  444SOL    HW1 1636   0.313   0.848   4.856
  444SOL    HW2 1637   0.200   0.922   4.924
  445SOL     OW 1638   6.019   2.388   5.550
  445SOL    HW1 1639   6.003   2.482   5.560
  445SOL    HW2 1640   6.032   2.376   5.456
  446SOL     OW 1641   7.697   4.823   1.831
  446SOL    HW1 1642   7.605   4.821   1.858
  446SOL    HW2 1643   7.745   4.789   1.907
  447SOL     OW 1644   5.999   4.210   4.173
  447SOL    HW1 1645   6.052   4.143   4.216
  447SOL    HW2 1646   5.912   4.171   4.164
  448SOL     OW 1647   7.744   0.983   3.639
  448SOL    HW1 1648   7.754   0.919   3.709
  448SOL    HW2 1649   7.730   1.066   3.684
  449SOL     OW 1650   7.619   1.024   0.197
  449SOL    HW1 1651   7.652   0.935   0.182
  449SOL    HW2 1652   7.698   1.078   0.204
  450SOL     OW 1653   3.144   4.468   5.793
  450SOL    HW1 1654   3.063   4.417   5.789
  450SOL    HW2 1655   3.192   4.444   5.714
  451SOL     OW 1656   1.994   3.607   3.589
  451SOL    HW1 1657   1.990   3.532   3.649
  451SOL    HW2 1658   1.907   3.646   3.594
  452SOL     OW 1659   5.054   2.302   2.679
  452SOL    HW1 1660   5.121   2.259   2.626
  452SOL    HW2 1661   5.096   2.317   2.764
  453SOL     OW 1662   5.991   2.495   3.423
  453SOL    HW1 1663   5.952   2.439   3.490
  453SOL    HW2 1664   5.946   2.470   3.342
  454SOL     OW 1665   5.515   1.441   1.802
  454SOL    HW1 1666   5.435   1.490   1.783
  454SOL    HW2 1667   5.488   1.349   1.800
  455SOL     OW 1668   2.257   3.529   3.570
  455SOL    HW1 1669   2.324   3.546   3.504
  455SOL    HW2 1670   2.179   3.507   3.520
  456SOL     OW 1671   5.361   1.085   5.005
  456SOL    HW1 1672   5.294   1.017   5.008
  456SOL    HW2 1673   5.334   1.143   4.934
  457SOL     OW 1674   6.340   1.666   4.267
  457SOL    HW1 1675   6.307   1.750   4.300
  457SOL    HW2 1676   6.426   1.656   4.307
  458SOL     OW 1677   6.049   8.154   0.731
  458SOL    HW1 1678   5.956   8.163   0.709
  458SOL    HW2 1679   6.051   8.089   0.801
  459SOL     OW 1680   5.958   7.279   0.705
  459SOL    HW1 1681   5.906   7.300   0.627
  459SOL    HW2 1682   5.925   7.338   0.772
  460SOL     OW 1683   3.879   2.192   2.189
  460SOL    HW1 1684   3.877   2.106   2.147
  460SOL    HW2 1685   3.924   2.249   2.126
  461SOL     OW 1686   2.511   3.045   5.419
  461SOL    HW1 1687   2.596   3.038   5.376
  461SOL    HW2 1688   2.448   3.049   5.347
  462SOL     OW 1689   2.471   4.805   0.064
  462SOL    HW1 1690   2.420   4.741   0.014
  462SOL    HW2 1691   2.408   4.843   0.126
  463SOL     OW 1692   6.884   7.956   3.736
  463SOL    HW1 1693   6.945   7.897   3.780
  463SOL    HW2 1694   6.798   7.927   3.765
  464SOL     OW 1695   0.556   7.494   0.567
  464SOL    HW1 1696   0.639   7.457   0.537
  464SOL    HW2 1697   0.555   7.583   0.532
  465SOL     OW 1698   0.738   7.044   2.608
  465SOL    HW1 1699   0.826   7.077   2.625
  465SOL    HW2 1700   0.691   7.120   2.574
  466SOL     OW 1701   3.374   7.360   0.145
  466SOL    HW1 1702   3.387   7.322   0.232
  466SOL    HW2 1703   3.455   7.341   0.098
  467SOL     OW 1704   3.089   7.568   1.770
  467SOL    HW1 1705   3.015   7.620   1.802
  467SOL    HW2 1706   3.167   7.614   1.801
  468SOL     OW 1707   6.790   0.597   5.523
  468SOL    HW1 1708   6.859   0.531   5.530
  468SOL    HW2 1709   6.709   0.549   5.541
  469SOL     OW 1710   2.410   2.570   0.409
  469SOL    HW1 1711   2.369   2.509   0.471
  469SOL    HW2 1712   2.476   2.616   0.460
  470SOL     OW 1713   0.118   6.356   3.804
  470SOL    HW1 1714   0.061   6.390   3.735
  470SOL    HW2 1715   0.069   6.283   3.842
  471SOL     OW 1716   4.114   2.586   0.503
  471SOL    HW1 1717   4.154   2.669   0.476
  471SOL    HW2 1718   4.022   2.593   0.477
  472SOL     OW 1719   4.306   7.188   3.392
  472SOL    HW1 1720   4.315   7.219   3.302
  472SOL    HW2 1721   4.260   7.259   3.437
  473SOL     OW 1722   1.871   4.944   5.724
  473SOL    HW1 1723   1.872   5.038   5.743
  473SOL    HW2 1724   1.916   4.904   5.798
  474SOL     OW 1725   3.590   1.143   0.061
  474SOL    HW1 1726   3.623   1.232   0.071
  474SOL    HW2 1727   3.498   1.153   0.038
  475SOL     OW 1728   4.169   4.927   3.264
  475SOL    HW1 1729   4.221   4.897   3.339
  475SOL    HW2 1730   4.186   4.862   3.196
  476SOL     OW 1731   2.547   2.030   5.577
  476SOL    HW1 1732   2.614   2.003   5.640
  476SOL    HW2 1733   2.587   2.102   5.529
  477SOL     OW 1734   5.165   5.856   0.305
  477SOL    HW1 1735   5.197   5.823   0.389
  477SOL    HW2 1736   5.241   5.901   0.267
  478SOL     OW 1737   0.316   7.178   0.173
  478SOL    HW1 1738   0.406   7.209   0.181
  478SOL    HW2 1739   0.314   7.097   0.224
  479SOL     OW 1740   4.004   1.029   0.110
  479SOL    HW1 1741   4.055   0.978   0.047
  479SOL    HW2 1742   3.940   1.075   0.057
  480SOL     OW 1743   1.921   3.994   4.717
  480SOL    HW1 1744   2.001   4.026   4.676
  480SOL    HW2 1745   1.897   3.916   4.667
  481SOL     OW 1746   1.111   1.822   5.451
  481SOL    HW1 1747   1.163   1.748   5.483
  481SOL    HW2 1748   1.100   1.804   5.358
  482SOL     OW 1749   5.476   3.575   0.655
  482SOL    HW1 1750   5.383   3.595   0.644
  482SOL    HW2 1751   5.493   3.506   0.591
  483SOL     OW 1752   1.738   4.621   0.901
  483SOL    HW1 1753   1.740   4.701   0.953
  483SOL    HW2 1754   1.685   4.643   0.824
  484SOL     OW 1755   0.008   0.891   4.925
  484SOL    HW1 1756   8.192   0.829   4.868
  484SOL    HW2 1757   8.192   0.884   5.009
  485SOL     OW 1758   5.618   6.789   2.838
  485SOL    HW1 1759   5.559   6.734   2.890
  485SOL    HW2 1760   5.704   6.778   2.879
  486SOL     OW 1761   2.762   5.318   1.083
  486SOL    HW1 1762   2.836   5.358   1.129
  486SOL    HW2 1763   2.700   5.390   1.070
  487SOL     OW 1764   2.785   4.783   4.926
  487SOL    HW1 1765   2.719   4.821   4.984
  487SOL    HW2 1766   2.839   4.858   4.900
  488SOL     OW 1767   5.074   2.530   2.074
  488SOL    HW1 1768   5.066   2.458   2.011
  488SOL    HW2 1769   5.012   2.507   2.143
  489SOL     OW 1770   7.327   7.432   5.693
  489SOL    HW1 1771   7.318   7.356   5.635
  489SOL    HW2 1772   7.347   7.395   5.779
  490SOL     OW 1773   4.919   6.683   0.444
  490SOL    HW1 1774   4.979   6.632   0.390
  490SOL    HW2 1775   4.915   6.636   0.527
  491SOL     OW 1776   8.152   1.125   0.322
  491SOL    HW1 1777   8.164   1.203   0.376
  491SOL    HW2 1778   8.161   1.157   0.232
  492SOL     OW 1779   5.624   3.170   0.024
  492SOL    HW1 1780   1.498   7.288   5.748
  492SOL    HW2 1781   5.637   3.261   0.050
  493SOL     OW 1782   2.915   1.098   2.914
  493SOL    HW1 1783   2.833   1.115   2.867
  493SOL    HW2 1784   2.929   1.004   2.905
  494SOL     OW 1785   2.262   5.336   4.643
  494SOL    HW1 1786   2.260   5.304   4.553
  494SOL    HW2 1787   2.355   5.351   4.660
  495SOL     OW 1788   2.626   7.741   5.137
  495SOL    HW1 1789   2.679   7.691   5.199
  495SOL    HW2 1790   2.678   7.741   5.056
  496SOL     OW 1791   1.025   1.498   5.313
  496SOL    HW1 1792   1.033   1.497   5.218
  496SOL    HW2 1793   1.111   1.527   5.344
  497SOL     OW 1794   7.395   2.768   5.080
  497SOL    HW1 1795   7.327   2.707   5.052
  497SOL    HW2 1796   7.400   2.756   5.175
  498SOL     OW 1797   0.593   1.385   4.039
  498SOL    HW1 1798   0.580   1.297   4.075
  498SOL    HW2 1799   0.562   1.444   4.108
  499SOL     OW 1800   6.209   3.663   3.731
  499SOL    HW1 1801   6.296   3.661   3.690
  499SOL    HW2 1802   6.210   3.591   3.794
  500SOL     OW 1803   7.471   3.508   5.651
  500SOL    HW1 1804   7.468   3.515   5.556
  500SOL    HW2 1805   7.556   3.468   5.669
  501SOL     OW 1806   2.011   1.676   3.877
  501SOL    HW1 1807   1.992   1.618   3.804
  501SOL    HW2 1808   2.044   1.618   3.946
  502SOL     OW 1809   5.564   5.448   1.846
  502SOL    HW1 1810   5.557   5.441   1.941
  502SOL    HW2 1811   5.486   5.496   1.820
  503SOL     OW 1812   4.685   6.459   0.599
  503SOL    HW1 1813   4.698   6.402   0.675
  503SOL    HW2 1814   4.770   6.501   0.586
  504SOL     OW 1815   1.963   6.824   5.563
  504SOL    HW1 1816   2.012   6.906   5.564
  504SOL    HW2 1817   1.957   6.802   5.470
  505SOL     OW 1818   8.079   7.788   5.639
  505SOL    HW1 1819   8.160   7.826   5.674
  505SOL    HW2 1820   8.009   7.835   5.684
  506SOL     OW 1821   3.287   3.974   4.199
  506SOL    HW1 1822   3.291   4.060   4.241
  506SOL    HW2 1823   3.379   3.951   4.184
  507SOL     OW 1824   1.233   0.867   1.749
  507SOL    HW1 1825   1.204   0.955   1.772
  507SOL    HW2 1826   1.155   0.825   1.714
  508SOL     OW 1827   2.707   7.285   1.638
  508SOL    HW1 1828   2.765   7.260   1.710
  508SOL    HW2 1829   2.655   7.358   1.673
  509SOL     OW 1830   7.371   0.319   0.405
  509SOL    HW1 1831   7.439   0.280   0.460
  509SOL    HW2 1832   7.416   0.339   0.323
  510SOL     OW 1833   4.663   7.002   0.171
  510SOL    HW1 1834   4.731   7.025   0.235
  510SOL    HW2 1835   4.633   6.915   0.198
  511SOL     OW 1836   1.053   0.989   3.281
  511SOL    HW1 1837   1.000   0.967   3.204
  511SOL    HW2 1838   1.099   1.069   3.256
  512SOL     OW 1839   2.105   3.036   5.306
  512SOL    HW1 1840   2.078   2.947   5.285
  512SOL    HW2 1841   2.053   3.091   5.247
  513SOL     OW 1842   0.886   1.051   1.417
  513SOL    HW1 1843   0.958   1.094   1.464
  513SOL    HW2 1844   0.863   0.976   1.472
  514SOL     OW 1845   5.394   3.188   3.339
  514SOL    HW1 1846   5.353   3.273   3.356
  514SOL    HW2 1847   5.372   3.168   3.248
  515SOL     OW 1848   7.372   1.921   0.645
  515SOL    HW1 1849   7.340   1.833   0.662
  515SOL    HW2 1850   7.301   1.979   0.674
  516SOL     OW 1851   3.238   3.930   3.775
  516SOL    HW1 1852   3.316   3.941   3.829
  516SOL    HW2 1853   3.247   3.997   3.707
  517SOL     OW 1854   7.266   5.332   1.972
  517SOL    HW1 1855   7.267   5.427   1.963
  517SOL    HW2 1856   7.346   5.303   1.929
  518SOL     OW 1857   7.122   1.989   3.079
  518SOL    HW1 1858   7.174   1.925   3.030
  518SOL    HW2 1859   7.187   2.045   3.122
  519SOL     OW 1860   3.003   4.871   3.358
  519SOL    HW1 1861   2.954   4.937   3.310
  519SOL    HW2 1862   3.075   4.847   3.300
  520SOL     OW 1863   2.257   1.647   3.150
  520SOL    HW1 1864   2.220   1.690   3.227
  520SOL    HW2 1865   2.182   1.630   3.094
  521SOL     OW 1866   1.727   1.800   2.510
  521SOL    HW1 1867   1.687   1.886   2.523
  521SOL    HW2 1868   1.819   1.813   2.534
  522SOL     OW 1869   0.866   4.175   4.953
  522SOL    HW1 1870   0.819   4.256   4.935
  522SOL    HW2 1871   0.798   4.113   4.978
  523SOL     OW 1872   4.941   3.983   3.523
  523SOL    HW1 1873   4.858   3.980   3.475
  523SOL    HW2 1874   5.007   3.960   3.458
  524SOL     OW 1875   6.344   4.945   5.672
  524SOL    HW1 1876   6.381   4.897   5.746
  524SOL    HW2 1877   6.311   4.877   5.614
  525SOL     OW 1878   6.518   0.145   0.772
  525SOL    HW1 1879   6.427   0.173   0.778
  525SOL    HW2 1880   6.523   0.066   0.825
  526SOL     OW 1881   6.036   4.740   5.040
  526SOL    HW1 1882   5.941   4.754   5.039
  526SOL    HW2 1883   6.061   4.740   4.948
  527SOL     OW 1884   1.785   7.851   3.744
  527SOL    HW1 1885   1.863   7.811   3.783
  527SOL    HW2 1886   1.781   7.939   3.782
  528SOL     OW 1887   5.459   3.120   4.941
  528SOL    HW1 1888   5.371   3.083   4.935
  528SOL    HW2 1889   5.488   3.100   5.030
  529SOL     OW 1890   5.238   7.024   4.369
  529SOL    HW1 1891   5.181   7.058   4.438
  529SOL    HW2 1892   5.287   6.953   4.411
  530SOL     OW 1893   0.635   3.067   4.860
  530SOL    HW1 1894   0.561   3.111   4.903
  530SOL    HW2 1895   0.628   2.976   4.887
  531SOL     OW 1896   3.523   4.102   0.436
  531SOL    HW1 1897   3.463   4.027   0.442
  531SOL    HW2 1898   3.487   4.156   0.366
  532SOL     OW 1899   7.582   5.461   1.114
  532SOL    HW1 1900   7.546   5.407   1.185
  532SOL    HW2 1901   7.657   5.505   1.153
  533SOL     OW 1902   5.552   3.957   4.568
  533SOL    HW1 1903   5.579   4.045   4.541
  533SOL    HW2 1904   5.634   3.913   4.591
  534SOL     OW 1905   4.087   2.426   2.873
  534SOL    HW1 1906   4.028   2.384   2.810
  534SOL    HW2 1907   4.094   2.517   2.843
  535SOL     OW 1908   5.771   4.427   0.313
  535SOL    HW1 1909   5.763   4.465   0.401
  535SOL    HW2 1910   5.822   4.491   0.264
  536SOL     OW 1911   7.960   0.547   5.294
  536SOL    HW1 1912   8.055   0.539   5.290
  536SOL    HW2 1913   7.930   0.458   5.313
  537SOL     OW 1914   8.056   6.650   3.526
  537SOL    HW1 1915   8.009   6.581   3.480
  537SOL    HW2 1916   7.996   6.725   3.526
  538SOL     OW 1917   1.497   4.024   0.347
  538SOL    HW1 1918   1.555   4.091   0.384
  538SOL    HW2 1919   1.409   4.060   0.358
  539SOL     OW 1920   1.062   1.122   0.867
  539SOL    HW1 1921   1.099   1.119   0.955
  539SOL    HW2 1922   0.967   1.115   0.880
  540SOL     OW 1923   1.784   0.545   4.206
  540SOL    HW1 1924   1.751   0.565   4.293
  540SOL    HW2 1925   1.831   0.624   4.179
  541SOL     OW 1926   7.086   8.206   4.620
  541SOL    HW1 1927   7.066   8.121   4.659
  541SOL    HW2 1928   7.119   8.185   4.533
  542SOL     OW 1929   4.823   5.458   0.980
  542SOL    HW1 1930   4.902   5.466   0.927
  542SOL    HW2 1931   4.823   5.537   1.035
  543SOL     OW 1932   7.261   3.609   3.747
  543SOL    HW1 1933   7.200   3.671   3.787
  543SOL    HW2 1934   7.221   3.587   3.663
  544SOL     OW 1935   0.997   6.664   2.608
  544SOL    HW1 1936   0.932   6.603   2.643
  544SOL    HW2 1937   0.949   6.716   2.543
  545SOL     OW 1938   3.070   1.811   3.337
  545SOL    HW1 1939   3.146   1.798   3.280
  545SOL    HW2 1940   3.005   1.748   3.305
  546SOL     OW 1941   5.885   4.164   1.340
  546SOL    HW1 1942   5.966   4.152   1.390
  546SOL    HW2 1943   5.914   4.188   1.252
  547SOL     OW 1944   4.869   1.448   5.723
  547SOL    HW1 1945   4.954   1.490   5.707
  547SOL    HW2 1946   4.808   1.494   5.665
  548SOL     OW 1947   7.302   6.950   1.960
  548SOL    HW1 1948   7.354   7.028   1.939
  548SOL    HW2 1949   7.225   6.984   2.006
  549SOL     OW 1950   0.920   3.354   2.378
  549SOL    HW1 1951   0.845   3.410   2.359
  549SOL    HW2 1952   0.883   3.279   2.425
  550SOL     OW 1953   2.985   5.811   4.356
  550SOL    HW1 1954   2.923   5.800   4.283
  550SOL    HW2 1955   2.987   5.905   4.372
  551SOL     OW 1956   6.858   2.853   4.019
  551SOL    HW1 1957   6.862   2.770   3.972
  551SOL    HW2 1958   6.775   2.850   4.066
  552SOL     OW 1959   0.188   0.730   2.450
  552SOL    HW1 1960   0.259   0.667   2.464
  552SOL    HW2 1961   0.226   0.815   2.471
  553SOL     OW 1962   6.559   3.949   3.561
  553SOL    HW1 1963   6.628   3.884   3.574
  553SOL    HW2 1964   6.498   3.907   3.500
  554SOL     OW 1965   6.424   5.748   5.208
  554SOL    HW1 1966   6.391   5.832   5.240
  554SOL    HW2 1967   6.514   5.743   5.241
  555SOL     OW 1968   3.963   0.227   4.507
  555SOL    HW1 1969   3.879   0.261   4.476
  555SOL    HW2 1970   3.988   0.162   4.441
  556SOL     OW 1971   2.426   5.207   3.105
  556SOL    HW1 1972   2.370   5.148   3.054
  556SOL    HW2 1973   2.365   5.263   3.153
  557SOL     OW 1974   0.194   4.632   1.285
  557SOL    HW1 1975   0.281   4.661   1.313
  557SOL    HW2 1976   0.210   4.548   1.242
  558SOL     OW 1977   1.431   7.618   1.836
  558SOL    HW1 1978   1.502   7.651   1.782
  558SOL    HW2 1979   1.359   7.679   1.820
  559SOL     OW 1980   4.594   1.638   1.821
  559SOL    HW1 1981   4.624   1.635   1.730
  559SOL    HW2 1982   4.541   1.559   1.831
  560SOL     OW 1983   5.843   7.748   5.495
  560SOL    HW1 1984   5.813   7.728   5.406
  560SOL    HW2 1985   5.812   7.675   5.548
  561SOL     OW 1986   3.974   2.177   5.309
  561SOL    HW1 1987   4.034   2.249   5.292
  561SOL    HW2 1988   4.026   2.114   5.359
  562SOL     OW 1989   5.280   4.131   2.618
  562SOL    HW1 1990   5.371   4.159   2.607
  562SOL    HW2 1991   5.233   4.170   2.544
  563SOL     OW 1992   7.921   5.691   2.149
  563SOL    HW1 1993   7.827   5.683   2.133
  563SOL    HW2 1994   7.931   5.673   2.243
  564SOL     OW 1995   6.284   1.083   0.153
  564SOL    HW1 1996   6.305   1.176   0.164
  564SOL    HW2 1997   6.367   1.038   0.166
  565SOL     OW 1998   3.133   5.744   0.364
  565SOL    HW1 1999   3.152   5.650   0.361
  565SOL    HW2 2000   3.215   5.785   0.392
  566SOL     OW 2001   2.252   7.730   5.778
  566SOL    HW1 2002   2.196   7.759   5.706
  566SOL    HW2 2003   2.280   7.642   5.752
  567SOL     OW 2004   3.169   4.359   2.316
  567SOL    HW1 2005   3.204   4.446   2.333
  567SOL    HW2 2006   3.098   4.373   2.253
  568SOL     OW 2007   4.521   2.295   1.942
  568SOL    HW1 2008   4.501   2.370   1.886
  568SOL    HW2 2009   4.467   2.224   1.907
  569SOL     OW 2010   3.203   1.905   2.903
  569SOL    HW1 2011   3.123   1.933   2.859
  569SOL    HW2 2012   3.259   1.872   2.833
  570SOL     OW 2013   5.529   8.117   5.365
  570SOL    HW1 2014   5.512   8.208   5.341
  570SOL    HW2 2015   5.620   8.117   5.395
  571SOL     OW 2016   4.052   4.765   4.058
  571SOL    HW1 2017   4.081   4.844   4.105
  571SOL    HW2 2018   3.992   4.722   4.119
  572SOL     OW 2019   3.451   2.939   1.285
  572SOL    HW1 2020   3.373   2.958   1.338
  572SOL    HW2 2021   3.466   2.845   1.297
  573SOL     OW 2022   2.996   1.867   1.297
  573SOL    HW1 2023   3.030   1.822   1.374
  573SOL    HW2 2024   3.059   1.938   1.281
  574SOL     OW 2025   4.512   8.121   3.424
  574SOL    HW1 2026   4.528   8.032   3.455
  574SOL    HW2 2027   4.524   8.176   3.502
  575SOL     OW 2028   3.112   3.324   1.356
  575SOL    HW1 2029   3.047   3.264   1.318
  575SOL    HW2 2030   3.194   3.301   1.312
  576SOL     OW 2031   7.620   7.665   3.193
  576SOL    HW1 2032   7.683   7.649   3.264
  576SOL    HW2 2033   7.615   7.760   3.186
  577SOL     OW 2034   6.370   1.746   3.160
  577SOL    HW1 2035   6.344   1.674   3.217
  577SOL    HW2 2036   6.446   1.713   3.112
  578SOL     OW 2037   2.100   3.136   3.282
  578SOL    HW1 2038   2.086   3.228   3.306
  578SOL    HW2 2039   2.037   3.120   3.212
  579SOL     OW 2040   2.095   0.847   0.873
  579SOL    HW1 2041   2.048   0.775   0.831
  579SOL    HW2 2042   2.169   0.865   0.815
  580SOL     OW 2043   1.329   7.570   4.471
  580SOL    HW1 2044   1.321   7.500   4.536
  580SOL    HW2 2045   1.272   7.542   4.399
  581SOL     OW 2046   2.287   0.528   3.949
  581SOL    HW1 2047   2.264   0.621   3.956
  581SOL    HW2 2048   2.310   0.502   4.038
  582SOL     OW 2049   8.191   0.179   3.041
  582SOL    HW1 2050   8.225   0.090   3.048
  582SOL    HW2 2051   8.114   0.171   2.985
  583SOL     OW 2052   2.142   0.384   1.487
  583SOL    HW1 2053   2.181   0.298   1.471
  583SOL    HW2 2054   2.189   0.443   1.428
  584SOL     OW 2055   3.271   6.389   1.009
  584SOL    HW1 2056   3.223   6.307   0.996
  584SOL    HW2 2057   3.282   6.424   0.921
  585SOL     OW 2058   7.522   1.917   3.605
  585SOL    HW1 2059   7.550   1.908   3.696
  585SOL    HW2 2060   7.493   2.008   3.598
  586SOL     OW 2061   7.841   5.277   1.300
  586SOL    HW1 2062   7.921   5.225   1.304
  586SOL    HW2 2063   7.864   5.352   1.245
  587SOL     OW 2064   6.085   7.246   1.326
  587SOL    HW1 2065   6.033   7.219   1.250
  587SOL    HW2 2066   6.032   7.222   1.402
  588SOL     OW 2067   7.614   6.256   0.136
  588SOL    HW1 2068   7.659   6.332   0.099
  588SOL    HW2 2069   7.525   6.287   0.152
  589SOL     OW 2070   4.098   0.047   2.861
  589SOL    HW1 2071   4.026   0.101   2.830
  589SOL    HW2 2072   4.068   0.014   2.946
  590SOL     OW 2073   2.414   1.191   2.216
  590SOL    HW1 2074   2.363   1.110   2.218
  590SOL    HW2 2075   2.352   1.259   2.240
  591SOL     OW 2076   1.463   7.754   4.631
  591SOL    HW1 2077   1.417   7.700   4.567
  591SOL    HW2 2078   1.396   7.812   4.667
  592SOL     OW 2079   2.035   7.488   4.983
  592SOL    HW1 2080   2.020   7.522   5.071
  592SOL    HW2 2081   2.130   7.486   4.974
  593SOL     OW 2082   2.117   4.224   3.736
  593SOL    HW1 2083   2.081   4.137   3.751
  593SOL    HW2 2084   2.046   4.272   3.694
  594SOL     OW 2085   1.324   2.026   0.476
  594SOL    HW1 2086   1.325   2.099   0.414
  594SOL    HW2 2087   1.400   2.041   0.532
  595SOL     OW 2088   7.394   0.554   5.732
  595SOL    HW1 2089   7.396   0.635   5.783
  595SOL    HW2 2090   7.303   0.546   5.703
  596SOL     OW 2091   3.792   5.742   0.492
  596SOL    HW1 2092   3.737   5.668   0.518
  596SOL    HW2 2093   3.851   5.755   0.566
  597SOL     OW 2094   0.580   1.425   1.750
  597SOL    HW1 2095   0.665   1.467   1.757
  597SOL    HW2 2096   0.560   1.426   1.656
  598SOL     OW 2097   2.247   1.649   2.189
  598SOL    HW1 2098   2.249   1.736   2.150
  598SOL    HW2 2099   2.203   1.662   2.273
  599SOL     OW 2100   4.448   4.708   2.066
  599SOL    HW1 2101   4.457   4.664   2.150
  599SOL    HW2 2102   4.468   4.800   2.084
  600SOL     OW 2103   3.943   5.128   3.213
  600SOL    HW1 2104   3.866   5.098   3.164
  600SOL    HW2 2105   3.981   5.048   3.250
  601SOL     OW 2106   0.268   0.454   5.165
  601SOL    HW1 2107   0.346   0.488   5.121
  601SOL    HW2 2108   0.235   0.385   5.107
  602SOL     OW 2109   4.598   7.489   3.410
  602SOL    HW1 2110   4.596   7.426   3.482
  602SOL    HW2 2111   4.666   7.457   3.351
  603SOL     OW 2112   7.327   0.058   3.399
  603SOL    HW1 2113   7.416   0.026   3.383
  603SOL    HW2 2114   7.322   0.066   3.494
  604SOL     OW 2115   3.275   0.457   1.190
  604SOL    HW1 2116   3.250   0.406   1.113
  604SOL    HW2 2117   3.280   0.547   1.159
  605SOL     OW 2118   5.825   1.290   3.710
  605SOL    HW1 2119   5.888   1.218   3.706
  605SOL    HW2 2120   5.740   1.248   3.723
  606SOL     OW 2121   1.145   7.409   1.957
  606SOL    HW1 2122   1.235   7.389   1.933
  606SOL    HW2 2123   1.112   7.328   1.997
  607SOL     OW 2124   7.106   4.215   2.773
  607SOL    HW1 2125   7.049   4.265   2.831
  607SOL    HW2 2126   7.189   4.263   2.774
  608SOL     OW 2127   1.794   5.689   4.388
  608SOL    HW1 2128   1.832   5.602   4.398
  608SOL    HW2 2129   1.712   5.674   4.342
  609SOL     OW 2130   7.842   0.029   0.925
  609SOL    HW1 2131   7.858   8.170   0.958
  609SOL    HW2 2132   7.767   0.060   0.975
  610SOL     OW 2133   0.951   6.785   1.138
  610SOL    HW1 2134   0.990   6.727   1.203
  610SOL    HW2 2135   0.953   6.872   1.179
  611SOL     OW 2136   7.136   0.627   1.468
  611SOL    HW1 2137   7.196   0.624   1.542
  611SOL    HW2 2138   7.095   0.713   1.474
  612SOL     OW 2139   3.142   2.647   5.711
  612SOL    HW1 2140   3.141   2.602   5.795
  612SOL    HW2 2141   3.235   2.653   5.689
  613SOL     OW 2142   3.886   0.115   4.096
  613SOL    HW1 2143   3.956   0.174   4.068
  613SOL    HW2 2144   3.807   0.169   4.094
  614SOL     OW 2145   6.420   1.176   3.842
  614SOL    HW1 2146   6.336   1.146   3.877
  614SOL    HW2 2147   6.449   1.105   3.785
  615SOL     OW 2148   7.353   7.887   2.511
  615SOL    HW1 2149   7.289   7.909   2.443
  615SOL    HW2 2150   7.329   7.941   2.586
  616SOL     OW 2151   0.796   2.496   4.017
  616SOL    HW1 2152   0.742   2.459   3.947
  616SOL    HW2 2153   0.816   2.585   3.988
  617SOL     OW 2154   3.229   2.367   0.908
  617SOL    HW1 2155   3.310   2.349   0.955
  617SOL    HW2 2156   3.175   2.289   0.923
  618SOL     OW 2157   4.755   3.232   3.073
  618SOL    HW1 2158   4.837   3.218   3.025
  618SOL    HW2 2159   4.777   3.296   3.140
  619SOL     OW 2160   3.806   4.539   4.371
  619SOL    HW1 2161   3.794   4.461   4.426
  619SOL    HW2 2162   3.889   4.576   4.401
  620SOL     OW 2163   7.178   2.990   1.450
  620SOL    HW1 2164   7.101   2.996   1.507
  620SOL    HW2 2165   7.161   3.053   1.380
  621SOL     OW 2166   4.606   6.620   4.471
  621SOL    HW1 2167   4.657   6.539   4.478
  621SOL    HW2 2168   4.671   6.690   4.483
  622SOL     OW 2169   2.826   0.435   4.561
  622SOL    HW1 2170   2.796   0.466   4.476
  622SOL    HW2 2171   2.850   0.514   4.609
  623SOL     OW 2172   5.606   5.095   1.279
  623SOL    HW1 2173   5.624   5.125   1.368
  623SOL    HW2 2174   5.664   5.148   1.224
  624SOL     OW 2175   2.506   4.625   5.744
  624SOL    HW1 2176   2.535   4.635   5.653
  624SOL    HW2 2177   2.489   4.531   5.753
  625SOL     OW 2178   4.715   3.498   5.341
  625SOL    HW1 2179   4.641   3.549   5.375
  625SOL    HW2 2180   4.675   3.437   5.279
  626SOL     OW 2181   7.457   5.992   2.315
  626SOL    HW1 2182   7.499   5.920   2.362
  626SOL    HW2 2183   7.497   6.071   2.353
  627SOL     OW 2184   2.973   4.628   2.849
  627SOL    HW1 2185   2.960   4.674   2.932
  627SOL    HW2 2186   3.023   4.550   2.872
  628SOL     OW 2187   6.146   5.593   4.601
  628SOL    HW1 2188   6.142   5.498   4.587
  628SOL    HW2 2189   6.129   5.630   4.514
  629SOL     OW 2190   0.493   1.649   5.311
  629SOL    HW1 2191   0.566   1.604   5.354
  629SOL    HW2 2192   0.427   1.658   5.379
  630SOL     OW 2193   3.431   4.315   2.467
  630SOL    HW1 2194   3.523   4.314   2.492
  630SOL    HW2 2195   3.383   4.316   2.550
  631SOL     OW 2196   0.945   5.220   4.511
  631SOL    HW1 2197   1.001   5.148   4.541
  631SOL    HW2 2198   0.861   5.206   4.555
  632SOL     OW 2199   5.502   1.442   1.352
  632SOL    HW1 2200   5.578   1.489   1.385
  632SOL    HW2 2201   5.527   1.415   1.264
  633SOL     OW 2202   2.519   6.046   0.063
  633SOL    HW1 2203   2.440   6.089   0.096
  633SOL    HW2 2204   2.579   6.046   0.137
  634SOL     OW 2205   2.131   4.161   4.931
  634SOL    HW1 2206   2.074   4.229   4.966
  634SOL    HW2 2207   2.196   4.209   4.879
  635SOL     OW 2208   7.865   4.293   4.272
  635SOL    HW1 2209   7.875   4.243   4.353
  635SOL    HW2 2210   7.955   4.307   4.242
  636SOL     OW 2211   0.172   1.605   0.278
  636SOL    HW1 2212   0.235   1.598   0.206
  636SOL    HW2 2213   0.105   1.540   0.257
  637SOL     OW 2214   2.113   5.203   1.256
  637SOL    HW1 2215   2.046   5.270   1.239
  637SOL    HW2 2216   2.105   5.185   1.350
  638SOL     OW 2217   6.449   5.175   3.072
  638SOL    HW1 2218   6.535   5.162   3.031
  638SOL    HW2 2219   6.386   5.150   3.004
  639SOL     OW 2220   3.756   1.828   1.042
  639SOL    HW1 2221   3.830   1.826   1.103
  639SOL    HW2 2222   3.783   1.771   0.970
  640SOL     OW 2223   0.421   5.290   1.515
  640SOL    HW1 2224   0.349   5.353   1.512
  640SOL    HW2 2225   0.409   5.244   1.598
  641SOL     OW 2226   4.151   2.905   2.372
  641SOL    HW1 2227   4.173   2.817   2.342
  641SOL    HW2 2228   4.087   2.937   2.309
  642SOL     OW 2229   5.896   3.527   3.023
  642SOL    HW1 2230   5.912   3.593   3.091
  642SOL    HW2 2231   5.933   3.446   3.059
  643SOL     OW 2232   5.371   7.743   2.759
  643SOL    HW1 2233   5.458   7.718   2.789
  643SOL    HW2 2234   5.385   7.823   2.708
  644SOL     OW 2235   7.770   6.978   0.148
  644SOL    HW1 2236   7.747   6.887   0.166
  644SOL    HW2 2237   7.723   7.000   0.067
  645SOL     OW 2238   3.877   6.936   0.937
  645SOL    HW1 2239   3.954   6.984   0.967
  645SOL    HW2 2240   3.881   6.942   0.842
  646SOL     OW 2241   2.578   5.766   3.516
  646SOL    HW1 2242   2.591   5.681   3.475
  646SOL    HW2 2243   2.501   5.755   3.571
  647SOL     OW 2244   1.558   7.255   2.972
  647SOL    HW1 2245   1.477   7.205   2.959
  647SOL    HW2 2246   1.552   7.287   3.062
  648SOL     OW 2247   4.458   7.486   5.556
  648SOL    HW1 2248   4.432   7.425   5.625
  648SOL    HW2 2249   4.404   7.564   5.570
  649SOL     OW 2250   3.423   8.149   4.818
  649SOL    HW1 2251   3.506   8.159   4.772
  649SOL    HW2 2252   3.387   0.008   4.823
  650SOL     OW 2253   5.073   0.348   4.740
  650SOL    HW1 2254   5.167   0.341   4.724
  650SOL    HW2 2255   5.060   0.305   4.824
  651SOL     OW 2256   7.613   6.753   4.045
  651SOL    HW1 2257   7.548   6.808   4.089
  651SOL    HW2 2258   7.592   6.664   4.074
  652SOL     OW 2259   0.862   6.805   3.667
  652SOL    HW1 2260   0.882   6.796   3.760
  652SOL    HW2 2261   0.768   6.822   3.665
  653SOL     OW 2262   4.128   6.849   1.880
  653SOL    HW1 2263   4.155   6.924   1.933
  653SOL    HW2 2264   4.188   6.850   1.805
  654SOL     OW 2265   0.522   8.190   5.139
  654SOL    HW1 2266   0.517   8.199   5.044
  654SOL    HW2 2267   0.497   0.047   5.173
  655SOL     OW 2268   6.006   3.766   2.372
  655SOL    HW1 2269   5.978   3.728   2.455
  655SOL    HW2 2270   6.102   3.763   2.375
  656SOL     OW 2271   6.724   3.626   1.405
  656SOL    HW1 2272   6.734   3.673   1.322
  656SOL    HW2 2273   6.703   3.694   1.469
  657SOL     OW 2274   3.217   2.985   5.134
  657SOL    HW1 2275   3.257   3.072   5.131
  657SOL    HW2 2276   3.185   2.970   5.045
  658SOL     OW 2277   6.955   2.093   0.069
  658SOL    HW1 2278   6.876   2.043   0.048
  658SOL    HW2 2279   6.964   2.086   0.164
  659SOL     OW 2280   4.147   4.349   0.320
  659SOL    HW1 2281   4.191   4.265   0.328
  659SOL    HW2 2282   4.078   4.346   0.387
  660SOL     OW 2283   4.077   4.427   1.726
  660SOL    HW1 2284   4.127   4.394   1.801
  660SOL    HW2 2285   3.994   4.455   1.763
  661SOL     OW 2286   6.642   5.640   0.593
  661SOL    HW1 2287   6.619   5.723   0.636
  661SOL    HW2 2288   6.719   5.609   0.641
  662SOL     OW 2289   4.394   3.476   3.664
  662SOL    HW1 2290   4.391   3.572   3.666
  662SOL    HW2 2291   4.306   3.450   3.637
  663SOL     OW 2292   6.646   3.301   2.746
  663SOL    HW1 2293   6.634   3.211   2.775
  663SOL    HW2 2294   6.720   3.296   2.686
  664SOL     OW 2295   0.410   6.218   3.869
  664SOL    HW1 2296   0.458   6.138   3.849
  664SOL    HW2 2297   0.338   6.190   3.925
  665SOL     OW 2298   6.069   1.915   5.219
  665SOL    HW1 2299   6.023   1.904   5.302
  665SOL    HW2 2300   6.148   1.862   5.228
  666SOL     OW 2301   2.168   4.449   0.811
  666SOL    HW1 2302   2.086   4.433   0.858
  666SOL    HW2 2303   2.195   4.537   0.838
  667SOL     OW 2304   3.827   1.925   0.323
  667SOL    HW1 2305   3.873   1.870   0.259
  667SOL    HW2 2306   3.734   1.912   0.304
  668SOL     OW 2307   7.025   4.237   4.748
  668SOL    HW1 2308   7.040   4.300   4.678
  668SOL    HW2 2309   7.098   4.176   4.742
  669SOL     OW 2310   3.833   0.097   1.738
  669SOL    HW1 2311   3.853   0.124   1.828
  669SOL    HW2 2312   3.770   0.026   1.747
  670SOL     OW 2313   2.337   4.837   4.433
  670SOL    HW1 2314   2.316   4.848   4.340
  670SOL    HW2 2315   2.296   4.913   4.475
  671SOL     OW 2316   4.632   0.515   0.416
  671SOL    HW1 2317   4.654   0.458   0.489
  671SOL    HW2 2318   4.650   0.603   0.448
  672SOL     OW 2319   5.447   4.342   5.178
  672SOL    HW1 2320   5.524   4.399   5.171
  672SOL    HW2 2321   5.374   4.402   5.193
  673SOL     OW 2322   2.558   3.790   0.249
  673SOL    HW1 2323   2.498   3.848   0.296
  673SOL    HW2 2324   2.519   3.779   0.163
  674SOL     OW 2325   2.692   3.908   5.161
  674SOL    HW1 2326   2.781   3.925   5.192
  674SOL    HW2 2327   2.653   3.853   5.229
  675SOL     OW 2328   2.679   2.826   0.162
  675SOL    HW1 2329   2.756   2.772   0.144
  675SOL    HW2 2330   2.658   2.808   0.254
  676SOL     OW 2331   7.907   0.050   3.067
  676SOL    HW1 2332   7.954   8.209   3.022
  676SOL    HW2 2333   7.819   0.015   3.080
  677SOL     OW 2334   5.653   7.480   1.860
  677SOL    HW1 2335   5.624   7.570   1.872
  677SOL    HW2 2336   5.574   7.433   1.833
  678SOL     OW 2337   1.396   6.886   4.793
  678SOL    HW1 2338   1.356   6.856   4.874
  678SOL    HW2 2339   1.410   6.806   4.742
  679SOL     OW 2340   6.094   4.398   1.487
  679SOL    HW1 2341   6.119   4.307   1.500
  679SOL    HW2 2342   6.133   4.444   1.562
  680SOL     OW 2343   5.366   1.147   5.502
  680SOL    HW1 2344   5.400   1.236   5.493
  680SOL    HW2 2345   5.292   1.144   5.441
  681SOL     OW 2346   2.351   6.094   0.762
  681SOL    HW1 2347   2.432   6.061   0.800
  681SOL    HW2 2348   2.282   6.040   0.800
  682SOL     OW 2349   4.625   2.842   4.392
  682SOL    HW1 2350   4.540   2.874   4.361
  682SOL    HW2 2351   4.689   2.888   4.337
  683SOL     OW 2352   3.755   4.309   4.504
  683SOL    HW1 2353   3.684   4.247   4.486
  683SOL    HW2 2354   3.825   4.283   4.444
  684SOL     OW 2355   5.380   5.478   1.246
  684SOL    HW1 2356   5.364   5.478   1.152
  684SOL    HW2 2357   5.293   5.468   1.285
  685SOL     OW 2358   3.134   6.240   0.050
  685SOL    HW1 2359   3.115   6.270   0.139
  685SOL    HW2 2360   3.063   6.178   0.030
  686SOL     OW 2361   4.213   2.179   4.746
  686SOL    HW1 2362   4.117   2.180   4.749
  686SOL    HW2 2363   4.238   2.098   4.791
  687SOL     OW 2364   0.879   6.244   4.135
  687SOL    HW1 2365   0.854   6.185   4.206
  687SOL    HW2 2366   0.827   6.216   4.060
  688SOL     OW 2367   0.820   7.014   1.248
  688SOL    HW1 2368   0.835   7.095   1.199
  688SOL    HW2 2369   0.728   6.994   1.234
  689SOL     OW 2370   1.029   7.572   2.177
  689SOL    HW1 2371   0.951   7.612   2.138
  689SOL    HW2 2372   1.089   7.560   2.103
  690SOL     OW 2373   2.513   6.844   4.131
  690SOL    HW1 2374   2.543   6.755   4.111
  690SOL    HW2 2375   2.419   6.835   4.145
  691SOL     OW 2376   6.927   7.069   4.527
  691SOL    HW1 2377   6.875   6.994   4.498
  691SOL    HW2 2378   7.005   7.068   4.471
  692SOL     OW 2379   5.173   2.482   0.288
  692SOL    HW1 2380   5.220   2.409   0.248
  692SOL    HW2 2381   5.227   2.508   0.362
  693SOL     OW 2382   6.381   1.994   0.767
  693SOL    HW1 2383   6.310   2.049   0.733
  693SOL    HW2 2384   6.427   1.963   0.689
  694SOL     OW 2385   2.262   5.762   3.293
  694SOL    HW1 2386   2.310   5.796   3.217
  694SOL    HW2 2387   2.262   5.835   3.355
  695SOL     OW 2388   0.096   3.405   3.638
  695SOL    HW1 2389   0.168   3.461   3.668
  695SOL    HW2 2390   0.104   3.405   3.543
  696SOL     OW 2391   0.153   2.362   2.243
  696SOL    HW1 2392   0.128   2.447   2.205
  696SOL    HW2 2393   0.084   2.302   2.214
  697SOL     OW 2394   6.818   3.857   5.127
  697SOL    HW1 2395   6.890   3.872   5.066
  697SOL    HW2 2396   6.829   3.924   5.195
  698SOL     OW 2397   0.682   4.194   2.582
  698SOL    HW1 2398   0.663   4.275   2.629
  698SOL    HW2 2399   0.743   4.147   2.639
  699SOL     OW 2400   7.757   4.221   3.589
  699SOL    HW1 2401   7.846   4.189   3.575
  699SOL    HW2 2402   7.718   4.158   3.650
  700SOL     OW 2403   6.991   4.687   2.705
  700SOL    HW1 2404   7.059   4.659   2.767
  700SOL    HW2 2405   6.945   4.758   2.750
  701SOL     OW 2406   1.001   5.063   2.359
  701SOL    HW1 2407   1.016   4.984   2.307
  701SOL    HW2 2408   0.922   5.044   2.410
  702SOL     OW 2409   0.961   2.573   5.781
  702SOL    HW1 2410   0.887   2.566   5.721
  702SOL    HW2 2411   5.047   6.643   0.041
  703SOL     OW 2412   7.159   7.040   1.473
  703SOL    HW1 2413   7.248   7.009   1.491
  703SOL    HW2 2414   7.147   7.024   1.379
  704SOL     OW 2415   7.166   3.200   5.487
  704SOL    HW1 2416   7.197   3.121   5.442
  704SOL    HW2 2417   7.174   3.269   5.422
  705SOL     OW 2418   8.110   3.155   3.118
  705SOL    HW1 2419   8.114   3.195   3.205
  705SOL    HW2 2420   8.198   3.120   3.103
  706SOL     OW 2421   2.722   1.941   2.194
  706SOL    HW1 2422   2.807   1.979   2.216
  706SOL    HW2 2423   2.664   1.969   2.265
  707SOL     OW 2424   3.464   4.460   4.300
  707SOL    HW1 2425   3.504   4.423   4.221
  707SOL    HW2 2426   3.493   4.551   4.302
  708SOL     OW 2427   4.400   6.482   2.441
  708SOL    HW1 2428   4.481   6.484   2.390
  708SOL    HW2 2429   4.367   6.572   2.437
  709SOL     OW 2430   4.250   4.480   1.156
  709SOL    HW1 2431   4.324   4.537   1.136
  709SOL    HW2 2432   4.234   4.432   1.075
  710SOL     OW 2433   4.574   5.732   3.913
  710SOL    HW1 2434   4.630   5.809   3.924
  710SOL    HW2 2435   4.542   5.739   3.823
  711SOL     OW 2436   2.142   5.460   0.610
  711SOL    HW1 2437   2.159   5.549   0.578
  711SOL    HW2 2438   2.050   5.444   0.589
  712SOL     OW 2439   3.769   0.332   2.217
  712SOL    HW1 2440   3.729   0.419   2.211
  712SOL    HW2 2441   3.862   0.349   2.234
  713SOL     OW 2442   1.180   5.611   3.326
  713SOL    HW1 2443   1.216   5.673   3.390
  713SOL    HW2 2444   1.223   5.634   3.244
  714SOL     OW 2445   7.281   0.339   2.740
  714SOL    HW1 2446   7.356   0.288   2.709
  714SOL    HW2 2447   7.225   0.349   2.663
  715SOL     OW 2448   8.058   6.245   2.811
  715SOL    HW1 2449   8.000   6.288   2.748
  715SOL    HW2 2450   8.145   6.251   2.772
  716SOL     OW 2451   1.560   3.230   2.163
  716SOL    HW1 2452   1.490   3.199   2.106
  716SOL    HW2 2453   1.634   3.245   2.104
  717SOL     OW 2454   2.066   4.358   4.544
  717SOL    HW1 2455   2.152   4.362   4.586
  717SOL    HW2 2456   2.047   4.449   4.521
  718SOL     OW 2457   5.043   3.111   3.566
  718SOL    HW1 2458   5.058   3.048   3.496
  718SOL    HW2 2459   5.129   3.126   3.604
  719SOL     OW 2460   7.999   1.063   1.409
  719SOL    HW1 2461   7.930   1.019   1.459
  719SOL    HW2 2462   8.030   1.132   1.467
  720SOL     OW 2463   0.245   3.337   5.224
  720SOL    HW1 2464   0.202   3.419   5.249
  720SOL    HW2 2465   0.323   3.333   5.280
  721SOL     OW 2466   5.775   6.672   3.993
  721SOL    HW1 2467   5.800   6.643   3.905
  721SOL    HW2 2468   5.837   6.629   4.051
  722SOL     OW 2469   0.183   4.832   2.069
  722SOL    HW1 2470   0.202   4.756   2.013
  722SOL    HW2 2471   0.177   4.796   2.157
  723SOL     OW 2472   2.942   3.937   3.627
  723SOL    HW1 2473   2.962   4.001   3.695
  723SOL    HW2 2474   3.027   3.907   3.596
  724SOL     OW 2475   0.455   6.788   2.025
  724SOL    HW1 2476   0.395   6.744   1.965
  724SOL    HW2 2477   0.542   6.774   1.986
  725SOL     OW 2478   1.651   0.291   0.140
  725SOL    HW1 2479   1.664   0.294   0.045
  725SOL    HW2 2480   1.715   0.354   0.175
  726SOL     OW 2481   7.902   3.635   3.664
  726SOL    HW1 2482   7.997   3.643   3.667
  726SOL    HW2 2483   7.886   3.544   3.638
  727SOL     OW 2484   4.267   1.618   3.372
  727SOL    HW1 2485   4.351   1.613   3.326
  727SOL    HW2 2486   4.288   1.661   3.455
  728SOL     OW 2487   1.144   1.674   1.427
  728SOL    HW1 2488   1.189   1.691   1.344
  728SOL    HW2 2489   1.166   1.583   1.448
  729SOL     OW 2490   7.812   0.827   3.862
  729SOL    HW1 2491   7.888   0.795   3.813
  729SOL    HW2 2492   7.785   0.753   3.916
  730SOL     OW 2493   4.319   1.200   3.539
  730SOL    HW1 2494   4.377   1.183   3.465
  730SOL    HW2 2495   4.377   1.206   3.615
  731SOL     OW 2496   0.087   5.683   2.069
  731SOL    HW1 2497   0.064   5.741   1.996
  731SOL    HW2 2498   0.075   5.737   2.147
  732SOL     OW 2499   7.875   6.842   3.492
  732SOL    HW1 2500   7.885   6.908   3.423
  732SOL    HW2 2501   7.790   6.802   3.474
  733SOL     OW 2502   1.459   8.066   3.899
  733SOL    HW1 2503   1.510   8.093   3.975
  733SOL    HW2 2504   1.512   8.092   3.824
  734SOL     OW 2505   1.554   4.525   2.376
  734SOL    HW1 2506   1.495   4.573   2.435
  734SOL    HW2 2507   1.517   4.538   2.289
  735SOL     OW 2508   3.862   5.000   0.710
  735SOL    HW1 2509   3.810   5.043   0.777
  735SOL    HW2 2510   3.919   5.069   0.676
  736SOL     OW 2511   8.092   5.823   5.329
  736SOL    HW1 2512   8.187   5.827   5.335
  736SOL    HW2 2513   8.061   5.859   5.412
  737SOL     OW 2514   4.113   2.863   0.645
  737SOL    HW1 2515   4.115   2.788   0.705
  737SOL    HW2 2516   4.171   2.837   0.573
  738SOL     OW 2517   4.439   4.941   5.156
  738SOL    HW1 2518   4.443   4.855   5.199
  738SOL    HW2 2519   4.440   5.004   5.228
  739SOL     OW 2520   2.668   8.008   1.038
  739SOL    HW1 2521   2.717   8.039   0.962
  739SOL    HW2 2522   2.714   7.929   1.066
  740SOL     OW 2523   8.055   7.515   1.498
  740SOL    HW1 2524   8.127   7.458   1.526
  740SOL    HW2 2525   7.986   7.455   1.470
  741SOL     OW 2526   4.708   5.473   3.326
  741SOL    HW1 2527   4.765   5.546   3.350
  741SOL    HW2 2528   4.768   5.406   3.294
  742SOL     OW 2529   2.328   7.484   1.064
  742SOL    HW1 2530   2.364   7.520   1.145
  742SOL    HW2 2531   2.238   7.516   1.062
  743SOL     OW 2532   0.453   7.637   3.729
  743SOL    HW1 2533   0.374   7.688   3.747
  743SOL    HW2 2534   0.460   7.637   3.634
  744SOL     OW 2535   0.272   7.426   0.516
  744SOL    HW1 2536   0.269   7.482   0.439
  744SOL    HW2 2537   0.365   7.422   0.540
  745SOL     OW 2538   3.795   6.218   0.097
  745SOL    HW1 2539   3.859   6.259   0.156
  745SOL    HW2 2540   3.733   6.174   0.155
  746SOL     OW 2541   0.693   1.608   0.806
  746SOL    HW1 2542   0.613   1.589   0.855
  746SOL    HW2 2543   0.729   1.522   0.784
  747SOL     OW 2544   3.922   1.830   3.425
  747SOL    HW1 2545   3.946   1.793   3.340
  747SOL    HW2 2546   3.828   1.815   3.431
  748SOL     OW 2547   0.907   0.169   4.092
  748SOL    HW1 2548   0.955   0.132   4.018
  748SOL    HW2 2549   0.874   0.093   4.139
  749SOL     OW 2550   1.681   1.109   2.613
  749SOL    HW1 2551   1.614   1.049   2.646
  749SOL    HW2 2552   1.648   1.196   2.634
  750SOL     OW 2553   1.815   6.705   2.126
  750SOL    HW1 2554   1.732   6.668   2.095
  750SOL    HW2 2555   1.871   6.629   2.141
  751SOL     OW 2556   4.850   7.323   3.273
  751SOL    HW1 2557   4.888   7.316   3.185
  751SOL    HW2 2558   4.905   7.387   3.318
  752SOL     OW 2559   1.208   0.100   2.761
  752SOL    HW1 2560   1.217   0.195   2.755
  752SOL    HW2 2561   1.176   0.084   2.850
  753SOL     OW 2562   6.768   0.981   5.012
  753SOL    HW1 2563   6.855   0.943   5.019
  753SOL    HW2 2564   6.738   0.991   5.102
  754SOL     OW 2565   5.602   6.405   0.152
  754SOL    HW1 2566   5.671   6.408   0.086
  754SOL    HW2 2567   5.626   6.332   0.209
  755SOL     OW 2568   7.709   7.161   3.081
  755SOL    HW1 2569   7.777   7.221   3.050
  755SOL    HW2 2570   7.626   7.202   3.054
  756SOL     OW 2571   0.530   6.688   4.625
  756SOL    HW1 2572   0.547   6.594   4.634
  756SOL    HW2 2573   0.609   6.730   4.658
  757SOL     OW 2574   1.691   3.156   1.025
  757SOL    HW1 2575   1.744   3.132   1.101
  757SOL    HW2 2576   1.734   3.234   0.990
  758SOL     OW 2577   6.777   5.404   0.462
  758SOL    HW1 2578   6.869   5.398   0.436
  758SOL    HW2 2579   6.779   5.421   0.556
  759SOL     OW 2580   2.939   4.589   5.084
  759SOL    HW1 2581   2.961   4.518   5.023
  759SOL    HW2 2582   2.872   4.640   5.038
  760SOL     OW 2583   6.882   4.572   3.593
  760SOL    HW1 2584   6.969   4.597   3.624
  760SOL    HW2 2585   6.872   4.621   3.511
  761SOL     OW 2586   1.987   1.093   4.155
  761SOL    HW1 2587   2.006   1.122   4.066
  761SOL    HW2 2588   2.072   1.095   4.199
  762SOL     OW 2589   4.811   5.973   2.530
  762SOL    HW1 2590   4.807   5.958   2.436
  762SOL    HW2 2591   4.853   6.058   2.540
  763SOL     OW 2592   7.123   0.209   4.398
  763SOL    HW1 2593   7.034   0.223   4.431
  763SOL    HW2 2594   7.125   0.256   4.315
  764SOL     OW 2595   4.087   1.540   1.463
  764SOL    HW1 2596   4.116   1.578   1.380
  764SOL    HW2 2597   3.999   1.507   1.445
  765SOL     OW 2598   8.182   1.003   4.429
  765SOL    HW1 2599   8.156   1.076   4.485
  765SOL    HW2 2600   8.138   1.020   4.345
  766SOL     OW 2601   1.809   3.007   0.797
  766SOL    HW1 2602   1.825   3.088   0.748
  766SOL    HW2 2603   1.768   3.036   0.878
  767SOL     OW 2604   4.667   4.587   5.745
  767SOL    HW1 2605   4.744   4.632   5.780
  767SOL    HW2 2606   4.694   4.557   5.658
  768SOL     OW 2607   6.213   4.405   4.112
  768SOL    HW1 2608   6.248   4.398   4.023
  768SOL    HW2 2609   6.144   4.339   4.116
  769SOL     OW 2610   5.362   0.349   4.755
  769SOL    HW1 2611   5.360   0.263   4.797
  769SOL    HW2 2612   5.375   0.411   4.827
  770SOL     OW 2613   7.105   3.441   5.337
  770SOL    HW1 2614   7.147   3.424   5.253
  770SOL    HW2 2615   7.042   3.511   5.319
  771SOL     OW 2616   0.800   6.823   1.438
  771SOL    HW1 2617   0.891   6.828   1.467
  771SOL    HW2 2618   0.791   6.892   1.373
  772SOL     OW 2619   0.280   7.176   3.736
  772SOL    HW1 2620   0.328   7.160   3.655
  772SOL    HW2 2621   0.340   7.226   3.791
  773SOL     OW 2622   3.418   5.171   2.855
  773SOL    HW1 2623   3.455   5.184   2.768
  773SOL    HW2 2624   3.367   5.091   2.848
  774SOL     OW 2625   2.229   1.140   4.270
  774SOL    HW1 2626   2.219   1.170   4.360
  774SOL    HW2 2627   2.262   1.216   4.223
  775SOL     OW 2628   0.412   1.352   5.382
  775SOL    HW1 2629   0.433   1.348   5.289
  775SOL    HW2 2630   0.480   1.300   5.425
  776SOL     OW 2631   4.202   3.619   1.172
  776SOL    HW1 2632   4.143   3.694   1.176
  776SOL    HW2 2633   4.280   3.652   1.127
  777SOL     OW 2634   0.129   1.134   1.677
  777SOL    HW1 2635   0.141   1.052   1.724
  777SOL    HW2 2636   0.152   1.202   1.740
  778SOL     OW 2637   4.881   3.626   3.519
  778SOL    HW1 2638   4.853   3.699   3.463
  778SOL    HW2 2639   4.815   3.558   3.505
  779SOL     OW 2640   7.038   6.396   5.356
  779SOL    HW1 2641   7.029   6.310   5.315
  779SOL    HW2 2642   6.970   6.449   5.315
  780SOL     OW 2643   3.131   0.175   2.902
  780SOL    HW1 2644   3.097   0.088   2.925
  780SOL    HW2 2645   3.141   0.173   2.807
  781SOL     OW 2646   4.489   0.117   4.427
  781SOL    HW1 2647   4.412   0.099   4.481
  781SOL    HW2 2648   4.545   0.170   4.483
  782SOL     OW 2649   4.566   6.880   0.635
  782SOL    HW1 2650   4.514   6.895   0.556
  782SOL    HW2 2651   4.571   6.966   0.676
  783SOL     OW 2652   0.226   1.523   3.176
  783SOL    HW1 2653   0.312   1.564   3.175
  783SOL    HW2 2654   0.182   1.562   3.252
  784SOL     OW 2655   2.326   0.751   5.556
  784SOL    HW1 2656   2.415   0.748   5.592
  784SOL    HW2 2657   2.321   0.674   5.500
  785SOL     OW 2658   7.606   5.432   5.067
  785SOL    HW1 2659   7.669   5.411   4.998
  785SOL    HW2 2660   7.619   5.363   5.133
  786SOL     OW 2661   1.435   4.887   2.555
  786SOL    HW1 2662   1.343   4.862   2.566
  786SOL    HW2 2663   1.446   4.900   2.461
  787SOL     OW 2664   2.624   7.518   0.932
  787SOL    HW1 2665   2.652   7.606   0.906
  787SOL    HW2 2666   2.704   7.475   0.962
  788SOL     OW 2667   5.047   3.569   0.159
  788SOL    HW1 2668   5.035   3.555   0.065
  788SOL    HW2 2669   5.142   3.565   0.171
  789SOL     OW 2670   4.718   5.509   0.321
  789SOL    HW1 2671   4.777   5.578   0.292
  789SOL    HW2 2672   4.772   5.453   0.377
  790SOL     OW 2673   1.229   1.508   4.463
  790SOL    HW1 2674   1.315   1.503   4.505
  790SOL    HW2 2675   1.241   1.569   4.390
  791SOL     OW 2676   1.746   7.157   2.346
  791SOL    HW1 2677   1.791   7.152   2.430
  791SOL    HW2 2678   1.669   7.212   2.364
  792SOL     OW 2679   7.028   1.759   1.099
  792SOL    HW1 2680   6.945   1.807   1.092
  792SOL    HW2 2681   7.034   1.710   1.017
  793SOL     OW 2682   5.230   7.331   1.424
  793SOL    HW1 2683   5.325   7.323   1.426
  793SOL    HW2 2684   5.201   7.301   1.510
  794SOL     OW 2685   1.435   2.714   4.947
  794SOL    HW1 2686   1.353   2.718   4.897
  794SOL    HW2 2687   1.423   2.779   5.017
  795SOL     OW 2688   5.050   1.087   0.741
  795SOL    HW1 2689   5.020   1.059   0.655
  795SOL    HW2 2690   5.128   1.034   0.757
  796SOL     OW 2691   7.124   1.277   5.765
  796SOL    HW1 2692   7.145   1.365   5.735
  796SOL    HW2 2693   3.073   5.375   0.016
  797SOL     OW 2694   2.633   2.376   0.817
  797SOL    HW1 2695   2.673   2.458   0.847
  797SOL    HW2 2696   2.539   2.391   0.823
  798SOL     OW 2697   1.049   1.180   0.326
  798SOL    HW1 2698   1.068   1.160   0.418
  798SOL    HW2 2699   1.111   1.250   0.303
  799SOL     OW 2700   1.337   4.808   0.184
  799SOL    HW1 2701   1.350   4.903   0.184
  799SOL    HW2 2702   1.416   4.773   0.143
  800SOL     OW 2703   1.739   5.973   3.513
  800SOL    HW1 2704   1.708   6.042   3.572
  800SOL    HW2 2705   1.794   6.018   3.449
  801SOL     OW 2706   5.123   6.648   2.391
  801SOL    HW1 2707   5.085   6.562   2.375
  801SOL    HW2 2708   5.048   6.704   2.413
  802SOL     OW 2709   4.810   2.740   1.120
  802SOL    HW1 2710   4.722   2.732   1.083
  802SOL    HW2 2711   4.846   2.651   1.116
  803SOL     OW 2712   6.902   6.034   5.579
  803SOL    HW1 2713   6.932   5.990   5.499
  803SOL    HW2 2714   6.904   6.127   5.558
  804SOL     OW 2715   3.640   8.074   1.598
  804SOL    HW1 2716   3.582   8.091   1.672
  804SOL    HW2 2717   3.581   8.059   1.524
  805SOL     OW 2718   0.128   3.610   4.050
  805SOL    HW1 2719   0.036   3.600   4.073
  805SOL    HW2 2720   0.169   3.647   4.128
  806SOL     OW 2721   0.273   6.734   1.518
  806SOL    HW1 2722   0.276   6.717   1.612
  806SOL    HW2 2723   0.324   6.663   1.480
  807SOL     OW 2724   0.189   0.794   3.566
  807SOL    HW1 2725   0.150   0.787   3.479
  807SOL    HW2 2726   0.202   0.703   3.594
  808SOL     OW 2727   7.547   0.245   4.680
  808SOL    HW1 2728   7.594   0.284   4.606
  808SOL    HW2 2729   7.472   0.201   4.640
  809SOL     OW 2730   2.706   7.884   2.372
  809SOL    HW1 2731   2.649   7.959   2.355
  809SOL    HW2 2732   2.785   7.902   2.322
  810SOL     OW 2733   1.078   7.191   2.098
  810SOL    HW1 2734   1.040   7.207   2.184
  810SOL    HW2 2735   1.151   7.132   2.114
  811SOL     OW 2736   2.375   7.511   0.075
  811SOL    HW1 2737   2.409   7.555   0.153
  811SOL    HW2 2738   2.391   7.573   0.004
  812SOL     OW 2739   0.782   1.921   3.266
  812SOL    HW1 2740   0.772   1.972   3.186
  812SOL    HW2 2741   0.766   1.831   3.239
  813SOL     OW 2742   5.352   1.737   0.433
  813SOL    HW1 2743   5.444   1.735   0.459
  813SOL    HW2 2744   5.304   1.745   0.516
  814SOL     OW 2745   2.888   1.564   4.173
  814SOL    HW1 2746   2.907   1.478   4.211
  814SOL    HW2 2747   2.803   1.554   4.131
  815SOL     OW 2748   6.925   3.260   4.670
  815SOL    HW1 2749   6.871   3.275   4.592
  815SOL    HW2 2750   7.009   3.230   4.635
  816SOL     OW 2751   5.875   5.117   3.027
  816SOL    HW1 2752   5.856   5.026   3.052
  816SOL    HW2 2753   5.877   5.116   2.931
  817SOL     OW 2754   4.616   6.747   2.907
  817SOL    HW1 2755   4.568   6.814   2.955
  817SOL    HW2 2756   4.554   6.715   2.841
  818SOL     OW 2757   1.719   1.325   3.829
  818SOL    HW1 2758   1.691   1.411   3.859
  818SOL    HW2 2759   1.639   1.282   3.799
  819SOL     OW 2760   5.089   7.885   0.793
  819SOL    HW1 2761   5.127   7.806   0.755
  819SOL    HW2 2762   5.163   7.930   0.833
  820SOL     OW 2763   5.242   0.446   0.041
  820SOL    HW1 2764   5.258   0.354   0.063
  820SOL    HW2 2765   1.098   4.559   5.769
  821SOL     OW 2766   0.539   5.194   5.766
  821SOL    HW1 2767   0.447   5.220   5.759
  821SOL    HW2 2768   0.583   5.270   5.803
  822SOL     OW 2769   0.023   7.415   5.471
  822SOL    HW1 2770   0.015   7.386   5.380
  822SOL    HW2 2771   8.184   7.481   5.481
  823SOL     OW 2772   8.083   8.054   3.343
  823SOL    HW1 2773   8.044   8.141   3.335
  823SOL    HW2 2774   8.176   8.071   3.356
  824SOL     OW 2775   4.753   3.472   0.723
  824SOL    HW1 2776   4.806   3.440   0.650
  824SOL    HW2 2777   4.736   3.395   0.777
  825SOL     OW 2778   5.178   3.995   0.037
  825SOL    HW1 2779   5.163   3.954   0.122
  825SOL    HW2 2780   1.036   8.043   5.792
  826SOL     OW 2781   1.882   5.932   1.473
  826SOL    HW1 2782   1.970   5.967   1.460
  826SOL    HW2 2783   1.841   5.937   1.387
  827SOL     OW 2784   6.696   0.811   0.336
  827SOL    HW1 2785   6.742   0.733   0.368
  827SOL    HW2 2786   6.746   0.837   0.259
  828SOL     OW 2787   4.896   1.741   4.276
  828SOL    HW1 2788   4.911   1.692   4.195
  828SOL    HW2 2789   4.916   1.679   4.346
  829SOL     OW 2790   0.511   6.019   2.683
  829SOL    HW1 2791   0.529   6.104   2.723
  829SOL    HW2 2792   0.442   6.037   2.619
  830SOL     OW 2793   0.278   3.731   2.258
  830SOL    HW1 2794   0.271   3.636   2.271
  830SOL    HW2 2795   0.372   3.747   2.245
  831SOL     OW 2796   8.075   2.404   0.604
  831SOL    HW1 2797   7.998   2.399   0.661
  831SOL    HW2 2798   8.122   2.323   0.621
  832SOL     OW 2799   5.239   2.778   4.885
  832SOL    HW1 2800   5.211   2.868   4.901
  832SOL    HW2 2801   5.172   2.741   4.827
  833SOL     OW 2802   3.798   6.696   3.043
  833SOL    HW1 2803   3.738   6.746   3.097
  833SOL    HW2 2804   3.884   6.711   3.082
  834SOL     OW 2805   1.809   0.256   0.855
  834SOL    HW1 2806   1.835   0.303   0.934
  834SOL    HW2 2807   1.870   0.287   0.788
  835SOL     OW 2808   7.827   6.205   1.893
  835SOL    HW1 2809   7.830   6.112   1.914
  835SOL    HW2 2810   7.845   6.209   1.799
  836SOL     OW 2811   2.116   3.839   5.331
  836SOL    HW1 2812   2.037   3.858   5.280
  836SOL    HW2 2813   2.086   3.777   5.398
  837SOL     OW 2814   2.719   7.740   3.857
  837SOL    HW1 2815   2.696   7.771   3.945
  837SOL    HW2 2816   2.802   7.782   3.837
  838SOL     OW 2817   2.962   6.498   3.685
  838SOL    HW1 2818   2.926   6.460   3.765
  838SOL    HW2 2819   2.995   6.584   3.712
  839SOL     OW 2820   2.818   3.496   2.631
  839SOL    HW1 2821   2.733   3.451   2.633
  839SOL    HW2 2822   2.875   3.443   2.687
  840SOL     OW 2823   4.325   4.348   5.765
  840SOL    HW1 2824   4.295   4.272   5.815
  840SOL    HW2 2825   4.267   4.419   5.793
  841SOL     OW 2826   0.622   5.310   4.116
  841SOL    HW1 2827   0.538   5.271   4.139
  841SOL    HW2 2828   0.611   5.338   4.025
  842SOL     OW 2829   3.066   7.044   4.824
  842SOL    HW1 2830   2.988   6.989   4.832
  842SOL    HW2 2831   3.035   7.122   4.777
  843SOL     OW 2832   0.593   6.698   4.348
  843SOL    HW1 2833   0.575   6.691   4.442
  843SOL    HW2 2834   0.625   6.611   4.324
  844SOL     OW 2835   4.054   3.078   4.105
  844SOL    HW1 2836   4.011   3.094   4.021
  844SOL    HW2 2837   3.987   3.099   4.170
  845SOL     OW 2838   4.719   2.319   4.231
  845SOL    HW1 2839   4.633   2.302   4.270
  845SOL    HW2 2840   4.709   2.293   4.139
  846SOL     OW 2841   7.835   5.911   3.782
  846SOL    HW1 2842   7.885   5.830   3.795
  846SOL    HW2 2843   7.762   5.885   3.726
  847SOL     OW 2844   4.266   0.926   0.751
  847SOL    HW1 2845   4.331   0.990   0.780
  847SOL    HW2 2846   4.284   0.913   0.658
  848SOL     OW 2847   5.647   3.985   2.787
  848SOL    HW1 2848   5.655   3.973   2.692
  848SOL    HW2 2849   5.736   3.976   2.820
  849SOL     OW 2850   7.743   5.459   2.797
  849SOL    HW1 2851   7.768   5.378   2.841
  849SOL    HW2 2852   7.797   5.526   2.838
  850SOL     OW 2853   4.224   5.964   3.579
  850SOL    HW1 2854   4.241   5.968   3.673
  850SOL    HW2 2855   4.130   5.946   3.573
  851SOL     OW 2856   1.137   5.593   0.912
  851SOL    HW1 2857   1.133   5.518   0.972
  851SOL    HW2 2858   1.131   5.554   0.825
  852SOL     OW 2859   4.395   2.056   1.461
  852SOL    HW1 2860   4.391   2.137   1.409
  852SOL    HW2 2861   4.307   2.046   1.497
  853SOL     OW 2862   5.230   4.258   1.319
  853SOL    HW1 2863   5.306   4.213   1.357
  853SOL    HW2 2864   5.160   4.193   1.321
  854SOL     OW 2865   2.321   8.031   5.654
  854SOL    HW1 2866   2.385   7.963   5.676
  854SOL    HW2 2867   2.329   8.096   5.724
  855SOL     OW 2868   1.507   4.127   5.269
  855SOL    HW1 2869   1.585   4.072   5.258
  855SOL    HW2 2870   1.519   4.197   5.205
  856SOL     OW 2871   0.867   6.977   5.268
  856SOL    HW1 2872   0.911   7.054   5.232
  856SOL    HW2 2873   0.897   6.973   5.359
  857SOL     OW 2874   6.782   0.306   3.201
  857SOL    HW1 2875   6.834   0.368   3.252
  857SOL    HW2 2876   6.786   0.224   3.251
  858SOL     OW 2877   7.582   1.643   1.479
  858SOL    HW1 2878   7.508   1.640   1.418
  858SOL    HW2 2879   7.617   1.554   1.478
  859SOL     OW 2880   0.242   1.126   3.035
  859SOL    HW1 2881   0.148   1.107   3.035
  859SOL    HW2 2882   0.274   1.087   2.954
  860SOL     OW 2883   1.832   2.497   5.282
  860SOL    HW1 2884   1.807   2.472   5.371
  860SOL    HW2 2885   1.925   2.475   5.276
  861SOL     OW 2886   2.487   2.001   0.508
  861SOL    HW1 2887   2.443   2.076   0.469
  861SOL    HW2 2888   2.531   1.958   0.435
  862SOL     OW 2889   6.921   4.051   0.717
  862SOL    HW1 2890   6.939   4.114   0.787
  862SOL    HW2 2891   7.008   4.022   0.689
  863SOL     OW 2892   6.576   2.150   1.506
  863SOL    HW1 2893   6.621   2.222   1.462
  863SOL    HW2 2894   6.640   2.079   1.506
  864SOL     OW 2895   1.719   4.816   2.320
  864SOL    HW1 2896   1.724   4.886   2.255
  864SOL    HW2 2897   1.636   4.831   2.365
  865SOL     OW 2898   4.030   5.827   3.772
  865SOL    HW1 2899   3.973   5.902   3.757
  865SOL    HW2 2900   3.983   5.773   3.835
  866SOL     OW 2901   2.670   1.794   4.465
  866SOL    HW1 2902   2.602   1.812   4.400
  866SOL    HW2 2903   2.749   1.779   4.414
  867SOL     OW 2904   2.972   2.992   2.031
  867SOL    HW1 2905   2.954   3.071   2.081
  867SOL    HW2 2906   2.927   3.006   1.947
  868SOL     OW 2907   6.049   3.435   5.446
  868SOL    HW1 2908   6.096   3.427   5.529
  868SOL    HW2 2909   6.087   3.367   5.391
  869SOL     OW 2910   7.478   0.546   2.604
  869SOL    HW1 2911   7.533   0.517   2.531
  869SOL    HW2 2912   7.393   0.506   2.587
  870SOL     OW 2913   8.046   3.720   3.212
  870SOL    HW1 2914   7.957   3.744   3.186
  870SOL    HW2 2915   8.049   3.625   3.203
  871SOL     OW 2916   3.180   5.040   0.349
  871SOL    HW1 2917   3.098   5.070   0.389
  871SOL    HW2 2918   3.153   4.973   0.287
  872SOL     OW 2919   1.985   3.372   3.744
  872SOL    HW1 2920   2.024   3.420   3.817
  872SOL    HW2 2921   2.028   3.286   3.746
  873SOL     OW 2922   4.261   0.779   4.934
  873SOL    HW1 2923   4.281   0.695   4.892
  873SOL    HW2 2924   4.345   0.811   4.966
  874SOL     OW 2925   5.319   1.373   1.544
  874SOL    HW1 2926   5.382   1.329   1.601
  874SOL    HW2 2927   5.368   1.389   1.463
  875SOL     OW 2928   2.612   0.272   3.365
  875SOL    HW1 2929   2.673   0.238   3.300
  875SOL    HW2 2930   2.532   0.289   3.316
  876SOL     OW 2931   5.092   7.461   2.048
  876SOL    HW1 2932   5.185   7.450   2.027
  876SOL    HW2 2933   5.087   7.546   2.091
  877SOL     OW 2934   5.589   5.856   3.836
  877SOL    HW1 2935   5.502   5.894   3.849
  877SOL    HW2 2936   5.593   5.782   3.897
  878SOL     OW 2937   0.145   0.752   5.344
  878SOL    HW1 2938   0.227   0.774   5.300
  878SOL    HW2 2939   0.089   0.828   5.330
  879SOL     OW 2940   7.795   2.781   5.327
  879SOL    HW1 2941   7.809   2.869   5.362
  879SOL    HW2 2942   7.751   2.795   5.243
  880SOL     OW 2943   2.967   4.437   0.660
  880SOL    HW1 2944   2.894   4.377   0.673
  880SOL    HW2 2945   3.024   4.393   0.597
  881SOL     OW 2946   4.710   5.602   4.738
  881SOL    HW1 2947   4.722   5.681   4.791
  881SOL    HW2 2948   4.615   5.596   4.725
  882SOL     OW 2949   7.379   3.409   4.485
  882SOL    HW1 2950   7.396   3.347   4.556
  882SOL    HW2 2951   7.389   3.357   4.405
  883SOL     OW 2952   4.342   2.619   4.572
  883SOL    HW1 2953   4.380   2.642   4.657
  883SOL    HW2 2954   4.283   2.546   4.591
  884SOL     OW 2955   0.432   4.752   1.392
  884SOL    HW1 2956   0.470   4.722   1.474
  884SOL    HW2 2957   0.442   4.847   1.395
  885SOL     OW 2958   0.960   3.839   5.003
  885SOL    HW1 2959   0.891   3.881   4.951
  885SOL    HW2 2960   0.942   3.745   4.994
  886SOL     OW 2961   7.542   3.957   5.236
  886SOL    HW1 2962   7.638   3.956   5.232
  886SOL    HW2 2963   7.520   4.035   5.287
  887SOL     OW 2964   6.225   6.298   3.380
  887SOL    HW1 2965   6.170   6.237   3.429
  887SOL    HW2 2966   6.221   6.267   3.290
  888SOL     OW 2967   1.520   4.500   3.639
  888SOL    HW1 2968   1.568   4.429   3.682
  888SOL    HW2 2969   1.455   4.527   3.704
  889SOL     OW 2970   1.466   2.030   2.816
  889SOL    HW1 2971   1.497   2.075   2.737
  889SOL    HW2 2972   1.546   1.998   2.858
  890SOL     OW 2973   2.693   0.641   2.595
  890SOL    HW1 2974   2.636   0.569   2.568
  890SOL    HW2 2975   2.725   0.615   2.681
  891SOL     OW 2976   3.929   6.304   5.370
  891SOL    HW1 2977   3.906   6.250   5.445
  891SOL    HW2 2978   4.012   6.344   5.394
  892SOL     OW 2979   3.519   3.133   5.603
  892SOL    HW1 2980   3.512   3.170   5.691
  892SOL    HW2 2981   3.547   3.206   5.548
  893SOL     OW 2982   4.856   3.982   2.234
  893SOL    HW1 2983   4.772   3.967   2.277
  893SOL    HW2 2984   4.837   4.046   2.165
  894SOL     OW 2985   0.147   1.606   1.788
  894SOL    HW1 2986   0.144   1.700   1.808
  894SOL    HW2 2987   0.208   1.600   1.714
  895SOL     OW 2988   5.165   7.437   4.849
  895SOL    HW1 2989   5.094   7.452   4.911
  895SOL    HW2 2990   5.143   7.491   4.773
  896SOL     OW 2991   4.831   7.890   1.614
  896SOL    HW1 2992   4.766   7.950   1.652
  896SOL    HW2 2993   4.807   7.883   1.522
  897SOL     OW 2994   7.897   0.791   5.410
  897SOL    HW1 2995   7.911   0.697   5.401
  897SOL    HW2 2996   7.900   0.806   5.504
  898SOL     OW 2997   4.656   6.274   0.106
  898SOL    HW1 2998   4.741   6.236   0.082
  898SOL    HW2 2999   4.633   6.231   0.189
  899SOL     OW 3000   7.766   4.482   5.693
  899SOL    HW1 3001   7.843   4.516   5.739
  899SOL    HW2 3002   7.771   4.387   5.706
  900SOL     OW 3003   0.856   1.924   1.316
  900SOL    HW1 3004   0.853   1.901   1.223
  900SOL    HW2 3005   0.886   2.015   1.318
  901SOL     OW 3006   8.155   2.126   5.789
  901SOL    HW1 3007   8.162   2.136   5.694
  901SOL    HW2 3008   8.069   2.087   5.803
  902SOL     OW 3009   2.008   8.068   2.094
  902SOL    HW1 3010   2.033   8.152   2.132
  902SOL    HW2 3011   1.929   8.087   2.043
  903SOL     OW 3012   1.295   6.041   4.030
  903SOL    HW1 3013   1.256   5.972   3.976
  903SOL    HW2 3014   1.235   6.050   4.104
  904SOL     OW 3015   1.448   8.183   1.097
  904SOL    HW1 3016   1.429   0.018   1.166
  904SOL    HW2 3017   1.492   0.004   1.029
  905SOL     OW 3018   1.981   2.211   4.196
  905SOL    HW1 3019   2.050   2.211   4.262
  905SOL    HW2 3020   2.023   2.247   4.118
  906SOL     OW 3021   7.840   3.528   4.207
  906SOL    HW1 3022   7.821   3.604   4.262
  906SOL    HW2 3023   7.898   3.474   4.260
  907SOL     OW 3024   1.873   5.295   4.108
  907SOL    HW1 3025   1.918   5.380   4.111
  907SOL    HW2 3026   1.783   5.316   4.085
  908SOL     OW 3027   5.912   1.333   2.859
  908SOL    HW1 3028   5.875   1.245   2.858
  908SOL    HW2 3029   5.919   1.355   2.952
  909SOL     OW 3030   1.607   3.120   0.317
  909SOL    HW1 3031   1.513   3.103   0.310
  909SOL    HW2 3032   1.620   3.145   0.409
  910SOL     OW 3033   6.845   3.376   2.580
  910SOL    HW1 3034   6.807   3.458   2.550
  910SOL    HW2 3035   6.884   3.337   2.502
  911SOL     OW 3036   7.485   3.315   2.164
  911SOL    HW1 3037   7.537   3.344   2.089
  911SOL    HW2 3038   7.538   3.248   2.206
  912SOL     OW 3039   4.337   7.576   0.973
  912SOL    HW1 3040   4.414   7.598   1.025
  912SOL    HW2 3041   4.335   7.480   0.972
  913SOL     OW 3042   8.109   6.334   5.623
  913SOL    HW1 3043   8.074   6.369   5.541
  913SOL    HW2 3044   8.039   6.278   5.657
  914SOL     OW 3045   4.137   4.859   5.167
  914SOL    HW1 3046   4.091   4.776   5.174
  914SOL    HW2 3047   4.215   4.839   5.116
  915SOL     OW 3048   7.524   2.415   4.335
  915SOL    HW1 3049   7.541   2.481   4.402
  915SOL    HW2 3050   7.459   2.456   4.277
  916SOL     OW 3051   5.029   7.025   2.354
  916SOL    HW1 3052   5.016   6.945   2.303
  916SOL    HW2 3053   5.045   7.093   2.288
  917SOL     OW 3054   1.479   5.373   0.814
  917SOL    HW1 3055   1.453   5.372   0.906
  917SOL    HW2 3056   1.549   5.439   0.810
  918SOL     OW 3057   1.199   0.377   2.716
  918SOL    HW1 3058   1.110   0.398   2.686
  918SOL    HW2 3059   1.254   0.447   2.679
  919SOL     OW 3060   6.773   1.678   4.112
  919SOL    HW1 3061   6.693   1.667   4.060
  919SOL    HW2 3062   6.789   1.591   4.149
  920SOL     OW 3063   3.609   0.003   3.559
  920SOL    HW1 3064   3.666   8.224   3.636
  920SOL    HW2 3065   3.603   8.143   3.524
  921SOL     OW 3066   5.032   2.931   2.040
  921SOL    HW1 3067   5.010   2.983   2.117
  921SOL    HW2 3068   4.957   2.941   1.981
  922SOL     OW 3069   0.233   7.174   4.560
  922SOL    HW1 3070   0.246   7.142   4.471
  922SOL    HW2 3071   0.321   7.196   4.591
  923SOL     OW 3072   0.979   7.165   0.470
  923SOL    HW1 3073   1.061   7.215   0.475
  923SOL    HW2 3074   0.981   7.126   0.383
  924SOL     OW 3075   1.923   6.288   4.277
  924SOL    HW1 3076   1.868   6.236   4.336
  924SOL    HW2 3077   2.003   6.305   4.328
  925SOL     OW 3078   0.962   6.351   1.582
  925SOL    HW1 3079   0.897   6.381   1.518
  925SOL    HW2 3080   0.920   6.363   1.667
  926SOL     OW 3081   4.793   7.732   4.561
  926SOL    HW1 3082   4.737   7.680   4.619
  926SOL    HW2 3083   4.733   7.774   4.500
  927SOL     OW 3084   5.253   4.711   5.372
  927SOL    HW1 3085   5.253   4.656   5.450
  927SOL    HW2 3086   5.341   4.702   5.336
  928SOL     OW 3087   8.115   3.258   5.699
  928SOL    HW1 3088   8.169   3.224   5.628
  928SOL    HW2 3089   8.054   3.187   5.719
  929SOL     OW 3090   7.840   2.741   0.851
  929SOL    HW1 3091   7.875   2.826   0.876
  929SOL    HW2 3092   7.755   2.736   0.895
  930SOL     OW 3093   8.161   7.938   4.164
  930SOL    HW1 3094   8.133   7.847   4.151
  930SOL    HW2 3095   0.012   7.931   4.216
  931SOL     OW 3096   7.321   7.227   1.055
  931SOL    HW1 3097   7.252   7.195   1.113
  931SOL    HW2 3098   7.302   7.321   1.046
  932SOL     OW 3099   3.593   2.682   2.309
  932SOL    HW1 3100   3.559   2.757   2.260
  932SOL    HW2 3101   3.630   2.720   2.389
  933SOL     OW 3102   0.248   4.581   0.776
  933SOL    HW1 3103   0.175   4.597   0.836
  933SOL    HW2 3104   0.285   4.668   0.760
  934SOL     OW 3105   1.186   4.311   2.710
  934SOL    HW1 3106   1.156   4.313   2.801
  934SOL    HW2 3107   1.222   4.398   2.695
  935SOL     OW 3108   5.532   2.455   4.834
  935SOL    HW1 3109   5.567   2.488   4.752
  935SOL    HW2 3110   5.487   2.374   4.810
  936SOL     OW 3111   1.483   7.905   3.210
  936SOL    HW1 3112   1.480   7.963   3.134
  936SOL    HW2 3113   1.431   7.949   3.277
  937SOL     OW 3114   6.957   6.519   2.487
  937SOL    HW1 3115   6.910   6.480   2.413
  937SOL    HW2 3116   7.006   6.446   2.525
  938SOL     OW 3117   2.474   3.645   5.528
  938SOL    HW1 3118   2.397   3.592   5.551
  938SOL    HW2 3119   2.438   3.724   5.488
  939SOL     OW 3120   0.590   2.979   2.854
  939SOL    HW1 3121   0.652   2.959   2.784
  939SOL    HW2 3122   0.643   2.977   2.934
  940SOL     OW 3123   0.646   4.386   0.688
  940SOL    HW1 3124   0.690   4.311   0.648
  940SOL    HW2 3125   0.554   4.360   0.695
  941SOL     OW 3126   3.140   0.060   4.020
  941SOL    HW1 3127   3.071   8.229   3.993
  941SOL    HW2 3128   3.158   0.113   3.942
  942SOL     OW 3129   2.220   1.193   4.530
  942SOL    HW1 3130   2.136   1.150   4.545
  942SOL    HW2 3131   2.203   1.286   4.548
  943SOL     OW 3132   6.469   6.150   4.980
  943SOL    HW1 3133   6.406   6.081   4.960
  943SOL    HW2 3134   6.442   6.183   5.066
  944SOL     OW 3135   5.145   1.593   1.555
  944SOL    HW1 3136   5.165   1.621   1.466
  944SOL    HW2 3137   5.185   1.507   1.563
  945SOL     OW 3138   3.311   2.217   3.642
  945SOL    HW1 3139   3.374   2.270   3.691
  945SOL    HW2 3140   3.226   2.259   3.658
  946SOL     OW 3141   0.795   1.849   2.633
  946SOL    HW1 3142   0.735   1.788   2.675
  946SOL    HW2 3143   0.882   1.819   2.660
  947SOL     OW 3144   1.199   3.153   2.042
  947SOL    HW1 3145   1.227   3.096   1.970
  947SOL    HW2 3146   1.174   3.093   2.112
  948SOL     OW 3147   0.786   2.662   5.126
  948SOL    HW1 3148   0.752   2.574   5.107
  948SOL    HW2 3149   0.792   2.665   5.222
  949SOL     OW 3150   3.181   4.494   3.522
  949SOL    HW1 3151   3.088   4.476   3.537
  949SOL    HW2 3152   3.222   4.482   3.608
  950SOL     OW 3153   3.405   3.389   0.947
  950SOL    HW1 3154   3.475   3.331   0.917
  950SOL    HW2 3155   3.344   3.394   0.873
  951SOL     OW 3156   5.718   3.943   3.104
  951SOL    HW1 3157   5.722   4.037   3.122
  951SOL    HW2 3158   5.782   3.929   3.035
  952SOL     OW 3159   1.199   1.953   1.550
  952SOL    HW1 3160   1.262   1.999   1.494
  952SOL    HW2 3161   1.181   1.871   1.504
  953SOL     OW 3162   1.165   6.121   4.742
  953SOL    HW1 3163   1.255   6.117   4.710
  953SOL    HW2 3164   1.152   6.213   4.767
  954SOL     OW 3165   7.651   1.510   1.029
  954SOL    HW1 3166   7.741   1.482   1.043
  954SOL    HW2 3167   7.656   1.605   1.019
  955SOL     OW 3168   5.549   1.271   0.215
  955SOL    HW1 3169   5.511   1.185   0.200
  955SOL    HW2 3170   5.485   1.317   0.270
  956SOL     OW 3171   7.231   4.423   2.047
  956SOL    HW1 3172   7.312   4.453   2.088
  956SOL    HW2 3173   7.237   4.327   2.049
  957SOL     OW 3174   4.202   2.030   2.471
  957SOL    HW1 3175   4.269   2.075   2.419
  957SOL    HW2 3176   4.183   1.950   2.422
  958SOL     OW 3177   2.189   7.872   1.156
  958SOL    HW1 3178   2.223   7.914   1.077
  958SOL    HW2 3179   2.218   7.928   1.228
  959SOL     OW 3180   5.518   3.926   5.536
  959SOL    HW1 3181   5.548   3.859   5.597
  959SOL    HW2 3182   5.444   3.886   5.490
  960SOL     OW 3183   5.620   5.458   0.976
  960SOL    HW1 3184   5.585   5.370   0.960
  960SOL    HW2 3185   5.709   5.455   0.941
  961SOL     OW 3186   7.398   5.438   0.466
  961SOL    HW1 3187   7.366   5.424   0.555
  961SOL    HW2 3188   7.337   5.389   0.411
  962SOL     OW 3189   7.043   3.695   1.417
  962SOL    HW1 3190   6.989   3.720   1.492
  962SOL    HW2 3191   7.072   3.606   1.436
  963SOL     OW 3192   1.629   1.407   4.165
  963SOL    HW1 3193   1.631   1.314   4.144
  963SOL    HW2 3194   1.699   1.445   4.112
  964SOL     OW 3195   1.605   6.045   0.982
  964SOL    HW1 3196   1.544   6.001   1.042
  964SOL    HW2 3197   1.568   6.031   0.895
  965SOL     OW 3198   5.126   7.265   4.565
  965SOL    HW1 3199   5.058   7.295   4.625
  965SOL    HW2 3200   5.161   7.345   4.526
  966SOL     OW 3201   0.764   7.053   3.413
  966SOL    HW1 3202   0.713   6.981   3.377
  966SOL    HW2 3203   0.853   7.036   3.383
  967SOL     OW 3204   5.927   0.595   0.945
  967SOL    HW1 3205   5.911   0.544   0.866
  967SOL    HW2 3206   6.022   0.605   0.948
  968SOL     OW 3207   6.662   8.065   1.515
  968SOL    HW1 3208   6.667   7.971   1.496
  968SOL    HW2 3209   6.722   8.078   1.588
  969SOL     OW 3210   2.092   5.470   2.054
  969SOL    HW1 3211   2.093   5.564   2.071
  969SOL    HW2 3212   2.095   5.430   2.141
  970SOL     OW 3213   6.218   6.440   1.595
  970SOL    HW1 3214   6.158   6.512   1.575
  970SOL    HW2 3215   6.305   6.475   1.574
  971SOL     OW 3216   3.530   1.083   3.894
  971SOL    HW1 3217   3.468   1.031   3.945
  971SOL    HW2 3218   3.614   1.037   3.905
  972SOL     OW 3219   1.185   1.134   5.593
  972SOL    HW1 3220   1.147   1.222   5.595
  972SOL    HW2 3221   1.140   1.090   5.521
  973SOL     OW 3222   4.901   1.405   2.835
  973SOL    HW1 3223   4.806   1.399   2.849
  973SOL    HW2 3224   4.928   1.316   2.813
  974SOL     OW 3225   2.890   2.148   0.340
  974SOL    HW1 3226   2.975   2.121   0.305
  974SOL    HW2 3227   2.895   2.243   0.345
  975SOL     OW 3228   7.750   5.465   0.843
  975SOL    HW1 3229   7.778   5.377   0.819
  975SOL    HW2 3230   7.708   5.454   0.928
  976SOL     OW 3231   6.509   1.363   1.028
  976SOL    HW1 3232   6.441   1.430   1.040
  976SOL    HW2 3233   6.591   1.412   1.027
  977SOL     OW 3234   1.364   5.259   4.873
  977SOL    HW1 3235   1.348   5.251   4.967
  977SOL    HW2 3236   1.354   5.352   4.854
  978SOL     OW 3237   5.744   7.646   3.973
  978SOL    HW1 3238   5.701   7.706   4.034
  978SOL    HW2 3239   5.813   7.604   4.025
  979SOL     OW 3240   2.021   5.214   0.164
  979SOL    HW1 3241   2.115   5.215   0.180
  979SOL    HW2 3242   1.982   5.188   0.247
  980SOL     OW 3243   5.133   1.543   5.700
  980SOL    HW1 3244   5.215   1.589   5.716
  980SOL    HW2 3245   5.158   1.450   5.700
  981SOL     OW 3246   5.830   7.421   0.902
  981SOL    HW1 3247   5.872   7.464   0.976
  981SOL    HW2 3248   5.785   7.491   0.855
  982SOL     OW 3249   4.824   2.563   4.156
  982SOL    HW1 3250   4.803   2.471   4.169
  982SOL    HW2 3251   4.747   2.610   4.188
  983SOL     OW 3252   7.015   5.193   0.470
  983SOL    HW1 3253   6.952   5.148   0.413
  983SOL    HW2 3254   7.072   5.240   0.410
  984SOL     OW 3255   3.910   5.598   2.791
  984SOL    HW1 3256   3.986   5.566   2.839
  984SOL    HW2 3257   3.928   5.691   2.777
  985SOL     OW 3258   2.420   6.025   5.596
  985SOL    HW1 3259   2.408   6.085   5.522
  985SOL    HW2 3260   2.393   5.940   5.562
  986SOL     OW 3261   3.060   5.861   2.665
  986SOL    HW1 3262   3.151   5.834   2.652
  986SOL    HW2 3263   3.010   5.780   2.662
  987SOL     OW 3264   5.845   1.500   0.216
  987SOL    HW1 3265   5.865   1.414   0.253
  987SOL    HW2 3266   5.927   1.549   0.224
  988SOL     OW 3267   5.043   2.521   5.534
  988SOL    HW1 3268   5.058   2.494   5.444
  988SOL    HW2 3269   5.131   2.528   5.572
  989SOL     OW 3270   7.509   7.820   4.892
  989SOL    HW1 3271   7.555   7.834   4.809
  989SOL    HW2 3272   7.456   7.741   4.878
  990SOL     OW 3273   2.386   7.563   4.766
  990SOL    HW1 3274   2.324   7.512   4.713
  990SOL    HW2 3275   2.459   7.503   4.781
  991SOL     OW 3276   2.012   5.156   5.523
  991SOL    HW1 3277   1.929   5.114   5.502
  991SOL    HW2 3278   2.007   5.172   5.617
  992SOL     OW 3279   7.181   4.918   0.941
  992SOL    HW1 3280   7.238   4.969   0.999
  992SOL    HW2 3281   7.095   4.923   0.982
  993SOL     OW 3282   0.941   5.857   3.651
  993SOL    HW1 3283   0.969   5.872   3.561
  993SOL    HW2 3284   0.886   5.779   3.647
  994SOL     OW 3285   1.768   5.920   3.963
  994SOL    HW1 3286   1.778   6.011   3.990
  994SOL    HW2 3287   1.846   5.876   3.996
  995SOL     OW 3288   4.395   5.376   5.553
  995SOL    HW1 3289   4.414   5.366   5.646
  995SOL    HW2 3290   4.373   5.288   5.524
  996SOL     OW 3291   0.114   2.523   1.051
  996SOL    HW1 3292   0.208   2.505   1.054
  996SOL    HW2 3293   0.101   2.568   0.968
  997SOL     OW 3294   6.003   1.883   1.181
  997SOL    HW1 3295   5.983   1.974   1.203
  997SOL    HW2 3296   6.026   1.843   1.265
  998SOL     OW 3297   0.442   1.805   2.545
  998SOL    HW1 3298   0.476   1.894   2.548
  998SOL    HW2 3299   0.421   1.784   2.636
  999SOL     OW 3300   3.018   0.750   2.176
  999SOL    HW1 3301   3.047   0.660   2.161
  999SOL    HW2 3302   2.923   0.748   2.163
 1000SOL     OW 3303   6.676   2.438   1.461
 1000SOL    HW1 3304   6.635   2.455   1.376
 1000SOL    HW2 3305   6.640   2.505   1.519
 1001SOL     OW 3306   2.374   0.895   4.305
 1001SOL    HW1 3307   2.314   0.822   4.291
 1001SOL    HW2 3308   2.327   0.972   4.274
 1002SOL     OW 3309   7.372   7.006   0.887
 1002SOL    HW1 3310   7.390   7.083   0.940
 1002SOL    HW2 3311   7.304   7.035   0.825
 1003SOL     OW 3312   1.368   0.883   3.037
 1003SOL    HW1 3313   1.315   0.949   2.993
 1003SOL    HW2 3314   1.396   0.925   3.118
 1004SOL     OW 3315   6.969   2.013   4.144
 1004SOL    HW1 3316   6.887   2.021   4.094
 1004SOL    HW2 3317   7.006   1.929   4.115
 1005SOL     OW 3318   1.879   7.214   2.101
 1005SOL    HW1 3319   1.807   7.174   2.053
 1005SOL    HW2 3320   1.850   7.216   2.192
 1006SOL     OW 3321   4.390   8.216   0.010
 1006SOL    HW1 3322   4.398   8.145   0.074
 1006SOL    HW2 3323   4.379   0.066   0.063
 1007SOL     OW 3324   3.794   0.836   4.297
 1007SOL    HW1 3325   3.727   0.775   4.328
 1007SOL    HW2 3326   3.874   0.783   4.293
 1008SOL     OW 3327   0.981   1.777   2.191
 1008SOL    HW1 3328   1.002   1.756   2.100
 1008SOL    HW2 3329   1.049   1.732   2.242
 1009SOL     OW 3330   7.138   6.395   4.313
 1009SOL    HW1 3331   7.126   6.483   4.278
 1009SOL    HW2 3332   7.084   6.339   4.257
 1010SOL     OW 3333   3.575   3.119   3.025
 1010SOL    HW1 3334   3.527   3.144   3.104
 1010SOL    HW2 3335   3.544   3.180   2.958
 1011SOL     OW 3336   5.848   6.356   2.022
 1011SOL    HW1 3337   5.862   6.329   1.931
 1011SOL    HW2 3338   5.900   6.294   2.073
 1012SOL     OW 3339   6.263   2.772   4.540
 1012SOL    HW1 3340   6.204   2.838   4.503
 1012SOL    HW2 3341   6.226   2.688   4.512
 1013SOL     OW 3342   7.847   0.873   1.092
 1013SOL    HW1 3343   7.805   0.954   1.062
 1013SOL    HW2 3344   7.913   0.902   1.155
 1014SOL     OW 3345   0.509   1.097   1.178
 1014SOL    HW1 3346   0.427   1.102   1.227
 1014SOL    HW2 3347   0.494   1.027   1.114
 1015SOL     OW 3348   7.694   0.399   0.378
 1015SOL    HW1 3349   7.649   0.387   0.295
 1015SOL    HW2 3350   7.667   0.486   0.407
 1016SOL     OW 3351   8.185   7.296   4.119
 1016SOL    HW1 3352   8.207   7.339   4.036
 1016SOL    HW2 3353   0.026   7.321   4.179
 1017SOL     OW 3354   8.153   5.906   5.585
 1017SOL    HW1 3355   8.127   5.934   5.673
 1017SOL    HW2 3356   8.134   5.981   5.529
 1018SOL     OW 3357   6.683   7.876   4.115
 1018SOL    HW1 3358   6.768   7.838   4.135
 1018SOL    HW2 3359   6.661   7.928   4.192
 1019SOL     OW 3360   8.013   4.398   1.298
 1019SOL    HW1 3361   8.093   4.444   1.324
 1019SOL    HW2 3362   8.015   4.317   1.349
 1020SOL     OW 3363   5.680   2.780   1.068
 1020SOL    HW1 3364   5.617   2.708   1.065
 1020SOL    HW2 3365   5.734   2.768   0.990
 1021SOL     OW 3366   4.785   2.404   0.631
 1021SOL    HW1 3367   4.697   2.376   0.606
 1021SOL    HW2 3368   4.832   2.414   0.548
 1022SOL     OW 3369   1.314   2.151   2.281
 1022SOL    HW1 3370   1.250   2.096   2.236
 1022SOL    HW2 3371   1.399   2.122   2.246
 1023SOL     OW 3372   0.796   3.011   2.649
 1023SOL    HW1 3373   0.798   2.979   2.559
 1023SOL    HW2 3374   0.834   3.099   2.645
 1024SOL     OW 3375   2.321   2.981   0.110
 1024SOL    HW1 3376   2.360   2.936   0.185
 1024SOL    HW2 3377   2.227   2.966   0.119
 1025SOL     OW 3378   2.072   6.097   1.862
 1025SOL    HW1 3379   1.980   6.072   1.865
 1025SOL    HW2 3380   2.111   6.035   1.800
 1026SOL     OW 3381   0.823   2.111   5.315
 1026SOL    HW1 3382   0.780   2.196   5.328
 1026SOL    HW2 3383   0.910   2.123   5.353
 1027SOL     OW 3384   2.597   0.603   4.938
 1027SOL    HW1 3385   2.592   0.591   4.843
 1027SOL    HW2 3386   2.572   0.694   4.952
 1028SOL     OW 3387   0.997   0.447   4.526
 1028SOL    HW1 3388   0.948   0.385   4.580
 1028SOL    HW2 3389   0.962   0.434   4.438
 1029SOL     OW 3390   3.719   3.474   3.077
 1029SOL    HW1 3391   3.701   3.564   3.105
 1029SOL    HW2 3392   3.785   3.442   3.138
 1030SOL     OW 3393   3.899   6.983   4.854
 1030SOL    HW1 3394   3.816   6.940   4.874
 1030SOL    HW2 3395   3.938   6.931   4.784
 1031SOL     OW 3396   1.768   0.490   2.716
 1031SOL    HW1 3397   1.735   0.578   2.698
 1031SOL    HW2 3398   1.689   0.436   2.723
 1032SOL     OW 3399   3.154   5.343   0.526
 1032SOL    HW1 3400   3.133   5.250   0.534
 1032SOL    HW2 3401   3.184   5.368   0.613
 1033SOL     OW 3402   1.702   5.217   0.669
 1033SOL    HW1 3403   1.750   5.141   0.638
 1033SOL    HW2 3404   1.753   5.249   0.744
 1034SOL     OW 3405   3.358   5.730   2.663
 1034SOL    HW1 3406   3.348   5.793   2.734
 1034SOL    HW2 3407   3.435   5.678   2.687
 1035SOL     OW 3408   0.184   0.495   4.798
 1035SOL    HW1 3409   0.206   0.438   4.872
 1035SOL    HW2 3410   0.107   0.455   4.758
 1036SOL     OW 3411   6.791   7.696   0.702
 1036SOL    HW1 3412   6.854   7.767   0.688
 1036SOL    HW2 3413   6.842   7.616   0.689
 1037SOL     OW 3414   5.308   2.999   0.664
 1037SOL    HW1 3415   5.402   2.994   0.683
 1037SOL    HW2 3416   5.303   3.043   0.579
 1038SOL     OW 3417   1.690   1.753   3.658
 1038SOL    HW1 3418   1.763   1.703   3.622
 1038SOL    HW2 3419   1.695   1.838   3.614
 1039SOL     OW 3420   5.403   3.675   5.132
 1039SOL    HW1 3421   5.380   3.659   5.040
 1039SOL    HW2 3422   5.399   3.589   5.173
 1040SOL     OW 3423   4.116   7.516   4.805
 1040SOL    HW1 3424   4.021   7.520   4.800
 1040SOL    HW2 3425   4.144   7.484   4.719
 1041SOL     OW 3426   5.966   3.068   0.951
 1041SOL    HW1 3427   5.908   3.142   0.933
 1041SOL    HW2 3428   6.033   3.073   0.883
 1042SOL     OW 3429   0.608   7.784   2.964
 1042SOL    HW1 3430   0.603   7.869   3.007
 1042SOL    HW2 3431   0.517   7.758   2.952
 1043SOL     OW 3432   3.431   6.872   1.107
 1043SOL    HW1 3433   3.471   6.846   1.190
 1043SOL    HW2 3434   3.363   6.806   1.091
 1044SOL     OW 3435   3.939   3.906   5.325
 1044SOL    HW1 3436   4.006   3.930   5.261
 1044SOL    HW2 3437   3.948   3.972   5.394
 1045SOL     OW 3438   7.228   0.550   4.193
 1045SOL    HW1 3439   7.241   0.521   4.283
 1045SOL    HW2 3440   7.146   0.599   4.195
 1046SOL     OW 3441   7.241   0.323   2.231
 1046SOL    HW1 3442   7.256   0.268   2.308
 1046SOL    HW2 3443   7.265   0.267   2.157
 1047SOL     OW 3444   0.581   5.426   0.118
 1047SOL    HW1 3445   0.634   5.479   0.058
 1047SOL    HW2 3446   0.558   5.486   0.189
 1048SOL     OW 3447   3.429   7.505   2.347
 1048SOL    HW1 3448   3.369   7.448   2.395
 1048SOL    HW2 3449   3.445   7.579   2.406
 1049SOL     OW 3450   8.025   4.102   4.975
 1049SOL    HW1 3451   7.988   4.138   5.055
 1049SOL    HW2 3452   8.025   4.007   4.989
 1050SOL     OW 3453   7.257   2.232   2.396
 1050SOL    HW1 3454   7.337   2.204   2.352
 1050SOL    HW2 3455   7.287   2.280   2.473
 1051SOL     OW 3456   1.864   3.788   4.543
 1051SOL    HW1 3457   1.795   3.742   4.495
 1051SOL    HW2 3458   1.935   3.799   4.479
 1052SOL     OW 3459   5.251   2.297   1.712
 1052SOL    HW1 3460   5.195   2.274   1.638
 1052SOL    HW2 3461   5.336   2.259   1.691
 1053SOL     OW 3462   7.901   1.203   2.565
 1053SOL    HW1 3463   7.806   1.194   2.554
 1053SOL    HW2 3464   7.912   1.285   2.612
 1054SOL     OW 3465   2.863   5.407   0.212
 1054SOL    HW1 3466   2.883   5.476   0.149
 1054SOL    HW2 3467   2.936   5.346   0.204
 1055SOL     OW 3468   7.717   6.835   0.896
 1055SOL    HW1 3469   7.784   6.774   0.865
 1055SOL    HW2 3470   7.744   6.856   0.985
 1056SOL     OW 3471   2.948   2.176   4.001
 1056SOL    HW1 3472   2.985   2.244   3.945
 1056SOL    HW2 3473   2.856   2.172   3.975
 1057SOL     OW 3474   6.920   5.574   4.935
 1057SOL    HW1 3475   6.936   5.486   4.969
 1057SOL    HW2 3476   6.829   5.593   4.957
 1058SOL     OW 3477   6.888   0.502   3.337
 1058SOL    HW1 3478   6.921   0.471   3.421
 1058SOL    HW2 3479   6.912   0.595   3.334
 1059SOL     OW 3480   3.630   4.264   5.393
 1059SOL    HW1 3481   3.625   4.262   5.297
 1059SOL    HW2 3482   3.664   4.351   5.413
 1060SOL     OW 3483   8.024   0.387   1.799
 1060SOL    HW1 3484   7.945   0.354   1.756
 1060SOL    HW2 3485   7.999   0.398   1.891
 1061SOL     OW 3486   3.717   7.545   4.546
 1061SOL    HW1 3487   3.742   7.566   4.636
 1061SOL    HW2 3488   3.791   7.496   4.511
 1062SOL     OW 3489   2.140   1.638   3.587
 1062SOL    HW1 3490   2.053   1.606   3.611
 1062SOL    HW2 3491   2.125   1.691   3.509
 1063SOL     OW 3492   0.165   3.446   1.984
 1063SOL    HW1 3493   0.163   3.378   1.917
 1063SOL    HW2 3494   0.244   3.497   1.964
 1064SOL     OW 3495   2.807   7.633   1.763
 1064SOL    HW1 3496   2.869   7.626   1.690
 1064SOL    HW2 3497   2.737   7.572   1.741
 1065SOL     OW 3498   0.210   7.740   4.529
 1065SOL    HW1 3499   0.251   7.799   4.592
 1065SOL    HW2 3500   0.130   7.710   4.573
 1066SOL     OW 3501   2.331   7.811   4.520
 1066SOL    HW1 3502   2.341   7.744   4.453
 1066SOL    HW2 3503   2.245   7.795   4.558
 1067SOL     OW 3504   7.965   5.183   2.061
 1067SOL    HW1 3505   7.984   5.140   2.145
 1067SOL    HW2 3506   8.031   5.252   2.054
 1068SOL     OW 3507   7.087   6.100   3.645
 1068SOL    HW1 3508   7.067   6.124   3.554
 1068SOL    HW2 3509   7.132   6.016   3.639
 1069SOL     OW 3510   6.500   2.879   2.769
 1069SOL    HW1 3511   6.501   2.928   2.687
 1069SOL    HW2 3512   6.524   2.790   2.744
 1070SOL     OW 3513   0.506   7.128   4.372
 1070SOL    HW1 3514   0.553   7.140   4.455
 1070SOL    HW2 3515   0.562   7.069   4.321
 1071SOL     OW 3516   6.643   0.653   3.651
 1071SOL    HW1 3517   6.714   0.620   3.705
 1071SOL    HW2 3518   6.565   0.646   3.707
 1072SOL     OW 3519   1.991   1.319   3.473
 1072SOL    HW1 3520   1.913   1.304   3.527
 1072SOL    HW2 3521   1.966   1.391   3.415
 1073SOL     OW 3522   7.314   2.856   3.036
 1073SOL    HW1 3523   7.390   2.808   3.069
 1073SOL    HW2 3524   7.261   2.873   3.114
 1074SOL     OW 3525   1.758   2.411   4.728
 1074SOL    HW1 3526   1.690   2.344   4.728
 1074SOL    HW2 3527   1.711   2.493   4.739
 1075SOL     OW 3528   7.265   0.610   1.904
 1075SOL    HW1 3529   7.302   0.658   1.830
 1075SOL    HW2 3530   7.200   0.670   1.942
 1076SOL     OW 3531   5.490   2.688   1.979
 1076SOL    HW1 3532   5.496   2.595   2.002
 1076SOL    HW2 3533   5.399   2.711   1.997
 1077SOL     OW 3534   7.580   2.951   3.267
 1077SOL    HW1 3535   7.542   3.036   3.244
 1077SOL    HW2 3536   7.672   2.958   3.242
 1078SOL     OW 3537   6.091   2.967   4.420
 1078SOL    HW1 3538   6.070   3.026   4.347
 1078SOL    HW2 3539   6.074   3.019   4.498
 1079SOL     OW 3540   6.312   4.762   1.477
 1079SOL    HW1 3541   6.385   4.816   1.446
 1079SOL    HW2 3542   6.343   4.672   1.468
 1080SOL     OW 3543   7.329   5.879   3.865
 1080SOL    HW1 3544   7.394   5.827   3.817
 1080SOL    HW2 3545   7.364   5.884   3.954
 1081SOL     OW 3546   1.742   5.623   1.818
 1081SOL    HW1 3547   1.720   5.586   1.732
 1081SOL    HW2 3548   1.788   5.552   1.863
 1082SOL     OW 3549   3.309   0.101   4.495
 1082SOL    HW1 3550   3.255   0.119   4.572
 1082SOL    HW2 3551   3.252   0.051   4.437
 1083SOL     OW 3552   0.646   0.097   4.643
 1083SOL    HW1 3553   0.582   0.108   4.573
 1083SOL    HW2 3554   0.685   0.011   4.626
 1084SOL     OW 3555   4.761   5.116   2.464
 1084SOL    HW1 3556   4.823   5.125   2.536
 1084SOL    HW2 3557   4.715   5.034   2.483
 1085SOL     OW 3558   5.914   4.130   4.972
 1085SOL    HW1 3559   5.979   4.200   4.964
 1085SOL    HW2 3560   5.964   4.054   5.003
 1086SOL     OW 3561   0.558   0.872   2.187
 1086SOL    HW1 3562   0.613   0.805   2.228
 1086SOL    HW2 3563   0.604   0.894   2.106
 1087SOL     OW 3564   3.040   2.965   3.752
 1087SOL    HW1 3565   2.952   2.940   3.723
 1087SOL    HW2 3566   3.025   3.037   3.814
 1088SOL     OW 3567   0.189   6.022   2.215
 1088SOL    HW1 3568   0.191   6.043   2.122
 1088SOL    HW2 3569   0.124   6.082   2.251
 1089SOL     OW 3570   6.265   7.017   2.176
 1089SOL    HW1 3571   6.338   7.044   2.231
 1089SOL    HW2 3572   6.245   7.094   2.122
 1090SOL     OW 3573   7.324   5.597   5.279
 1090SOL    HW1 3574   7.361   5.685   5.286
 1090SOL    HW2 3575   7.400   5.540   5.266
 1091SOL     OW 3576   0.565   2.170   3.998
 1091SOL    HW1 3577   0.579   2.259   3.967
 1091SOL    HW2 3578   0.653   2.133   4.005
 1092SOL     OW 3579   5.342   6.168   2.992
 1092SOL    HW1 3580   5.325   6.238   3.055
 1092SOL    HW2 3581   5.319   6.206   2.907
 1093SOL     OW 3582   5.613   6.082   4.286
 1093SOL    HW1 3583   5.635   6.123   4.369
 1093SOL    HW2 3584   5.676   6.010   4.277
 1094SOL     OW 3585   6.974   6.954   0.389
 1094SOL    HW1 3586   6.902   6.906   0.349
 1094SOL    HW2 3587   6.993   6.906   0.469
 1095SOL     OW 3588   4.752   3.802   4.819
 1095SOL    HW1 3589   4.797   3.744   4.880
 1095SOL    HW2 3590   4.814   3.814   4.747
 1096SOL     OW 3591   8.081   3.812   2.214
 1096SOL    HW1 3592   8.086   3.740   2.277
 1096SOL    HW2 3593   7.996   3.799   2.171
 1097SOL     OW 3594   5.585   4.336   4.335
 1097SOL    HW1 3595   5.575   4.431   4.341
 1097SOL    HW2 3596   5.504   4.301   4.373
 1098SOL     OW 3597   2.781   3.350   4.308
 1098SOL    HW1 3598   2.822   3.269   4.339
 1098SOL    HW2 3599   2.831   3.420   4.350
 1099SOL     OW 3600   2.082   7.290   3.433
 1099SOL    HW1 3601   2.082   7.331   3.519
 1099SOL    HW2 3602   2.049   7.201   3.449
 1100SOL     OW 3603   0.056   4.380   5.286
 1100SOL    HW1 3604   0.102   4.445   5.339
 1100SOL    HW2 3605   0.126   4.327   5.248
 1101SOL     OW 3606   3.737   2.957   4.058
 1101SOL    HW1 3607   3.647   2.976   4.032
 1101SOL    HW2 3608   3.759   3.027   4.120
 1102SOL     OW 3609   3.555   0.193   3.830
 1102SOL    HW1 3610   3.526   0.108   3.864
 1102SOL    HW2 3611   3.512   0.201   3.745
 1103SOL     OW 3612   3.796   0.196   3.256
 1103SOL    HW1 3613   3.882   0.154   3.260
 1103SOL    HW2 3614   3.802   0.257   3.182
 1104SOL     OW 3615   5.390   2.126   3.146
 1104SOL    HW1 3616   5.406   2.036   3.118
 1104SOL    HW2 3617   5.441   2.179   3.085
 1105SOL     OW 3618   5.684   6.220   0.340
 1105SOL    HW1 3619   5.621   6.195   0.408
 1105SOL    HW2 3620   5.726   6.138   0.315
 1106SOL     OW 3621   6.064   5.975   5.137
 1106SOL    HW1 3622   6.001   5.903   5.140
 1106SOL    HW2 3623   6.109   5.970   5.221
 1107SOL     OW 3624   5.952   6.990   4.630
 1107SOL    HW1 3625   5.966   6.900   4.601
 1107SOL    HW2 3626   5.997   6.996   4.714
 1108SOL     OW 3627   5.273   3.688   3.757
 1108SOL    HW1 3628   5.227   3.666   3.676
 1108SOL    HW2 3629   5.204   3.707   3.820
 1109SOL     OW 3630   2.299   1.017   5.411
 1109SOL    HW1 3631   2.281   0.923   5.408
 1109SOL    HW2 3632   2.240   1.051   5.479
 1110SOL     OW 3633   0.903   2.965   1.651
 1110SOL    HW1 3634   0.861   3.044   1.618
 1110SOL    HW2 3635   0.835   2.898   1.647
 1111SOL     OW 3636   0.195   3.120   4.137
 1111SOL    HW1 3637   0.174   3.086   4.224
 1111SOL    HW2 3638   0.137   3.072   4.078
 1112SOL     OW 3639   5.375   3.970   4.827
 1112SOL    HW1 3640   5.409   4.000   4.743
 1112SOL    HW2 3641   5.372   4.049   4.881
 1113SOL     OW 3642   0.265   2.755   3.859
 1113SOL    HW1 3643   0.203   2.684   3.841
 1113SOL    HW2 3644   0.351   2.715   3.848
 1114SOL     OW 3645   2.176   0.814   2.666
 1114SOL    HW1 3646   2.144   0.896   2.703
 1114SOL    HW2 3647   2.097   0.764   2.647
 1115SOL     OW 3648   1.976   7.921   4.150
 1115SOL    HW1 3649   1.911   7.859   4.184
 1115SOL    HW2 3650   2.059   7.875   4.157
 1116SOL     OW 3651   5.263   2.533   3.044
 1116SOL    HW1 3652   5.280   2.495   2.958
 1116SOL    HW2 3653   5.216   2.464   3.092
 1117SOL     OW 3654   4.416   3.159   3.474
 1117SOL    HW1 3655   4.336   3.205   3.498
 1117SOL    HW2 3656   4.433   3.185   3.384
 1118SOL     OW 3657   7.068   7.753   0.000
 1118SOL    HW1 3658   7.054   7.834   0.049
 1118SOL    HW2 3659   3.028   3.657   5.762
 1119SOL     OW 3660   5.379   2.103   4.475
 1119SOL    HW1 3661   5.293   2.066   4.454
 1119SOL    HW2 3662   5.396   2.166   4.405
 1120SOL     OW 3663   2.436   2.241   1.183
 1120SOL    HW1 3664   2.414   2.171   1.245
 1120SOL    HW2 3665   2.353   2.286   1.166
 1121SOL     OW 3666   5.636   2.800   2.175
 1121SOL    HW1 3667   5.588   2.774   2.097
 1121SOL    HW2 3668   5.590   2.878   2.207
 1122SOL     OW 3669   2.291   4.194   3.524
 1122SOL    HW1 3670   2.219   4.200   3.587
 1122SOL    HW2 3671   2.331   4.109   3.541
 1123SOL     OW 3672   4.830   6.766   1.901
 1123SOL    HW1 3673   4.853   6.779   1.809
 1123SOL    HW2 3674   4.771   6.838   1.922
 1124SOL     OW 3675   3.479   2.302   0.673
 1124SOL    HW1 3676   3.440   2.235   0.618
 1124SOL    HW2 3677   3.573   2.285   0.669
 1125SOL     OW 3678   1.478   3.912   2.649
 1125SOL    HW1 3679   1.475   3.908   2.553
 1125SOL    HW2 3680   1.464   4.004   2.670
 1126SOL     OW 3681   4.521   5.656   1.174
 1126SOL    HW1 3682   4.485   5.733   1.218
 1126SOL    HW2 3683   4.457   5.587   1.192
 1127SOL     OW 3684   2.418   6.112   4.358
 1127SOL    HW1 3685   2.425   6.051   4.285
 1127SOL    HW2 3686   2.508   6.125   4.387
 1128SOL     OW 3687   5.728   6.184   4.853
 1128SOL    HW1 3688   5.782   6.261   4.867
 1128SOL    HW2 3689   5.682   6.171   4.936
 1129SOL     OW 3690   6.586   0.671   2.750
 1129SOL    HW1 3691   6.658   0.666   2.813
 1129SOL    HW2 3692   6.588   0.588   2.703
 1130SOL     OW 3693   0.803   3.076   5.507
 1130SOL    HW1 3694   0.757   3.019   5.569
 1130SOL    HW2 3695   0.736   3.136   5.474
 1131SOL     OW 3696   2.968   7.436   5.562
 1131SOL    HW1 3697   2.988   7.383   5.485
 1131SOL    HW2 3698   3.028   7.510   5.556
 1132SOL     OW 3699   2.073   0.855   5.631
 1132SOL    HW1 3700   2.034   0.778   5.589
 1132SOL    HW2 3701   2.167   0.839   5.625
 1133SOL     OW 3702   4.300   5.203   2.036
 1133SOL    HW1 3703   4.361   5.270   2.068
 1133SOL    HW2 3704   4.312   5.204   1.941
 1134SOL     OW 3705   0.231   3.903   2.053
 1134SOL    HW1 3706   0.229   3.849   2.132
 1134SOL    HW2 3707   0.154   3.959   2.061
 1135SOL     OW 3708   1.840   7.904   1.716
 1135SOL    HW1 3709   1.866   7.813   1.704
 1135SOL    HW2 3710   1.920   7.954   1.698
 1136SOL     OW 3711   0.391   0.279   3.651
 1136SOL    HW1 3712   0.381   0.202   3.707
 1136SOL    HW2 3713   0.353   0.253   3.567
 1137SOL     OW 3714   3.069   8.222   3.444
 1137SOL    HW1 3715   3.041   0.083   3.461
 1137SOL    HW2 3716   3.149   8.212   3.496
 1138SOL     OW 3717   3.040   6.908   0.226
 1138SOL    HW1 3718   2.952   6.943   0.238
 1138SOL    HW2 3719   3.096   6.985   0.219
 1139SOL     OW 3720   6.093   4.085   0.518
 1139SOL    HW1 3721   6.001   4.058   0.522
 1139SOL    HW2 3722   6.139   4.010   0.480
 1140SOL     OW 3723   5.280   6.120   0.470
 1140SOL    HW1 3724   5.293   6.055   0.401
 1140SOL    HW2 3725   5.196   6.097   0.509
 1141SOL     OW 3726   7.086   3.750   3.334
 1141SOL    HW1 3727   7.084   3.796   3.250
 1141SOL    HW2 3728   7.115   3.816   3.397
 1142SOL     OW 3729   4.427   5.452   3.238
 1142SOL    HW1 3730   4.506   5.479   3.284
 1142SOL    HW2 3731   4.429   5.500   3.156
 1143SOL     OW 3732   1.347   7.572   3.925
 1143SOL    HW1 3733   1.359   7.507   3.994
 1143SOL    HW2 3734   1.419   7.634   3.939
 1144SOL     OW 3735   0.930   2.164   3.712
 1144SOL    HW1 3736   0.921   2.247   3.665
 1144SOL    HW2 3737   0.934   2.098   3.643
 1145SOL     OW 3738   0.144   2.627   2.567
 1145SOL    HW1 3739   0.064   2.590   2.605
 1145SOL    HW2 3740   0.114   2.671   2.487
 1146SOL     OW 3741   1.309   7.363   5.322
 1146SOL    HW1 3742   1.264   7.323   5.396
 1146SOL    HW2 3743   1.401   7.365   5.348
 1147SOL     OW 3744   8.140   0.595   0.296
 1147SOL    HW1 3745   8.105   0.554   0.375
 1147SOL    HW2 3746   0.004   0.607   0.315
 1148SOL     OW 3747   2.160   0.713   4.346
 1148SOL    HW1 3748   2.148   0.618   4.351
 1148SOL    HW2 3749   2.216   0.734   4.421
 1149SOL     OW 3750   5.162   3.249   3.880
 1149SOL    HW1 3751   5.216   3.210   3.812
 1149SOL    HW2 3752   5.113   3.318   3.835
 1150SOL     OW 3753   7.390   1.144   4.718
 1150SOL    HW1 3754   7.397   1.138   4.813
 1150SOL    HW2 3755   7.317   1.087   4.696
 1151SOL     OW 3756   0.756   1.239   1.224
 1151SOL    HW1 3757   0.799   1.203   1.301
 1151SOL    HW2 3758   0.665   1.211   1.231
 1152SOL     OW 3759   1.878   0.090   5.376
 1152SOL    HW1 3760   1.944   0.044   5.429
 1152SOL    HW2 3761   1.824   0.020   5.340
 1153SOL     OW 3762   7.710   5.663   0.060
 1153SOL    HW1 3763   7.773   5.726   0.025
 1153SOL    HW2 3764   7.625   5.694   0.029
 1154SOL     OW 3765   6.584   1.069   0.911
 1154SOL    HW1 3766   6.618   0.988   0.872
 1154SOL    HW2 3767   6.523   1.039   0.978
 1155SOL     OW 3768   6.598   2.344   1.827
 1155SOL    HW1 3769   6.663   2.387   1.771
 1155SOL    HW2 3770   6.532   2.311   1.766
 1156SOL     OW 3771   1.444   4.100   4.951
 1156SOL    HW1 3772   1.459   4.173   5.011
 1156SOL    HW2 3773   1.403   4.140   4.874
 1157SOL     OW 3774   6.444   4.165   1.617
 1157SOL    HW1 3775   6.514   4.100   1.609
 1157SOL    HW2 3776   6.479   4.244   1.576
 1158SOL     OW 3777   4.131   7.304   0.393
 1158SOL    HW1 3778   4.211   7.336   0.435
 1158SOL    HW2 3779   4.160   7.268   0.309
 1159SOL     OW 3780   6.411   2.829   4.294
 1159SOL    HW1 3781   6.454   2.828   4.380
 1159SOL    HW2 3782   6.357   2.908   4.295
 1160SOL     OW 3783   6.564   1.549   4.546
 1160SOL    HW1 3784   6.596   1.512   4.463
 1160SOL    HW2 3785   6.612   1.631   4.556
 1161SOL     OW 3786   6.238   7.074   5.620
 1161SOL    HW1 3787   6.209   7.017   5.691
 1161SOL    HW2 3788   6.182   7.051   5.546
 1162SOL     OW 3789   5.152   5.140   2.377
 1162SOL    HW1 3790   5.103   5.103   2.451
 1162SOL    HW2 3791   5.196   5.065   2.338
 1163SOL     OW 3792   7.592   0.008   3.325
 1163SOL    HW1 3793   7.620   8.151   3.356
 1163SOL    HW2 3794   7.667   0.065   3.343
 1164SOL     OW 3795   4.368   0.335   0.531
 1164SOL    HW1 3796   4.372   0.359   0.439
 1164SOL    HW2 3797   4.457   0.349   0.564
 1165SOL     OW 3798   1.445   4.617   2.895
 1165SOL    HW1 3799   1.433   4.601   2.989
 1165SOL    HW2 3800   1.539   4.606   2.881
 1166SOL     OW 3801   3.968   1.036   1.173
 1166SOL    HW1 3802   4.033   1.105   1.181
 1166SOL    HW2 3803   4.016   0.962   1.137
 1167SOL     OW 3804   5.381   5.867   4.167
 1167SOL    HW1 3805   5.314   5.918   4.122
 1167SOL    HW2 3806   5.433   5.932   4.215
 1168SOL     OW 3807   0.712   5.692   1.518
 1168SOL    HW1 3808   0.763   5.766   1.550
 1168SOL    HW2 3809   0.719   5.626   1.587
 1169SOL     OW 3810   4.228   6.690   5.235
 1169SOL    HW1 3811   4.184   6.652   5.311
 1169SOL    HW2 3812   4.310   6.642   5.228
 1170SOL     OW 3813   6.117   5.953   2.479
 1170SOL    HW1 3814   6.029   5.949   2.517
 1170SOL    HW2 3815   6.174   5.974   2.553
 1171SOL     OW 3816   1.033   4.963   1.038
 1171SOL    HW1 3817   1.094   4.926   0.974
 1171SOL    HW2 3818   1.044   4.909   1.116
 1172SOL     OW 3819   4.584   5.607   1.647
 1172SOL    HW1 3820   4.585   5.534   1.585
 1172SOL    HW2 3821   4.553   5.568   1.729
 1173SOL     OW 3822   5.511   1.329   4.256
 1173SOL    HW1 3823   5.420   1.332   4.226
 1173SOL    HW2 3824   5.530   1.418   4.286
 1174SOL     OW 3825   6.808   4.843   2.845
 1174SOL    HW1 3826   6.890   4.877   2.881
 1174SOL    HW2 3827   6.772   4.915   2.793
 1175SOL     OW 3828   3.444   6.179   1.459
 1175SOL    HW1 3829   3.416   6.088   1.454
 1175SOL    HW2 3830   3.493   6.194   1.378
 1176SOL     OW 3831   1.245   5.454   2.932
 1176SOL    HW1 3832   1.232   5.417   2.845
 1176SOL    HW2 3833   1.235   5.379   2.991
 1177SOL     OW 3834   0.749   5.016   5.747
 1177SOL    HW1 3835   0.804   5.074   5.694
 1177SOL    HW2 3836   0.669   5.066   5.761
 1178SOL     OW 3837   6.954   7.101   1.959
 1178SOL    HW1 3838   7.014   7.090   1.885
 1178SOL    HW2 3839   6.963   7.193   1.984
 1179SOL     OW 3840   1.829   5.713   0.826
 1179SOL    HW1 3841   1.891   5.749   0.763
 1179SOL    HW2 3842   1.827   5.777   0.897
 1180SOL     OW 3843   1.046   4.075   2.306
 1180SOL    HW1 3844   1.058   4.085   2.400
 1180SOL    HW2 3845   0.978   4.138   2.284
 1181SOL     OW 3846   6.926   6.531   3.581
 1181SOL    HW1 3847   6.998   6.469   3.588
 1181SOL    HW2 3848   6.968   6.617   3.578
 1182SOL     OW 3849   5.030   8.198   0.681
 1182SOL    HW1 3850   4.982   8.124   0.645
 1182SOL    HW2 3851   5.006   0.042   0.624
 1183SOL     OW 3852   5.200   4.955   1.688
 1183SOL    HW1 3853   5.275   5.013   1.698
 1183SOL    HW2 3854   5.133   4.993   1.745
 1184SOL     OW 3855   2.460   4.313   4.463
 1184SOL    HW1 3856   2.490   4.385   4.407
 1184SOL    HW2 3857   2.460   4.236   4.405
 1185SOL     OW 3858   0.702   1.238   4.393
 1185SOL    HW1 3859   0.642   1.219   4.321
 1185SOL    HW2 3860   0.735   1.152   4.420
 1186SOL     OW 3861   3.270   3.476   1.842
 1186SOL    HW1 3862   3.314   3.400   1.880
 1186SOL    HW2 3863   3.213   3.439   1.774
 1187SOL     OW 3864   5.301   5.677   2.433
 1187SOL    HW1 3865   5.274   5.663   2.524
 1187SOL    HW2 3866   5.271   5.599   2.387
 1188SOL     OW 3867   2.808   2.873   0.876
 1188SOL    HW1 3868   2.891   2.921   0.869
 1188SOL    HW2 3869   2.751   2.915   0.812
 1189SOL     OW 3870   1.309   1.709   4.296
 1189SOL    HW1 3871   1.238   1.714   4.232
 1189SOL    HW2 3872   1.316   1.798   4.331
 1190SOL     OW 3873   3.608   7.905   5.637
 1190SOL    HW1 3874   3.657   7.837   5.683
 1190SOL    HW2 3875   3.662   7.983   5.646
 1191SOL     OW 3876   4.117   8.190   1.424
 1191SOL    HW1 3877   4.050   8.130   1.392
 1191SOL    HW2 3878   4.200   8.145   1.406
 1192SOL     OW 3879   1.880   7.100   0.681
 1192SOL    HW1 3880   1.925   7.022   0.649
 1192SOL    HW2 3881   1.787   7.079   0.674
 1193SOL     OW 3882   3.185   5.351   5.665
 1193SOL    HW1 3883   3.167   5.403   5.744
 1193SOL    HW2 3884   3.237   5.277   5.696
 1194SOL     OW 3885   4.040   1.133   4.287
 1194SOL    HW1 3886   3.965   1.125   4.345
 1194SOL    HW2 3887   4.111   1.088   4.333
 1195SOL     OW 3888   2.209   7.732   5.277
 1195SOL    HW1 3889   2.289   7.707   5.323
 1195SOL    HW2 3890   2.240   7.771   5.195
 1196SOL     OW 3891   4.843   2.449   2.176
 1196SOL    HW1 3892   4.839   2.416   2.266
 1196SOL    HW2 3893   4.828   2.372   2.121
 1197SOL     OW 3894   3.189   5.819   5.067
 1197SOL    HW1 3895   3.222   5.867   4.991
 1197SOL    HW2 3896   3.120   5.874   5.103
 1198SOL     OW 3897   1.870   3.155   2.333
 1198SOL    HW1 3898   1.907   3.144   2.246
 1198SOL    HW2 3899   1.945   3.147   2.392
 1199SOL     OW 3900   3.965   3.165   2.867
 1199SOL    HW1 3901   3.952   3.112   2.945
 1199SOL    HW2 3902   4.051   3.138   2.834
 1200SOL     OW 3903   1.337   5.204   0.629
 1200SOL    HW1 3904   1.391   5.152   0.570
 1200SOL    HW2 3905   1.400   5.257   0.678
 1201SOL     OW 3906   6.652   7.201   3.400
 1201SOL    HW1 3907   6.668   7.211   3.494
 1201SOL    HW2 3908   6.734   7.165   3.365
 1202SOL     OW 3909   4.476   6.864   5.023
 1202SOL    HW1 3910   4.465   6.940   4.966
 1202SOL    HW2 3911   4.458   6.897   5.111
 1203SOL     OW 3912   0.573   6.922   1.187
 1203SOL    HW1 3913   0.576   6.827   1.199
 1203SOL    HW2 3914   0.503   6.936   1.123
 1204SOL     OW 3915   2.569   7.632   3.481
 1204SOL    HW1 3916   2.641   7.666   3.427
 1204SOL    HW2 3917   2.490   7.657   3.434
 1205SOL     OW 3918   6.226   4.465   5.457
 1205SOL    HW1 3919   6.158   4.519   5.417
 1205SOL    HW2 3920   6.181   4.417   5.526
 1206SOL     OW 3921   3.382   5.912   1.496
 1206SOL    HW1 3922   3.287   5.920   1.493
 1206SOL    HW2 3923   3.404   5.914   1.589
 1207SOL     OW 3924   0.282   5.108   1.254
 1207SOL    HW1 3925   0.270   5.126   1.347
 1207SOL    HW2 3926   0.370   5.072   1.247
 1208SOL     OW 3927   0.858   6.283   0.914
 1208SOL    HW1 3928   0.776   6.318   0.880
 1208SOL    HW2 3929   0.918   6.358   0.914
 1209SOL     OW 3930   6.085   5.728   3.001
 1209SOL    HW1 3931   6.152   5.730   2.932
 1209SOL    HW2 3932   6.043   5.814   2.995
 1210SOL     OW 3933   0.182   1.088   5.376
 1210SOL    HW1 3934   0.141   1.162   5.422
 1210SOL    HW2 3935   0.255   1.063   5.432
 1211SOL     OW 3936   7.666   3.417   5.298
 1211SOL    HW1 3937   7.574   3.426   5.323
 1211SOL    HW2 3938   7.665   3.418   5.202
 1212SOL     OW 3939   1.235   3.635   5.759
 1212SOL    HW1 3940   1.247   3.674   5.672
 1212SOL    HW2 3941   1.316   3.655   5.806
 1213SOL     OW 3942   2.095   2.785   4.238
 1213SOL    HW1 3943   2.010   2.798   4.280
 1213SOL    HW2 3944   2.159   2.798   4.308
 1214SOL     OW 3945   4.178   4.585   2.450
 1214SOL    HW1 3946   4.250   4.642   2.423
 1214SOL    HW2 3947   4.207   4.497   2.426
 1215SOL     OW 3948   6.612   4.545   0.656
 1215SOL    HW1 3949   6.644   4.593   0.733
 1215SOL    HW2 3950   6.523   4.520   0.679
 1216SOL     OW 3951   1.387   4.327   0.597
 1216SOL    HW1 3952   1.300   4.346   0.561
 1216SOL    HW2 3953   1.396   4.389   0.669
 1217SOL     OW 3954   7.681   0.602   5.285
 1217SOL    HW1 3955   7.773   0.578   5.275
 1217SOL    HW2 3956   7.644   0.590   5.198
 1218SOL     OW 3957   7.966   0.406   3.737
 1218SOL    HW1 3958   7.916   0.401   3.819
 1218SOL    HW2 3959   8.048   0.361   3.757
 1219SOL     OW 3960   0.543   7.126   2.269
 1219SOL    HW1 3961   0.635   7.112   2.292
 1219SOL    HW2 3962   0.502   7.153   2.351
 1220SOL     OW 3963   3.124   5.400   1.079
 1220SOL    HW1 3964   3.197   5.421   1.137
 1220SOL    HW2 3965   3.128   5.467   1.010
 1221SOL     OW 3966   3.524   1.773   2.390
 1221SOL    HW1 3967   3.598   1.712   2.382
 1221SOL    HW2 3968   3.453   1.731   2.343
 1222SOL     OW 3969   6.716   1.953   3.641
 1222SOL    HW1 3970   6.647   1.909   3.591
 1222SOL    HW2 3971   6.704   2.046   3.622
 1223SOL     OW 3972   6.471   4.858   4.958
 1223SOL    HW1 3973   6.470   4.781   4.902
 1223SOL    HW2 3974   6.471   4.823   5.047
 1224SOL     OW 3975   7.119   3.166   1.256
 1224SOL    HW1 3976   7.171   3.202   1.184
 1224SOL    HW2 3977   7.045   3.123   1.213
 1225SOL     OW 3978   1.042   3.806   4.421
 1225SOL    HW1 3979   1.006   3.719   4.403
 1225SOL    HW2 3980   1.071   3.802   4.512
 1226SOL     OW 3981   1.014   7.215   1.576
 1226SOL    HW1 3982   1.009   7.203   1.671
 1226SOL    HW2 3983   0.924   7.204   1.546
 1227SOL     OW 3984   7.329   3.749   2.209
 1227SOL    HW1 3985   7.405   3.709   2.167
 1227SOL    HW2 3986   7.304   3.821   2.151
 1228SOL     OW 3987   5.852   4.657   4.305
 1228SOL    HW1 3988   5.821   4.617   4.224
 1228SOL    HW2 3989   5.947   4.650   4.300
 1229SOL     OW 3990   5.245   0.470   2.686
 1229SOL    HW1 3991   5.288   0.416   2.752
 1229SOL    HW2 3992   5.154   0.440   2.686
 1230SOL     OW 3993   4.573   0.997   2.455
 1230SOL    HW1 3994   4.624   0.925   2.492
 1230SOL    HW2 3995   4.482   0.976   2.478
 1231SOL     OW 3996   4.224   0.418   2.269
 1231SOL    HW1 3997   4.307   0.384   2.237
 1231SOL    HW2 3998   4.236   0.424   2.364
 1232SOL     OW 3999   1.881   0.953   2.311
 1232SOL    HW1 4000   1.875   0.957   2.406
 1232SOL    HW2 4001   1.975   0.954   2.293
 1233SOL     OW 4002   1.578   3.042   5.114
 1233SOL    HW1 4003   1.564   3.113   5.176
 1233SOL    HW2 4004   1.529   2.968   5.150
 1234SOL     OW 4005   1.530   4.237   3.987
 1234SOL    HW1 4006   1.577   4.213   4.067
 1234SOL    HW2 4007   1.545   4.164   3.927
 1235SOL     OW 4008   4.571   4.838   4.379
 1235SOL    HW1 4009   4.529   4.829   4.464
 1235SOL    HW2 4010   4.520   4.782   4.321
 1236SOL     OW 4011   6.290   6.696   5.766
 1236SOL    HW1 4012   6.330   6.700   5.679
 1236SOL    HW2 4013   6.339   6.759   5.818
 1237SOL     OW 4014   0.210   4.759   3.837
 1237SOL    HW1 4015   0.245   4.691   3.895
 1237SOL    HW2 4016   0.115   4.752   3.846
 1238SOL     OW 4017   2.752   2.591   4.400
 1238SOL    HW1 4018   2.688   2.550   4.341
 1238SOL    HW2 4019   2.783   2.668   4.353
 1239SOL     OW 4020   4.232   1.940   1.213
 1239SOL    HW1 4021   4.227   2.014   1.152
 1239SOL    HW2 4022   4.220   1.980   1.299
 1240SOL     OW 4023   1.525   3.808   0.900
 1240SOL    HW1 4024   1.547   3.891   0.858
 1240SOL    HW2 4025   1.440   3.823   0.940
 1241SOL     OW 4026   0.363   7.647   3.218
 1241SOL    HW1 4027   0.397   7.631   3.306
 1241SOL    HW2 4028   0.427   7.606   3.160
 1242SOL     OW 4029   6.891   5.230   3.214
 1242SOL    HW1 4030   6.842   5.237   3.296
 1242SOL    HW2 4031   6.975   5.273   3.233
 1243SOL     OW 4032   7.931   5.504   3.922
 1243SOL    HW1 4033   7.940   5.546   3.836
 1243SOL    HW2 4034   7.837   5.506   3.940
 1244SOL     OW 4035   7.610   4.005   2.059
 1244SOL    HW1 4036   7.641   4.080   2.009
 1244SOL    HW2 4037   7.668   3.933   2.032
 1245SOL     OW 4038   6.186   5.309   0.610
 1245SOL    HW1 4039   6.229   5.228   0.582
 1245SOL    HW2 4040   6.249   5.378   0.588
 1246SOL     OW 4041   2.438   3.527   0.238
 1246SOL    HW1 4042   2.514   3.579   0.262
 1246SOL    HW2 4043   2.363   3.579   0.267
 1247SOL     OW 4044   2.232   1.525   4.632
 1247SOL    HW1 4045   2.162   1.585   4.656
 1247SOL    HW2 4046   2.245   1.470   4.709
 1248SOL     OW 4047   6.452   4.743   2.667
 1248SOL    HW1 4048   6.480   4.816   2.611
 1248SOL    HW2 4049   6.523   4.679   2.660
 1249SOL     OW 4050   6.581   6.843   2.079
 1249SOL    HW1 4051   6.574   6.832   2.174
 1249SOL    HW2 4052   6.606   6.935   2.067
 1250SOL     OW 4053   0.184   2.907   2.458
 1250SOL    HW1 4054   0.096   2.901   2.421
 1250SOL    HW2 4055   0.172   2.885   2.551
 1251SOL     OW 4056   1.040   2.660   2.574
 1251SOL    HW1 4057   1.097   2.612   2.634
 1251SOL    HW2 4058   0.996   2.591   2.524
 1252SOL     OW 4059   5.469   3.922   0.071
 1252SOL    HW1 4060   5.374   3.934   0.068
 1252SOL    HW2 4061   1.384   8.057   5.801
 1253SOL     OW 4062   1.000   7.730   1.126
 1253SOL    HW1 4063   0.925   7.772   1.168
 1253SOL    HW2 4064   1.036   7.798   1.069
 1254SOL     OW 4065   3.068   0.451   4.323
 1254SOL    HW1 4066   3.084   0.543   4.301
 1254SOL    HW2 4067   2.988   0.428   4.276
 1255SOL     OW 4068   4.949   5.193   2.649
 1255SOL    HW1 4069   4.968   5.146   2.730
 1255SOL    HW2 4070   4.929   5.282   2.677
 1256SOL     OW 4071   1.653   6.861   3.768
 1256SOL    HW1 4072   1.608   6.811   3.836
 1256SOL    HW2 4073   1.742   6.874   3.801
 1257SOL     OW 4074   3.284   4.184   1.932
 1257SOL    HW1 4075   3.308   4.196   1.840
 1257SOL    HW2 4076   3.368   4.182   1.978
 1258SOL     OW 4077   0.938   0.429   2.638
 1258SOL    HW1 4078   0.949   0.515   2.678
 1258SOL    HW2 4079   0.895   0.446   2.554
 1259SOL     OW 4080   6.561   2.587   2.002
 1259SOL    HW1 4081   6.492   2.631   1.952
 1259SOL    HW2 4082   6.518   2.560   2.083
 1260SOL     OW 4083   1.171   6.912   0.485
 1260SOL    HW1 4084   1.143   7.001   0.505
 1260SOL    HW2 4085   1.119   6.857   0.544
 1261SOL     OW 4086   7.961   0.444   0.478
 1261SOL    HW1 4087   8.006   0.373   0.524
 1261SOL    HW2 4088   7.886   0.402   0.436
 1262SOL     OW 4089   6.951   7.648   5.567
 1262SOL    HW1 4090   7.042   7.651   5.539
 1262SOL    HW2 4091   6.935   7.555   5.585
 1263SOL     OW 4092   6.452   2.406   4.948
 1263SOL    HW1 4093   6.382   2.356   4.905
 1263SOL    HW2 4094   6.507   2.340   4.989
 1264SOL     OW 4095   1.855   7.338   0.853
 1264SOL    HW1 4096   1.854   7.271   0.784
 1264SOL    HW2 4097   1.802   7.300   0.924
 1265SOL     OW 4098   7.241   2.238   5.578
 1265SOL    HW1 4099   7.268   2.202   5.663
 1265SOL    HW2 4100   7.161   2.286   5.597
 1266SOL     OW 4101   4.068   0.648   5.630
 1266SOL    HW1 4102   4.091   0.593   5.555
 1266SOL    HW2 4103   3.981   0.682   5.609
 1267SOL     OW 4104   7.915   6.574   4.884
 1267SOL    HW1 4105   7.861   6.647   4.913
 1267SOL    HW2 4106   8.004   6.610   4.879
 1268SOL     OW 4107   1.422   5.696   1.332
 1268SOL    HW1 4108   1.453   5.671   1.245
 1268SOL    HW2 4109   1.369   5.622   1.361
 1269SOL     OW 4110   2.953   1.181   1.110
 1269SOL    HW1 4111   2.991   1.267   1.128
 1269SOL    HW2 4112   2.985   1.125   1.181
 1270SOL     OW 4113   3.052   1.002   5.539
 1270SOL    HW1 4114   3.026   1.063   5.470
 1270SOL    HW2 4115   3.086   1.058   5.609
 1271SOL     OW 4116   2.004   6.835   5.307
 1271SOL    HW1 4117   1.998   6.838   5.211
 1271SOL    HW2 4118   2.015   6.926   5.333
 1272SOL     OW 4119   3.911   2.710   2.330
 1272SOL    HW1 4120   3.906   2.776   2.261
 1272SOL    HW2 4121   3.842   2.735   2.392
 1273SOL     OW 4122   5.739   3.419   0.064
 1273SOL    HW1 4123   5.730   3.471   0.144
 1273SOL    HW2 4124   1.621   7.598   5.812
 1274SOL     OW 4125   4.556   5.683   0.608
 1274SOL    HW1 4126   4.625   5.616   0.603
 1274SOL    HW2 4127   4.589   5.747   0.670
 1275SOL     OW 4128   0.183   4.180   2.135
 1275SOL    HW1 4129   0.185   4.171   2.230
 1275SOL    HW2 4130   0.258   4.129   2.104
 1276SOL     OW 4131   3.881   3.570   5.140
 1276SOL    HW1 4132   3.876   3.534   5.052
 1276SOL    HW2 4133   3.791   3.566   5.173
 1277SOL     OW 4134   5.622   0.092   3.966
 1277SOL    HW1 4135   5.661   0.074   4.051
 1277SOL    HW2 4136   5.554   0.156   3.984
 1278SOL     OW 4137   2.156   4.296   1.095
 1278SOL    HW1 4138   2.124   4.294   1.185
 1278SOL    HW2 4139   2.188   4.385   1.082
 1279SOL     OW 4140   5.629   4.002   1.638
 1279SOL    HW1 4141   5.611   3.911   1.662
 1279SOL    HW2 4142   5.678   3.996   1.556
 1280SOL     OW 4143   5.924   2.950   1.419
 1280SOL    HW1 4144   5.979   2.990   1.352
 1280SOL    HW2 4145   5.849   2.915   1.371
 1281SOL     OW 4146   7.474   0.459   0.640
 1281SOL    HW1 4147   7.469   0.462   0.544
 1281SOL    HW2 4148   7.526   0.380   0.658
 1282SOL     OW 4149   1.959   4.891   4.281
 1282SOL    HW1 4150   1.923   4.942   4.353
 1282SOL    HW2 4151   2.048   4.870   4.309
 1283SOL     OW 4152   0.653   6.935   5.610
 1283SOL    HW1 4153   0.598   6.935   5.689
 1283SOL    HW2 4154   0.726   6.992   5.632
 1284SOL     OW 4155   4.458   4.390   0.044
 1284SOL    HW1 4156   4.417   4.304   0.036
 1284SOL    HW2 4157   4.388   4.447   0.077
 1285SOL     OW 4158   4.415   5.474   2.890
 1285SOL    HW1 4159   4.504   5.503   2.908
 1285SOL    HW2 4160   4.370   5.552   2.859
 1286SOL     OW 4161   7.890   5.794   1.701
 1286SOL    HW1 4162   7.867   5.861   1.637
 1286SOL    HW2 4163   7.891   5.840   1.785
 1287SOL     OW 4164   5.676   6.615   4.634
 1287SOL    HW1 4165   5.729   6.669   4.692
 1287SOL    HW2 4166   5.608   6.578   4.690
 1288SOL     OW 4167   5.362   7.630   3.708
 1288SOL    HW1 4168   5.430   7.696   3.723
 1288SOL    HW2 4169   5.408   7.546   3.714
 1289SOL     OW 4170   0.328   5.099   2.016
 1289SOL    HW1 4171   0.360   5.145   2.094
 1289SOL    HW2 4172   0.262   5.039   2.050
 1290SOL     OW 4173   6.646   0.396   1.474
 1290SOL    HW1 4174   6.663   0.489   1.457
 1290SOL    HW2 4175   6.683   0.351   1.398
 1291SOL     OW 4176   7.253   2.531   2.204
 1291SOL    HW1 4177   7.237   2.570   2.290
 1291SOL    HW2 4178   7.253   2.437   2.220
 1292SOL     OW 4179   5.730   7.087   4.931
 1292SOL    HW1 4180   5.752   7.169   4.888
 1292SOL    HW2 4181   5.808   7.064   4.982
 1293SOL     OW 4182   6.720   4.589   4.393
 1293SOL    HW1 4183   6.635   4.619   4.361
 1293SOL    HW2 4184   6.772   4.669   4.401
 1294SOL     OW 4185   2.196   2.460   5.376
 1294SOL    HW1 4186   2.205   2.457   5.281
 1294SOL    HW2 4187   2.223   2.373   5.406
 1295SOL     OW 4188   4.593   0.069   3.228
 1295SOL    HW1 4189   4.643   0.132   3.280
 1295SOL    HW2 4190   4.563   0.004   3.292
 1296SOL     OW 4191   4.874   4.338   5.136
 1296SOL    HW1 4192   4.828   4.258   5.112
 1296SOL    HW2 4193   4.944   4.309   5.194
 1297SOL     OW 4194   0.859   1.656   3.194
 1297SOL    HW1 4195   0.903   1.700   3.121
 1297SOL    HW2 4196   0.859   1.563   3.170
 1298SOL     OW 4197   3.754   1.320   3.701
 1298SOL    HW1 4198   3.741   1.363   3.785
 1298SOL    HW2 4199   3.847   1.333   3.681
 1299SOL     OW 4200   3.719   1.585   1.604
 1299SOL    HW1 4201   3.751   1.513   1.550
 1299SOL    HW2 4202   3.712   1.659   1.543
 1300SOL     OW 4203   4.763   7.746   0.707
 1300SOL    HW1 4204   4.747   7.668   0.654
 1300SOL    HW2 4205   4.812   7.713   0.783
 1301SOL     OW 4206   1.621   6.994   0.783
 1301SOL    HW1 4207   1.575   7.014   0.701
 1301SOL    HW2 4208   1.557   6.944   0.834
 1302SOL     OW 4209   4.616   0.638   4.673
 1302SOL    HW1 4210   4.687   0.696   4.647
 1302SOL    HW2 4211   4.658   0.552   4.684
 1303SOL     OW 4212   4.547   1.558   3.297
 1303SOL    HW1 4213   4.555   1.629   3.361
 1303SOL    HW2 4214   4.575   1.597   3.214
 1304SOL     OW 4215   1.114   0.967   2.287
 1304SOL    HW1 4216   1.037   0.933   2.241
 1304SOL    HW2 4217   1.150   1.033   2.227
 1305SOL     OW 4218   2.599   5.915   2.821
 1305SOL    HW1 4219   2.623   5.825   2.798
 1305SOL    HW2 4220   2.620   5.923   2.914
 1306SOL     OW 4221   7.247   7.661   5.183
 1306SOL    HW1 4222   7.241   7.717   5.260
 1306SOL    HW2 4223   7.159   7.664   5.145
 1307SOL     OW 4224   6.099   6.888   3.898
 1307SOL    HW1 4225   6.085   6.980   3.922
 1307SOL    HW2 4226   6.144   6.850   3.973
 1308SOL     OW 4227   8.150   3.655   5.169
 1308SOL    HW1 4228   8.221   3.660   5.105
 1308SOL    HW2 4229   8.193   3.633   5.251
 1309SOL     OW 4230   2.321   5.491   3.093
 1309SOL    HW1 4231   2.298   5.421   3.154
 1309SOL    HW2 4232   2.366   5.556   3.147
 1310SOL     OW 4233   7.680   2.843   0.450
 1310SOL    HW1 4234   7.639   2.918   0.494
 1310SOL    HW2 4235   7.765   2.876   0.420
 1311SOL     OW 4236   1.747   1.504   0.986
 1311SOL    HW1 4237   1.690   1.461   1.049
 1311SOL    HW2 4238   1.695   1.577   0.952
 1312SOL     OW 4239   4.636   1.792   3.117
 1312SOL    HW1 4240   4.547   1.827   3.110
 1312SOL    HW2 4241   4.674   1.805   3.030
 1313SOL     OW 4242   3.611   6.892   1.560
 1313SOL    HW1 4243   3.533   6.938   1.590
 1313SOL    HW2 4244   3.681   6.957   1.567
 1314SOL     OW 4245   3.782   1.702   2.303
 1314SOL    HW1 4246   3.825   1.637   2.247
 1314SOL    HW2 4247   3.750   1.769   2.242
 1315SOL     OW 4248   3.779   0.217   2.534
 1315SOL    HW1 4249   3.771   0.177   2.447
 1315SOL    HW2 4250   3.859   0.269   2.530
 1316SOL     OW 4251   0.379   3.367   1.220
 1316SOL    HW1 4252   0.303   3.312   1.202
 1316SOL    HW2 4253   0.454   3.310   1.202
 1317SOL     OW 4254   1.261   0.330   4.183
 1317SOL    HW1 4255   1.330   0.389   4.213
 1317SOL    HW2 4256   1.236   0.281   4.261
 1318SOL     OW 4257   7.389   7.583   4.948
 1318SOL    HW1 4258   7.338   7.609   5.025
 1318SOL    HW2 4259   7.371   7.489   4.938
 1319SOL     OW 4260   0.967   3.637   5.254
 1319SOL    HW1 4261   1.021   3.565   5.223
 1319SOL    HW2 4262   1.021   3.715   5.241
 1320SOL     OW 4263   1.990   4.012   2.739
 1320SOL    HW1 4264   2.080   4.031   2.714
 1320SOL    HW2 4265   1.940   4.088   2.709
 1321SOL     OW 4266   4.780   0.247   2.748
 1321SOL    HW1 4267   4.701   0.301   2.750
 1321SOL    HW2 4268   4.813   0.249   2.838
 1322SOL     OW 4269   1.122   6.361   4.333
 1322SOL    HW1 4270   1.216   6.353   4.318
 1322SOL    HW2 4271   1.090   6.271   4.333
 1323SOL     OW 4272   2.867   7.054   2.984
 1323SOL    HW1 4273   2.904   6.999   3.053
 1323SOL    HW2 4274   2.835   7.132   3.029
 1324SOL     OW 4275   6.213   0.283   3.564
 1324SOL    HW1 4276   6.145   0.267   3.498
 1324SOL    HW2 4277   6.219   0.201   3.613
 1325SOL     OW 4278   7.530   5.130   3.581
 1325SOL    HW1 4279   7.505   5.061   3.643
 1325SOL    HW2 4280   7.615   5.102   3.548
 1326SOL     OW 4281   7.615   2.105   1.222
 1326SOL    HW1 4282   7.703   2.068   1.215
 1326SOL    HW2 4283   7.629   2.200   1.219
 1327SOL     OW 4284   6.929   5.561   4.138
 1327SOL    HW1 4285   6.929   5.478   4.185
 1327SOL    HW2 4286   6.986   5.547   4.063
 1328SOL     OW 4287   0.652   6.334   4.936
 1328SOL    HW1 4288   0.733   6.338   4.885
 1328SOL    HW2 4289   0.679   6.299   5.021
 1329SOL     OW 4290   1.237   2.446   4.824
 1329SOL    HW1 4291   1.151   2.432   4.864
 1329SOL    HW2 4292   1.232   2.402   4.739
 1330SOL     OW 4293   4.136   1.198   3.908
 1330SOL    HW1 4294   4.106   1.231   3.823
 1330SOL    HW2 4295   4.056   1.187   3.960
 1331SOL     OW 4296   5.751   3.218   4.678
 1331SOL    HW1 4297   5.763   3.228   4.772
 1331SOL    HW2 4298   5.838   3.198   4.645
 1332SOL     OW 4299   3.526   6.684   4.958
 1332SOL    HW1 4300   3.486   6.656   4.876
 1332SOL    HW2 4301   3.620   6.668   4.946
 1333SOL     OW 4302   3.455   7.475   5.736
 1333SOL    HW1 4303   3.534   7.436   5.773
 1333SOL    HW2 4304   3.424   7.411   5.673
 1334SOL     OW 4305   5.705   3.083   3.490
 1334SOL    HW1 4306   5.733   3.030   3.415
 1334SOL    HW2 4307   5.625   3.041   3.521
 1335SOL     OW 4308   0.782   7.349   4.531
 1335SOL    HW1 4309   0.824   7.372   4.614
 1335SOL    HW2 4310   0.725   7.275   4.552
 1336SOL     OW 4311   0.161   7.296   2.071
 1336SOL    HW1 4312   0.074   7.327   2.097
 1336SOL    HW2 4313   0.143   7.220   2.015
 1337SOL     OW 4314   4.530   8.010   0.999
 1337SOL    HW1 4315   4.475   8.025   0.922
 1337SOL    HW2 4316   4.485   7.941   1.048
 1338SOL     OW 4317   1.662   0.749   2.665
 1338SOL    HW1 4318   1.597   0.815   2.638
 1338SOL    HW2 4319   1.661   0.752   2.761
 1339SOL     OW 4320   3.637   1.963   4.935
 1339SOL    HW1 4321   3.638   2.044   4.884
 1339SOL    HW2 4322   3.587   1.901   4.882
 1340SOL     OW 4323   3.959   2.938   0.048
 1340SOL    HW1 4324   8.122   7.025   5.789
 1340SOL    HW2 4325   3.927   3.026   0.027
 1341SOL     OW 4326   5.452   5.562   2.870
 1341SOL    HW1 4327   5.542   5.554   2.901
 1341SOL    HW2 4328   5.401   5.506   2.928
 1342SOL     OW 4329   2.991   0.260   3.451
 1342SOL    HW1 4330   3.018   0.297   3.367
 1342SOL    HW2 4331   2.942   0.330   3.494
 1343SOL     OW 4332   0.648   3.847   3.427
 1343SOL    HW1 4333   0.638   3.766   3.477
 1343SOL    HW2 4334   0.615   3.916   3.485
 1344SOL     OW 4335   2.662   3.285   1.800
 1344SOL    HW1 4336   2.623   3.322   1.879
 1344SOL    HW2 4337   2.598   3.302   1.731
 1345SOL     OW 4338   7.774   8.217   2.685
 1345SOL    HW1 4339   7.843   0.052   2.704
 1345SOL    HW2 4340   7.822   8.136   2.666
 1346SOL     OW 4341   2.280   0.766   4.582
 1346SOL    HW1 4342   2.287   0.699   4.650
 1346SOL    HW2 4343   2.296   0.849   4.628
 1347SOL     OW 4344   7.875   1.100   5.535
 1347SOL    HW1 4345   7.835   1.185   5.517
 1347SOL    HW2 4346   7.862   1.050   5.454
 1348SOL     OW 4347   5.202   5.471   3.801
 1348SOL    HW1 4348   5.191   5.422   3.882
 1348SOL    HW2 4349   5.123   5.453   3.751
 1349SOL     OW 4350   2.571   7.243   0.732
 1349SOL    HW1 4351   2.540   7.173   0.675
 1349SOL    HW2 4352   2.664   7.223   0.746
 1350SOL     OW 4353   3.317   4.230   4.312
 1350SOL    HW1 4354   3.381   4.301   4.318
 1350SOL    HW2 4355   3.261   4.254   4.238
 1351SOL     OW 4356   7.588   0.165   0.544
 1351SOL    HW1 4357   7.629   0.224   0.481
 1351SOL    HW2 4358   7.630   0.186   0.627
 1352SOL     OW 4359   4.296   6.019   1.849
 1352SOL    HW1 4360   4.334   6.078   1.784
 1352SOL    HW2 4361   4.305   5.932   1.811
 1353SOL     OW 4362   4.260   3.300   4.673
 1353SOL    HW1 4363   4.304   3.217   4.691
 1353SOL    HW2 4364   4.329   3.357   4.639
 1354SOL     OW 4365   6.818   6.609   0.409
 1354SOL    HW1 4366   6.750   6.666   0.373
 1354SOL    HW2 4367   6.779   6.522   0.410
 1355SOL     OW 4368   7.800   0.388   1.090
 1355SOL    HW1 4369   7.888   0.374   1.054
 1355SOL    HW2 4370   7.799   0.480   1.116
 1356SOL     OW 4371   1.814   3.291   2.732
 1356SOL    HW1 4372   1.845   3.351   2.800
 1356SOL    HW2 4373   1.819   3.341   2.651
 1357SOL     OW 4374   4.789   6.367   3.859
 1357SOL    HW1 4375   4.878   6.373   3.894
 1357SOL    HW2 4376   4.775   6.450   3.814
 1358SOL     OW 4377   6.786   8.157   1.896
 1358SOL    HW1 4378   6.859   8.217   1.880
 1358SOL    HW2 4379   6.710   8.202   1.860
 1359SOL     OW 4380   5.324   4.401   4.642
 1359SOL    HW1 4381   5.419   4.407   4.635
 1359SOL    HW2 4382   5.291   4.449   4.566
 1360SOL     OW 4383   7.093   0.297   2.969
 1360SOL    HW1 4384   7.165   0.283   2.908
 1360SOL    HW2 4385   7.124   0.259   3.051
 1361SOL     OW 4386   1.266   5.478   5.013
 1361SOL    HW1 4387   1.260   5.469   5.108
 1361SOL    HW2 4388   1.262   5.572   4.998
 1362SOL     OW 4389   2.294   7.161   2.629
 1362SOL    HW1 4390   2.389   7.172   2.633
 1362SOL    HW2 4391   2.281   7.084   2.574
 1363SOL     OW 4392   6.031   4.893   2.349
 1363SOL    HW1 4393   6.103   4.936   2.303
 1363SOL    HW2 4394   6.070   4.863   2.431
 1364SOL     OW 4395   3.947   0.911   3.851
 1364SOL    HW1 4396   3.868   0.952   3.816
 1364SOL    HW2 4397   3.915   0.839   3.906
 1365SOL     OW 4398   7.087   1.234   5.428
 1365SOL    HW1 4399   7.040   1.315   5.409
 1365SOL    HW2 4400   7.028   1.184   5.484
 1366SOL     OW 4401   7.467   6.812   3.257
 1366SOL    HW1 4402   7.522   6.844   3.329
 1366SOL    HW2 4403   7.467   6.884   3.193
 1367SOL     OW 4404   1.003   5.499   4.992
 1367SOL    HW1 4405   0.984   5.463   5.078
 1367SOL    HW2 4406   1.088   5.462   4.969
 1368SOL     OW 4407   4.657   4.380   5.525
 1368SOL    HW1 4408   4.572   4.336   5.535
 1368SOL    HW2 4409   4.670   4.385   5.430
 1369SOL     OW 4410   8.083   5.137   3.822
 1369SOL    HW1 4411   8.158   5.099   3.868
 1369SOL    HW2 4412   8.039   5.191   3.888
 1370SOL     OW 4413   0.639   1.263   3.815
 1370SOL    HW1 4414   0.558   1.212   3.811
 1370SOL    HW2 4415   0.626   1.323   3.888
 1371SOL     OW 4416   0.860   6.483   4.800
 1371SOL    HW1 4417   0.843   6.427   4.724
 1371SOL    HW2 4418   0.935   6.536   4.774
 1372SOL     OW 4419   7.037   1.704   4.615
 1372SOL    HW1 4420   7.002   1.750   4.539
 1372SOL    HW2 4421   7.083   1.628   4.578
 1373SOL     OW 4422   1.270   3.289   1.764
 1373SOL    HW1 4423   1.197   3.231   1.787
 1373SOL    HW2 4424   1.339   3.267   1.826
 1374SOL     OW 4425   5.516   7.052   2.803
 1374SOL    HW1 4426   5.520   6.957   2.809
 1374SOL    HW2 4427   5.575   7.074   2.731
 1375SOL     OW 4428   3.354   0.955   1.128
 1375SOL    HW1 4429   3.439   0.959   1.084
 1375SOL    HW2 4430   3.368   1.000   1.211
 1376SOL     OW 4431   4.237   7.075   0.771
 1376SOL    HW1 4432   4.277   7.161   0.756
 1376SOL    HW2 4433   4.188   7.058   0.691
 1377SOL     OW 4434   7.071   1.406   4.195
 1377SOL    HW1 4435   7.034   1.378   4.111
 1377SOL    HW2 4436   7.139   1.469   4.172
 1378SOL     OW 4437   2.305   6.657   3.647
 1378SOL    HW1 4438   2.279   6.565   3.655
 1378SOL    HW2 4439   2.364   6.672   3.721
 1379SOL     OW 4440   6.191   1.629   3.523
 1379SOL    HW1 4441   6.151   1.545   3.547
 1379SOL    HW2 4442   6.117   1.689   3.514
 1380SOL     OW 4443   2.829   0.876   4.342
 1380SOL    HW1 4444   2.750   0.832   4.372
 1380SOL    HW2 4445   2.817   0.967   4.369
 1381SOL     OW 4446   2.228   0.680   0.551
 1381SOL    HW1 4447   2.285   0.731   0.608
 1381SOL    HW2 4448   2.284   0.654   0.478
 1382SOL     OW 4449   0.606   0.757   0.401
 1382SOL    HW1 4450   0.698   0.750   0.425
 1382SOL    HW2 4451   0.561   0.773   0.484
 1383SOL     OW 4452   0.416   1.212   4.406
 1383SOL    HW1 4453   0.434   1.129   4.451
 1383SOL    HW2 4454   0.326   1.234   4.430
 1384SOL     OW 4455   8.012   2.934   3.405
 1384SOL    HW1 4456   8.045   2.999   3.467
 1384SOL    HW2 4457   8.079   2.929   3.337
 1385SOL     OW 4458   2.315   7.629   1.409
 1385SOL    HW1 4459   2.280   7.694   1.469
 1385SOL    HW2 4460   2.354   7.680   1.338
 1386SOL     OW 4461   0.472   3.390   3.665
 1386SOL    HW1 4462   0.463   3.297   3.645
 1386SOL    HW2 4463   0.499   3.392   3.757
 1387SOL     OW 4464   5.531   2.801   4.822
 1387SOL    HW1 4465   5.439   2.786   4.800
 1387SOL    HW2 4466   5.580   2.754   4.755
 1388SOL     OW 4467   6.858   6.994   2.864
 1388SOL    HW1 4468   6.779   7.047   2.856
 1388SOL    HW2 4469   6.913   7.020   2.790
 1389SOL     OW 4470   6.749   1.103   3.196
 1389SOL    HW1 4471   6.793   1.171   3.145
 1389SOL    HW2 4472   6.815   1.073   3.259
 1390SOL     OW 4473   0.869   3.577   0.625
 1390SOL    HW1 4474   0.951   3.605   0.666
 1390SOL    HW2 4475   0.882   3.592   0.531
 1391SOL     OW 4476   3.060   2.948   0.793
 1391SOL    HW1 4477   3.046   2.879   0.728
 1391SOL    HW2 4478   3.141   2.923   0.837
 1392SOL     OW 4479   2.166   0.759   5.249
 1392SOL    HW1 4480   2.147   0.846   5.214
 1392SOL    HW2 4481   2.089   0.737   5.301
 1393SOL     OW 4482   1.952   1.953   3.893
 1393SOL    HW1 4483   2.030   2.002   3.917
 1393SOL    HW2 4484   1.981   1.862   3.889
 1394SOL     OW 4485   0.574   7.263   1.892
 1394SOL    HW1 4486   0.636   7.325   1.855
 1394SOL    HW2 4487   0.528   7.312   1.960
 1395SOL     OW 4488   8.228   3.614   0.155
 1395SOL    HW1 4489   8.136   3.627   0.178
 1395SOL    HW2 4490   0.040   3.698   0.173
 1396SOL     OW 4491   1.146   6.560   5.763
 1396SOL    HW1 4492   1.053   6.541   5.775
 1396SOL    HW2 4493   1.174   6.501   5.693
 1397SOL     OW 4494   1.422   7.246   4.414
 1397SOL    HW1 4495   1.503   7.203   4.442
 1397SOL    HW2 4496   1.352   7.187   4.443
 1398SOL     OW 4497   7.857   6.739   2.627
 1398SOL    HW1 4498   7.855   6.670   2.561
 1398SOL    HW2 4499   7.900   6.699   2.703
 1399SOL     OW 4500   4.334   8.183   0.502
 1399SOL    HW1 4501   4.376   8.219   0.580
 1399SOL    HW2 4502   4.242   8.209   0.510
 1400SOL     OW 4503   0.003   4.641   4.414
 1400SOL    HW1 4504   8.214   4.723   4.459
 1400SOL    HW2 4505   0.078   4.661   4.358
 1401SOL     OW 4506   5.777   2.367   2.781
 1401SOL    HW1 4507   5.872   2.361   2.789
 1401SOL    HW2 4508   5.748   2.411   2.861
 1402SOL     OW 4509   6.767   5.496   2.171
 1402SOL    HW1 4510   6.861   5.480   2.164
 1402SOL    HW2 4511   6.751   5.571   2.113
 1403SOL     OW 4512   2.358   1.928   4.495
 1403SOL    HW1 4513   2.340   2.008   4.446
 1403SOL    HW2 4514   2.376   1.862   4.428
 1404SOL     OW 4515   2.577   2.344   0.404
 1404SOL    HW1 4516   2.545   2.434   0.401
 1404SOL    HW2 4517   2.665   2.349   0.366
 1405SOL     OW 4518   0.020   4.612   1.004
 1405SOL    HW1 4519   0.042   4.665   1.081
 1405SOL    HW2 4520   8.209   4.533   1.041
 1406SOL     OW 4521   4.795   4.932   3.831
 1406SOL    HW1 4522   4.754   4.991   3.768
 1406SOL    HW2 4523   4.732   4.926   3.903
 1407SOL     OW 4524   2.036   0.350   4.835
 1407SOL    HW1 4525   1.952   0.321   4.870
 1407SOL    HW2 4526   2.044   0.441   4.865
 1408SOL     OW 4527   5.742   4.804   2.277
 1408SOL    HW1 4528   5.831   4.818   2.309
 1408SOL    HW2 4529   5.748   4.818   2.182
 1409SOL     OW 4530   2.503   4.522   4.713
 1409SOL    HW1 4531   2.540   4.434   4.704
 1409SOL    HW2 4532   2.442   4.515   4.786
 1410SOL     OW 4533   0.069   0.143   0.842
 1410SOL    HW1 4534   0.059   0.107   0.754
 1410SOL    HW2 4535   8.210   0.167   0.868
 1411SOL     OW 4536   0.913   2.412   3.571
 1411SOL    HW1 4537   0.931   2.411   3.477
 1411SOL    HW2 4538   0.999   2.411   3.613
 1412SOL     OW 4539   6.963   4.314   1.813
 1412SOL    HW1 4540   7.055   4.303   1.790
 1412SOL    HW2 4541   6.958   4.291   1.906
 1413SOL     OW 4542   0.405   0.714   0.228
 1413SOL    HW1 4543   0.457   0.739   0.304
 1413SOL    HW2 4544   0.398   0.795   0.177
 1414SOL     OW 4545   0.098   0.635   5.667
 1414SOL    HW1 4546   0.110   0.701   5.599
 1414SOL    HW2 4547   0.044   0.678   5.733
 1415SOL     OW 4548   2.210   8.002   5.375
 1415SOL    HW1 4549   2.209   7.915   5.335
 1415SOL    HW2 4550   2.222   7.985   5.469
 1416SOL     OW 4551   1.661   4.037   4.394
 1416SOL    HW1 4552   1.642   3.946   4.372
 1416SOL    HW2 4553   1.756   4.038   4.409
 1417SOL     OW 4554   2.594   6.497   4.888
 1417SOL    HW1 4555   2.528   6.428   4.886
 1417SOL    HW2 4556   2.597   6.525   4.980
 1418SOL     OW 4557   0.079   3.766   1.105
 1418SOL    HW1 4558   0.116   3.831   1.044
 1418SOL    HW2 4559   8.214   3.783   1.104
 1419SOL     OW 4560   3.700   2.000   2.441
 1419SOL    HW1 4561   3.764   1.934   2.469
 1419SOL    HW2 4562   3.641   1.953   2.382
 1420SOL     OW 4563   2.827   5.658   2.235
 1420SOL    HW1 4564   2.775   5.595   2.285
 1420SOL    HW2 4565   2.797   5.648   2.145
 1421SOL     OW 4566   8.139   0.133   2.196
 1421SOL    HW1 4567   8.208   0.070   2.216
 1421SOL    HW2 4568   8.163   0.211   2.246
 1422SOL     OW 4569   1.883   0.824   1.932
 1422SOL    HW1 4570   1.794   0.804   1.960
 1422SOL    HW2 4571   1.893   0.777   1.849
 1423SOL     OW 4572   1.258   4.897   5.377
 1423SOL    HW1 4573   1.330   4.915   5.437
 1423SOL    HW2 4574   1.193   4.965   5.396
 1424SOL     OW 4575   0.239   6.557   5.274
 1424SOL    HW1 4576   0.149   6.548   5.244
 1424SOL    HW2 4577   0.292   6.539   5.197
 1425SOL     OW 4578   5.007   1.655   2.843
 1425SOL    HW1 4579   5.014   1.682   2.752
 1425SOL    HW2 4580   4.972   1.566   2.839
 1426SOL     OW 4581   1.753   4.499   3.455
 1426SOL    HW1 4582   1.776   4.588   3.430
 1426SOL    HW2 4583   1.695   4.510   3.531
 1427SOL     OW 4584   3.427   1.970   3.857
 1427SOL    HW1 4585   3.461   2.057   3.836
 1427SOL    HW2 4586   3.375   1.946   3.780
 1428SOL     OW 4587   0.919   0.226   0.171
 1428SOL    HW1 4588   0.999   0.238   0.222
 1428SOL    HW2 4589   0.946   0.241   0.080
 1429SOL     OW 4590   4.315   3.203   1.430
 1429SOL    HW1 4591   4.343   3.128   1.483
 1429SOL    HW2 4592   4.365   3.194   1.349
 1430SOL     OW 4593   4.616   0.470   3.312
 1430SOL    HW1 4594   4.594   0.442   3.401
 1430SOL    HW2 4595   4.695   0.421   3.290
 1431SOL     OW 4596   3.569   3.261   4.140
 1431SOL    HW1 4597   3.563   3.301   4.053
 1431SOL    HW2 4598   3.556   3.334   4.201
 1432SOL     OW 4599   6.495   3.662   3.138
 1432SOL    HW1 4600   6.418   3.698   3.093
 1432SOL    HW2 4601   6.548   3.623   3.068
 1433SOL     OW 4602   3.414   2.773   4.096
 1433SOL    HW1 4603   3.395   2.858   4.137
 1433SOL    HW2 4604   3.444   2.795   4.008
 1434SOL     OW 4605   5.900   7.428   4.133
 1434SOL    HW1 4606   5.986   7.443   4.173
 1434SOL    HW2 4607   5.840   7.419   4.207
 1435SOL     OW 4608   2.336   4.034   1.338
 1435SOL    HW1 4609   2.329   3.939   1.324
 1435SOL    HW2 4610   2.345   4.044   1.433
 1436SOL     OW 4611   2.736   1.228   4.357
 1436SOL    HW1 4612   2.802   1.221   4.288
 1436SOL    HW2 4613   2.701   1.317   4.348
 1437SOL     OW 4614   7.998   6.687   0.456
 1437SOL    HW1 4615   8.017   6.765   0.508
 1437SOL    HW2 4616   7.928   6.642   0.504
 1438SOL     OW 4617   2.567   3.484   4.580
 1438SOL    HW1 4618   2.514   3.561   4.601
 1438SOL    HW2 4619   2.603   3.503   4.493
 1439SOL     OW 4620   4.412   6.919   0.914
 1439SOL    HW1 4621   4.346   6.975   0.874
 1439SOL    HW2 4622   4.494   6.968   0.904
 1440SOL     OW 4623   3.499   1.669   4.294
 1440SOL    HW1 4624   3.517   1.760   4.318
 1440SOL    HW2 4625   3.405   1.668   4.276
 1441SOL     OW 4626   1.089   4.892   0.427
 1441SOL    HW1 4627   1.151   4.964   0.440
 1441SOL    HW2 4628   1.007   4.925   0.464
 1442SOL     OW 4629   4.366   0.626   4.346
 1442SOL    HW1 4630   4.391   0.718   4.334
 1442SOL    HW2 4631   4.449   0.578   4.349
 1443SOL     OW 4632   0.213   2.711   4.994
 1443SOL    HW1 4633   0.308   2.701   4.987
 1443SOL    HW2 4634   0.195   2.707   5.088
 1444SOL     OW 4635   0.748   0.721   3.186
 1444SOL    HW1 4636   0.716   0.677   3.265
 1444SOL    HW2 4637   0.795   0.653   3.138
 1445SOL     OW 4638   5.497   2.174   0.853
 1445SOL    HW1 4639   5.415   2.219   0.835
 1445SOL    HW2 4640   5.538   2.226   0.922
 1446SOL     OW 4641   2.595   4.824   4.250
 1446SOL    HW1 4642   2.577   4.803   4.342
 1446SOL    HW2 4643   2.510   4.820   4.207
 1447SOL     OW 4644   8.023   6.238   0.837
 1447SOL    HW1 4645   7.997   6.156   0.795
 1447SOL    HW2 4646   7.963   6.303   0.800
 1448SOL     OW 4647   8.131   1.998   0.414
 1448SOL    HW1 4648   8.130   1.992   0.510
 1448SOL    HW2 4649   8.217   1.964   0.388
 1449SOL     OW 4650   2.182   0.271   2.695
 1449SOL    HW1 4651   2.108   0.292   2.751
 1449SOL    HW2 4652   2.258   0.309   2.740
 1450SOL     OW 4653   5.089   4.451   0.419
 1450SOL    HW1 4654   5.119   4.505   0.345
 1450SOL    HW2 4655   4.994   4.454   0.414
 1451SOL     OW 4656   3.803   6.312   4.979
 1451SOL    HW1 4657   3.724   6.299   5.031
 1451SOL    HW2 4658   3.862   6.362   5.036
 1452SOL     OW 4659   2.612   3.753   5.752
 1452SOL    HW1 4660   2.645   3.669   5.783
 1452SOL    HW2 4661   2.563   3.732   5.673
 1453SOL     OW 4662   4.762   4.826   2.877
 1453SOL    HW1 4663   4.673   4.856   2.861
 1453SOL    HW2 4664   4.765   4.809   2.971
 1454SOL     OW 4665   3.910   0.363   0.533
 1454SOL    HW1 4666   3.857   0.390   0.608
 1454SOL    HW2 4667   3.944   0.445   0.498
 1455SOL     OW 4668   8.157   4.946   4.900
 1455SOL    HW1 4669   8.083   4.921   4.956
 1455SOL    HW2 4670   8.179   4.866   4.852
 1456SOL     OW 4671   7.260   4.967   2.545
 1456SOL    HW1 4672   7.319   4.935   2.613
 1456SOL    HW2 4673   7.225   4.888   2.504
 1457SOL     OW 4674   1.976   4.023   0.239
 1457SOL    HW1 4675   1.973   4.000   0.146
 1457SOL    HW2 4676   1.997   4.116   0.239
 1458SOL     OW 4677   5.986   0.414   5.089
 1458SOL    HW1 4678   5.929   0.390   5.162
 1458SOL    HW2 4679   6.075   0.400   5.121
 1459SOL     OW 4680   6.729   0.116   1.167
 1459SOL    HW1 4681   6.655   0.129   1.107
 1459SOL    HW2 4682   6.743   0.021   1.167
 1460SOL     OW 4683   3.212   0.413   4.724
 1460SOL    HW1 4684   3.133   0.461   4.747
 1460SOL    HW2 4685   3.182   0.343   4.666
 1461SOL     OW 4686   3.692   7.299   4.098
 1461SOL    HW1 4687   3.607   7.332   4.126
 1461SOL    HW2 4688   3.672   7.222   4.045
 1462SOL     OW 4689   4.532   6.606   1.233
 1462SOL    HW1 4690   4.542   6.513   1.255
 1462SOL    HW2 4691   4.501   6.605   1.142
 1463SOL     OW 4692   2.957   7.514   3.754
 1463SOL    HW1 4693   3.028   7.570   3.786
 1463SOL    HW2 4694   2.883   7.574   3.742
 1464SOL     OW 4695   5.649   1.203   0.775
 1464SOL    HW1 4696   5.713   1.258   0.821
 1464SOL    HW2 4697   5.596   1.265   0.725
 1465SOL     OW 4698   1.477   1.395   4.591
 1465SOL    HW1 4699   1.547   1.460   4.583
 1465SOL    HW2 4700   1.482   1.345   4.509
 1466SOL     OW 4701   0.154   1.858   1.887
 1466SOL    HW1 4702   0.235   1.877   1.934
 1466SOL    HW2 4703   0.138   1.937   1.835
 1467SOL     OW 4704   0.280   1.455   2.716
 1467SOL    HW1 4705   0.275   1.411   2.801
 1467SOL    HW2 4706   0.198   1.433   2.673
 1468SOL     OW 4707   3.476   7.776   0.878
 1468SOL    HW1 4708   3.426   7.834   0.821
 1468SOL    HW2 4709   3.527   7.835   0.933
 1469SOL     OW 4710   0.254   0.704   1.955
 1469SOL    HW1 4711   0.163   0.694   1.928
 1469SOL    HW2 4712   0.254   0.782   2.010
 1470SOL     OW 4713   8.167   1.746   5.292
 1470SOL    HW1 4714   0.005   1.693   5.248
 1470SOL    HW2 4715   8.193   1.747   5.384
 1471SOL     OW 4716   6.973   5.337   5.085
 1471SOL    HW1 4717   7.031   5.371   5.153
 1471SOL    HW2 4718   7.015   5.256   5.056
 1472SOL     OW 4719   0.162   8.049   3.381
 1472SOL    HW1 4720   0.177   8.004   3.298
 1472SOL    HW2 4721   0.241   8.033   3.432
 1473SOL     OW 4722   1.272   4.952   0.884
 1473SOL    HW1 4723   1.322   4.891   0.938
 1473SOL    HW2 4724   1.338   5.001   0.836
 1474SOL     OW 4725   6.769   5.765   1.640
 1474SOL    HW1 4726   6.732   5.792   1.556
 1474SOL    HW2 4727   6.798   5.847   1.681
 1475SOL     OW 4728   2.069   1.716   1.831
 1475SOL    HW1 4729   2.154   1.723   1.788
 1475SOL    HW2 4730   2.006   1.738   1.763
 1476SOL     OW 4731   3.623   7.868   0.052
 1476SOL    HW1 4732   3.608   7.845   0.144
 1476SOL    HW2 4733   3.651   7.786   0.011
 1477SOL     OW 4734   5.933   1.741   3.245
 1477SOL    HW1 4735   5.841   1.717   3.230
 1477SOL    HW2 4736   5.946   1.729   3.339
 1478SOL     OW 4737   6.593   5.640   0.295
 1478SOL    HW1 4738   6.653   5.587   0.243
 1478SOL    HW2 4739   6.623   5.629   0.385
 1479SOL     OW 4740   7.771   5.395   1.644
 1479SOL    HW1 4741   7.855   5.442   1.641
 1479SOL    HW2 4742   7.795   5.303   1.636
 1480SOL     OW 4743   4.497   6.614   0.718
 1480SOL    HW1 4744   4.492   6.701   0.678
 1480SOL    HW2 4745   4.563   6.568   0.667
 1481SOL     OW 4746   2.086   0.100   4.988
 1481SOL    HW1 4747   2.026   0.163   5.028
 1481SOL    HW2 4748   2.131   0.059   5.062
 1482SOL     OW 4749   6.672   4.801   5.730
 1482SOL    HW1 4750   6.753   4.751   5.726
 1482SOL    HW2 4751   6.689   4.879   5.677
 1483SOL     OW 4752   0.178   6.251   1.709
 1483SOL    HW1 4753   0.271   6.261   1.689
 1483SOL    HW2 4754   0.134   6.312   1.651
 1484SOL     OW 4755   2.160   7.775   3.563
 1484SOL    HW1 4756   2.094   7.804   3.625
 1484SOL    HW2 4757   2.135   7.816   3.480
 1485SOL     OW 4758   3.411   1.858   2.013
 1485SOL    HW1 4759   3.492   1.828   2.054
 1485SOL    HW2 4760   3.413   1.822   1.925
 1486SOL     OW 4761   4.614   1.416   1.203
 1486SOL    HW1 4762   4.648   1.452   1.285
 1486SOL    HW2 4763   4.677   1.445   1.137
 1487SOL     OW 4764   3.409   0.839   0.050
 1487SOL    HW1 4765   7.508   4.942   5.775
 1487SOL    HW2 4766   3.347   0.779   0.092
 1488SOL     OW 4767   7.535   2.503   0.090
 1488SOL    HW1 4768   7.493   2.515   0.005
 1488SOL    HW2 4769   7.501   2.419   0.122
 1489SOL     OW 4770   5.415   6.789   4.740
 1489SOL    HW1 4771   5.443   6.880   4.744
 1489SOL    HW2 4772   5.474   6.743   4.799
 1490SOL     OW 4773   4.361   4.093   1.926
 1490SOL    HW1 4774   4.424   4.161   1.902
 1490SOL    HW2 4775   4.312   4.076   1.846
 1491SOL     OW 4776   4.526   5.872   1.691
 1491SOL    HW1 4777   4.551   5.782   1.671
 1491SOL    HW2 4778   4.585   5.898   1.762
 1492SOL     OW 4779   2.777   6.851   0.657
 1492SOL    HW1 4780   2.695   6.895   0.682
 1492SOL    HW2 4781   2.749   6.769   0.617
 1493SOL     OW 4782   8.164   6.980   5.613
 1493SOL    HW1 4783   8.087   7.018   5.571
 1493SOL    HW2 4784   0.005   6.991   5.550
 1494SOL     OW 4785   3.486   5.012   2.013
 1494SOL    HW1 4786   3.512   5.008   1.921
 1494SOL    HW2 4787   3.438   4.930   2.028
 1495SOL     OW 4788   1.232   6.889   3.414
 1495SOL    HW1 4789   1.244   6.871   3.507
 1495SOL    HW2 4790   1.298   6.835   3.371
 1496SOL     OW 4791   3.133   0.750   5.441
 1496SOL    HW1 4792   3.083   0.825   5.474
 1496SOL    HW2 4793   3.184   0.785   5.368
 1497SOL     OW 4794   2.442   4.862   0.825
 1497SOL    HW1 4795   2.466   4.950   0.853
 1497SOL    HW2 4796   2.524   4.812   0.828
 1498SOL     OW 4797   3.181   5.323   3.296
 1498SOL    HW1 4798   3.244   5.335   3.225
 1498SOL    HW2 4799   3.219   5.255   3.351
 1499SOL     OW 4800   6.380   3.178   0.379
 1499SOL    HW1 4801   6.444   3.236   0.420
 1499SOL    HW2 4802   6.409   3.090   0.402
 1500SOL     OW 4803   2.119   5.980   4.149
 1500SOL    HW1 4804   2.125   6.072   4.175
 1500SOL    HW2 4805   2.100   5.933   4.230
 1501SOL     OW 4806   6.101   0.109   0.453
 1501SOL    HW1 4807   6.078   0.168   0.525
 1501SOL    HW2 4808   6.195   0.094   0.463
 1502SOL     OW 4809   2.409   1.368   2.906
 1502SOL    HW1 4810   2.498   1.403   2.908
 1502SOL    HW2 4811   2.416   1.287   2.855
 1503SOL     OW 4812   3.338   6.580   5.646
 1503SOL    HW1 4813   3.256   6.531   5.636
 1503SOL    HW2 4814   3.391   6.555   5.570
 1504SOL     OW 4815   6.063   1.199   3.158
 1504SOL    HW1 4816   6.006   1.123   3.149
 1504SOL    HW2 4817   6.003   1.274   3.160
 1505SOL     OW 4818   6.882   0.392   4.319
 1505SOL    HW1 4819   6.898   0.484   4.338
 1505SOL    HW2 4820   6.789   0.379   4.335
 1506SOL     OW 4821   1.126   5.848   3.928
 1506SOL    HW1 4822   1.150   5.784   3.995
 1506SOL    HW2 4823   1.079   5.797   3.862
 1507SOL     OW 4824   4.078   0.460   0.174
 1507SOL    HW1 4825   4.095   0.536   0.118
 1507SOL    HW2 4826   4.094   0.491   0.263
 1508SOL     OW 4827   7.051   3.406   2.736
 1508SOL    HW1 4828   6.964   3.385   2.703
 1508SOL    HW2 4829   7.038   3.418   2.830
 1509SOL     OW 4830   4.748   7.981   3.290
 1509SOL    HW1 4831   4.741   7.941   3.377
 1509SOL    HW2 4832   4.778   8.070   3.307
 1510SOL     OW 4833   7.510   8.165   0.908
 1510SOL    HW1 4834   7.574   8.134   0.845
 1510SOL    HW2 4835   7.496   0.028   0.885
 1511SOL     OW 4836   0.578   0.078   0.465
 1511SOL    HW1 4837   0.666   0.056   0.434
 1511SOL    HW2 4838   0.560   0.164   0.426
 1512SOL     OW 4839   0.768   1.702   2.889
 1512SOL    HW1 4840   0.861   1.711   2.911
 1512SOL    HW2 4841   0.757   1.610   2.866
 1513SOL     OW 4842   5.639   7.920   4.590
 1513SOL    HW1 4843   5.685   7.846   4.629
 1513SOL    HW2 4844   5.705   7.962   4.534
 1514SOL     OW 4845   3.356   0.126   4.183
 1514SOL    HW1 4846   3.324   0.144   4.271
 1514SOL    HW2 4847   3.277   0.108   4.132
 1515SOL     OW 4848   3.687   5.961   0.738
 1515SOL    HW1 4849   3.662   6.010   0.817
 1515SOL    HW2 4850   3.736   5.886   0.771
 1516SOL     OW 4851   5.759   6.315   3.833
 1516SOL    HW1 4852   5.695   6.368   3.881
 1516SOL    HW2 4853   5.802   6.377   3.774
 1517SOL     OW 4854   5.923   4.822   2.038
 1517SOL    HW1 4855   5.938   4.772   2.118
 1517SOL    HW2 4856   5.940   4.760   1.967
 1518SOL     OW 4857   1.434   3.018   3.479
 1518SOL    HW1 4858   1.394   3.091   3.527
 1518SOL    HW2 4859   1.441   3.050   3.389
 1519SOL     OW 4860   4.723   0.209   5.383
 1519SOL    HW1 4861   4.818   0.210   5.370
 1519SOL    HW2 4862   4.706   0.283   5.442
 1520SOL     OW 4863   6.940   1.867   5.594
 1520SOL    HW1 4864   6.974   1.844   5.507
 1520SOL    HW2 4865   6.847   1.886   5.579
 1521SOL     OW 4866   7.116   7.096   1.747
 1521SOL    HW1 4867   7.112   7.081   1.653
 1521SOL    HW2 4868   7.196   7.147   1.760
 1522SOL     OW 4869   4.902   2.487   1.106
 1522SOL    HW1 4870   4.862   2.446   1.029
 1522SOL    HW2 4871   4.994   2.497   1.083
 1523SOL     OW 4872   2.880   4.999   3.588
 1523SOL    HW1 4873   2.947   4.955   3.535
 1523SOL    HW2 4874   2.856   5.076   3.537
 1524SOL     OW 4875   3.917   3.403   0.811
 1524SOL    HW1 4876   3.939   3.310   0.821
 1524SOL    HW2 4877   3.944   3.443   0.893
 1525SOL     OW 4878   4.564   6.385   1.393
 1525SOL    HW1 4879   4.547   6.296   1.362
 1525SOL    HW2 4880   4.644   6.378   1.444
 1526SOL     OW 4881   1.496   3.440   5.059
 1526SOL    HW1 4882   1.569   3.464   5.002
 1526SOL    HW2 4883   1.537   3.401   5.136
 1527SOL     OW 4884   2.658   5.661   3.844
 1527SOL    HW1 4885   2.714   5.672   3.768
 1527SOL    HW2 4886   2.592   5.598   3.816
 1528SOL     OW 4887   6.192   0.746   0.121
 1528SOL    HW1 4888   6.202   0.800   0.199
 1528SOL    HW2 4889   6.250   0.671   0.135
 1529SOL     OW 4890   4.676   1.329   3.379
 1529SOL    HW1 4891   4.731   1.342   3.302
 1529SOL    HW2 4892   4.623   1.408   3.384
 1530SOL     OW 4893   5.933   4.178   1.076
 1530SOL    HW1 4894   5.983   4.215   1.003
 1530SOL    HW2 4895   5.945   4.083   1.068
 1531SOL     OW 4896   3.854   2.451   4.653
 1531SOL    HW1 4897   3.813   2.507   4.587
 1531SOL    HW2 4898   3.797   2.457   4.729
 1532SOL     OW 4899   2.378   1.519   3.512
 1532SOL    HW1 4900   2.301   1.570   3.536
 1532SOL    HW2 4901   2.347   1.429   3.509
 1533SOL     OW 4902   4.147   3.488   4.058
 1533SOL    HW1 4903   4.208   3.438   4.004
 1533SOL    HW2 4904   4.160   3.453   4.146
 1534SOL     OW 4905   0.186   3.378   0.329
 1534SOL    HW1 4906   0.101   3.421   0.323
 1534SOL    HW2 4907   0.215   3.394   0.419
 1535SOL     OW 4908   7.528   2.095   0.826
 1535SOL    HW1 4909   7.503   2.161   0.891
 1535SOL    HW2 4910   7.449   2.082   0.773
 1536SOL     OW 4911   3.087   2.367   3.760
 1536SOL    HW1 4912   3.129   2.439   3.808
 1536SOL    HW2 4913   2.995   2.373   3.786
 1537SOL     OW 4914   4.288   5.668   5.654
 1537SOL    HW1 4915   4.224   5.662   5.725
 1537SOL    HW2 4916   4.333   5.584   5.654
 1538SOL     OW 4917   4.482   3.728   4.769
 1538SOL    HW1 4918   4.487   3.792   4.699
 1538SOL    HW2 4919   4.572   3.716   4.798
 1539SOL     OW 4920   3.961   3.011   2.189
 1539SOL    HW1 4921   3.894   3.076   2.166
 1539SOL    HW2 4922   4.043   3.050   2.158
 1540SOL     OW 4923   7.074   4.024   3.393
 1540SOL    HW1 4924   7.042   4.026   3.483
 1540SOL    HW2 4925   7.161   4.064   3.397
 1541SOL     OW 4926   3.790   4.031   3.877
 1541SOL    HW1 4927   3.854   3.992   3.936
 1541SOL    HW2 4928   3.831   4.111   3.846
 1542SOL     OW 4929   3.054   0.189   5.594
 1542SOL    HW1 4930   3.027   0.100   5.617
 1542SOL    HW2 4931   3.022   0.202   5.505
 1543SOL     OW 4932   2.800   5.080   1.608
 1543SOL    HW1 4933   2.734   5.140   1.642
 1543SOL    HW2 4934   2.861   5.136   1.560
 1544SOL     OW 4935   0.626   2.882   4.585
 1544SOL    HW1 4936   0.641   2.944   4.656
 1544SOL    HW2 4937   0.544   2.910   4.545
 1545SOL     OW 4938   6.065   6.969   2.768
 1545SOL    HW1 4939   6.049   7.052   2.813
 1545SOL    HW2 4940   6.160   6.966   2.756
 1546SOL     OW 4941   4.989   2.163   0.233
 1546SOL    HW1 4942   4.945   2.164   0.148
 1546SOL    HW2 4943   5.018   2.073   0.245
 1547SOL     OW 4944   7.394   6.631   4.737
 1547SOL    HW1 4945   7.357   6.713   4.703
 1547SOL    HW2 4946   7.489   6.646   4.739
 1548SOL     OW 4947   1.469   0.495   4.239
 1548SOL    HW1 4948   1.471   0.576   4.189
 1548SOL    HW2 4949   1.507   0.518   4.324
 1549SOL     OW 4950   2.912   3.008   3.493
 1549SOL    HW1 4951   2.834   2.956   3.476
 1549SOL    HW2 4952   2.981   2.965   3.443
 1550SOL     OW 4953   6.269   6.841   5.184
 1550SOL    HW1 4954   6.256   6.825   5.091
 1550SOL    HW2 4955   6.310   6.761   5.217
 1551SOL     OW 4956   8.108   5.412   0.578
 1551SOL    HW1 4957   8.081   5.444   0.492
 1551SOL    HW2 4958   8.050   5.457   0.639
 1552SOL     OW 4959   0.567   3.231   4.568
 1552SOL    HW1 4960   0.508   3.300   4.600
 1552SOL    HW2 4961   0.514   3.152   4.569
 1553SOL     OW 4962   2.770   1.366   4.729
 1553SOL    HW1 4963   2.850   1.316   4.743
 1553SOL    HW2 4964   2.795   1.434   4.666
 1554SOL     OW 4965   2.175   6.303   0.787
 1554SOL    HW1 4966   2.114   6.262   0.726
 1554SOL    HW2 4967   2.247   6.240   0.794
 1555SOL     OW 4968   8.051   5.231   2.653
 1555SOL    HW1 4969   7.993   5.260   2.723
 1555SOL    HW2 4970   8.115   5.302   2.644
 1556SOL     OW 4971   1.838   1.264   2.241
 1556SOL    HW1 4972   1.860   1.181   2.199
 1556SOL    HW2 4973   1.843   1.246   2.335
 1557SOL     OW 4974   6.315   2.733   2.241
 1557SOL    HW1 4975   6.237   2.711   2.293
 1557SOL    HW2 4976   6.288   2.806   2.186
 1558SOL     OW 4977   1.718   1.347   3.527
 1558SOL    HW1 4978   1.645   1.374   3.583
 1558SOL    HW2 4979   1.687   1.362   3.438
 1559SOL     OW 4980   4.558   6.348   4.235
 1559SOL    HW1 4981   4.599   6.264   4.217
 1559SOL    HW2 4982   4.618   6.392   4.295
 1560SOL     OW 4983   1.719   1.798   1.823
 1560SOL    HW1 4984   1.644   1.806   1.764
 1560SOL    HW2 4985   1.763   1.718   1.796
 1561SOL     OW 4986   5.794   8.117   5.452
 1561SOL    HW1 4987   5.806   8.033   5.407
 1561SOL    HW2 4988   5.865   8.120   5.516
 1562SOL     OW 4989   7.761   7.992   0.352
 1562SOL    HW1 4990   7.791   7.987   0.261
 1562SOL    HW2 4991   7.769   8.085   0.375
 1563SOL     OW 4992   6.652   5.233   1.148
 1563SOL    HW1 4993   6.704   5.167   1.193
 1563SOL    HW2 4994   6.707   5.262   1.075
 1564SOL     OW 4995   8.124   3.359   0.416
 1564SOL    HW1 4996   8.145   3.342   0.508
 1564SOL    HW2 4997   8.067   3.436   0.418
 1565SOL     OW 4998   2.714   7.741   1.997
 1565SOL    HW1 4999   2.719   7.835   1.978
 1565SOL    HW2 5000   2.732   7.699   1.913
 1566SOL     OW 5001   1.845   2.340   3.265
 1566SOL    HW1 5002   1.901   2.315   3.192
 1566SOL    HW2 5003   1.860   2.434   3.277
 1567SOL     OW 5004   4.936   0.843   2.216
 1567SOL    HW1 5005   4.891   0.918   2.254
 1567SOL    HW2 5006   4.953   0.869   2.125
 1568SOL     OW 5007   6.332   1.393   4.658
 1568SOL    HW1 5008   6.254   1.448   4.653
 1568SOL    HW2 5009   6.394   1.435   4.599
 1569SOL     OW 5010   6.596   2.649   1.625
 1569SOL    HW1 5011   6.648   2.681   1.698
 1569SOL    HW2 5012   6.563   2.728   1.583
 1570SOL     OW 5013   1.092   7.940   3.664
 1570SOL    HW1 5014   1.138   7.972   3.742
 1570SOL    HW2 5015   1.072   7.848   3.683
 1571SOL     OW 5016   2.497   3.317   1.569
 1571SOL    HW1 5017   2.453   3.391   1.528
 1571SOL    HW2 5018   2.565   3.291   1.507
 1572SOL     OW 5019   1.983   2.360   3.015
 1572SOL    HW1 5020   1.945   2.334   2.931
 1572SOL    HW2 5021   2.000   2.454   3.005
 1573SOL     OW 5022   2.711   0.159   2.245
 1573SOL    HW1 5023   2.804   0.143   2.227
 1573SOL    HW2 5024   2.711   0.230   2.309
 1574SOL     OW 5025   2.572   4.468   3.014
 1574SOL    HW1 5026   2.582   4.535   2.946
 1574SOL    HW2 5027   2.657   4.425   3.018
 1575SOL     OW 5028   6.800   1.076   5.439
 1575SOL    HW1 5029   6.749   1.005   5.400
 1575SOL    HW2 5030   6.844   1.035   5.514
 1576SOL     OW 5031   1.275   6.984   3.888
 1576SOL    HW1 5032   1.309   7.068   3.857
 1576SOL    HW2 5033   1.205   6.963   3.826
 1577SOL     OW 5034   2.473   6.722   4.825
 1577SOL    HW1 5035   2.535   6.786   4.790
 1577SOL    HW2 5036   2.528   6.648   4.852
 1578SOL     OW 5037   7.876   3.262   1.974
 1578SOL    HW1 5038   7.946   3.245   2.036
 1578SOL    HW2 5039   7.850   3.175   1.943
 1579SOL     OW 5040   3.762   2.713   0.085
 1579SOL    HW1 5041   3.824   2.786   0.080
 1579SOL    HW2 5042   3.677   2.752   0.065
 1580SOL     OW 5043   5.762   1.712   1.205
 1580SOL    HW1 5044   5.763   1.671   1.291
 1580SOL    HW2 5045   5.823   1.785   1.212
 1581SOL     OW 5046   3.959   5.997   3.514
 1581SOL    HW1 5047   3.896   5.957   3.454
 1581SOL    HW2 5048   3.911   6.068   3.556
 1582SOL     OW 5049   0.607   7.657   1.406
 1582SOL    HW1 5050   0.594   7.742   1.364
 1582SOL    HW2 5051   0.618   7.677   1.499
 1583SOL     OW 5052   5.083   3.454   3.707
 1583SOL    HW1 5053   5.167   3.436   3.665
 1583SOL    HW2 5054   5.018   3.439   3.638
 1584SOL     OW 5055   2.221   2.718   2.073
 1584SOL    HW1 5056   2.260   2.799   2.106
 1584SOL    HW2 5057   2.288   2.651   2.089
 1585SOL     OW 5058   5.535   6.907   5.077
 1585SOL    HW1 5059   5.602   6.843   5.053
 1585SOL    HW2 5060   5.580   6.992   5.072
 1586SOL     OW 5061   2.335   1.030   3.945
 1586SOL    HW1 5062   2.358   1.079   4.024
 1586SOL    HW2 5063   2.254   1.071   3.914
 1587SOL     OW 5064   5.046   1.630   4.737
 1587SOL    HW1 5065   5.022   1.635   4.645
 1587SOL    HW2 5066   5.007   1.708   4.777
 1588SOL     OW 5067   4.587   0.574   3.806
 1588SOL    HW1 5068   4.493   0.589   3.814
 1588SOL    HW2 5069   4.595   0.484   3.774
 1589SOL     OW 5070   6.093   5.143   4.961
 1589SOL    HW1 5071   6.152   5.088   5.013
 1589SOL    HW2 5072   6.142   5.224   4.947
 1590SOL     OW 5073   4.759   2.169   1.401
 1590SOL    HW1 5074   4.698   2.224   1.352
 1590SOL    HW2 5075   4.778   2.218   1.481
 1591SOL     OW 5076   0.347   1.637   0.075
 1591SOL    HW1 5077   0.347   1.729   0.049
 1591SOL    HW2 5078   4.434   5.705   5.815
 1592SOL     OW 5079   1.948   5.827   3.370
 1592SOL    HW1 5080   1.996   5.786   3.298
 1592SOL    HW2 5081   1.961   5.921   3.356
 1593SOL     OW 5082   2.562   7.180   2.572
 1593SOL    HW1 5083   2.629   7.246   2.590
 1593SOL    HW2 5084   2.589   7.104   2.623
 1594SOL     OW 5085   2.415   4.568   3.953
 1594SOL    HW1 5086   2.377   4.480   3.953
 1594SOL    HW2 5087   2.394   4.604   3.867
 1595SOL     OW 5088   0.786   6.488   2.448
 1595SOL    HW1 5089   0.758   6.492   2.540
 1595SOL    HW2 5090   0.788   6.579   2.420
 1596SOL     OW 5091   7.844   3.304   5.488
 1596SOL    HW1 5092   7.890   3.381   5.523
 1596SOL    HW2 5093   7.808   3.334   5.404
 1597SOL     OW 5094   6.300   2.728   1.290
 1597SOL    HW1 5095   6.253   2.805   1.259
 1597SOL    HW2 5096   6.378   2.723   1.234
 1598SOL     OW 5097   3.645   0.010   4.692
 1598SOL    HW1 5098   3.696   0.090   4.704
 1598SOL    HW2 5099   3.707   8.169   4.710
 1599SOL     OW 5100   6.391   6.662   0.247
 1599SOL    HW1 5101   6.479   6.688   0.219
 1599SOL    HW2 5102   6.395   6.566   0.252
 1600SOL     OW 5103   0.099   1.423   3.481
 1600SOL    HW1 5104   0.073   1.331   3.480
 1600SOL    HW2 5105   0.074   1.453   3.568
 1601SOL     OW 5106   3.559   1.597   5.456
 1601SOL    HW1 5107   3.632   1.631   5.405
 1601SOL    HW2 5108   3.596   1.523   5.505
 1602SOL     OW 5109   7.576   4.670   0.680
 1602SOL    HW1 5110   7.541   4.739   0.736
 1602SOL    HW2 5111   7.548   4.694   0.592
 1603SOL     OW 5112   1.488   0.143   0.277
 1603SOL    HW1 5113   1.470   0.175   0.366
 1603SOL    HW2 5114   1.550   0.206   0.241
 1604SOL     OW 5115   4.555   3.898   4.218
 1604SOL    HW1 5116   4.510   3.817   4.195
 1604SOL    HW2 5117   4.508   3.966   4.169
 1605SOL     OW 5118   2.537   0.242   0.630
 1605SOL    HW1 5119   2.560   0.315   0.687
 1605SOL    HW2 5120   2.561   0.164   0.680
 1606SOL     OW 5121   5.288   2.775   2.462
 1606SOL    HW1 5122   5.318   2.823   2.539
 1606SOL    HW2 5123   5.282   2.684   2.491
 1607SOL     OW 5124   1.212   4.916   5.100
 1607SOL    HW1 5125   1.285   4.950   5.152
 1607SOL    HW2 5126   1.143   4.981   5.110
 1608SOL     OW 5127   3.084   7.542   1.133
 1608SOL    HW1 5128   3.016   7.480   1.160
 1608SOL    HW2 5129   3.153   7.533   1.199
 1609SOL     OW 5130   3.618   0.109   2.293
 1609SOL    HW1 5131   3.535   0.137   2.255
 1609SOL    HW2 5132   3.681   0.176   2.267
 1610SOL     OW 5133   1.307   5.753   4.670
 1610SOL    HW1 5134   1.233   5.773   4.727
 1610SOL    HW2 5135   1.305   5.821   4.603
 1611SOL     OW 5136   3.588   2.567   5.393
 1611SOL    HW1 5137   3.579   2.606   5.480
 1611SOL    HW2 5138   3.513   2.601   5.344
 1612SOL     OW 5139   4.589   7.899   0.421
 1612SOL    HW1 5140   4.565   7.809   0.398
 1612SOL    HW2 5141   4.609   7.940   0.337
 1613SOL     OW 5142   0.390   6.951   0.285
 1613SOL    HW1 5143   0.467   6.914   0.242
 1613SOL    HW2 5144   0.329   6.878   0.291
 1614SOL     OW 5145   2.539   6.381   1.101
 1614SOL    HW1 5146   2.538   6.473   1.127
 1614SOL    HW2 5147   2.447   6.358   1.092
 1615SOL     OW 5148   5.835   2.818   0.831
 1615SOL    HW1 5149   5.909   2.770   0.795
 1615SOL    HW2 5150   5.873   2.899   0.865
 1616SOL     OW 5151   1.486   6.877   5.299
 1616SOL    HW1 5152   1.435   6.938   5.245
 1616SOL    HW2 5153   1.540   6.933   5.354
 1617SOL     OW 5154   7.182   3.263   2.565
 1617SOL    HW1 5155   7.175   3.307   2.480
 1617SOL    HW2 5156   7.142   3.324   2.627
 1618SOL     OW 5157   0.716   7.352   4.026
 1618SOL    HW1 5158   0.656   7.353   3.951
 1618SOL    HW2 5159   0.662   7.378   4.101
 1619SOL     OW 5160   0.412   2.837   2.316
 1619SOL    HW1 5161   0.333   2.851   2.368
 1619SOL    HW2 5162   0.473   2.796   2.377
 1620SOL     OW 5163   5.762   6.723   5.223
 1620SOL    HW1 5164   5.843   6.695   5.180
 1620SOL    HW2 5165   5.778   6.815   5.246
 1621SOL     OW 5166   7.759   2.371   1.235
 1621SOL    HW1 5167   7.806   2.404   1.158
 1621SOL    HW2 5168   7.774   2.437   1.303
 1622SOL     OW 5169   0.142   6.454   4.042
 1622SOL    HW1 5170   0.135   6.549   4.035
 1622SOL    HW2 5171   0.136   6.422   3.952
 1623SOL     OW 5172   2.940   3.268   2.788
 1623SOL    HW1 5173   2.919   3.181   2.823
 1623SOL    HW2 5174   2.954   3.322   2.866
 1624SOL     OW 5175   0.577   0.504   2.739
 1624SOL    HW1 5176   0.606   0.583   2.784
 1624SOL    HW2 5177   0.509   0.468   2.796
 1625SOL     OW 5178   6.317   2.695   0.176
 1625SOL    HW1 5179   6.398   2.739   0.203
 1625SOL    HW2 5180   6.248   2.759   0.194
 1626SOL     OW 5181   6.706   8.205   5.435
 1626SOL    HW1 5182   6.777   8.202   5.499
 1626SOL    HW2 5183   6.734   8.145   5.366
 1627SOL     OW 5184   5.884   1.765   4.709
 1627SOL    HW1 5185   5.878   1.729   4.797
 1627SOL    HW2 5186   5.970   1.807   4.705
 1628SOL     OW 5187   0.483   1.257   2.784
 1628SOL    HW1 5188   0.446   1.221   2.703
 1628SOL    HW2 5189   0.515   1.181   2.832
 1629SOL     OW 5190   7.211   1.187   3.729
 1629SOL    HW1 5191   7.246   1.106   3.766
 1629SOL    HW2 5192   7.252   1.257   3.781
 1630SOL     OW 5193   0.546   0.075   3.126
 1630SOL    HW1 5194   0.577   0.134   3.195
 1630SOL    HW2 5195   0.614   0.079   3.059
 1631SOL     OW 5196   7.410   7.536   2.078
 1631SOL    HW1 5197   7.381   7.553   1.988
 1631SOL    HW2 5198   7.496   7.578   2.084
 1632SOL     OW 5199   7.636   6.787   4.785
 1632SOL    HW1 5200   7.678   6.818   4.705
 1632SOL    HW2 5201   7.708   6.765   4.844
 1633SOL     OW 5202   5.022   4.982   3.211
 1633SOL    HW1 5203   5.063   5.060   3.250
 1633SOL    HW2 5204   5.001   5.008   3.121
 1634SOL     OW 5205   7.134   1.616   5.406
 1634SOL    HW1 5206   7.153   1.604   5.313
 1634SOL    HW2 5207   7.042   1.592   5.416
 1635SOL     OW 5208   6.211   5.804   0.375
 1635SOL    HW1 5209   6.284   5.840   0.425
 1635SOL    HW2 5210   6.183   5.876   0.319
 1636SOL     OW 5211   5.317   4.124   0.812
 1636SOL    HW1 5212   5.274   4.209   0.823
 1636SOL    HW2 5213   5.301   4.100   0.721
 1637SOL     OW 5214   2.379   3.447   5.278
 1637SOL    HW1 5215   2.396   3.384   5.208
 1637SOL    HW2 5216   2.441   3.422   5.347
 1638SOL     OW 5217   8.027   5.234   4.415
 1638SOL    HW1 5218   7.957   5.281   4.370
 1638SOL    HW2 5219   7.988   5.208   4.499
 1639SOL     OW 5220   1.309   5.442   0.350
 1639SOL    HW1 5221   1.290   5.477   0.437
 1639SOL    HW2 5222   1.398   5.407   0.358
 1640SOL     OW 5223   3.670   2.285   4.373
 1640SOL    HW1 5224   3.748   2.319   4.328
 1640SOL    HW2 5225   3.606   2.271   4.303
 1641SOL     OW 5226   1.930   0.278   2.789
 1641SOL    HW1 5227   1.875   0.201   2.802
 1641SOL    HW2 5228   1.871   0.344   2.754
 1642SOL     OW 5229   2.672   2.321   3.657
 1642SOL    HW1 5230   2.727   2.399   3.663
 1642SOL    HW2 5231   2.670   2.300   3.564
 1643SOL     OW 5232   6.721   0.898   3.853
 1643SOL    HW1 5233   6.711   0.813   3.897
 1643SOL    HW2 5234   6.800   0.936   3.891
 1644SOL     OW 5235   3.043   7.299   4.750
 1644SOL    HW1 5236   3.113   7.349   4.708
 1644SOL    HW2 5237   3.025   7.346   4.831
 1645SOL     OW 5238   5.134   5.874   1.841
 1645SOL    HW1 5239   5.089   5.831   1.769
 1645SOL    HW2 5240   5.214   5.908   1.802
 1646SOL     OW 5241   3.485   6.849   2.874
 1646SOL    HW1 5242   3.428   6.776   2.849
 1646SOL    HW2 5243   3.484   6.848   2.970
 1647SOL     OW 5244   2.171   6.241   4.426
 1647SOL    HW1 5245   2.138   6.188   4.499
 1647SOL    HW2 5246   2.250   6.195   4.397
 1648SOL     OW 5247   1.360   0.478   0.467
 1648SOL    HW1 5248   1.394   0.392   0.493
 1648SOL    HW2 5249   1.435   0.522   0.428
 1649SOL     OW 5250   3.623   7.846   5.350
 1649SOL    HW1 5251   3.606   7.834   5.443
 1649SOL    HW2 5252   3.677   7.925   5.346
 1650SOL     OW 5253   4.726   1.987   1.869
 1650SOL    HW1 5254   4.816   1.996   1.838
 1650SOL    HW2 5255   4.672   1.996   1.790
 1651SOL     OW 5256   2.795   0.246   3.146
 1651SOL    HW1 5257   2.777   0.288   3.062
 1651SOL    HW2 5258   2.876   0.287   3.177
 1652SOL     OW 5259   5.817   2.149   3.014
 1652SOL    HW1 5260   5.841   2.162   3.106
 1652SOL    HW2 5261   5.871   2.076   2.985
 1653SOL     OW 5262   7.105   6.254   1.963
 1653SOL    HW1 5263   7.147   6.185   2.013
 1653SOL    HW2 5264   7.143   6.335   1.997
 1654SOL     OW 5265   3.508   6.212   5.244
 1654SOL    HW1 5266   3.566   6.223   5.319
 1654SOL    HW2 5267   3.504   6.299   5.203
 1655SOL     OW 5268   2.190   6.439   5.458
 1655SOL    HW1 5269   2.177   6.493   5.536
 1655SOL    HW2 5270   2.137   6.361   5.474
 1656SOL     OW 5271   6.005   6.666   5.423
 1656SOL    HW1 5272   5.979   6.682   5.332
 1656SOL    HW2 5273   5.983   6.574   5.438
 1657SOL     OW 5274   3.793   5.489   4.660
 1657SOL    HW1 5275   3.823   5.515   4.573
 1657SOL    HW2 5276   3.873   5.483   4.712
 1658SOL     OW 5277   6.766   1.270   5.242
 1658SOL    HW1 5278   6.679   1.250   5.207
 1658SOL    HW2 5279   6.780   1.204   5.310
 1659SOL     OW 5280   2.630   7.937   0.167
 1659SOL    HW1 5281   2.542   7.973   0.179
 1659SOL    HW2 5282   2.688   8.001   0.209
 1660SOL     OW 5283   8.181   1.376   5.263
 1660SOL    HW1 5284   8.169   1.293   5.217
 1660SOL    HW2 5285   8.100   1.425   5.247
 1661SOL     OW 5286   2.520   7.531   2.562
 1661SOL    HW1 5287   2.576   7.553   2.487
 1661SOL    HW2 5288   2.439   7.579   2.546
 1662SOL     OW 5289   7.112   1.836   3.773
 1662SOL    HW1 5290   7.034   1.891   3.782
 1662SOL    HW2 5291   7.080   1.747   3.786
 1663SOL     OW 5292   1.230   0.235   2.254
 1663SOL    HW1 5293   1.221   0.227   2.159
 1663SOL    HW2 5294   1.280   0.158   2.280
 1664SOL     OW 5295   2.289   1.112   2.552
 1664SOL    HW1 5296   2.299   1.205   2.530
 1664SOL    HW2 5297   2.295   1.109   2.647
 1665SOL     OW 5298   3.894   4.367   5.010
 1665SOL    HW1 5299   3.910   4.377   4.916
 1665SOL    HW2 5300   3.921   4.277   5.029
 1666SOL     OW 5301   4.821   6.820   4.568
 1666SOL    HW1 5302   4.846   6.752   4.630
 1666SOL    HW2 5303   4.879   6.893   4.587
 1667SOL     OW 5304   4.706   2.956   4.871
 1667SOL    HW1 5305   4.611   2.952   4.857
 1667SOL    HW2 5306   4.743   2.916   4.793
 1668SOL     OW 5307   3.540   2.563   5.768
 1668SOL    HW1 5308   3.470   2.614   5.809
 1668SOL    HW2 5309   3.595   2.629   5.725
 1669SOL     OW 5310   1.632   4.284   2.191
 1669SOL    HW1 5311   1.542   4.315   2.185
 1669SOL    HW2 5312   1.632   4.227   2.268
 1670SOL     OW 5313   7.607   1.769   0.423
 1670SOL    HW1 5314   7.577   1.777   0.332
 1670SOL    HW2 5315   7.529   1.741   0.472
 1671SOL     OW 5316   5.832   5.032   3.607
 1671SOL    HW1 5317   5.826   5.125   3.628
 1671SOL    HW2 5318   5.792   5.024   3.521
 1672SOL     OW 5319   8.129   1.407   4.332
 1672SOL    HW1 5320   8.141   1.345   4.404
 1672SOL    HW2 5321   8.108   1.490   4.375
 1673SOL     OW 5322   6.670   2.272   4.190
 1673SOL    HW1 5323   6.641   2.359   4.218
 1673SOL    HW2 5324   6.760   2.286   4.159
 1674SOL     OW 5325   2.072   6.069   1.304
 1674SOL    HW1 5326   2.008   6.134   1.275
 1674SOL    HW2 5327   2.145   6.121   1.339
 1675SOL     OW 5328   2.623   6.034   2.220
 1675SOL    HW1 5329   2.539   6.022   2.265
 1675SOL    HW2 5330   2.602   6.090   2.145
 1676SOL     OW 5331   6.567   7.932   0.450
 1676SOL    HW1 5332   6.602   8.020   0.462
 1676SOL    HW2 5333   6.520   7.914   0.531
 1677SOL     OW 5334   3.696   1.327   5.477
 1677SOL    HW1 5335   3.769   1.341   5.417
 1677SOL    HW2 5336   3.650   1.251   5.441
 1678SOL     OW 5337   1.918   1.626   2.822
 1678SOL    HW1 5338   1.852   1.572   2.866
 1678SOL    HW2 5339   1.954   1.681   2.891
 1679SOL     OW 5340   5.498   3.351   4.789
 1679SOL    HW1 5341   5.474   3.320   4.702
 1679SOL    HW2 5342   5.511   3.271   4.840
 1680SOL     OW 5343   8.213   3.402   4.662
 1680SOL    HW1 5344   0.056   3.349   4.697
 1680SOL    HW2 5345   8.160   3.340   4.612
 1681SOL     OW 5346   4.093   0.231   5.786
 1681SOL    HW1 5347   4.151   0.305   5.767
 1681SOL    HW2 5348   4.009   0.256   5.748
 1682SOL     OW 5349   5.057   1.155   2.078
 1682SOL    HW1 5350   4.976   1.121   2.040
 1682SOL    HW2 5351   5.094   1.081   2.126
 1683SOL     OW 5352   4.295   0.264   5.309
 1683SOL    HW1 5353   4.330   0.353   5.306
 1683SOL    HW2 5354   4.372   0.208   5.303
 1684SOL     OW 5355   1.423   5.084   3.430
 1684SOL    HW1 5356   1.396   5.168   3.393
 1684SOL    HW2 5357   1.447   5.105   3.520
 1685SOL     OW 5358   3.560   3.871   3.067
 1685SOL    HW1 5359   3.501   3.946   3.072
 1685SOL    HW2 5360   3.523   3.816   2.998
 1686SOL     OW 5361   4.867   5.705   1.907
 1686SOL    HW1 5362   4.887   5.696   1.814
 1686SOL    HW2 5363   4.944   5.747   1.945
 1687SOL     OW 5364   6.296   0.660   0.488
 1687SOL    HW1 5365   6.355   0.725   0.450
 1687SOL    HW2 5366   6.245   0.708   0.553
 1688SOL     OW 5367   1.144   5.167   1.351
 1688SOL    HW1 5368   1.221   5.184   1.297
 1688SOL    HW2 5369   1.110   5.254   1.372
 1689SOL     OW 5370   5.199   2.164   2.495
 1689SOL    HW1 5371   5.169   2.114   2.419
 1689SOL    HW2 5372   5.293   2.174   2.481
 1690SOL     OW 5373   8.062   6.921   0.622
 1690SOL    HW1 5374   7.988   6.979   0.606
 1690SOL    HW2 5375   8.058   6.902   0.716
 1691SOL     OW 5376   6.396   2.172   1.121
 1691SOL    HW1 5377   6.337   2.103   1.090
 1691SOL    HW2 5378   6.378   2.177   1.215
 1692SOL     OW 5379   7.050   6.776   3.528
 1692SOL    HW1 5380   7.025   6.787   3.436
 1692SOL    HW2 5381   7.105   6.852   3.547
 1693SOL     OW 5382   6.354   2.032   4.841
 1693SOL    HW1 5383   6.376   2.027   4.748
 1693SOL    HW2 5384   6.300   2.110   4.849
 1694SOL     OW 5385   0.789   6.065   1.227
 1694SOL    HW1 5386   0.709   6.029   1.265
 1694SOL    HW2 5387   0.819   5.998   1.166
 1695SOL     OW 5388   5.966   4.362   3.488
 1695SOL    HW1 5389   6.024   4.438   3.486
 1695SOL    HW2 5390   5.883   4.397   3.519
 1696SOL     OW 5391   6.257   4.109   3.479
 1696SOL    HW1 5392   6.180   4.166   3.471
 1696SOL    HW2 5393   6.222   4.027   3.514
 1697SOL     OW 5394   4.350   0.495   0.297
 1697SOL    HW1 5395   4.445   0.490   0.309
 1697SOL    HW2 5396   4.335   0.458   0.210
 1698SOL     OW 5397   3.482   1.087   4.543
 1698SOL    HW1 5398   3.436   1.076   4.626
 1698SOL    HW2 5399   3.425   1.046   4.478
 1699SOL     OW 5400   5.155   4.426   1.516
 1699SOL    HW1 5401   5.192   4.363   1.454
 1699SOL    HW2 5402   5.196   4.509   1.493
 1700SOL     OW 5403   7.884   2.543   1.034
 1700SOL    HW1 5404   7.974   2.563   1.059
 1700SOL    HW2 5405   7.875   2.578   0.945
 1701SOL     OW 5406   5.647   4.779   2.595
 1701SOL    HW1 5407   5.577   4.717   2.575
 1701SOL    HW2 5408   5.638   4.847   2.529
 1702SOL     OW 5409   6.950   4.818   0.103
 1702SOL    HW1 5410   6.914   4.817   0.192
 1702SOL    HW2 5411   7.042   4.841   0.115
 1703SOL     OW 5412   1.539   5.154   3.131
 1703SOL    HW1 5413   1.469   5.219   3.134
 1703SOL    HW2 5414   1.576   5.154   3.219
 1704SOL     OW 5415   5.480   6.132   0.693
 1704SOL    HW1 5416   5.413   6.162   0.632
 1704SOL    HW2 5417   5.520   6.212   0.727
 1705SOL     OW 5418   3.000   3.206   4.761
 1705SOL    HW1 5419   2.923   3.190   4.707
 1705SOL    HW2 5420   2.964   3.225   4.848
 1706SOL     OW 5421   1.453   8.026   5.588
 1706SOL    HW1 5422   1.388   8.091   5.561
 1706SOL    HW2 5423   1.422   7.944   5.550
 1707SOL     OW 5424   0.866   5.076   0.864
 1707SOL    HW1 5425   0.921   5.058   0.940
 1707SOL    HW2 5426   0.781   5.037   0.887
 1708SOL     OW 5427   6.679   3.369   0.191
 1708SOL    HW1 5428   6.641   3.380   0.278
 1708SOL    HW2 5429   6.768   3.339   0.208
 1709SOL     OW 5430   2.830   7.431   0.550
 1709SOL    HW1 5431   2.874   7.457   0.631
 1709SOL    HW2 5432   2.739   7.415   0.576
 1710SOL     OW 5433   7.940   2.231   1.700
 1710SOL    HW1 5434   7.902   2.282   1.628
 1710SOL    HW2 5435   7.921   2.140   1.677
 1711SOL     OW 5436   5.031   0.578   3.800
 1711SOL    HW1 5437   5.094   0.615   3.862
 1711SOL    HW2 5438   5.003   0.496   3.841
 1712SOL     OW 5439   5.645   0.862   3.056
 1712SOL    HW1 5440   5.568   0.832   3.104
 1712SOL    HW2 5441   5.678   0.783   3.013
 1713SOL     OW 5442   6.208   8.030   0.540
 1713SOL    HW1 5443   6.139   8.083   0.580
 1713SOL    HW2 5444   6.167   7.946   0.522
 1714SOL     OW 5445   3.094   8.035   5.037
 1714SOL    HW1 5446   3.072   8.126   5.018
 1714SOL    HW2 5447   3.020   8.002   5.088
 1715SOL     OW 5448   1.694   5.451   1.147
 1715SOL    HW1 5449   1.774   5.418   1.188
 1715SOL    HW2 5450   1.623   5.405   1.192
 1716SOL     OW 5451   5.232   7.575   5.261
 1716SOL    HW1 5452   5.325   7.596   5.258
 1716SOL    HW2 5453   5.219   7.535   5.347
 1717SOL     OW 5454   3.793   2.419   2.297
 1717SOL    HW1 5455   3.805   2.482   2.226
 1717SOL    HW2 5456   3.833   2.338   2.264
 1718SOL     OW 5457   4.882   1.924   1.441
 1718SOL    HW1 5458   4.843   1.999   1.396
 1718SOL    HW2 5459   4.958   1.960   1.487
 1719SOL     OW 5460   0.893   2.617   4.648
 1719SOL    HW1 5461   0.971   2.657   4.609
 1719SOL    HW2 5462   0.839   2.591   4.573
 1720SOL     OW 5463   4.076   0.075   3.256
 1720SOL    HW1 5464   4.075   0.162   3.297
 1720SOL    HW2 5465   4.168   0.059   3.236
 1721SOL     OW 5466   2.248   3.062   3.620
 1721SOL    HW1 5467   2.177   3.032   3.564
 1721SOL    HW2 5468   2.283   2.982   3.659
 1722SOL     OW 5469   5.135   7.993   1.330
 1722SOL    HW1 5470   5.061   7.996   1.391
 1722SOL    HW2 5471   5.205   7.951   1.379
 1723SOL     OW 5472   7.381   4.077   0.543
 1723SOL    HW1 5473   7.411   4.084   0.452
 1723SOL    HW2 5474   7.346   4.164   0.564
 1724SOL     OW 5475   7.171   2.645   4.975
 1724SOL    HW1 5476   7.094   2.645   5.032
 1724SOL    HW2 5477   7.147   2.703   4.903
 1725SOL     OW 5478   6.704   0.330   2.951
 1725SOL    HW1 5479   6.729   0.239   2.932
 1725SOL    HW2 5480   6.707   0.336   3.046
 1726SOL     OW 5481   0.192   7.459   2.422
 1726SOL    HW1 5482   0.165   7.517   2.351
 1726SOL    HW2 5483   0.172   7.508   2.502
 1727SOL     OW 5484   4.252   2.349   2.617
 1727SOL    HW1 5485   4.337   2.386   2.592
 1727SOL    HW2 5486   4.202   2.347   2.536
 1728SOL     OW 5487   4.349   1.386   4.336
 1728SOL    HW1 5488   4.318   1.311   4.285
 1728SOL    HW2 5489   4.418   1.425   4.282
 1729SOL     OW 5490   5.599   2.611   4.617
 1729SOL    HW1 5491   5.685   2.573   4.598
 1729SOL    HW2 5492   5.555   2.615   4.532
 1730SOL     OW 5493   0.467   7.198   3.243
 1730SOL    HW1 5494   0.476   7.176   3.150
 1730SOL    HW2 5495   0.551   7.238   3.267
 1731SOL     OW 5496   6.812   3.604   0.537
 1731SOL    HW1 5497   6.862   3.614   0.456
 1731SOL    HW2 5498   6.728   3.646   0.519
 1732SOL     OW 5499   0.016   1.676   5.550
 1732SOL    HW1 5500   8.179   1.619   5.588
 1732SOL    HW2 5501   0.054   1.723   5.624
 1733SOL     OW 5502   5.802   2.343   4.830
 1733SOL    HW1 5503   5.722   2.394   4.844
 1733SOL    HW2 5504   5.832   2.368   4.743
 1734SOL     OW 5505   2.691   7.706   4.606
 1734SOL    HW1 5506   2.742   7.730   4.683
 1734SOL    HW2 5507   2.720   7.618   4.583
 1735SOL     OW 5508   7.808   7.044   3.709
 1735SOL    HW1 5509   7.820   6.950   3.693
 1735SOL    HW2 5510   7.765   7.048   3.795
 1736SOL     OW 5511   5.054   4.215   3.652
 1736SOL    HW1 5512   5.090   4.128   3.671
 1736SOL    HW2 5513   4.998   4.201   3.576
 1737SOL     OW 5514   3.991   1.835   1.175
 1737SOL    HW1 5515   4.070   1.888   1.183
 1737SOL    HW2 5516   4.023   1.747   1.153
 1738SOL     OW 5517   1.652   2.556   2.660
 1738SOL    HW1 5518   1.606   2.633   2.694
 1738SOL    HW2 5519   1.744   2.582   2.658
 1739SOL     OW 5520   2.082   6.060   3.794
 1739SOL    HW1 5521   2.100   5.971   3.824
 1739SOL    HW2 5522   2.082   6.113   3.874
 1740SOL     OW 5523   8.191   3.770   4.306
 1740SOL    HW1 5524   0.000   3.811   4.228
 1740SOL    HW2 5525   8.210   3.831   4.377
 1741SOL     OW 5526   0.640   2.880   1.630
 1741SOL    HW1 5527   0.569   2.926   1.675
 1741SOL    HW2 5528   0.615   2.788   1.633
 1742SOL     OW 5529   8.013   1.788   3.570
 1742SOL    HW1 5530   8.102   1.809   3.597
 1742SOL    HW2 5531   7.976   1.739   3.643
 1743SOL     OW 5532   2.969   3.447   3.042
 1743SOL    HW1 5533   2.889   3.473   2.997
 1743SOL    HW2 5534   2.940   3.390   3.113
 1744SOL     OW 5535   1.786   6.602   5.647
 1744SOL    HW1 5536   1.700   6.611   5.688
 1744SOL    HW2 5537   1.818   6.692   5.639
 1745SOL     OW 5538   2.366   5.752   4.008
 1745SOL    HW1 5539   2.284   5.706   3.990
 1745SOL    HW2 5540   2.413   5.695   4.069
 1746SOL     OW 5541   2.092   0.068   3.068
 1746SOL    HW1 5542   2.185   0.045   3.064
 1746SOL    HW2 5543   2.069   0.057   3.160
 1747SOL     OW 5544   3.394   5.723   5.311
 1747SOL    HW1 5545   3.489   5.728   5.322
 1747SOL    HW2 5546   3.365   5.661   5.378
 1748SOL     OW 5547   2.101   6.367   1.246
 1748SOL    HW1 5548   2.042   6.415   1.305
 1748SOL    HW2 5549   2.183   6.360   1.294
 1749SOL     OW 5550   6.908   1.748   2.352
 1749SOL    HW1 5551   6.953   1.714   2.275
 1749SOL    HW2 5552   6.858   1.674   2.385
 1750SOL     OW 5553   5.337   6.777   0.777
 1750SOL    HW1 5554   5.349   6.871   0.788
 1750SOL    HW2 5555   5.301   6.767   0.689
 1751SOL     OW 5556   1.551   4.244   0.043
 1751SOL    HW1 5557   1.456   4.253   0.053
 1751SOL    HW2 5558   1.585   4.251   0.132
 1752SOL     OW 5559   5.989   1.023   0.547
 1752SOL    HW1 5560   5.908   0.999   0.592
 1752SOL    HW2 5561   6.003   1.115   0.569
 1753SOL     OW 5562   7.859   1.948   1.074
 1753SOL    HW1 5563   7.865   1.899   1.156
 1753SOL    HW2 5564   7.946   1.941   1.036
 1754SOL     OW 5565   7.771   3.245   2.451
 1754SOL    HW1 5566   7.797   3.211   2.537
 1754SOL    HW2 5567   7.722   3.173   2.411
 1755SOL     OW 5568   1.997   3.855   1.558
 1755SOL    HW1 5569   2.060   3.926   1.565
 1755SOL    HW2 5570   2.021   3.809   1.477
 1756SOL     OW 5571   4.929   1.117   3.083
 1756SOL    HW1 5572   4.980   1.127   3.003
 1756SOL    HW2 5573   4.870   1.192   3.084
 1757SOL     OW 5574   5.404   4.745   2.313
 1757SOL    HW1 5575   5.330   4.773   2.259
 1757SOL    HW2 5576   5.480   4.754   2.256
 1758SOL     OW 5577   6.161   3.227   1.906
 1758SOL    HW1 5578   6.202   3.241   1.991
 1758SOL    HW2 5579   6.145   3.315   1.872
 1759SOL     OW 5580   3.029   3.705   3.160
 1759SOL    HW1 5581   3.078   3.698   3.242
 1759SOL    HW2 5582   3.010   3.614   3.136
 1760SOL     OW 5583   6.902   1.277   3.055
 1760SOL    HW1 5584   6.965   1.224   3.007
 1760SOL    HW2 5585   6.951   1.355   3.081
 1761SOL     OW 5586   1.898   5.995   0.887
 1761SOL    HW1 5587   1.815   6.041   0.899
 1761SOL    HW2 5588   1.940   6.039   0.813
 1762SOL     OW 5589   7.055   1.886   5.326
 1762SOL    HW1 5590   7.082   1.826   5.257
 1762SOL    HW2 5591   7.081   1.972   5.294
 1763SOL     OW 5592   2.978   8.183   2.414
 1763SOL    HW1 5593   2.922   8.197   2.490
 1763SOL    HW2 5594   3.062   8.154   2.451
 1764SOL     OW 5595   2.597   2.337   5.289
 1764SOL    HW1 5596   2.562   2.351   5.377
 1764SOL    HW2 5597   2.644   2.418   5.269
 1765SOL     OW 5598   0.633   8.007   4.317
 1765SOL    HW1 5599   0.639   7.932   4.376
 1765SOL    HW2 5600   0.722   8.043   4.314
 1766SOL     OW 5601   3.637   5.887   4.116
 1766SOL    HW1 5602   3.703   5.927   4.060
 1766SOL    HW2 5603   3.555   5.932   4.093
 1767SOL     OW 5604   5.294   5.567   3.349
 1767SOL    HW1 5605   5.240   5.646   3.342
 1767SOL    HW2 5606   5.359   5.589   3.416
 1768SOL     OW 5607   6.813   7.114   1.671
 1768SOL    HW1 5608   6.836   7.046   1.608
 1768SOL    HW2 5609   6.880   7.106   1.739
 1769SOL     OW 5610   4.252   6.448   3.306
 1769SOL    HW1 5611   4.293   6.367   3.277
 1769SOL    HW2 5612   4.322   6.513   3.301
 1770SOL     OW 5613   4.751   8.227   4.597
 1770SOL    HW1 5614   4.732   8.188   4.682
 1770SOL    HW2 5615   4.846   8.222   4.589
 1771SOL     OW 5616   1.391   4.772   4.810
 1771SOL    HW1 5617   1.398   4.843   4.873
 1771SOL    HW2 5618   1.301   4.777   4.778
 1772SOL     OW 5619   0.076   3.922   4.084
 1772SOL    HW1 5620   0.171   3.931   4.089
 1772SOL    HW2 5621   0.056   3.932   3.991
 1773SOL     OW 5622   1.310   8.108   3.586
 1773SOL    HW1 5623   1.374   8.056   3.538
 1773SOL    HW2 5624   1.235   8.050   3.597
 1774SOL     OW 5625   0.417   5.538   5.613
 1774SOL    HW1 5626   0.456   5.613   5.658
 1774SOL    HW2 5627   0.373   5.575   5.537
 1775SOL     OW 5628   4.534   2.020   2.102
 1775SOL    HW1 5629   4.466   1.974   2.052
 1775SOL    HW2 5630   4.573   2.080   2.039
 1776SOL     OW 5631   6.343   1.495   3.310
 1776SOL    HW1 5632   6.299   1.528   3.388
 1776SOL    HW2 5633   6.324   1.401   3.310
 1777SOL     OW 5634   0.422   7.140   4.777
 1777SOL    HW1 5635   0.412   7.087   4.856
 1777SOL    HW2 5636   0.362   7.213   4.790
 1778SOL     OW 5637   5.582   6.574   4.369
 1778SOL    HW1 5638   5.502   6.525   4.385
 1778SOL    HW2 5639   5.619   6.589   4.456
 1779SOL     OW 5640   3.812   3.717   1.642
 1779SOL    HW1 5641   3.730   3.756   1.612
 1779SOL    HW2 5642   3.785   3.652   1.706
 1780SOL     OW 5643   5.101   1.126   1.668
 1780SOL    HW1 5644   5.142   1.111   1.753
 1780SOL    HW2 5645   5.173   1.147   1.609
 1781SOL     OW 5646   4.249   4.557   0.153
 1781SOL    HW1 5647   4.212   4.514   0.230
 1781SOL    HW2 5648   4.177   4.560   0.090
 1782SOL     OW 5649   5.234   6.955   3.431
 1782SOL    HW1 5650   5.144   6.923   3.437
 1782SOL    HW2 5651   5.256   6.983   3.520
 1783SOL     OW 5652   3.277   2.281   1.211
 1783SOL    HW1 5653   3.329   2.230   1.149
 1783SOL    HW2 5654   3.195   2.233   1.218
 1784SOL     OW 5655   6.240   0.093   2.633
 1784SOL    HW1 5656   6.257   0.095   2.727
 1784SOL    HW2 5657   6.313   0.043   2.597
 1785SOL     OW 5658   1.577   3.919   0.120
 1785SOL    HW1 5659   1.576   3.824   0.133
 1785SOL    HW2 5660   1.537   3.955   0.199
 1786SOL     OW 5661   0.013   0.304   4.697
 1786SOL    HW1 5662   0.012   0.301   4.601
 1786SOL    HW2 5663   8.192   0.227   4.723
 1787SOL     OW 5664   3.544   1.729   1.407
 1787SOL    HW1 5665   3.627   1.698   1.370
 1787SOL    HW2 5666   3.568   1.808   1.456
 1788SOL     OW 5667   0.312   5.279   5.601
 1788SOL    HW1 5668   0.336   5.366   5.632
 1788SOL    HW2 5669   0.301   5.290   5.506
 1789SOL     OW 5670   4.843   6.955   0.420
 1789SOL    HW1 5671   4.932   6.957   0.456
 1789SOL    HW2 5672   4.822   6.862   0.411
 1790SOL     OW 5673   3.654   2.876   2.969
 1790SOL    HW1 5674   3.690   2.823   3.040
 1790SOL    HW2 5675   3.649   2.965   3.005
 1791SOL     OW 5676   6.610   1.231   4.976
 1791SOL    HW1 5677   6.673   1.162   4.956
 1791SOL    HW2 5678   6.527   1.197   4.943
 1792SOL     OW 5679   7.468   7.048   0.608
 1792SOL    HW1 5680   7.392   7.101   0.635
 1792SOL    HW2 5681   7.539   7.076   0.666
 1793SOL     OW 5682   7.295   5.379   1.647
 1793SOL    HW1 5683   7.365   5.399   1.709
 1793SOL    HW2 5684   7.277   5.286   1.659
 1794SOL     OW 5685   4.333   2.768   0.467
 1794SOL    HW1 5686   4.395   2.724   0.409
 1794SOL    HW2 5687   4.367   2.857   0.474
 1795SOL     OW 5688   3.532   4.155   2.014
 1795SOL    HW1 5689   3.567   4.130   1.929
 1795SOL    HW2 5690   3.609   4.165   2.070
 1796SOL     OW 5691   6.440   2.140   5.816
 1796SOL    HW1 5692   6.516   2.132   5.758
 1796SOL    HW2 5693   6.366   2.155   5.757
 1797SOL     OW 5694   3.309   7.821   2.785
 1797SOL    HW1 5695   3.343   7.734   2.763
 1797SOL    HW2 5696   3.215   7.808   2.799
 1798SOL     OW 5697   6.871   0.593   0.424
 1798SOL    HW1 5698   6.921   0.573   0.503
 1798SOL    HW2 5699   6.803   0.526   0.422
 1799SOL     OW 5700   6.021   3.617   5.271
 1799SOL    HW1 5701   6.019   3.554   5.343
 1799SOL    HW2 5702   5.946   3.674   5.287
 1800SOL     OW 5703   4.163   7.389   5.587
 1800SOL    HW1 5704   4.167   7.303   5.628
 1800SOL    HW2 5705   4.089   7.383   5.526
 1801SOL     OW 5706   5.673   2.310   4.365
 1801SOL    HW1 5707   5.716   2.346   4.442
 1801SOL    HW2 5708   5.693   2.217   4.367
 1802SOL     OW 5709   7.376   1.729   5.532
 1802SOL    HW1 5710   7.388   1.744   5.626
 1802SOL    HW2 5711   7.309   1.792   5.505
 1803SOL     OW 5712   0.877   7.428   4.805
 1803SOL    HW1 5713   0.882   7.522   4.822
 1803SOL    HW2 5714   0.808   7.397   4.863
 1804SOL     OW 5715   1.909   0.299   4.136
 1804SOL    HW1 5716   1.896   0.389   4.166
 1804SOL    HW2 5717   1.896   0.304   4.041
 1805SOL     OW 5718   0.050   1.449   1.325
 1805SOL    HW1 5719   8.220   1.488   1.389
 1805SOL    HW2 5720   0.126   1.421   1.377
 1806SOL     OW 5721   3.535   7.006   2.535
 1806SOL    HW1 5722   3.505   7.030   2.447
 1806SOL    HW2 5723   3.576   7.085   2.569
 1807SOL     OW 5724   6.439   3.953   4.766
 1807SOL    HW1 5725   6.518   3.911   4.732
 1807SOL    HW2 5726   6.394   3.884   4.815
 1808SOL     OW 5727   7.621   5.229   5.267
 1808SOL    HW1 5728   7.606   5.135   5.276
 1808SOL    HW2 5729   7.696   5.247   5.324
 1809SOL     OW 5730   0.157   3.297   2.899
 1809SOL    HW1 5731   0.232   3.248   2.934
 1809SOL    HW2 5732   0.110   3.233   2.846
 1810SOL     OW 5733   1.469   6.341   5.818
 1810SOL    HW1 5734   5.669   2.186   0.014
 1810SOL    HW2 5735   5.569   2.280   0.077
 1811SOL     OW 5736   7.254   6.021   2.129
 1811SOL    HW1 5737   7.315   6.030   2.202
 1811SOL    HW2 5738   7.307   5.986   2.057
 1812SOL     OW 5739   6.953   7.859   2.107
 1812SOL    HW1 5740   6.894   7.786   2.091
 1812SOL    HW2 5741   6.896   7.929   2.139
 1813SOL     OW 5742   6.217   2.991   5.719
 1813SOL    HW1 5743   6.283   3.059   5.704
 1813SOL    HW2 5744   6.139   3.038   5.748
 1814SOL     OW 5745   5.524   1.863   4.751
 1814SOL    HW1 5746   5.460   1.897   4.814
 1814SOL    HW2 5747   5.592   1.930   4.747
 1815SOL     OW 5748   0.523   4.897   2.030
 1815SOL    HW1 5749   0.566   4.878   1.947
 1815SOL    HW2 5750   0.453   4.959   2.008
 1816SOL     OW 5751   2.578   7.334   2.809
 1816SOL    HW1 5752   2.608   7.424   2.794
 1816SOL    HW2 5753   2.642   7.280   2.763
 1817SOL     OW 5754   4.157   3.397   4.341
 1817SOL    HW1 5755   4.202   3.313   4.355
 1817SOL    HW2 5756   4.219   3.463   4.373
 1818SOL     OW 5757   1.282   3.761   5.507
 1818SOL    HW1 5758   1.271   3.848   5.470
 1818SOL    HW2 5759   1.286   3.703   5.431
 1819SOL     OW 5760   6.903   1.099   1.772
 1819SOL    HW1 5761   6.965   1.069   1.839
 1819SOL    HW2 5762   6.928   1.190   1.755
 1820SOL     OW 5763   6.017   3.715   3.235
 1820SOL    HW1 5764   5.996   3.657   3.308
 1820SOL    HW2 5765   5.963   3.793   3.250
 1821SOL     OW 5766   4.432   3.010   1.589
 1821SOL    HW1 5767   4.501   2.984   1.528
 1821SOL    HW2 5768   4.425   2.936   1.650
 1822SOL     OW 5769   0.872   3.222   0.249
 1822SOL    HW1 5770   0.832   3.274   0.179
 1822SOL    HW2 5771   0.910   3.147   0.204
 1823SOL     OW 5772   4.956   0.942   3.314
 1823SOL    HW1 5773   5.050   0.939   3.329
 1823SOL    HW2 5774   4.946   0.989   3.231
 1824SOL     OW 5775   6.245   4.299   0.585
 1824SOL    HW1 5776   6.222   4.372   0.527
 1824SOL    HW2 5777   6.183   4.230   0.563
 1825SOL     OW 5778   4.542   6.931   4.587
 1825SOL    HW1 5779   4.613   6.891   4.636
 1825SOL    HW2 5780   4.574   6.935   4.497
 1826SOL     OW 5781   2.012   7.320   3.175
 1826SOL    HW1 5782   1.944   7.387   3.188
 1826SOL    HW2 5783   2.028   7.286   3.263
 1827SOL     OW 5784   1.052   4.365   2.960
 1827SOL    HW1 5785   1.002   4.447   2.959
 1827SOL    HW2 5786   0.998   4.304   3.010
 1828SOL     OW 5787   3.149   8.206   1.818
 1828SOL    HW1 5788   3.189   8.174   1.737
 1828SOL    HW2 5789   3.055   8.189   1.806
 1829SOL     OW 5790   4.797   7.980   1.133
 1829SOL    HW1 5791   4.721   8.014   1.086
 1829SOL    HW2 5792   4.870   8.034   1.103
 1830SOL     OW 5793   2.025   7.529   0.113
 1830SOL    HW1 5794   2.083   7.477   0.169
 1830SOL    HW2 5795   1.939   7.521   0.154
 1831SOL     OW 5796   3.586   0.824   2.110
 1831SOL    HW1 5797   3.555   0.855   2.195
 1831SOL    HW2 5798   3.599   0.904   2.059
 1832SOL     OW 5799   3.610   3.683   2.316
 1832SOL    HW1 5800   3.626   3.608   2.258
 1832SOL    HW2 5801   3.568   3.748   2.260
 1833SOL     OW 5802   1.145   3.404   4.826
 1833SOL    HW1 5803   1.179   3.329   4.875
 1833SOL    HW2 5804   1.104   3.366   4.749
 1834SOL     OW 5805   3.106   5.859   1.545
 1834SOL    HW1 5806   3.049   5.853   1.622
 1834SOL    HW2 5807   3.074   5.935   1.497
 1835SOL     OW 5808   7.839   1.254   2.930
 1835SOL    HW1 5809   7.762   1.197   2.940
 1835SOL    HW2 5810   7.806   1.342   2.948
 1836SOL     OW 5811   8.093   6.191   4.804
 1836SOL    HW1 5812   8.164   6.128   4.815
 1836SOL    HW2 5813   8.119   6.243   4.728
 1837SOL     OW 5814   4.229   1.240   5.504
 1837SOL    HW1 5815   4.245   1.148   5.526
 1837SOL    HW2 5816   4.311   1.269   5.464
 1838SOL     OW 5817   7.171   3.644   4.483
 1838SOL    HW1 5818   7.150   3.694   4.562
 1838SOL    HW2 5819   7.235   3.579   4.512
 1839SOL     OW 5820   6.031   4.678   2.551
 1839SOL    HW1 5821   6.079   4.671   2.633
 1839SOL    HW2 5822   6.098   4.675   2.483
 1840SOL     OW 5823   6.932   0.581   0.111
 1840SOL    HW1 5824   6.882   0.627   0.043
 1840SOL    HW2 5825   6.876   0.584   0.188
 1841SOL     OW 5826   5.367   4.463   2.847
 1841SOL    HW1 5827   5.303   4.434   2.782
 1841SOL    HW2 5828   5.334   4.547   2.878
 1842SOL     OW 5829   1.054   7.000   3.648
 1842SOL    HW1 5830   0.989   6.931   3.661
 1842SOL    HW2 5831   1.038   7.032   3.559
 1843SOL     OW 5832   4.666   4.201   4.951
 1843SOL    HW1 5833   4.674   4.124   5.007
 1843SOL    HW2 5834   4.593   4.180   4.893
 1844SOL     OW 5835   6.196   7.317   5.805
 1844SOL    HW1 5836   6.263   7.386   5.804
 1844SOL    HW2 5837   6.212   7.267   5.725
 1845SOL     OW 5838   0.588   2.666   0.240
 1845SOL    HW1 5839   0.678   2.680   0.271
 1845SOL    HW2 5840   0.594   2.592   0.180
 1846SOL     OW 5841   0.125   5.430   4.910
 1846SOL    HW1 5842   0.149   5.422   5.002
 1846SOL    HW2 5843   0.107   5.340   4.882
 1847SOL     OW 5844   2.675   4.234   1.316
 1847SOL    HW1 5845   2.748   4.268   1.265
 1847SOL    HW2 5846   2.598   4.250   1.261
 1848SOL     OW 5847   4.345   2.101   1.880
 1848SOL    HW1 5848   4.252   2.114   1.896
 1848SOL    HW2 5849   4.352   2.011   1.849
 1849SOL     OW 5850   3.590   7.469   3.320
 1849SOL    HW1 5851   3.610   7.517   3.400
 1849SOL    HW2 5852   3.635   7.518   3.251
 1850SOL     OW 5853   2.165   0.492   2.905
 1850SOL    HW1 5854   2.116   0.574   2.909
 1850SOL    HW2 5855   2.127   0.438   2.974
 1851SOL     OW 5856   1.579   1.162   0.252
 1851SOL    HW1 5857   1.557   1.254   0.239
 1851SOL    HW2 5858   1.651   1.164   0.315
 1852SOL     OW 5859   2.961   8.220   3.829
 1852SOL    HW1 5860   2.905   8.209   3.752
 1852SOL    HW2 5861   3.036   0.041   3.797
 1853SOL     OW 5862   5.672   4.076   5.368
 1853SOL    HW1 5863   5.609   4.044   5.433
 1853SOL    HW2 5864   5.625   4.071   5.285
 1854SOL     OW 5865   3.423   6.266   4.829
 1854SOL    HW1 5866   3.439   6.234   4.740
 1854SOL    HW2 5867   3.383   6.192   4.874
 1855SOL     OW 5868   6.306   5.411   0.201
 1855SOL    HW1 5869   6.247   5.437   0.272
 1855SOL    HW2 5870   6.370   5.354   0.243
 1856SOL     OW 5871   5.175   2.908   1.389
 1856SOL    HW1 5872   5.198   2.821   1.355
 1856SOL    HW2 5873   5.223   2.969   1.333
 1857SOL     OW 5874   6.654   7.882   4.656
 1857SOL    HW1 5875   6.601   7.836   4.591
 1857SOL    HW2 5876   6.667   7.818   4.726
 1858SOL     OW 5877   5.707   8.170   1.313
 1858SOL    HW1 5878   5.797   8.198   1.331
 1858SOL    HW2 5879   5.663   8.173   1.398
 1859SOL     OW 5880   7.877   1.971   1.710
 1859SOL    HW1 5881   7.792   1.946   1.674
 1859SOL    HW2 5882   7.903   1.896   1.764
 1860SOL     OW 5883   1.911   7.126   3.016
 1860SOL    HW1 5884   1.952   7.189   3.075
 1860SOL    HW2 5885   1.847   7.080   3.071
 1861SOL     OW 5886   3.967   2.704   4.332
 1861SOL    HW1 5887   4.022   2.628   4.351
 1861SOL    HW2 5888   3.887   2.690   4.383
 1862SOL     OW 5889   6.538   1.061   2.531
 1862SOL    HW1 5890   6.546   0.968   2.510
 1862SOL    HW2 5891   6.445   1.074   2.548
 1863SOL     OW 5892   2.354   8.105   1.655
 1863SOL    HW1 5893   2.436   8.098   1.704
 1863SOL    HW2 5894   2.300   8.165   1.707
 1864SOL     OW 5895   2.999   1.534   5.770
 1864SOL    HW1 5896   3.001   1.443   5.801
 1864SOL    HW2 5897   7.172   5.696   0.011
 1865SOL     OW 5898   4.427   5.830   5.505
 1865SOL    HW1 5899   4.366   5.793   5.569
 1865SOL    HW2 5900   4.450   5.916   5.540
 1866SOL     OW 5901   3.757   0.932   4.049
 1866SOL    HW1 5902   3.795   0.854   4.089
 1866SOL    HW2 5903   3.699   0.968   4.117
 1867SOL     OW 5904   4.844   1.247   1.230
 1867SOL    HW1 5905   4.817   1.303   1.157
 1867SOL    HW2 5906   4.920   1.292   1.268
 1868SOL     OW 5907   6.412   8.088   5.722
 1868SOL    HW1 5908   6.441   8.134   5.643
 1868SOL    HW2 5909   6.318   8.104   5.726
 1869SOL     OW 5910   2.862   3.331   4.039
 1869SOL    HW1 5911   2.850   3.333   4.134
 1869SOL    HW2 5912   2.880   3.422   4.015
 1870SOL     OW 5913   1.042   5.071   5.522
 1870SOL    HW1 5914   0.975   5.135   5.499
 1870SOL    HW2 5915   1.121   5.123   5.536
 1871SOL     OW 5916   7.245   3.329   2.035
 1871SOL    HW1 5917   7.239   3.422   2.012
 1871SOL    HW2 5918   7.323   3.323   2.090
 1872SOL     OW 5919   4.175   3.952   5.512
 1872SOL    HW1 5920   4.231   3.921   5.441
 1872SOL    HW2 5921   4.173   3.879   5.574
 1873SOL     OW 5922   6.218   3.605   2.177
 1873SOL    HW1 5923   6.168   3.539   2.225
 1873SOL    HW2 5924   6.225   3.678   2.238
 1874SOL     OW 5925   2.873   6.354   4.417
 1874SOL    HW1 5926   2.942   6.329   4.478
 1874SOL    HW2 5927   2.911   6.426   4.367
 1875SOL     OW 5928   7.868   7.787   1.468
 1875SOL    HW1 5929   7.867   7.719   1.536
 1875SOL    HW2 5930   7.858   7.869   1.516
 1876SOL     OW 5931   0.441   7.923   4.595
 1876SOL    HW1 5932   0.447   7.985   4.522
 1876SOL    HW2 5933   0.516   7.865   4.583
 1877SOL     OW 5934   6.025   6.612   1.551
 1877SOL    HW1 5935   5.967   6.564   1.610
 1877SOL    HW2 5936   5.984   6.698   1.542
 1878SOL     OW 5937   6.022   5.285   3.937
 1878SOL    HW1 5938   6.111   5.279   3.903
 1878SOL    HW2 5939   5.982   5.202   3.913
 1879SOL     OW 5940   7.608   4.195   3.338
 1879SOL    HW1 5941   7.643   4.127   3.280
 1879SOL    HW2 5942   7.675   4.206   3.405
 1880SOL     OW 5943   6.311   5.360   2.715
 1880SOL    HW1 5944   6.266   5.304   2.778
 1880SOL    HW2 5945   6.401   5.363   2.747
 1881SOL     OW 5946   3.908   7.632   0.857
 1881SOL    HW1 5947   3.876   7.668   0.774
 1881SOL    HW2 5948   3.829   7.600   0.901
 1882SOL     OW 5949   5.530   2.669   3.474
 1882SOL    HW1 5950   5.512   2.586   3.430
 1882SOL    HW2 5951   5.579   2.644   3.552
 1883SOL     OW 5952   6.922   0.044   4.118
 1883SOL    HW1 5953   6.986   8.222   4.167
 1883SOL    HW2 5954   6.965   0.128   4.103
 1884SOL     OW 5955   1.300   0.956   0.778
 1884SOL    HW1 5956   1.231   1.021   0.792
 1884SOL    HW2 5957   1.254   0.873   0.768
 1885SOL     OW 5958   1.666   6.625   4.054
 1885SOL    HW1 5959   1.593   6.670   4.012
 1885SOL    HW2 5960   1.734   6.692   4.061
 1886SOL     OW 5961   3.240   3.567   3.300
 1886SOL    HW1 5962   3.195   3.506   3.358
 1886SOL    HW2 5963   3.299   3.616   3.358
 1887SOL     OW 5964   2.333   6.376   1.375
 1887SOL    HW1 5965   2.387   6.450   1.346
 1887SOL    HW2 5966   2.393   6.302   1.377
 1888SOL     OW 5967   3.179   6.901   3.952
 1888SOL    HW1 5968   3.234   6.978   3.941
 1888SOL    HW2 5969   3.238   6.834   3.986
 1889SOL     OW 5970   4.749   4.972   3.352
 1889SOL    HW1 5971   4.821   4.936   3.301
 1889SOL    HW2 5972   4.764   5.067   3.352
 1890SOL     OW 5973   2.288   6.326   1.064
 1890SOL    HW1 5974   2.249   6.321   0.977
 1890SOL    HW2 5975   2.216   6.353   1.121
 1891SOL     OW 5976   7.403   1.584   5.294
 1891SOL    HW1 5977   7.355   1.624   5.367
 1891SOL    HW2 5978   7.386   1.490   5.302
 1892SOL     OW 5979   4.906   7.357   4.665
 1892SOL    HW1 5980   4.862   7.425   4.716
 1892SOL    HW2 5981   4.838   7.292   4.648
 1893SOL     OW 5982   7.189   7.000   3.639
 1893SOL    HW1 5983   7.158   7.056   3.710
 1893SOL    HW2 5984   7.279   7.028   3.624
 1894SOL     OW 5985   5.798   4.543   2.644
 1894SOL    HW1 5986   5.876   4.573   2.598
 1894SOL    HW2 5987   5.745   4.622   2.655
 1895SOL     OW 5988   4.572   5.899   0.258
 1895SOL    HW1 5989   4.566   5.989   0.291
 1895SOL    HW2 5990   4.626   5.906   0.180
 1896SOL     OW 5991   4.424   7.736   3.480
 1896SOL    HW1 5992   4.391   7.723   3.569
 1896SOL    HW2 5993   4.437   7.647   3.446
 1897SOL     OW 5994   0.398   4.691   5.466
 1897SOL    HW1 5995   0.450   4.643   5.530
 1897SOL    HW2 5996   0.463   4.729   5.406
 1898SOL     OW 5997   2.754   5.369   3.690
 1898SOL    HW1 5998   2.796   5.326   3.615
 1898SOL    HW2 5999   2.805   5.449   3.703
 1899SOL     OW 6000   8.001   1.538   3.711
 1899SOL    HW1 6001   7.984   1.461   3.657
 1899SOL    HW2 6002   8.088   1.523   3.747
 1900SOL     OW 6003   4.521   4.230   3.843
 1900SOL    HW1 6004   4.616   4.216   3.849
 1900SOL    HW2 6005   4.506   4.311   3.892
 1901SOL     OW 6006   4.235   7.665   5.502
 1901SOL    HW1 6007   4.197   7.728   5.564
 1901SOL    HW2 6008   4.194   7.582   5.524
 1902SOL     OW 6009   1.683   5.511   1.576
 1902SOL    HW1 6010   1.617   5.442   1.579
 1902SOL    HW2 6011   1.634   5.590   1.553
 1903SOL     OW 6012   0.073   2.656   4.311
 1903SOL    HW1 6013   0.059   2.614   4.226
 1903SOL    HW2 6014   0.166   2.678   4.311
 1904SOL     OW 6015   4.903   5.707   0.235
 1904SOL    HW1 6016   4.929   5.663   0.154
 1904SOL    HW2 6017   4.921   5.800   0.219
 1905SOL     OW 6018   3.123   1.812   2.463
 1905SOL    HW1 6019   3.195   1.874   2.476
 1905SOL    HW2 6020   3.146   1.766   2.382
 1906SOL     OW 6021   2.676   0.728   3.131
 1906SOL    HW1 6022   2.719   0.751   3.213
 1906SOL    HW2 6023   2.646   0.811   3.095
 1907SOL     OW 6024   1.964   4.425   3.761
 1907SOL    HW1 6025   1.946   4.476   3.840
 1907SOL    HW2 6026   1.897   4.452   3.699
 1908SOL     OW 6027   0.575   2.462   5.082
 1908SOL    HW1 6028   0.627   2.384   5.102
 1908SOL    HW2 6029   0.489   2.444   5.120
 1909SOL     OW 6030   1.711   8.094   4.426
 1909SOL    HW1 6031   1.661   8.172   4.449
 1909SOL    HW2 6032   1.759   8.119   4.347
 1910SOL     OW 6033   7.614   7.364   0.563
 1910SOL    HW1 6034   7.590   7.289   0.508
 1910SOL    HW2 6035   7.587   7.339   0.651
 1911SOL     OW 6036   7.503   2.481   2.003
 1911SOL    HW1 6037   7.530   2.561   1.958
 1911SOL    HW2 6038   7.411   2.496   2.026
 1912SOL     OW 6039   2.314   4.248   4.701
 1912SOL    HW1 6040   2.310   4.314   4.771
 1912SOL    HW2 6041   2.368   4.289   4.633
 1913SOL     OW 6042   5.771   4.823   5.085
 1913SOL    HW1 6043   5.707   4.764   5.046
 1913SOL    HW2 6044   5.754   4.907   5.043
 1914SOL     OW 6045   4.047   0.165   5.394
 1914SOL    HW1 6046   4.135   0.188   5.363
 1914SOL    HW2 6047   3.994   0.242   5.374
 1915SOL     OW 6048   0.286   5.982   0.574
 1915SOL    HW1 6049   0.284   6.003   0.667
 1915SOL    HW2 6050   0.210   5.925   0.560
 1916SOL     OW 6051   5.039   1.244   0.054
 1916SOL    HW1 6052   5.100   1.300   0.006
 1916SOL    HW2 6053   5.083   1.159   0.059
 1917SOL     OW 6054   3.699   2.668   1.189
 1917SOL    HW1 6055   3.620   2.658   1.135
 1917SOL    HW2 6056   3.740   2.582   1.188
 1918SOL     OW 6057   2.563   7.582   5.667
 1918SOL    HW1 6058   2.642   7.636   5.678
 1918SOL    HW2 6059   2.587   7.496   5.702
 1919SOL     OW 6060   1.648   2.725   0.084
 1919SOL    HW1 6061   1.699   2.720   0.165
 1919SOL    HW2 6062   1.713   2.720   0.014
 1920SOL     OW 6063   6.264   5.285   1.305
 1920SOL    HW1 6064   6.202   5.258   1.373
 1920SOL    HW2 6065   6.296   5.371   1.334
 1921SOL     OW 6066   1.848   5.264   1.614
 1921SOL    HW1 6067   1.826   5.354   1.591
 1921SOL    HW2 6068   1.875   5.269   1.706
 1922SOL     OW 6069   5.701   2.059   2.081
 1922SOL    HW1 6070   5.675   2.140   2.125
 1922SOL    HW2 6071   5.729   2.001   2.152
 1923SOL     OW 6072   7.828   4.058   1.402
 1923SOL    HW1 6073   7.820   3.987   1.466
 1923SOL    HW2 6074   7.758   4.042   1.339
 1924SOL     OW 6075   6.001   4.368   5.200
 1924SOL    HW1 6076   6.019   4.375   5.106
 1924SOL    HW2 6077   6.050   4.440   5.240
 1925SOL     OW 6078   3.252   6.197   5.737
 1925SOL    HW1 6079   3.301   6.204   5.655
 1925SOL    HW2 6080   3.184   6.133   5.719
 1926SOL     OW 6081   1.479   6.264   3.582
 1926SOL    HW1 6082   1.454   6.354   3.601
 1926SOL    HW2 6083   1.437   6.244   3.499
 1927SOL     OW 6084   6.669   3.544   4.854
 1927SOL    HW1 6085   6.677   3.458   4.895
 1927SOL    HW2 6086   6.639   3.601   4.925
 1928SOL     OW 6087   1.871   8.016   1.432
 1928SOL    HW1 6088   1.844   8.005   1.523
 1928SOL    HW2 6089   1.813   7.958   1.382
 1929SOL     OW 6090   5.066   2.788   0.997
 1929SOL    HW1 6091   5.112   2.704   0.999
 1929SOL    HW2 6092   4.995   2.778   1.061
 1930SOL     OW 6093   4.005   1.182   0.871
 1930SOL    HW1 6094   3.971   1.120   0.935
 1930SOL    HW2 6095   4.000   1.135   0.788
 1931SOL     OW 6096   7.927   3.705   5.430
 1931SOL    HW1 6097   7.914   3.611   5.441
 1931SOL    HW2 6098   8.022   3.718   5.436
 1932SOL     OW 6099   6.589   1.908   4.986
 1932SOL    HW1 6100   6.532   1.860   5.046
 1932SOL    HW2 6101   6.533   1.976   4.948
 1933SOL     OW 6102   2.713   2.298   5.589
 1933SOL    HW1 6103   2.790   2.309   5.533
 1933SOL    HW2 6104   2.646   2.354   5.550
 1934SOL     OW 6105   5.002   8.109   0.971
 1934SOL    HW1 6106   5.090   8.071   0.975
 1934SOL    HW2 6107   4.979   8.106   0.878
 1935SOL     OW 6108   3.875   0.320   1.938
 1935SOL    HW1 6109   3.818   0.338   2.013
 1935SOL    HW2 6110   3.946   0.267   1.975
 1936SOL     OW 6111   0.117   0.023   0.111
 1936SOL    HW1 6112   0.187   0.023   0.176
 1936SOL    HW2 6113   0.070   8.170   0.126
 1937SOL     OW 6114   6.617   3.161   5.105
 1937SOL    HW1 6115   6.706   3.194   5.094
 1937SOL    HW2 6116   6.616   3.126   5.194
 1938SOL     OW 6117   4.000   7.087   5.080
 1938SOL    HW1 6118   4.046   7.169   5.060
 1938SOL    HW2 6119   3.995   7.041   4.996
 1939SOL     OW 6120   6.175   6.818   4.173
 1939SOL    HW1 6121   6.184   6.747   4.237
 1939SOL    HW2 6122   6.137   6.890   4.222
 1940SOL     OW 6123   2.629   7.037   3.629
 1940SOL    HW1 6124   2.683   7.103   3.672
 1940SOL    HW2 6125   2.650   6.955   3.674
 1941SOL     OW 6126   5.203   5.676   2.069
 1941SOL    HW1 6127   5.243   5.744   2.124
 1941SOL    HW2 6128   5.169   5.724   1.993
 1942SOL     OW 6129   5.905   7.748   3.738
 1942SOL    HW1 6130   5.990   7.748   3.782
 1942SOL    HW2 6131   5.847   7.702   3.798
 1943SOL     OW 6132   5.055   1.353   2.293
 1943SOL    HW1 6133   5.123   1.376   2.356
 1943SOL    HW2 6134   5.099   1.297   2.229
 1944SOL     OW 6135   8.056   3.878   0.176
 1944SOL    HW1 6136   8.043   3.970   0.154
 1944SOL    HW2 6137   8.129   3.878   0.237
 1945SOL     OW 6138   1.064   5.665   1.334
 1945SOL    HW1 6139   0.974   5.635   1.346
 1945SOL    HW2 6140   1.057   5.760   1.324
 1946SOL     OW 6141   5.790   4.824   1.538
 1946SOL    HW1 6142   5.866   4.782   1.578
 1946SOL    HW2 6143   5.825   4.868   1.461
 1947SOL     OW 6144   4.324   7.016   3.684
 1947SOL    HW1 6145   4.349   7.032   3.775
 1947SOL    HW2 6146   4.388   7.066   3.633
 1948SOL     OW 6147   0.051   0.599   1.265
 1948SOL    HW1 6148   0.090   0.634   1.345
 1948SOL    HW2 6149   8.192   0.635   1.264
 1949SOL     OW 6150   2.478   4.131   2.573
 1949SOL    HW1 6151   2.536   4.186   2.626
 1949SOL    HW2 6152   2.531   4.055   2.549
 1950SOL     OW 6153   4.225   7.438   4.551
 1950SOL    HW1 6154   4.242   7.345   4.568
 1950SOL    HW2 6155   4.311   7.475   4.531
 1951SOL     OW 6156   5.489   7.686   5.282
 1951SOL    HW1 6157   5.474   7.749   5.352
 1951SOL    HW2 6158   5.581   7.660   5.291
 1952SOL     OW 6159   3.356   5.148   5.762
 1952SOL    HW1 6160   7.498   1.026   0.035
 1952SOL    HW2 6161   3.437   5.136   5.712
 1953SOL     OW 6162   3.885   2.058   4.112
 1953SOL    HW1 6163   3.954   2.018   4.164
 1953SOL    HW2 6164   3.812   1.996   4.118
 1954SOL     OW 6165   1.231   6.752   3.686
 1954SOL    HW1 6166   1.158   6.747   3.748
 1954SOL    HW2 6167   1.256   6.661   3.671
 1955SOL     OW 6168   5.023   7.119   0.990
 1955SOL    HW1 6169   5.006   7.115   1.084
 1955SOL    HW2 6170   5.043   7.029   0.965
 1956SOL     OW 6171   1.253   1.563   1.924
 1956SOL    HW1 6172   1.345   1.536   1.927
 1956SOL    HW2 6173   1.230   1.581   2.015
 1957SOL     OW 6174   4.451   4.007   2.655
 1957SOL    HW1 6175   4.530   4.056   2.677
 1957SOL    HW2 6176   4.387   4.034   2.721
 1958SOL     OW 6177   1.658   5.267   5.688
 1958SOL    HW1 6178   1.695   5.332   5.747
 1958SOL    HW2 6179   1.599   5.216   5.743
 1959SOL     OW 6180   3.040   4.613   4.250
 1959SOL    HW1 6181   3.021   4.610   4.344
 1959SOL    HW2 6182   3.022   4.524   4.219
 1960SOL     OW 6183   2.705   7.914   3.584
 1960SOL    HW1 6184   2.652   7.961   3.520
 1960SOL    HW2 6185   2.644   7.853   3.625
 1961SOL     OW 6186   6.698   3.840   1.860
 1961SOL    HW1 6187   6.621   3.891   1.886
 1961SOL    HW2 6188   6.678   3.750   1.886
 1962SOL     OW 6189   5.132   2.027   5.062
 1962SOL    HW1 6190   5.194   2.038   4.990
 1962SOL    HW2 6191   5.141   2.106   5.115
 1963SOL     OW 6192   6.982   1.055   2.908
 1963SOL    HW1 6193   7.072   1.031   2.929
 1963SOL    HW2 6194   6.930   0.980   2.936
 1964SOL     OW 6195   6.735   6.808   3.403
 1964SOL    HW1 6196   6.727   6.713   3.395
 1964SOL    HW2 6197   6.721   6.826   3.496
 1965SOL     OW 6198   2.088   5.118   3.974
 1965SOL    HW1 6199   1.997   5.144   3.985
 1965SOL    HW2 6200   2.086   5.022   3.975
 1966SOL     OW 6201   1.552   5.067   4.127
 1966SOL    HW1 6202   1.560   5.086   4.220
 1966SOL    HW2 6203   1.605   4.989   4.113
 1967SOL     OW 6204   2.271   5.566   2.757
 1967SOL    HW1 6205   2.187   5.574   2.802
 1967SOL    HW2 6206   2.336   5.590   2.823
 1968SOL     OW 6207   6.970   4.771   2.039
 1968SOL    HW1 6208   6.919   4.832   2.092
 1968SOL    HW2 6209   6.907   4.735   1.976
 1969SOL     OW 6210   0.096   6.446   3.293
 1969SOL    HW1 6211   0.170   6.493   3.331
 1969SOL    HW2 6212   0.133   6.399   3.219
 1970SOL     OW 6213   3.797   5.781   0.914
 1970SOL    HW1 6214   3.837   5.828   0.987
 1970SOL    HW2 6215   3.871   5.746   0.864
 1971SOL     OW 6216   3.641   6.921   4.816
 1971SOL    HW1 6217   3.620   7.014   4.818
 1971SOL    HW2 6218   3.558   6.878   4.836
 1972SOL     OW 6219   1.785   2.191   0.870
 1972SOL    HW1 6220   1.844   2.243   0.815
 1972SOL    HW2 6221   1.805   2.217   0.960
 1973SOL     OW 6222   1.774   1.871   3.282
 1973SOL    HW1 6223   1.747   1.905   3.197
 1973SOL    HW2 6224   1.700   1.817   3.311
 1974SOL     OW 6225   4.839   2.828   0.262
 1974SOL    HW1 6226   4.902   2.777   0.211
 1974SOL    HW2 6227   4.890   2.865   0.334
 1975SOL     OW 6228   5.816   6.076   2.890
 1975SOL    HW1 6229   5.821   6.124   2.807
 1975SOL    HW2 6230   5.906   6.074   2.921
 1976SOL     OW 6231   4.589   5.044   4.031
 1976SOL    HW1 6232   4.583   5.137   4.011
 1976SOL    HW2 6233   4.617   5.040   4.123
 1977SOL     OW 6234   2.818   7.742   1.019
 1977SOL    HW1 6235   2.818   7.658   1.066
 1977SOL    HW2 6236   2.910   7.756   0.997
 1978SOL     OW 6237   7.502   4.899   3.758
 1978SOL    HW1 6238   7.595   4.907   3.781
 1978SOL    HW2 6239   7.466   4.842   3.826
 1979SOL     OW 6240   3.836   1.854   2.625
 1979SOL    HW1 6241   3.847   1.912   2.701
 1979SOL    HW2 6242   3.922   1.814   2.613
 1980SOL     OW 6243   1.657   7.337   0.255
 1980SOL    HW1 6244   1.689   7.254   0.220
 1980SOL    HW2 6245   1.721   7.402   0.226
 1981SOL     OW 6246   3.385   2.565   2.036
 1981SOL    HW1 6247   3.388   2.510   2.114
 1981SOL    HW2 6248   3.339   2.512   1.971
 1982SOL     OW 6249   7.488   7.999   1.132
 1982SOL    HW1 6250   7.469   8.051   1.210
 1982SOL    HW2 6251   7.539   8.058   1.076
 1983SOL     OW 6252   1.301   4.428   4.924
 1983SOL    HW1 6253   1.372   4.486   4.951
 1983SOL    HW2 6254   1.270   4.389   5.006
 1984SOL     OW 6255   6.454   7.011   0.408
 1984SOL    HW1 6256   6.475   7.072   0.337
 1984SOL    HW2 6257   6.465   7.063   0.488
 1985SOL     OW 6258   1.551   2.936   1.246
 1985SOL    HW1 6259   1.536   3.029   1.260
 1985SOL    HW2 6260   1.480   2.909   1.188
 1986SOL     OW 6261   0.479   7.384   0.800
 1986SOL    HW1 6262   0.515   7.425   0.722
 1986SOL    HW2 6263   0.550   7.329   0.833
 1987SOL     OW 6264   0.233   6.090   5.409
 1987SOL    HW1 6265   0.284   6.169   5.391
 1987SOL    HW2 6266   0.142   6.119   5.404
 1988SOL     OW 6267   6.340   3.494   1.623
 1988SOL    HW1 6268   6.340   3.559   1.553
 1988SOL    HW2 6269   6.251   3.495   1.658
 1989SOL     OW 6270   5.522   5.691   2.027
 1989SOL    HW1 6271   5.527   5.603   2.064
 1989SOL    HW2 6272   5.539   5.749   2.101
 1990SOL     OW 6273   2.125   0.944   2.402
 1990SOL    HW1 6274   2.063   0.909   2.466
 1990SOL    HW2 6275   2.174   1.011   2.450
 1991SOL     OW 6276   7.502   5.065   0.072
 1991SOL    HW1 6277   7.477   5.040   0.161
 1991SOL    HW2 6278   7.427   5.114   0.039
 1992SOL     OW 6279   6.034   1.165   1.790
 1992SOL    HW1 6280   5.993   1.213   1.862
 1992SOL    HW2 6281   6.030   1.225   1.716
 1993SOL     OW 6282   3.425   8.052   1.346
 1993SOL    HW1 6283   3.364   7.992   1.304
 1993SOL    HW2 6284   3.511   8.022   1.318
 1994SOL     OW 6285   4.077   1.940   1.811
 1994SOL    HW1 6286   4.054   2.028   1.780
 1994SOL    HW2 6287   4.072   1.885   1.733
 1995SOL     OW 6288   6.813   6.813   5.061
 1995SOL    HW1 6289   6.896   6.783   5.024
 1995SOL    HW2 6290   6.825   6.907   5.076
 1996SOL     OW 6291   6.582   4.444   1.528
 1996SOL    HW1 6292   6.659   4.500   1.518
 1996SOL    HW2 6293   6.520   4.477   1.464
 1997SOL     OW 6294   4.072   1.816   0.486
 1997SOL    HW1 6295   4.007   1.887   0.489
 1997SOL    HW2 6296   4.020   1.736   0.492
 1998SOL     OW 6297   1.285   0.439   1.816
 1998SOL    HW1 6298   1.263   0.513   1.873
 1998SOL    HW2 6299   1.246   0.363   1.859
 1999SOL     OW 6300   4.010   3.502   5.405
 1999SOL    HW1 6301   4.035   3.557   5.331
 1999SOL    HW2 6302   3.992   3.564   5.476
 2000SOL     OW 6303   2.259   3.100   3.986
 2000SOL    HW1 6304   2.232   3.149   4.064
 2000SOL    HW2 6305   2.353   3.115   3.980
 2001SOL     OW 6306   5.153   4.968   1.040
 2001SOL    HW1 6307   5.066   4.998   1.013
 2001SOL    HW2 6308   5.199   5.048   1.065
 2002SOL     OW 6309   6.430   1.520   5.746
 2002SOL    HW1 6310   6.449   1.456   5.677
 2002SOL    HW2 6311   2.360   5.601   0.004
 2003SOL     OW 6312   5.280   4.729   2.962
 2003SOL    HW1 6313   5.212   4.694   3.020
 2003SOL    HW2 6314   5.310   4.809   3.006
 2004SOL     OW 6315   0.244   3.544   3.827
 2004SOL    HW1 6316   0.324   3.494   3.843
 2004SOL    HW2 6317   0.210   3.563   3.914
 2005SOL     OW 6318   3.434   4.241   1.709
 2005SOL    HW1 6319   3.520   4.278   1.729
 2005SOL    HW2 6320   3.401   4.293   1.636
 2006SOL     OW 6321   8.166   4.746   4.000
 2006SOL    HW1 6322   0.009   4.774   4.056
 2006SOL    HW2 6323   8.112   4.691   4.057
 2007SOL     OW 6324   1.413   1.014   5.382
 2007SOL    HW1 6325   1.468   0.954   5.433
 2007SOL    HW2 6326   1.345   1.042   5.444
 2008SOL     OW 6327   5.533   3.792   3.769
 2008SOL    HW1 6328   5.450   3.747   3.756
 2008SOL    HW2 6329   5.555   3.776   3.861
 2009SOL     OW 6330   6.915   6.545   0.730
 2009SOL    HW1 6331   6.915   6.500   0.646
 2009SOL    HW2 6332   7.002   6.583   0.737
 2010SOL     OW 6333   7.564   6.080   3.616
 2010SOL    HW1 6334   7.633   6.107   3.676
 2010SOL    HW2 6335   7.570   5.985   3.613
 2011SOL     OW 6336   3.293   1.895   3.171
 2011SOL    HW1 6337   3.359   1.831   3.145
 2011SOL    HW2 6338   3.250   1.919   3.089
 2012SOL     OW 6339   0.044   0.897   1.190
 2012SOL    HW1 6340   0.043   0.844   1.270
 2012SOL    HW2 6341   0.116   0.959   1.203
 2013SOL     OW 6342   6.735   4.547   4.125
 2013SOL    HW1 6343   6.735   4.537   4.220
 2013SOL    HW2 6344   6.665   4.489   4.095
 2014SOL     OW 6345   6.422   7.861   0.704
 2014SOL    HW1 6346   6.416   7.766   0.710
 2014SOL    HW2 6347   6.331   7.891   0.704
 2015SOL     OW 6348   3.473   2.773   4.641
 2015SOL    HW1 6349   3.390   2.731   4.662
 2015SOL    HW2 6350   3.509   2.798   4.726
 2016SOL     OW 6351   7.220   4.897   0.167
 2016SOL    HW1 6352   7.268   4.968   0.209
 2016SOL    HW2 6353   7.266   4.818   0.193
 2017SOL     OW 6354   3.763   8.140   2.812
 2017SOL    HW1 6355   3.837   8.080   2.804
 2017SOL    HW2 6356   3.709   8.101   2.881
 2018SOL     OW 6357   3.159   0.232   3.820
 2018SOL    HW1 6358   3.081   0.284   3.804
 2018SOL    HW2 6359   3.225   0.268   3.761
 2019SOL     OW 6360   3.413   0.525   2.890
 2019SOL    HW1 6361   3.379   0.551   2.975
 2019SOL    HW2 6362   3.503   0.558   2.889
 2020SOL     OW 6363   7.937   4.902   4.266
 2020SOL    HW1 6364   8.012   4.870   4.216
 2020SOL    HW2 6365   7.961   4.991   4.291
 2021SOL     OW 6366   4.380   1.528   3.675
 2021SOL    HW1 6367   4.315   1.478   3.625
 2021SOL    HW2 6368   4.333   1.557   3.753
 2022SOL     OW 6369   2.514   0.207   3.684
 2022SOL    HW1 6370   2.445   0.147   3.711
 2022SOL    HW2 6371   2.468   0.279   3.641
 2023SOL     OW 6372   3.704   5.709   3.789
 2023SOL    HW1 6373   3.653   5.697   3.709
 2023SOL    HW2 6374   3.711   5.804   3.799
 2024SOL     OW 6375   2.225   3.481   4.848
 2024SOL    HW1 6376   2.289   3.547   4.824
 2024SOL    HW2 6377   2.170   3.524   4.914
 2025SOL     OW 6378   3.841   5.584   4.982
 2025SOL    HW1 6379   3.824   5.675   4.959
 2025SOL    HW2 6380   3.933   5.571   4.961
 2026SOL     OW 6381   3.643   4.490   4.737
 2026SOL    HW1 6382   3.665   4.417   4.795
 2026SOL    HW2 6383   3.608   4.449   4.658
 2027SOL     OW 6384   5.988   2.633   5.635
 2027SOL    HW1 6385   5.966   2.692   5.563
 2027SOL    HW2 6386   5.983   2.688   5.713
 2028SOL     OW 6387   6.756   5.223   5.688
 2028SOL    HW1 6388   6.740   5.230   5.782
 2028SOL    HW2 6389   6.767   5.313   5.659
 2029SOL     OW 6390   4.461   0.758   5.650
 2029SOL    HW1 6391   4.521   0.833   5.651
 2029SOL    HW2 6392   4.516   0.683   5.627
 2030SOL     OW 6393   3.883   7.128   4.257
 2030SOL    HW1 6394   3.814   7.108   4.320
 2030SOL    HW2 6395   3.860   7.214   4.222
 2031SOL     OW 6396   8.024   4.749   1.517
 2031SOL    HW1 6397   7.945   4.793   1.485
 2031SOL    HW2 6398   8.092   4.816   1.510
 2032SOL     OW 6399   4.351   5.008   5.815
 2032SOL    HW1 6400   4.352   5.012   5.719
 2032SOL    HW2 6401   0.295   0.964   0.023
 2033SOL     OW 6402   3.407   6.526   4.745
 2033SOL    HW1 6403   3.431   6.443   4.785
 2033SOL    HW2 6404   3.370   6.502   4.660
 2034SOL     OW 6405   6.612   3.337   3.707
 2034SOL    HW1 6406   6.582   3.264   3.761
 2034SOL    HW2 6407   6.682   3.299   3.653
 2035SOL     OW 6408   6.238   4.956   2.599
 2035SOL    HW1 6409   6.293   4.883   2.570
 2035SOL    HW2 6410   6.205   4.929   2.685
 2036SOL     OW 6411   2.290   0.030   4.230
 2036SOL    HW1 6412   2.301   8.184   4.287
 2036SOL    HW2 6413   2.377   0.070   4.226
 2037SOL     OW 6414   4.289   1.964   0.126
 2037SOL    HW1 6415   4.304   1.903   0.198
 2037SOL    HW2 6416   4.209   1.933   0.084
 2038SOL     OW 6417   7.932   0.302   5.425
 2038SOL    HW1 6418   7.860   0.243   5.402
 2038SOL    HW2 6419   7.905   0.342   5.508
 2039SOL     OW 6420   1.245   5.455   5.281
 2039SOL    HW1 6421   1.153   5.456   5.307
 2039SOL    HW2 6422   1.283   5.531   5.325
 2040SOL     OW 6423   0.365   0.694   4.780
 2040SOL    HW1 6424   0.322   0.619   4.822
 2040SOL    HW2 6425   0.398   0.659   4.697
 2041SOL     OW 6426   4.176   5.276   1.501
 2041SOL    HW1 6427   4.194   5.184   1.519
 2041SOL    HW2 6428   4.081   5.281   1.493
 2042SOL     OW 6429   6.014   1.186   0.925
 2042SOL    HW1 6430   6.011   1.282   0.919
 2042SOL    HW2 6431   5.926   1.162   0.955
 2043SOL     OW 6432   1.588   7.746   1.660
 2043SOL    HW1 6433   1.583   7.832   1.702
 2043SOL    HW2 6434   1.679   7.719   1.673
 2044SOL     OW 6435   5.916   4.889   5.302
 2044SOL    HW1 6436   5.854   4.850   5.241
 2044SOL    HW2 6437   5.951   4.965   5.255
 2045SOL     OW 6438   4.855   6.253   3.134
 2045SOL    HW1 6439   4.868   6.183   3.198
 2045SOL    HW2 6440   4.817   6.210   3.058
 2046SOL     OW 6441   4.086   6.392   1.822
 2046SOL    HW1 6442   4.075   6.299   1.840
 2046SOL    HW2 6443   4.006   6.418   1.777
 2047SOL     OW 6444   7.429   6.304   2.839
 2047SOL    HW1 6445   7.409   6.396   2.820
 2047SOL    HW2 6446   7.372   6.254   2.780
 2048SOL     OW 6447   0.186   6.403   0.654
 2048SOL    HW1 6448   0.097   6.412   0.619
 2048SOL    HW2 6449   0.173   6.377   0.745
 2049SOL     OW 6450   3.559   8.218   4.429
 2049SOL    HW1 6451   3.592   8.228   4.518
 2049SOL    HW2 6452   3.482   0.045   4.426
 2050SOL     OW 6453   2.843   4.597   3.999
 2050SOL    HW1 6454   2.888   4.674   4.035
 2050SOL    HW2 6455   2.805   4.554   4.076
 2051SOL     OW 6456   2.401   3.681   0.583
 2051SOL    HW1 6457   2.371   3.594   0.555
 2051SOL    HW2 6458   2.360   3.693   0.669
 2052SOL     OW 6459   7.993   1.180   5.138
 2052SOL    HW1 6460   7.918   1.140   5.183
 2052SOL    HW2 6461   7.974   1.274   5.139
 2053SOL     OW 6462   3.049   8.181   0.349
 2053SOL    HW1 6463   2.995   8.180   0.428
 2053SOL    HW2 6464   2.996   8.135   0.284
 2054SOL     OW 6465   3.659   0.146   5.754
 2054SOL    HW1 6466   3.668   0.241   5.764
 2054SOL    HW2 6467   3.566   0.133   5.734
 2055SOL     OW 6468   2.037   3.888   3.847
 2055SOL    HW1 6469   1.974   3.960   3.849
 2055SOL    HW2 6470   2.028   3.846   3.932
 2056SOL     OW 6471   2.478   3.433   2.283
 2056SOL    HW1 6472   2.490   3.498   2.352
 2056SOL    HW2 6473   2.384   3.435   2.264
 2057SOL     OW 6474   6.980   7.603   5.061
 2057SOL    HW1 6475   6.974   7.622   4.967
 2057SOL    HW2 6476   6.921   7.529   5.074
 2058SOL     OW 6477   7.945   0.458   0.784
 2058SOL    HW1 6478   7.992   0.471   0.702
 2058SOL    HW2 6479   7.940   0.545   0.823
 2059SOL     OW 6480   3.603   6.764   5.690
 2059SOL    HW1 6481   3.519   6.719   5.690
 2059SOL    HW2 6482   3.653   6.723   5.760
 2060SOL     OW 6483   7.948   6.620   1.721
 2060SOL    HW1 6484   7.875   6.597   1.778
 2060SOL    HW2 6485   7.915   6.692   1.668
 2061SOL     OW 6486   5.656   4.395   2.083
 2061SOL    HW1 6487   5.664   4.314   2.033
 2061SOL    HW2 6488   5.568   4.426   2.063
 2062SOL     OW 6489   3.602   3.097   4.933
 2062SOL    HW1 6490   3.581   3.135   5.019
 2062SOL    HW2 6491   3.523   3.111   4.881
 2063SOL     OW 6492   2.683   0.054   2.839
 2063SOL    HW1 6493   2.706   0.026   2.928
 2063SOL    HW2 6494   2.689   0.150   2.841
 2064SOL     OW 6495   2.741   1.535   5.126
 2064SOL    HW1 6496   2.758   1.629   5.122
 2064SOL    HW2 6497   2.704   1.513   5.041
 2065SOL     OW 6498   6.511   1.309   1.898
 2065SOL    HW1 6499   6.449   1.323   1.827
 2065SOL    HW2 6500   6.478   1.231   1.943
 2066SOL     OW 6501   5.934   3.061   3.663
 2066SOL    HW1 6502   5.851   3.091   3.626
 2066SOL    HW2 6503   5.975   3.010   3.593
 2067SOL     OW 6504   3.040   4.209   5.252
 2067SOL    HW1 6505   3.048   4.278   5.186
 2067SOL    HW2 6506   3.130   4.188   5.276
 2068SOL     OW 6507   2.871   5.246   4.036
 2068SOL    HW1 6508   2.947   5.282   3.990
 2068SOL    HW2 6509   2.852   5.164   3.990
 2069SOL     OW 6510   1.161   1.122   4.868
 2069SOL    HW1 6511   1.231   1.117   4.802
 2069SOL    HW2 6512   1.099   1.054   4.842
 2070SOL     OW 6513   4.752   1.131   3.813
 2070SOL    HW1 6514   4.660   1.146   3.834
 2070SOL    HW2 6515   4.752   1.057   3.752
 2071SOL     OW 6516   1.292   7.420   3.376
 2071SOL    HW1 6517   1.337   7.339   3.399
 2071SOL    HW2 6518   1.203   7.408   3.409
 2072SOL     OW 6519   6.090   1.006   1.428
 2072SOL    HW1 6520   6.096   0.912   1.443
 2072SOL    HW2 6521   6.104   1.017   1.334
 2073SOL     OW 6522   6.827   3.049   1.383
 2073SOL    HW1 6523   6.757   3.104   1.347
 2073SOL    HW2 6524   6.798   2.960   1.365
 2074SOL     OW 6525   0.737   5.957   0.432
 2074SOL    HW1 6526   0.662   5.979   0.377
 2074SOL    HW2 6527   0.810   6.005   0.393
 2075SOL     OW 6528   6.822   4.981   2.130
 2075SOL    HW1 6529   6.792   5.039   2.060
 2075SOL    HW2 6530   6.800   5.027   2.211
 2076SOL     OW 6531   1.546   0.546   3.106
 2076SOL    HW1 6532   1.500   0.579   3.184
 2076SOL    HW2 6533   1.477   0.532   3.042
 2077SOL     OW 6534   1.887   3.341   1.191
 2077SOL    HW1 6535   1.799   3.370   1.213
 2077SOL    HW2 6536   1.910   3.280   1.261
 2078SOL     OW 6537   4.224   3.064   3.768
 2078SOL    HW1 6538   4.227   3.079   3.674
 2078SOL    HW2 6539   4.131   3.052   3.787
 2079SOL     OW 6540   4.807   7.008   3.722
 2079SOL    HW1 6541   4.790   6.963   3.805
 2079SOL    HW2 6542   4.768   6.951   3.656
 2080SOL     OW 6543   2.937   7.705   2.143
 2080SOL    HW1 6544   3.001   7.773   2.165
 2080SOL    HW2 6545   2.871   7.751   2.091
 2081SOL     OW 6546   5.899   0.069   1.502
 2081SOL    HW1 6547   5.952   0.031   1.572
 2081SOL    HW2 6548   5.944   0.150   1.479
 2082SOL     OW 6549   0.590   0.701   4.088
 2082SOL    HW1 6550   0.601   0.610   4.116
 2082SOL    HW2 6551   0.515   0.699   4.028
 2083SOL     OW 6552   2.878   6.145   0.898
 2083SOL    HW1 6553   2.849   6.212   0.960
 2083SOL    HW2 6554   2.877   6.189   0.813
 2084SOL     OW 6555   3.005   1.771   0.169
 2084SOL    HW1 6556   3.096   1.796   0.182
 2084SOL    HW2 6557   3.003   1.677   0.189
 2085SOL     OW 6558   4.406   2.892   5.448
 2085SOL    HW1 6559   4.456   2.926   5.522
 2085SOL    HW2 6560   4.449   2.929   5.371
 2086SOL     OW 6561   5.873   4.250   5.416
 2086SOL    HW1 6562   5.809   4.183   5.391
 2086SOL    HW2 6563   5.914   4.276   5.334
 2087SOL     OW 6564   3.981   7.543   0.399
 2087SOL    HW1 6565   4.013   7.453   0.400
 2087SOL    HW2 6566   3.953   7.558   0.309
 2088SOL     OW 6567   3.427   5.131   2.570
 2088SOL    HW1 6568   3.420   5.071   2.496
 2088SOL    HW2 6569   3.370   5.205   2.547
 2089SOL     OW 6570   5.194   5.220   1.414
 2089SOL    HW1 6571   5.252   5.214   1.490
 2089SOL    HW2 6572   5.181   5.314   1.401
 2090SOL     OW 6573   2.920   5.022   4.309
 2090SOL    HW1 6574   2.889   4.990   4.224
 2090SOL    HW2 6575   3.015   5.017   4.303
 2091SOL     OW 6576   4.352   5.146   4.383
 2091SOL    HW1 6577   4.354   5.169   4.476
 2091SOL    HW2 6578   4.333   5.228   4.338
 2092SOL     OW 6579   7.211   1.231   3.294
 2092SOL    HW1 6580   7.296   1.257   3.259
 2092SOL    HW2 6581   7.232   1.181   3.373
 2093SOL     OW 6582   5.318   5.894   2.980
 2093SOL    HW1 6583   5.323   5.987   3.001
 2093SOL    HW2 6584   5.390   5.879   2.919
 2094SOL     OW 6585   1.759   3.537   1.574
 2094SOL    HW1 6586   1.674   3.512   1.610
 2094SOL    HW2 6587   1.755   3.632   1.568
 2095SOL     OW 6588   0.379   0.468   2.910
 2095SOL    HW1 6589   0.401   0.558   2.934
 2095SOL    HW2 6590   0.303   0.477   2.852
 2096SOL     OW 6591   4.729   1.451   4.638
 2096SOL    HW1 6592   4.676   1.393   4.583
 2096SOL    HW2 6593   4.668   1.518   4.668
 2097SOL     OW 6594   5.067   6.322   1.486
 2097SOL    HW1 6595   4.983   6.341   1.528
 2097SOL    HW2 6596   5.044   6.304   1.395
 2098SOL     OW 6597   4.656   0.416   4.855
 2098SOL    HW1 6598   4.631   0.358   4.927
 2098SOL    HW2 6599   4.638   0.365   4.776
 2099SOL     OW 6600   0.596   4.056   2.187
 2099SOL    HW1 6601   0.579   4.075   2.095
 2099SOL    HW2 6602   0.585   3.961   2.194
 2100SOL     OW 6603   2.366   2.327   4.874
 2100SOL    HW1 6604   2.302   2.354   4.808
 2100SOL    HW2 6605   2.431   2.278   4.825
 2101SOL     OW 6606   8.026   3.644   4.500
 2101SOL    HW1 6607   8.012   3.720   4.556
 2101SOL    HW2 6608   8.081   3.676   4.429
 2102SOL     OW 6609   6.165   1.102   2.789
 2102SOL    HW1 6610   6.085   1.074   2.834
 2102SOL    HW2 6611   6.225   1.126   2.860
 2103SOL     OW 6612   1.090   4.553   5.603
 2103SOL    HW1 6613   1.033   4.630   5.598
 2103SOL    HW2 6614   1.058   4.494   5.535
 2104SOL     OW 6615   7.910   5.720   3.208
 2104SOL    HW1 6616   7.835   5.728   3.267
 2104SOL    HW2 6617   7.947   5.808   3.204
 2105SOL     OW 6618   2.833   1.814   1.986
 2105SOL    HW1 6619   2.766   1.778   1.928
 2105SOL    HW2 6620   2.786   1.837   2.066
 2106SOL     OW 6621   4.961   5.670   0.503
 2106SOL    HW1 6622   5.053   5.651   0.523
 2106SOL    HW2 6623   4.961   5.689   0.409
 2107SOL     OW 6624   4.007   4.526   1.384
 2107SOL    HW1 6625   3.915   4.500   1.394
 2107SOL    HW2 6626   4.019   4.597   1.447
 2108SOL     OW 6627   4.317   1.731   0.638
 2108SOL    HW1 6628   4.362   1.705   0.558
 2108SOL    HW2 6629   4.268   1.809   0.614
 2109SOL     OW 6630   7.935   6.671   4.582
 2109SOL    HW1 6631   7.908   6.659   4.491
 2109SOL    HW2 6632   7.914   6.762   4.602
 2110SOL     OW 6633   5.293   7.744   4.729
 2110SOL    HW1 6634   5.249   7.725   4.812
 2110SOL    HW2 6635   5.377   7.782   4.755
 2111SOL     OW 6636   6.425   0.773   2.544
 2111SOL    HW1 6637   6.463   0.744   2.627
 2111SOL    HW2 6638   6.374   0.698   2.513
 2112SOL     OW 6639   6.942   1.097   3.375
 2112SOL    HW1 6640   6.957   1.151   3.453
 2112SOL    HW2 6641   7.003   1.133   3.310
 2113SOL     OW 6642   2.521   1.986   1.671
 2113SOL    HW1 6643   2.573   1.932   1.612
 2113SOL    HW2 6644   2.543   2.076   1.647
 2114SOL     OW 6645   5.737   7.178   1.758
 2114SOL    HW1 6646   5.663   7.235   1.779
 2114SOL    HW2 6647   5.740   7.177   1.662
 2115SOL     OW 6648   2.818   0.379   1.657
 2115SOL    HW1 6649   2.887   0.314   1.673
 2115SOL    HW2 6650   2.865   0.459   1.635
 2116SOL     OW 6651   4.761   3.214   5.745
 2116SOL    HW1 6652   4.789   3.297   5.784
 2116SOL    HW2 6653   4.698   3.240   5.678
 2117SOL     OW 6654   8.048   2.838   2.086
 2117SOL    HW1 6655   8.006   2.800   2.163
 2117SOL    HW2 6656   8.087   2.919   2.117
 2118SOL     OW 6657   5.697   3.394   1.445
 2118SOL    HW1 6658   5.604   3.395   1.423
 2118SOL    HW2 6659   5.742   3.393   1.360
 2119SOL     OW 6660   5.015   4.482   0.089
 2119SOL    HW1 6661   5.033   4.388   0.096
 2119SOL    HW2 6662   5.065   4.511   0.013
 2120SOL     OW 6663   2.060   1.686   4.805
 2120SOL    HW1 6664   2.004   1.750   4.849
 2120SOL    HW2 6665   2.143   1.732   4.792
 2121SOL     OW 6666   6.459   6.647   1.920
 2121SOL    HW1 6667   6.385   6.688   1.875
 2121SOL    HW2 6668   6.495   6.716   1.975
 2122SOL     OW 6669   7.163   7.376   4.724
 2122SOL    HW1 6670   7.203   7.391   4.638
 2122SOL    HW2 6671   7.086   7.433   4.725
 2123SOL     OW 6672   6.276   4.416   0.845
 2123SOL    HW1 6673   6.251   4.376   0.762
 2123SOL    HW2 6674   6.211   4.485   0.859
 2124SOL     OW 6675   5.107   0.180   3.231
 2124SOL    HW1 6676   5.123   0.229   3.150
 2124SOL    HW2 6677   5.089   0.247   3.297
 2125SOL     OW 6678   2.813   0.503   0.562
 2125SOL    HW1 6679   2.862   0.584   0.572
 2125SOL    HW2 6680   2.838   0.470   0.476
 2126SOL     OW 6681   3.911   6.009   4.077
 2126SOL    HW1 6682   3.992   5.959   4.069
 2126SOL    HW2 6683   3.931   6.078   4.140
 2127SOL     OW 6684   0.847   0.955   3.112
 2127SOL    HW1 6685   0.781   1.023   3.123
 2127SOL    HW2 6686   0.800   0.873   3.124
 2128SOL     OW 6687   3.353   2.274   3.131
 2128SOL    HW1 6688   3.423   2.209   3.127
 2128SOL    HW2 6689   3.326   2.285   3.040
 2129SOL     OW 6690   3.829   7.011   1.392
 2129SOL    HW1 6691   3.877   7.089   1.421
 2129SOL    HW2 6692   3.741   7.043   1.371
 2130SOL     OW 6693   5.132   5.290   4.705
 2130SOL    HW1 6694   5.118   5.196   4.700
 2130SOL    HW2 6695   5.044   5.328   4.706
 2131SOL     OW 6696   1.221   3.559   3.949
 2131SOL    HW1 6697   1.276   3.533   4.023
 2131SOL    HW2 6698   1.179   3.478   3.921
 2132SOL     OW 6699   8.018   5.350   4.792
 2132SOL    HW1 6700   7.934   5.387   4.766
 2132SOL    HW2 6701   8.082   5.398   4.739
 2133SOL     OW 6702   2.997   0.155   1.576
 2133SOL    HW1 6703   2.965   0.099   1.505
 2133SOL    HW2 6704   2.994   0.100   1.654
 2134SOL     OW 6705   2.797   6.586   0.148
 2134SOL    HW1 6706   2.864   6.626   0.092
 2134SOL    HW2 6707   2.799   6.493   0.125
 2135SOL     OW 6708   8.146   7.573   0.360
 2135SOL    HW1 6709   8.191   7.536   0.284
 2135SOL    HW2 6710   8.109   7.497   0.405
 2136SOL     OW 6711   2.757   2.606   4.684
 2136SOL    HW1 6712   2.715   2.584   4.601
 2136SOL    HW2 6713   2.691   2.586   4.750
 2137SOL     OW 6714   7.437   0.396   1.921
 2137SOL    HW1 6715   7.367   0.458   1.942
 2137SOL    HW2 6716   7.497   0.445   1.865
 2138SOL     OW 6717   4.129   0.094   2.460
 2138SOL    HW1 6718   4.066   0.029   2.491
 2138SOL    HW2 6719   4.077   0.173   2.447
 2139SOL     OW 6720   1.305   5.500   0.619
 2139SOL    HW1 6721   1.308   5.413   0.658
 2139SOL    HW2 6722   1.377   5.547   0.660
 2140SOL     OW 6723   4.122   7.747   0.503
 2140SOL    HW1 6724   4.171   7.720   0.581
 2140SOL    HW2 6725   4.073   7.669   0.477
 2141SOL     OW 6726   6.565   5.201   3.580
 2141SOL    HW1 6727   6.650   5.209   3.537
 2141SOL    HW2 6728   6.544   5.290   3.608
 2142SOL     OW 6729   4.354   6.367   1.191
 2142SOL    HW1 6730   4.261   6.381   1.210
 2142SOL    HW2 6731   4.377   6.287   1.239
 2143SOL     OW 6732   0.699   4.390   4.924
 2143SOL    HW1 6733   0.723   4.480   4.904
 2143SOL    HW2 6734   0.605   4.386   4.908
 2144SOL     OW 6735   1.862   4.121   3.789
 2144SOL    HW1 6736   1.870   4.153   3.879
 2144SOL    HW2 6737   1.784   4.065   3.791
 2145SOL     OW 6738   6.403   3.626   3.973
 2145SOL    HW1 6739   6.447   3.542   3.986
 2145SOL    HW2 6740   6.330   3.624   4.035
 2146SOL     OW 6741   7.628   6.183   5.067
 2146SOL    HW1 6742   7.543   6.222   5.049
 2146SOL    HW2 6743   7.682   6.256   5.097
 2147SOL     OW 6744   4.897   2.062   3.553
 2147SOL    HW1 6745   4.829   2.116   3.595
 2147SOL    HW2 6746   4.882   2.073   3.459
 2148SOL     OW 6747   1.724   0.806   5.674
 2148SOL    HW1 6748   1.718   0.711   5.662
 2148SOL    HW2 6749   1.805   0.820   5.722
 2149SOL     OW 6750   2.206   5.500   2.510
 2149SOL    HW1 6751   2.225   5.546   2.592
 2149SOL    HW2 6752   2.291   5.491   2.467
 2150SOL     OW 6753   4.268   0.815   5.472
 2150SOL    HW1 6754   4.328   0.833   5.544
 2150SOL    HW2 6755   4.187   0.859   5.496
 2151SOL     OW 6756   7.468   4.958   5.595
 2151SOL    HW1 6757   7.460   4.906   5.515
 2151SOL    HW2 6758   7.383   4.950   5.638
 2152SOL     OW 6759   6.685   7.748   4.907
 2152SOL    HW1 6760   6.648   7.696   4.979
 2152SOL    HW2 6761   6.774   7.714   4.896
 2153SOL     OW 6762   5.490   3.815   3.410
 2153SOL    HW1 6763   5.549   3.785   3.340
 2153SOL    HW2 6764   5.458   3.734   3.450
 2154SOL     OW 6765   3.966   2.629   5.735
 2154SOL    HW1 6766   3.956   2.583   5.652
 2154SOL    HW2 6767   4.046   2.594   5.773
 2155SOL     OW 6768   4.007   4.636   4.555
 2155SOL    HW1 6769   4.045   4.579   4.622
 2155SOL    HW2 6770   3.923   4.664   4.592
 2156SOL     OW 6771   0.858   3.096   3.959
 2156SOL    HW1 6772   0.939   3.136   3.926
 2156SOL    HW2 6773   0.798   3.097   3.884
 2157SOL     OW 6774   0.601   4.056   1.555
 2157SOL    HW1 6775   0.568   4.145   1.544
 2157SOL    HW2 6776   0.523   4.001   1.555
 2158SOL     OW 6777   3.631   4.383   0.898
 2158SOL    HW1 6778   3.551   4.397   0.848
 2158SOL    HW2 6779   3.653   4.470   0.932
 2159SOL     OW 6780   3.618   3.509   2.122
 2159SOL    HW1 6781   3.620   3.414   2.108
 2159SOL    HW2 6782   3.629   3.547   2.035
 2160SOL     OW 6783   6.122   3.903   3.579
 2160SOL    HW1 6784   6.061   3.955   3.631
 2160SOL    HW2 6785   6.143   3.828   3.635
 2161SOL     OW 6786   5.053   1.405   0.888
 2161SOL    HW1 6787   5.106   1.452   0.952
 2161SOL    HW2 6788   5.117   1.357   0.834
 2162SOL     OW 6789   0.589   0.472   1.307
 2162SOL    HW1 6790   0.539   0.432   1.236
 2162SOL    HW2 6791   0.581   0.566   1.292
 2163SOL     OW 6792   0.215   4.805   0.423
 2163SOL    HW1 6793   0.236   4.715   0.399
 2163SOL    HW2 6794   0.245   4.857   0.349
 2164SOL     OW 6795   3.623   1.076   0.324
 2164SOL    HW1 6796   3.613   1.082   0.229
 2164SOL    HW2 6797   3.679   1.150   0.347
 2165SOL     OW 6798   2.485   3.514   0.888
 2165SOL    HW1 6799   2.402   3.556   0.865
 2165SOL    HW2 6800   2.548   3.586   0.891
 2166SOL     OW 6801   5.397   1.632   5.717
 2166SOL    HW1 6802   5.443   1.716   5.724
 2166SOL    HW2 6803   5.394   1.598   5.806
 2167SOL     OW 6804   4.049   3.703   4.730
 2167SOL    HW1 6805   3.961   3.723   4.761
 2167SOL    HW2 6806   4.041   3.615   4.692
 2168SOL     OW 6807   1.055   5.161   0.269
 2168SOL    HW1 6808   1.138   5.135   0.229
 2168SOL    HW2 6809   0.993   5.093   0.241
 2169SOL     OW 6810   2.197   1.658   2.466
 2169SOL    HW1 6811   2.206   1.660   2.561
 2169SOL    HW2 6812   2.116   1.705   2.448
 2170SOL     OW 6813   7.123   7.687   1.943
 2170SOL    HW1 6814   7.117   7.635   2.023
 2170SOL    HW2 6815   7.095   7.775   1.969
 2171SOL     OW 6816   1.443   0.082   3.403
 2171SOL    HW1 6817   1.476   0.122   3.484
 2171SOL    HW2 6818   1.434   0.155   3.342
 2172SOL     OW 6819   2.535   1.996   0.782
 2172SOL    HW1 6820   2.539   2.018   0.689
 2172SOL    HW2 6821   2.598   1.925   0.792
 2173SOL     OW 6822   7.729   6.770   5.383
 2173SOL    HW1 6823   7.653   6.713   5.374
 2173SOL    HW2 6824   7.797   6.713   5.420
 2174SOL     OW 6825   2.459   4.668   3.275
 2174SOL    HW1 6826   2.400   4.609   3.322
 2174SOL    HW2 6827   2.532   4.612   3.249
 2175SOL     OW 6828   6.101   5.075   4.190
 2175SOL    HW1 6829   6.031   5.036   4.242
 2175SOL    HW2 6830   6.161   5.114   4.254
 2176SOL     OW 6831   2.885   6.217   4.947
 2176SOL    HW1 6832   2.826   6.151   4.911
 2176SOL    HW2 6833   2.846   6.242   5.030
 2177SOL     OW 6834   2.439   1.245   1.265
 2177SOL    HW1 6835   2.454   1.327   1.218
 2177SOL    HW2 6836   2.513   1.189   1.241
 2178SOL     OW 6837   4.886   6.306   2.141
 2178SOL    HW1 6838   4.848   6.388   2.110
 2178SOL    HW2 6839   4.852   6.239   2.082
 2179SOL     OW 6840   6.852   3.475   4.013
 2179SOL    HW1 6841   6.799   3.429   4.078
 2179SOL    HW2 6842   6.916   3.524   4.065
 2180SOL     OW 6843   4.313   3.366   1.919
 2180SOL    HW1 6844   4.230   3.334   1.955
 2180SOL    HW2 6845   4.297   3.458   1.899
 2181SOL     OW 6846   4.501   1.046   1.383
 2181SOL    HW1 6847   4.451   0.974   1.421
 2181SOL    HW2 6848   4.460   1.125   1.418
 2182SOL     OW 6849   7.933   6.174   4.317
 2182SOL    HW1 6850   7.939   6.245   4.380
 2182SOL    HW2 6851   7.864   6.117   4.351
 2183SOL     OW 6852   1.973   0.682   2.890
 2183SOL    HW1 6853   1.912   0.667   2.963
 2183SOL    HW2 6854   1.932   0.639   2.815
 2184SOL     OW 6855   1.041   1.431   2.623
 2184SOL    HW1 6856   1.029   1.517   2.583
 2184SOL    HW2 6857   0.952   1.401   2.643
 2185SOL     OW 6858   7.136   1.337   0.419
 2185SOL    HW1 6859   7.228   1.341   0.394
 2185SOL    HW2 6860   7.132   1.265   0.482
 2186SOL     OW 6861   1.169   4.748   4.006
 2186SOL    HW1 6862   1.139   4.696   4.080
 2186SOL    HW2 6863   1.093   4.754   3.948
 2187SOL     OW 6864   7.844   5.628   4.995
 2187SOL    HW1 6865   7.809   5.623   5.084
 2187SOL    HW2 6866   7.933   5.595   5.002
 2188SOL     OW 6867   3.373   4.754   4.500
 2188SOL    HW1 6868   3.407   4.693   4.566
 2188SOL    HW2 6869   3.338   4.827   4.551
 2189SOL     OW 6870   3.584   6.230   2.676
 2189SOL    HW1 6871   3.664   6.180   2.691
 2189SOL    HW2 6872   3.527   6.170   2.628
 2190SOL     OW 6873   6.882   3.243   5.173
 2190SOL    HW1 6874   6.927   3.274   5.094
 2190SOL    HW2 6875   6.935   3.170   5.204
 2191SOL     OW 6876   6.015   3.655   0.525
 2191SOL    HW1 6877   5.938   3.693   0.567
 2191SOL    HW2 6878   6.005   3.676   0.432
 2192SOL     OW 6879   4.219   1.982   3.340
 2192SOL    HW1 6880   4.189   1.894   3.362
 2192SOL    HW2 6881   4.265   2.012   3.418
 2193SOL     OW 6882   3.422   3.867   2.772
 2193SOL    HW1 6883   3.389   3.800   2.831
 2193SOL    HW2 6884   3.428   3.823   2.687
 2194SOL     OW 6885   3.556   3.911   4.234
 2194SOL    HW1 6886   3.651   3.901   4.225
 2194SOL    HW2 6887   3.522   3.822   4.229
 2195SOL     OW 6888   6.955   0.130   1.837
 2195SOL    HW1 6889   6.922   0.205   1.787
 2195SOL    HW2 6890   7.033   0.102   1.789
 2196SOL     OW 6891   6.066   6.179   4.410
 2196SOL    HW1 6892   6.137   6.127   4.447
 2196SOL    HW2 6893   6.012   6.204   4.485
 2197SOL     OW 6894   3.343   1.365   5.597
 2197SOL    HW1 6895   3.312   1.398   5.513
 2197SOL    HW2 6896   3.390   1.439   5.636
 2198SOL     OW 6897   1.051   0.398   1.515
 2198SOL    HW1 6898   1.083   0.429   1.600
 2198SOL    HW2 6899   0.958   0.379   1.529
 2199SOL     OW 6900   2.877   5.718   0.057
 2199SOL    HW1 6901   2.794   5.722   0.010
 2199SOL    HW2 6902   7.054   1.572   5.811
 2200SOL     OW 6903   2.603   6.039   0.861
 2200SOL    HW1 6904   2.574   5.958   0.903
 2200SOL    HW2 6905   2.698   6.030   0.855
 2201SOL     OW 6906   0.740   2.060   4.413
 2201SOL    HW1 6907   0.754   2.146   4.373
 2201SOL    HW2 6908   0.646   2.043   4.403
 2202SOL     OW 6909   5.469   5.886   5.677
 2202SOL    HW1 6910   5.398   5.854   5.622
 2202SOL    HW2 6911   5.508   5.807   5.714
 2203SOL     OW 6912   0.148   7.134   2.593
 2203SOL    HW1 6913   0.153   7.042   2.618
 2203SOL    HW2 6914   0.196   7.139   2.511
 2204SOL     OW 6915   5.764   0.154   0.766
 2204SOL    HW1 6916   5.794   0.107   0.844
 2204SOL    HW2 6917   5.725   0.234   0.801
 2205SOL     OW 6918   5.918   7.567   1.830
 2205SOL    HW1 6919   5.969   7.497   1.790
 2205SOL    HW2 6920   5.830   7.531   1.840
 2206SOL     OW 6921   2.382   5.595   4.927
 2206SOL    HW1 6922   2.373   5.566   5.018
 2206SOL    HW2 6923   2.293   5.589   4.891
 2207SOL     OW 6924   3.403   3.936   0.930
 2207SOL    HW1 6925   3.353   3.904   0.855
 2207SOL    HW2 6926   3.337   3.957   0.996
 2208SOL     OW 6927   3.577   4.447   2.872
 2208SOL    HW1 6928   3.499   4.439   2.818
 2208SOL    HW2 6929   3.629   4.369   2.851
 2209SOL     OW 6930   6.595   7.222   4.924
 2209SOL    HW1 6931   6.524   7.158   4.927
 2209SOL    HW2 6932   6.561   7.293   4.870
 2210SOL     OW 6933   8.194   2.813   5.189
 2210SOL    HW1 6934   8.183   2.740   5.128
 2210SOL    HW2 6935   8.170   2.890   5.138
 2211SOL     OW 6936   1.962   0.469   3.469
 2211SOL    HW1 6937   2.042   0.422   3.447
 2211SOL    HW2 6938   1.897   0.400   3.481
 2212SOL     OW 6939   7.456   3.871   3.721
 2212SOL    HW1 6940   7.387   3.808   3.742
 2212SOL    HW2 6941   7.409   3.953   3.703
 2213SOL     OW 6942   3.882   6.847   1.776
 2213SOL    HW1 6943   3.969   6.835   1.815
 2213SOL    HW2 6944   3.890   6.928   1.726
 2214SOL     OW 6945   7.346   4.376   3.884
 2214SOL    HW1 6946   7.310   4.464   3.891
 2214SOL    HW2 6947   7.275   4.324   3.847
 2215SOL     OW 6948   8.019   7.352   5.001
 2215SOL    HW1 6949   8.048   7.433   5.042
 2215SOL    HW2 6950   7.927   7.343   5.027
 2216SOL     OW 6951   3.368   3.279   2.148
 2216SOL    HW1 6952   3.364   3.338   2.224
 2216SOL    HW2 6953   3.461   3.258   2.140
 2217SOL     OW 6954   4.047   0.706   5.318
 2217SOL    HW1 6955   4.138   0.710   5.347
 2217SOL    HW2 6956   4.001   0.765   5.377
 2218SOL     OW 6957   7.781   1.535   3.483
 2218SOL    HW1 6958   7.704   1.479   3.487
 2218SOL    HW2 6959   7.841   1.489   3.425
 2219SOL     OW 6960   0.759   4.634   4.586
 2219SOL    HW1 6961   0.777   4.655   4.678
 2219SOL    HW2 6962   0.765   4.718   4.541
 2220SOL     OW 6963   1.582   0.653   0.478
 2220SOL    HW1 6964   1.586   0.660   0.383
 2220SOL    HW2 6965   1.519   0.721   0.504
 2221SOL     OW 6966   5.332   7.842   5.052
 2221SOL    HW1 6967   5.396   7.845   4.981
 2221SOL    HW2 6968   5.366   7.775   5.112
 2222SOL     OW 6969   7.625   4.332   0.647
 2222SOL    HW1 6970   7.564   4.395   0.609
 2222SOL    HW2 6971   7.631   4.357   0.739
 2223SOL     OW 6972   1.017   4.068   5.582
 2223SOL    HW1 6973   1.068   4.129   5.636
 2223SOL    HW2 6974   1.078   4.039   5.514
 2224SOL     OW 6975   6.898   1.790   3.427
 2224SOL    HW1 6976   6.834   1.776   3.497
 2224SOL    HW2 6977   6.884   1.880   3.399
 2225SOL     OW 6978   7.405   3.347   0.147
 2225SOL    HW1 6979   7.436   3.417   0.205
 2225SOL    HW2 6980   7.464   3.349   0.072
 2226SOL     OW 6981   3.167   1.431   3.562
 2226SOL    HW1 6982   3.241   1.381   3.596
 2226SOL    HW2 6983   3.109   1.444   3.637
 2227SOL     OW 6984   7.135   6.576   1.778
 2227SOL    HW1 6985   7.168   6.658   1.742
 2227SOL    HW2 6986   7.184   6.508   1.733
 2228SOL     OW 6987   1.757   7.924   3.333
 2228SOL    HW1 6988   1.741   7.873   3.413
 2228SOL    HW2 6989   1.674   7.922   3.286
 2229SOL     OW 6990   6.653   0.343   2.383
 2229SOL    HW1 6991   6.686   0.426   2.350
 2229SOL    HW2 6992   6.560   0.343   2.359
 2230SOL     OW 6993   1.355   4.194   1.908
 2230SOL    HW1 6994   1.446   4.166   1.916
 2230SOL    HW2 6995   1.323   4.199   1.998
 2231SOL     OW 6996   1.637   2.399   4.258
 2231SOL    HW1 6997   1.615   2.352   4.338
 2231SOL    HW2 6998   1.705   2.346   4.217
 2232SOL     OW 6999   4.360   2.264   5.267
 2232SOL    HW1 7000   4.413   2.316   5.206
 2232SOL    HW2 7001   4.403   2.179   5.269
 2233SOL     OW 7002   4.992   5.002   2.930
 2233SOL    HW1 7003   5.070   4.978   2.880
 2233SOL    HW2 7004   4.921   4.951   2.891
 2234SOL     OW 7005   6.390   6.563   3.992
 2234SOL    HW1 7006   6.479   6.554   4.027
 2234SOL    HW2 7007   6.375   6.658   3.990
 2235SOL     OW 7008   6.748   1.421   4.771
 2235SOL    HW1 7009   6.657   1.398   4.792
 2235SOL    HW2 7010   6.754   1.515   4.786
 2236SOL     OW 7011   1.867   5.702   2.702
 2236SOL    HW1 7012   1.942   5.753   2.732
 2236SOL    HW2 7013   1.813   5.765   2.654
 2237SOL     OW 7014   7.604   2.182   3.245
 2237SOL    HW1 7015   7.653   2.116   3.196
 2237SOL    HW2 7016   7.642   2.266   3.218
 2238SOL     OW 7017   7.361   6.187   4.255
 2238SOL    HW1 7018   7.319   6.115   4.301
 2238SOL    HW2 7019   7.302   6.261   4.268
 2239SOL     OW 7020   7.697   7.895   2.197
 2239SOL    HW1 7021   7.792   7.884   2.195
 2239SOL    HW2 7022   7.678   7.924   2.286
 2240SOL     OW 7023   2.042   1.259   2.986
 2240SOL    HW1 7024   2.063   1.330   3.047
 2240SOL    HW2 7025   1.948   1.245   2.997
 2241SOL     OW 7026   2.166   1.999   5.430
 2241SOL    HW1 7027   2.204   2.056   5.363
 2241SOL    HW2 7028   2.216   2.019   5.509
 2242SOL     OW 7029   4.292   6.783   1.681
 2242SOL    HW1 7030   4.315   6.768   1.589
 2242SOL    HW2 7031   4.289   6.695   1.719
 2243SOL     OW 7032   1.926   3.664   4.807
 2243SOL    HW1 7033   1.893   3.700   4.725
 2243SOL    HW2 7034   2.018   3.690   4.810
 2244SOL     OW 7035   7.459   0.775   2.849
 2244SOL    HW1 7036   7.506   0.815   2.923
 2244SOL    HW2 7037   7.528   0.739   2.794
 2245SOL     OW 7038   1.896   2.926   5.116
 2245SOL    HW1 7039   1.890   3.021   5.123
 2245SOL    HW2 7040   1.838   2.893   5.185
 2246SOL     OW 7041   6.681   2.182   4.469
 2246SOL    HW1 7042   6.615   2.234   4.516
 2246SOL    HW2 7043   6.691   2.226   4.385
 2247SOL     OW 7044   1.660   5.004   0.028
 2247SOL    HW1 7045   1.616   4.919   0.024
 2247SOL    HW2 7046   1.710   5.001   0.110
 2248SOL     OW 7047   0.442   6.237   1.567
 2248SOL    HW1 7048   0.397   6.154   1.582
 2248SOL    HW2 7049   0.535   6.216   1.577
 2249SOL     OW 7050   2.942   8.074   0.814
 2249SOL    HW1 7051   3.004   8.113   0.876
 2249SOL    HW2 7052   2.954   7.980   0.823
 2250SOL     OW 7053   5.839   2.489   4.544
 2250SOL    HW1 7054   5.910   2.434   4.578
 2250SOL    HW2 7055   5.879   2.540   4.474
 2251SOL     OW 7056   0.049   4.724   3.060
 2251SOL    HW1 7057   0.059   4.632   3.084
 2251SOL    HW2 7058   8.184   4.737   3.052
 2252SOL     OW 7059   3.132   2.079   0.244
 2252SOL    HW1 7060   3.170   2.131   0.173
 2252SOL    HW2 7061   3.184   1.999   0.246
 2253SOL     OW 7062   0.579   6.521   0.525
 2253SOL    HW1 7063   0.593   6.603   0.478
 2253SOL    HW2 7064   0.567   6.456   0.456
 2254SOL     OW 7065   1.826   2.195   2.206
 2254SOL    HW1 7066   1.859   2.159   2.289
 2254SOL    HW2 7067   1.801   2.118   2.155
 2255SOL     OW 7068   6.602   2.389   2.234
 2255SOL    HW1 7069   6.697   2.401   2.243
 2255SOL    HW2 7070   6.587   2.298   2.259
 2256SOL     OW 7071   0.625   4.944   3.301
 2256SOL    HW1 7072   0.632   4.870   3.361
 2256SOL    HW2 7073   0.675   4.917   3.224
 2257SOL     OW 7074   2.742   3.807   4.859
 2257SOL    HW1 7075   2.731   3.725   4.908
 2257SOL    HW2 7076   2.742   3.875   4.926
 2258SOL     OW 7077   1.406   5.921   1.123
 2258SOL    HW1 7078   1.311   5.932   1.126
 2258SOL    HW2 7079   1.420   5.844   1.069
 2259SOL     OW 7080   6.679   5.858   1.404
 2259SOL    HW1 7081   6.638   5.940   1.431
 2259SOL    HW2 7082   6.731   5.881   1.327
 2260SOL     OW 7083   7.623   7.756   0.676
 2260SOL    HW1 7084   7.686   7.704   0.626
 2260SOL    HW2 7085   7.629   7.722   0.765
 2261SOL     OW 7086   2.627   4.407   0.910
 2261SOL    HW1 7087   2.676   4.361   0.842
 2261SOL    HW2 7088   2.537   4.408   0.878
 2262SOL     OW 7089   8.136   6.345   3.593
 2262SOL    HW1 7090   8.108   6.389   3.513
 2262SOL    HW2 7091   8.092   6.393   3.663
 2263SOL     OW 7092   5.367   0.385   5.115
 2263SOL    HW1 7093   5.391   0.445   5.186
 2263SOL    HW2 7094   5.283   0.418   5.083
 2264SOL     OW 7095   2.059   5.152   0.967
 2264SOL    HW1 7096   2.097   5.227   0.922
 2264SOL    HW2 7097   2.106   5.147   1.050
 2265SOL     OW 7098   6.476   3.788   0.157
 2265SOL    HW1 7099   6.429   3.757   0.080
 2265SOL    HW2 7100   6.562   3.746   0.151
 2266SOL     OW 7101   8.223   4.805   1.219
 2266SOL    HW1 7102   8.204   4.864   1.292
 2266SOL    HW2 7103   0.067   4.751   1.249
 2267SOL     OW 7104   7.013   1.966   0.917
 2267SOL    HW1 7105   7.036   2.023   0.990
 2267SOL    HW2 7106   7.079   1.896   0.919
 2268SOL     OW 7107   1.072   5.666   4.437
 2268SOL    HW1 7108   1.108   5.751   4.463
 2268SOL    HW2 7109   1.026   5.634   4.515
 2269SOL     OW 7110   2.219   7.107   1.561
 2269SOL    HW1 7111   2.291   7.170   1.558
 2269SOL    HW2 7112   2.160   7.142   1.628
 2270SOL     OW 7113   3.033   3.003   0.237
 2270SOL    HW1 7114   2.946   3.039   0.220
 2270SOL    HW2 7115   3.039   3.000   0.332
 2271SOL     OW 7116   6.772   6.165   0.097
 2271SOL    HW1 7117   6.772   6.102   0.025
 2271SOL    HW2 7118   6.680   6.187   0.109
 2272SOL     OW 7119   6.458   4.808   1.849
 2272SOL    HW1 7120   6.453   4.870   1.776
 2272SOL    HW2 7121   6.469   4.723   1.807
 2273SOL     OW 7122   7.842   3.758   0.712
 2273SOL    HW1 7123   7.885   3.694   0.769
 2273SOL    HW2 7124   7.749   3.739   0.720
 2274SOL     OW 7125   8.121   0.172   4.090
 2274SOL    HW1 7126   8.057   0.217   4.145
 2274SOL    HW2 7127   8.196   0.231   4.088
 2275SOL     OW 7128   8.044   3.979   0.714
 2275SOL    HW1 7129   8.092   4.055   0.681
 2275SOL    HW2 7130   7.975   4.016   0.769
 2276SOL     OW 7131   5.186   2.137   3.531
 2276SOL    HW1 7132   5.095   2.155   3.506
 2276SOL    HW2 7133   5.230   2.222   3.524
 2277SOL     OW 7134   2.623   4.069   2.306
 2277SOL    HW1 7135   2.624   4.163   2.321
 2277SOL    HW2 7136   2.531   4.048   2.287
 2278SOL     OW 7137   0.644   5.889   4.284
 2278SOL    HW1 7138   0.711   5.862   4.221
 2278SOL    HW2 7139   0.640   5.817   4.347
 2279SOL     OW 7140   7.456   4.779   3.013
 2279SOL    HW1 7141   7.421   4.761   3.100
 2279SOL    HW2 7142   7.550   4.763   3.021
 2280SOL     OW 7143   2.933   6.905   0.868
 2280SOL    HW1 7144   2.851   6.880   0.825
 2280SOL    HW2 7145   2.982   6.951   0.800
 2281SOL     OW 7146   4.643   7.704   2.745
 2281SOL    HW1 7147   4.672   7.659   2.824
 2281SOL    HW2 7148   4.705   7.776   2.734
 2282SOL     OW 7149   0.565   2.201   5.165
 2282SOL    HW1 7150   0.535   2.195   5.074
 2282SOL    HW2 7151   0.545   2.115   5.202
 2283SOL     OW 7152   3.217   6.030   2.431
 2283SOL    HW1 7153   3.307   6.005   2.409
 2283SOL    HW2 7154   3.168   5.948   2.428
 2284SOL     OW 7155   0.927   5.525   3.431
 2284SOL    HW1 7156   0.984   5.514   3.355
 2284SOL    HW2 7157   0.985   5.558   3.500
 2285SOL     OW 7158   8.126   7.660   4.126
 2285SOL    HW1 7159   8.167   7.611   4.055
 2285SOL    HW2 7160   8.056   7.603   4.158
 2286SOL     OW 7161   7.569   3.891   0.193
 2286SOL    HW1 7162   7.598   3.963   0.137
 2286SOL    HW2 7163   7.649   3.860   0.235
 2287SOL     OW 7164   2.445   5.592   4.241
 2287SOL    HW1 7165   2.535   5.570   4.218
 2287SOL    HW2 7166   2.453   5.642   4.322
 2288SOL     OW 7167   6.508   4.843   2.167
 2288SOL    HW1 7168   6.500   4.916   2.228
 2288SOL    HW2 7169   6.467   4.875   2.086
 2289SOL     OW 7170   2.212   1.689   5.252
 2289SOL    HW1 7171   2.174   1.776   5.242
 2289SOL    HW2 7172   2.253   1.671   5.167
 2290SOL     OW 7173   0.573   2.673   2.492
 2290SOL    HW1 7174   0.513   2.605   2.521
 2290SOL    HW2 7175   0.633   2.685   2.565
 2291SOL     OW 7176   4.936   6.635   2.723
 2291SOL    HW1 7177   4.961   6.716   2.678
 2291SOL    HW2 7178   4.924   6.661   2.814
 2292SOL     OW 7179   5.957   2.206   3.244
 2292SOL    HW1 7180   6.047   2.235   3.262
 2292SOL    HW2 7181   5.936   2.147   3.317
 2293SOL     OW 7182   4.291   7.361   0.701
 2293SOL    HW1 7183   4.241   7.440   0.721
 2293SOL    HW2 7184   4.305   7.364   0.606
 2294SOL     OW 7185   4.288   1.487   0.039
 2294SOL    HW1 7186   0.149   5.635   5.772
 2294SOL    HW2 7187   4.235   1.538   0.100
 2295SOL     OW 7188   3.984   3.377   5.800
 2295SOL    HW1 7189   3.964   3.466   5.770
 2295SOL    HW2 7190   8.190   7.496   0.008
 2296SOL     OW 7191   2.051   1.378   2.704
 2296SOL    HW1 7192   2.012   1.465   2.704
 2296SOL    HW2 7193   2.059   1.355   2.797
 2297SOL     OW 7194   1.282   4.607   2.419
 2297SOL    HW1 7195   1.250   4.612   2.509
 2297SOL    HW2 7196   1.242   4.528   2.383
 2298SOL     OW 7197   3.513   1.657   5.048
 2298SOL    HW1 7198   3.571   1.671   5.123
 2298SOL    HW2 7199   3.568   1.675   4.972
 2299SOL     OW 7200   5.697   7.539   5.618
 2299SOL    HW1 7201   5.613   7.495   5.632
 2299SOL    HW2 7202   5.761   7.486   5.665
 2300SOL     OW 7203   1.884   1.522   3.674
 2300SOL    HW1 7204   1.825   1.474   3.732
 2300SOL    HW2 7205   1.862   1.491   3.586
 2301SOL     OW 7206   2.931   6.284   0.670
 2301SOL    HW1 7207   2.928   6.377   0.649
 2301SOL    HW2 7208   3.004   6.250   0.619
 2302SOL     OW 7209   3.268   1.808   4.790
 2302SOL    HW1 7210   3.202   1.875   4.771
 2302SOL    HW2 7211   3.348   1.840   4.748
 2303SOL     OW 7212   1.359   6.844   0.739
 2303SOL    HW1 7213   1.276   6.890   0.751
 2303SOL    HW2 7214   1.364   6.828   0.645
 2304SOL     OW 7215   1.628   7.783   2.576
 2304SOL    HW1 7216   1.634   7.710   2.514
 2304SOL    HW2 7217   1.600   7.857   2.523
 2305SOL     OW 7218   5.067   1.439   1.971
 2305SOL    HW1 7219   5.030   1.398   1.893
 2305SOL    HW2 7220   5.084   1.366   2.030
 2306SOL     OW 7221   3.675   1.007   4.986
 2306SOL    HW1 7222   3.593   1.043   5.020
 2306SOL    HW2 7223   3.742   1.041   5.044
 2307SOL     OW 7224   1.287   2.946   2.773
 2307SOL    HW1 7225   1.246   2.897   2.702
 2307SOL    HW2 7226   1.269   3.038   2.752
 2308SOL     OW 7227   6.603   2.046   3.343
 2308SOL    HW1 7228   6.561   2.046   3.257
 2308SOL    HW2 7229   6.665   1.974   3.339
 2309SOL     OW 7230   5.674   6.288   4.453
 2309SOL    HW1 7231   5.593   6.327   4.485
 2309SOL    HW2 7232   5.743   6.342   4.492
 2310SOL     OW 7233   7.037   5.142   1.945
 2310SOL    HW1 7234   7.041   5.170   2.037
 2310SOL    HW2 7235   7.091   5.206   1.899
 2311SOL     OW 7236   7.811   2.857   2.929
 2311SOL    HW1 7237   7.781   2.819   2.847
 2311SOL    HW2 7238   7.773   2.802   2.997
 2312SOL     OW 7239   1.770   0.238   2.258
 2312SOL    HW1 7240   1.760   0.146   2.280
 2312SOL    HW2 7241   1.714   0.250   2.182
 2313SOL     OW 7242   2.341   2.455   0.645
 2313SOL    HW1 7243   2.249   2.481   0.635
 2313SOL    HW2 7244   2.347   2.421   0.734
 2314SOL     OW 7245   2.243   5.000   0.540
 2314SOL    HW1 7246   2.184   4.938   0.497
 2314SOL    HW2 7247   2.269   4.956   0.621
 2315SOL     OW 7248   3.373   4.553   0.470
 2315SOL    HW1 7249   3.425   4.592   0.399
 2315SOL    HW2 7250   3.435   4.540   0.541
 2316SOL     OW 7251   5.607   4.789   4.677
 2316SOL    HW1 7252   5.657   4.712   4.651
 2316SOL    HW2 7253   5.517   4.757   4.686
 2317SOL     OW 7254   7.148   6.305   5.610
 2317SOL    HW1 7255   7.124   6.363   5.538
 2317SOL    HW2 7256   7.161   6.219   5.569
 2318SOL     OW 7257   6.645   5.092   0.130
 2318SOL    HW1 7258   6.632   5.107   0.036
 2318SOL    HW2 7259   6.563   5.052   0.160
 2319SOL     OW 7260   5.684   3.756   4.022
 2319SOL    HW1 7261   5.776   3.774   4.041
 2319SOL    HW2 7262   5.636   3.823   4.070
 2320SOL     OW 7263   0.354   8.152   2.527
 2320SOL    HW1 7264   0.291   8.201   2.580
 2320SOL    HW2 7265   0.418   8.120   2.590
 2321SOL     OW 7266   6.337   2.898   3.753
 2321SOL    HW1 7267   6.267   2.837   3.777
 2321SOL    HW2 7268   6.362   2.872   3.664
 2322SOL     OW 7269   6.858   3.906   0.421
 2322SOL    HW1 7270   6.800   3.981   0.433
 2322SOL    HW2 7271   6.894   3.918   0.333
 2323SOL     OW 7272   7.723   6.055   4.439
 2323SOL    HW1 7273   7.684   5.968   4.432
 2323SOL    HW2 7274   7.708   6.080   4.530
 2324SOL     OW 7275   5.697   0.349   0.530
 2324SOL    HW1 7276   5.662   0.264   0.555
 2324SOL    HW2 7277   5.671   0.360   0.438
 2325SOL     OW 7278   0.991   5.826   0.814
 2325SOL    HW1 7279   1.040   5.844   0.894
 2325SOL    HW2 7280   0.907   5.870   0.826
 2326SOL     OW 7281   6.762   2.536   5.149
 2326SOL    HW1 7282   6.808   2.501   5.226
 2326SOL    HW2 7283   6.796   2.485   5.076
 2327SOL     OW 7284   7.988   7.563   2.303
 2327SOL    HW1 7285   7.900   7.580   2.335
 2327SOL    HW2 7286   8.044   7.620   2.355
 2328SOL     OW 7287   6.288   7.633   2.065
 2328SOL    HW1 7288   6.302   7.629   1.970
 2328SOL    HW2 7289   6.193   7.624   2.076
 2329SOL     OW 7290   3.638   0.829   0.210
 2329SOL    HW1 7291   3.658   0.916   0.243
 2329SOL    HW2 7292   3.557   0.841   0.160
 2330SOL     OW 7293   0.983   1.131   4.487
 2330SOL    HW1 7294   0.995   1.224   4.504
 2330SOL    HW2 7295   1.049   1.110   4.420
 2331SOL     OW 7296   6.719   0.767   3.190
 2331SOL    HW1 7297   6.813   0.777   3.175
 2331SOL    HW2 7298   6.707   0.790   3.282
 2332SOL     OW 7299   5.579   2.429   2.582
 2332SOL    HW1 7300   5.485   2.434   2.600
 2332SOL    HW2 7301   5.619   2.411   2.667
 2333SOL     OW 7302   5.857   1.895   4.172
 2333SOL    HW1 7303   5.810   1.935   4.099
 2333SOL    HW2 7304   5.830   1.803   4.171
 2334SOL     OW 7305   1.611   7.612   4.396
 2334SOL    HW1 7306   1.525   7.591   4.433
 2334SOL    HW2 7307   1.642   7.529   4.360
 2335SOL     OW 7308   6.048   5.220   0.209
 2335SOL    HW1 7309   6.028   5.304   0.250
 2335SOL    HW2 7310   6.143   5.222   0.197
 2336SOL     OW 7311   7.536   3.826   3.431
 2336SOL    HW1 7312   7.465   3.853   3.373
 2336SOL    HW2 7313   7.498   3.829   3.519
 2337SOL     OW 7314   6.836   7.197   0.480
 2337SOL    HW1 7315   6.898   7.143   0.430
 2337SOL    HW2 7316   6.797   7.137   0.543
 2338SOL     OW 7317   2.092   6.930   4.686
 2338SOL    HW1 7318   2.141   6.998   4.639
 2338SOL    HW2 7319   2.122   6.937   4.777
 2339SOL     OW 7320   7.756   1.012   1.937
 2339SOL    HW1 7321   7.822   0.981   1.999
 2339SOL    HW2 7322   7.740   1.103   1.962
 2340SOL     OW 7323   3.659   4.058   5.637
 2340SOL    HW1 7324   3.755   4.053   5.642
 2340SOL    HW2 7325   3.641   4.101   5.554
 2341SOL     OW 7326   3.752   7.623   1.793
 2341SOL    HW1 7327   3.814   7.599   1.862
 2341SOL    HW2 7328   3.666   7.615   1.834
 2342SOL     OW 7329   1.738   7.791   4.257
 2342SOL    HW1 7330   1.691   7.730   4.314
 2342SOL    HW2 7331   1.765   7.862   4.315
 2343SOL     OW 7332   7.923   2.682   4.732
 2343SOL    HW1 7333   7.945   2.662   4.641
 2343SOL    HW2 7334   7.875   2.605   4.762
 2344SOL     OW 7335   2.908   7.999   2.216
 2344SOL    HW1 7336   2.921   8.093   2.227
 2344SOL    HW2 7337   2.995   7.964   2.197
 2345SOL     OW 7338   3.291   2.307   0.149
 2345SOL    HW1 7339   3.286   2.310   0.053
 2345SOL    HW2 7340   3.379   2.274   0.168
 2346SOL     OW 7341   3.449   1.466   1.948
 2346SOL    HW1 7342   3.398   1.463   2.029
 2346SOL    HW2 7343   3.386   1.447   1.879
 2347SOL     OW 7344   4.372   6.649   0.007
 2347SOL    HW1 7345   0.306   2.459   5.794
 2347SOL    HW2 7346   4.291   6.612   0.042
 2348SOL     OW 7347   7.494   5.775   1.042
 2348SOL    HW1 7348   7.475   5.861   1.005
 2348SOL    HW2 7349   7.483   5.714   0.969
 2349SOL     OW 7350   2.175   1.991   3.483
 2349SOL    HW1 7351   2.229   1.983   3.562
 2349SOL    HW2 7352   2.206   2.071   3.441
 2350SOL     OW 7353   6.727   4.740   1.528
 2350SOL    HW1 7354   6.807   4.776   1.489
 2350SOL    HW2 7355   6.658   4.764   1.467
 2351SOL     OW 7356   4.959   5.899   2.133
 2351SOL    HW1 7357   4.873   5.914   2.173
 2351SOL    HW2 7358   4.981   5.982   2.090
 2352SOL     OW 7359   4.506   2.582   1.429
 2352SOL    HW1 7360   4.548   2.660   1.464
 2352SOL    HW2 7361   4.571   2.545   1.369
 2353SOL     OW 7362   0.835   7.743   0.359
 2353SOL    HW1 7363   0.802   7.753   0.448
 2353SOL    HW2 7364   0.841   7.832   0.325
 2354SOL     OW 7365   2.738   2.886   3.705
 2354SOL    HW1 7366   2.655   2.931   3.722
 2354SOL    HW2 7367   2.745   2.884   3.610
 2355SOL     OW 7368   4.446   1.821   4.216
 2355SOL    HW1 7369   4.536   1.798   4.194
 2355SOL    HW2 7370   4.392   1.772   4.154
 2356SOL     OW 7371   2.816   7.240   1.991
 2356SOL    HW1 7372   2.879   7.303   1.957
 2356SOL    HW2 7373   2.855   7.210   2.073
 2357SOL     OW 7374   7.629   7.101   1.746
 2357SOL    HW1 7375   7.556   7.157   1.773
 2357SOL    HW2 7376   7.655   7.056   1.826
 2358SOL     OW 7377   7.828   6.398   5.093
 2358SOL    HW1 7378   7.909   6.348   5.095
 2358SOL    HW2 7379   7.847   6.473   5.037
 2359SOL     OW 7380   0.883   7.179   4.143
 2359SOL    HW1 7381   0.855   7.243   4.078
 2359SOL    HW2 7382   0.874   7.094   4.099
 2360SOL     OW 7383   7.898   2.841   1.504
 2360SOL    HW1 7384   7.942   2.757   1.516
 2360SOL    HW2 7385   7.900   2.856   1.410
 2361SOL     OW 7386   2.400   7.078   5.080
 2361SOL    HW1 7387   2.343   7.154   5.070
 2361SOL    HW2 7388   2.367   7.014   5.017
 2362SOL     OW 7389   2.614   7.499   3.721
 2362SOL    HW1 7390   2.627   7.584   3.763
 2362SOL    HW2 7391   2.640   7.513   3.630
 2363SOL     OW 7392   0.388   0.221   3.370
 2363SOL    HW1 7393   0.387   0.126   3.361
 2363SOL    HW2 7394   0.459   0.250   3.313
 2364SOL     OW 7395   6.011   0.485   2.667
 2364SOL    HW1 7396   5.982   0.439   2.746
 2364SOL    HW2 7397   6.051   0.566   2.699
 2365SOL     OW 7398   2.950   2.955   5.173
 2365SOL    HW1 7399   3.037   2.995   5.180
 2365SOL    HW2 7400   2.951   2.884   5.238
 2366SOL     OW 7401   1.186   4.356   5.381
 2366SOL    HW1 7402   1.135   4.275   5.389
 2366SOL    HW2 7403   1.162   4.391   5.295
 2367SOL     OW 7404   1.355   6.956   0.302
 2367SOL    HW1 7405   1.352   7.046   0.271
 2367SOL    HW2 7406   1.275   6.945   0.354
 2368SOL     OW 7407   6.008   7.138   0.150
 2368SOL    HW1 7408   6.031   7.228   0.127
 2368SOL    HW2 7409   5.921   7.125   0.113
 2369SOL     OW 7410   6.934   1.305   2.191
 2369SOL    HW1 7411   6.887   1.259   2.121
 2369SOL    HW2 7412   6.916   1.254   2.270
 2370SOL     OW 7413   1.103   2.502   2.796
 2370SOL    HW1 7414   1.182   2.550   2.820
 2370SOL    HW2 7415   1.105   2.424   2.852
 2371SOL     OW 7416   4.467   2.863   1.897
 2371SOL    HW1 7417   4.534   2.799   1.873
 2371SOL    HW2 7418   4.516   2.943   1.915
 2372SOL     OW 7419   5.539   3.198   0.801
 2372SOL    HW1 7420   5.556   3.131   0.867
 2372SOL    HW2 7421   5.497   3.270   0.849
 2373SOL     OW 7422   6.341   7.859   4.243
 2373SOL    HW1 7423   6.332   7.882   4.150
 2373SOL    HW2 7424   6.340   7.943   4.288
 2374SOL     OW 7425   2.432   7.648   3.995
 2374SOL    HW1 7426   2.482   7.695   3.928
 2374SOL    HW2 7427   2.419   7.560   3.959
 2375SOL     OW 7428   0.592   6.418   1.880
 2375SOL    HW1 7429   0.501   6.444   1.868
 2375SOL    HW2 7430   0.635   6.442   1.798
 2376SOL     OW 7431   4.088   6.972   1.529
 2376SOL    HW1 7432   4.121   6.884   1.509
 2376SOL    HW2 7433   4.017   6.985   1.466
 2377SOL     OW 7434   6.031   7.511   5.558
 2377SOL    HW1 7435   5.992   7.471   5.636
 2377SOL    HW2 7436   6.031   7.605   5.576
 2378SOL     OW 7437   4.409   2.109   4.084
 2378SOL    HW1 7438   4.339   2.045   4.094
 2378SOL    HW2 7439   4.458   2.104   4.166
 2379SOL     OW 7440   6.701   2.677   0.550
 2379SOL    HW1 7441   6.750   2.603   0.584
 2379SOL    HW2 7442   6.627   2.687   0.611
 2380SOL     OW 7443   4.777   8.185   4.309
 2380SOL    HW1 7444   4.749   8.213   4.396
 2380SOL    HW2 7445   4.695   8.168   4.262
 2381SOL     OW 7446   5.173   3.648   4.448
 2381SOL    HW1 7447   5.247   3.663   4.507
 2381SOL    HW2 7448   5.198   3.570   4.398
 2382SOL     OW 7449   3.421   2.908   3.247
 2382SOL    HW1 7450   3.385   2.991   3.217
 2382SOL    HW2 7451   3.429   2.855   3.168
 2383SOL     OW 7452   0.144   1.037   3.691
 2383SOL    HW1 7453   0.076   1.034   3.758
 2383SOL    HW2 7454   0.140   0.951   3.648
 2384SOL     OW 7455   7.627   7.431   5.252
 2384SOL    HW1 7456   7.682   7.503   5.221
 2384SOL    HW2 7457   7.662   7.353   5.209
 2385SOL     OW 7458   3.506   5.415   2.452
 2385SOL    HW1 7459   3.537   5.340   2.401
 2385SOL    HW2 7460   3.413   5.398   2.467
 2386SOL     OW 7461   5.607   4.295   3.943
 2386SOL    HW1 7462   5.553   4.374   3.945
 2386SOL    HW2 7463   5.550   4.227   3.907
 2387SOL     OW 7464   3.767   2.686   4.019
 2387SOL    HW1 7465   3.818   2.686   4.100
 2387SOL    HW2 7466   3.724   2.772   4.017
 2388SOL     OW 7467   2.383   4.698   0.574
 2388SOL    HW1 7468   2.288   4.705   0.581
 2388SOL    HW2 7469   2.416   4.776   0.618
 2389SOL     OW 7470   2.342   7.985   0.241
 2389SOL    HW1 7471   2.314   7.967   0.331
 2389SOL    HW2 7472   2.320   7.905   0.193
 2390SOL     OW 7473   1.339   2.751   5.794
 2390SOL    HW1 7474   5.451   6.824   0.061
 2390SOL    HW2 7475   1.393   2.829   5.807
 2391SOL     OW 7476   5.236   4.032   1.623
 2391SOL    HW1 7477   5.313   4.063   1.576
 2391SOL    HW2 7478   5.260   3.944   1.652
 2392SOL     OW 7479   7.396   5.268   2.811
 2392SOL    HW1 7480   7.373   5.357   2.837
 2392SOL    HW2 7481   7.489   5.273   2.788
 2393SOL     OW 7482   4.032   2.619   5.441
 2393SOL    HW1 7483   3.999   2.576   5.362
 2393SOL    HW2 7484   4.090   2.554   5.481
 2394SOL     OW 7485   6.365   2.688   3.951
 2394SOL    HW1 7486   6.284   2.738   3.964
 2394SOL    HW2 7487   6.342   2.621   3.887
 2395SOL     OW 7488   0.787   3.260   4.391
 2395SOL    HW1 7489   0.723   3.237   4.458
 2395SOL    HW2 7490   0.813   3.176   4.352
 2396SOL     OW 7491   0.381   7.515   4.432
 2396SOL    HW1 7492   0.325   7.584   4.467
 2396SOL    HW2 7493   0.439   7.492   4.505
 2397SOL     OW 7494   8.128   0.207   5.747
 2397SOL    HW1 7495   8.187   0.242   5.680
 2397SOL    HW2 7496   8.085   0.284   5.784
 2398SOL     OW 7497   7.471   1.745   5.806
 2398SOL    HW1 7498   3.375   5.952   0.003
 2398SOL    HW2 7499   7.557   1.704   5.799
 2399SOL     OW 7500   2.322   1.694   0.650
 2399SOL    HW1 7501   2.246   1.637   0.659
 2399SOL    HW2 7502   2.331   1.736   0.736
 2400SOL     OW 7503   4.741   2.491   3.649
 2400SOL    HW1 7504   4.708   2.581   3.650
 2400SOL    HW2 7505   4.737   2.465   3.557
 2401SOL     OW 7506   4.315   4.184   1.305
 2401SOL    HW1 7507   4.324   4.097   1.345
 2401SOL    HW2 7508   4.396   4.196   1.255
 2402SOL     OW 7509   1.436   1.344   1.333
 2402SOL    HW1 7510   1.436   1.384   1.246
 2402SOL    HW2 7511   1.464   1.254   1.318
 2403SOL     OW 7512   1.871   5.438   0.570
 2403SOL    HW1 7513   1.818   5.496   0.515
 2403SOL    HW2 7514   1.807   5.385   0.617
 2404SOL     OW 7515   6.868   3.802   1.243
 2404SOL    HW1 7516   6.884   3.892   1.216
 2404SOL    HW2 7517   6.949   3.775   1.286
 2405SOL     OW 7518   0.324   1.076   5.638
 2405SOL    HW1 7519   0.267   1.146   5.670
 2405SOL    HW2 7520   0.413   1.108   5.653
 2406SOL     OW 7521   3.138   6.866   5.667
 2406SOL    HW1 7522   3.143   6.890   5.574
 2406SOL    HW2 7523   3.123   6.772   5.667
 2407SOL     OW 7524   6.709   6.209   4.875
 2407SOL    HW1 7525   6.680   6.202   4.784
 2407SOL    HW2 7526   6.630   6.196   4.927
 2408SOL     OW 7527   5.233   1.281   5.720
 2408SOL    HW1 7528   5.289   1.220   5.672
 2408SOL    HW2 7529   5.262   1.273   5.811
 2409SOL     OW 7530   2.453   4.254   0.032
 2409SOL    HW1 7531   2.411   4.195   0.095
 2409SOL    HW2 7532   2.528   4.290   0.080
 2410SOL     OW 7533   3.688   2.219   5.636
 2410SOL    HW1 7534   3.696   2.266   5.719
 2410SOL    HW2 7535   3.727   2.277   5.571
 2411SOL     OW 7536   5.547   6.129   2.730
 2411SOL    HW1 7537   5.561   6.036   2.747
 2411SOL    HW2 7538   5.455   6.135   2.705
 2412SOL     OW 7539   2.197   5.373   3.839
 2412SOL    HW1 7540   2.158   5.431   3.904
 2412SOL    HW2 7541   2.175   5.285   3.870
 2413SOL     OW 7542   5.348   3.098   3.045
 2413SOL    HW1 7543   5.304   3.013   3.037
 2413SOL    HW2 7544   5.413   3.098   2.975
 2414SOL     OW 7545   4.357   5.137   3.266
 2414SOL    HW1 7546   4.281   5.194   3.280
 2414SOL    HW2 7547   4.321   5.049   3.262
 2415SOL     OW 7548   6.198   5.514   3.271
 2415SOL    HW1 7549   6.171   5.513   3.179
 2415SOL    HW2 7550   6.234   5.602   3.284
 2416SOL     OW 7551   6.380   2.966   0.731
 2416SOL    HW1 7552   6.398   2.962   0.637
 2416SOL    HW2 7553   6.464   2.945   0.772
 2417SOL     OW 7554   4.728   3.161   4.477
 2417SOL    HW1 7555   4.792   3.210   4.425
 2417SOL    HW2 7556   4.647   3.165   4.426
 2418SOL     OW 7557   2.777   6.200   0.450
 2418SOL    HW1 7558   2.685   6.189   0.473
 2418SOL    HW2 7559   2.819   6.226   0.532
 2419SOL     OW 7560   4.339   2.657   2.608
 2419SOL    HW1 7561   4.377   2.608   2.535
 2419SOL    HW2 7562   4.247   2.668   2.584
 2420SOL     OW 7563   5.604   5.062   5.403
 2420SOL    HW1 7564   5.648   5.025   5.480
 2420SOL    HW2 7565   5.668   5.053   5.332
 2421SOL     OW 7566   7.616   3.945   2.939
 2421SOL    HW1 7567   7.564   3.878   2.894
 2421SOL    HW2 7568   7.689   3.963   2.879
 2422SOL     OW 7569   3.105   0.861   1.510
 2422SOL    HW1 7570   3.165   0.886   1.580
 2422SOL    HW2 7571   3.045   0.798   1.551
 2423SOL     OW 7572   4.604   3.076   4.150
 2423SOL    HW1 7573   4.573   3.165   4.136
 2423SOL    HW2 7574   4.525   3.022   4.144
 2424SOL     OW 7575   0.034   1.795   3.679
 2424SOL    HW1 7576   8.221   1.767   3.760
 2424SOL    HW2 7577   0.112   1.842   3.707
 2425SOL     OW 7578   1.179   6.581   1.204
 2425SOL    HW1 7579   1.104   6.522   1.211
 2425SOL    HW2 7580   1.251   6.534   1.247
 2426SOL     OW 7581   6.432   4.415   4.294
 2426SOL    HW1 7582   6.436   4.504   4.329
 2426SOL    HW2 7583   6.360   4.417   4.232
 2427SOL     OW 7584   4.402   4.465   4.396
 2427SOL    HW1 7585   4.339   4.537   4.397
 2427SOL    HW2 7586   4.361   4.397   4.342
 2428SOL     OW 7587   3.693   7.506   2.787
 2428SOL    HW1 7588   3.785   7.511   2.811
 2428SOL    HW2 7589   3.677   7.584   2.734
 2429SOL     OW 7590   5.306   1.066   1.461
 2429SOL    HW1 7591   5.314   1.133   1.393
 2429SOL    HW2 7592   5.391   1.066   1.505
 2430SOL     OW 7593   3.064   4.815   2.197
 2430SOL    HW1 7594   3.010   4.822   2.275
 2430SOL    HW2 7595   3.054   4.724   2.168
 2431SOL     OW 7596   0.847   6.743   3.404
 2431SOL    HW1 7597   0.871   6.782   3.488
 2431SOL    HW2 7598   0.777   6.682   3.425
 2432SOL     OW 7599   0.209   3.006   0.947
 2432SOL    HW1 7600   0.299   3.009   0.914
 2432SOL    HW2 7601   0.161   2.958   0.880
 2433SOL     OW 7602   7.674   0.312   2.845
 2433SOL    HW1 7603   7.663   0.322   2.939
 2433SOL    HW2 7604   7.600   0.258   2.817
 2434SOL     OW 7605   4.805   5.081   1.222
 2434SOL    HW1 7606   4.799   4.995   1.264
 2434SOL    HW2 7607   4.780   5.065   1.131
 2435SOL     OW 7608   1.742   5.799   5.703
 2435SOL    HW1 7609   1.744   5.854   5.625
 2435SOL    HW2 7610   1.692   5.850   5.767
 2436SOL     OW 7611   0.367   3.957   2.857
 2436SOL    HW1 7612   0.363   3.974   2.763
 2436SOL    HW2 7613   0.431   3.886   2.866
 2437SOL     OW 7614   6.415   7.100   1.706
 2437SOL    HW1 7615   6.488   7.070   1.652
 2437SOL    HW2 7616   6.344   7.039   1.686
 2438SOL     OW 7617   2.105   5.804   2.780
 2438SOL    HW1 7618   2.161   5.878   2.755
 2438SOL    HW2 7619   2.140   5.774   2.864
 2439SOL     OW 7620   6.457   2.086   4.211
 2439SOL    HW1 7621   6.458   2.072   4.116
 2439SOL    HW2 7622   6.537   2.136   4.228
 2440SOL     OW 7623   7.875   6.937   4.032
 2440SOL    HW1 7624   7.894   7.010   4.091
 2440SOL    HW2 7625   7.782   6.946   4.012
 2441SOL     OW 7626   3.899   4.909   2.911
 2441SOL    HW1 7627   3.830   4.856   2.871
 2441SOL    HW2 7628   3.869   4.923   3.001
 2442SOL     OW 7629   4.186   2.958   5.267
 2442SOL    HW1 7630   4.213   2.903   5.340
 2442SOL    HW2 7631   4.149   3.036   5.308
 2443SOL     OW 7632   3.409   7.540   3.998
 2443SOL    HW1 7633   3.439   7.603   4.064
 2443SOL    HW2 7634   3.365   7.471   4.049
 2444SOL     OW 7635   3.265   1.576   1.358
 2444SOL    HW1 7636   3.255   1.500   1.300
 2444SOL    HW2 7637   3.180   1.620   1.355
 2445SOL     OW 7638   7.293   0.854   0.056
 2445SOL    HW1 7639   3.226   5.007   5.801
 2445SOL    HW2 7640   7.262   0.769   0.023
 2446SOL     OW 7641   3.612   7.261   2.616
 2446SOL    HW1 7642   3.526   7.304   2.611
 2446SOL    HW2 7643   3.658   7.308   2.686
 2447SOL     OW 7644   0.581   7.367   5.276
 2447SOL    HW1 7645   0.513   7.373   5.209
 2447SOL    HW2 7646   0.558   7.435   5.340
 2448SOL     OW 7647   1.452   7.454   4.182
 2448SOL    HW1 7648   1.543   7.439   4.207
 2448SOL    HW2 7649   1.402   7.425   4.258
 2449SOL     OW 7650   3.171   7.321   1.663
 2449SOL    HW1 7651   3.126   7.398   1.629
 2449SOL    HW2 7652   3.105   7.278   1.718
 2450SOL     OW 7653   3.007   7.561   2.376
 2450SOL    HW1 7654   3.041   7.472   2.367
 2450SOL    HW2 7655   2.986   7.587   2.286
 2451SOL     OW 7656   7.116   6.734   2.335
 2451SOL    HW1 7657   7.140   6.789   2.261
 2451SOL    HW2 7658   7.026   6.707   2.317
 2452SOL     OW 7659   6.689   1.787   4.629
 2452SOL    HW1 7660   6.612   1.806   4.683
 2452SOL    HW2 7661   6.760   1.773   4.692
 2453SOL     OW 7662   7.646   5.376   4.379
 2453SOL    HW1 7663   7.622   5.364   4.471
 2453SOL    HW2 7664   7.738   5.401   4.382
 2454SOL     OW 7665   7.320   3.674   1.349
 2454SOL    HW1 7666   7.343   3.742   1.285
 2454SOL    HW2 7667   7.229   3.693   1.371
 2455SOL     OW 7668   1.241   2.397   2.067
 2455SOL    HW1 7669   1.301   2.385   1.994
 2455SOL    HW2 7670   1.281   2.349   2.139
 2456SOL     OW 7671   5.755   3.471   0.362
 2456SOL    HW1 7672   5.819   3.404   0.337
 2456SOL    HW2 7673   5.688   3.424   0.412
 2457SOL     OW 7674   6.312   3.328   1.293
 2457SOL    HW1 7675   6.256   3.311   1.369
 2457SOL    HW2 7676   6.350   3.414   1.311
 2458SOL     OW 7677   6.029   1.801   1.445
 2458SOL    HW1 7678   6.086   1.746   1.499
 2458SOL    HW2 7679   5.966   1.838   1.507
 2459SOL     OW 7680   3.406   5.843   2.913
 2459SOL    HW1 7681   3.499   5.825   2.925
 2459SOL    HW2 7682   3.367   5.825   2.999
 2460SOL     OW 7683   8.156   3.546   1.971
 2460SOL    HW1 7684   8.166   3.590   1.887
 2460SOL    HW2 7685   0.014   3.513   1.992
 2461SOL     OW 7686   5.287   0.793   1.433
 2461SOL    HW1 7687   5.255   0.883   1.438
 2461SOL    HW2 7688   5.355   0.788   1.501
 2462SOL     OW 7689   7.315   5.199   4.662
 2462SOL    HW1 7690   7.336   5.155   4.744
 2462SOL    HW2 7691   7.222   5.219   4.669
 2463SOL     OW 7692   3.571   3.202   4.501
 2463SOL    HW1 7693   3.545   3.260   4.429
 2463SOL    HW2 7694   3.551   3.114   4.469
 2464SOL     OW 7695   2.520   2.887   4.237
 2464SOL    HW1 7696   2.497   2.946   4.309
 2464SOL    HW2 7697   2.615   2.897   4.227
 2465SOL     OW 7698   5.942   0.309   1.170
 2465SOL    HW1 7699   5.861   0.268   1.141
 2465SOL    HW2 7700   5.963   0.372   1.101
 2466SOL     OW 7701   3.925   1.108   1.435
 2466SOL    HW1 7702   3.858   1.063   1.486
 2466SOL    HW2 7703   3.931   1.059   1.353
 2467SOL     OW 7704   4.235   4.042   1.676
 2467SOL    HW1 7705   4.189   4.106   1.622
 2467SOL    HW2 7706   4.177   3.966   1.676
 2468SOL     OW 7707   6.833   5.981   1.205
 2468SOL    HW1 7708   6.916   6.027   1.220
 2468SOL    HW2 7709   6.769   6.051   1.194
 2469SOL     OW 7710   2.793   4.410   1.144
 2469SOL    HW1 7711   2.777   4.504   1.141
 2469SOL    HW2 7712   2.730   4.373   1.081
 2470SOL     OW 7713   2.568   1.597   2.880
 2470SOL    HW1 7714   2.549   1.601   2.786
 2470SOL    HW2 7715   2.640   1.658   2.893
 2471SOL     OW 7716   7.850   7.415   3.060
 2471SOL    HW1 7717   7.853   7.394   3.153
 2471SOL    HW2 7718   7.936   7.453   3.042
 2472SOL     OW 7719   7.126   1.606   2.663
 2472SOL    HW1 7720   7.034   1.608   2.690
 2472SOL    HW2 7721   7.145   1.696   2.638
 2473SOL     OW 7722   7.903   4.033   3.113
 2473SOL    HW1 7723   7.875   4.046   3.204
 2473SOL    HW2 7724   7.995   4.058   3.113
 2474SOL     OW 7725   5.642   5.169   1.559
 2474SOL    HW1 7726   5.702   5.143   1.629
 2474SOL    HW2 7727   5.558   5.180   1.603
 2475SOL     OW 7728   5.822   6.414   1.282
 2475SOL    HW1 7729   5.751   6.392   1.342
 2475SOL    HW2 7730   5.900   6.375   1.321
 2476SOL     OW 7731   2.355   3.082   1.737
 2476SOL    HW1 7732   2.393   3.150   1.793
 2476SOL    HW2 7733   2.417   3.073   1.665
 2477SOL     OW 7734   3.947   2.336   3.092
 2477SOL    HW1 7735   3.993   2.362   3.012
 2477SOL    HW2 7736   4.008   2.277   3.137
 2478SOL     OW 7737   1.492   3.226   5.296
 2478SOL    HW1 7738   1.408   3.265   5.270
 2478SOL    HW2 7739   1.504   3.254   5.387
 2479SOL     OW 7740   1.207   7.315   4.041
 2479SOL    HW1 7741   1.269   7.263   3.990
 2479SOL    HW2 7742   1.133   7.330   3.982
 2480SOL     OW 7743   0.659   0.691   5.755
 2480SOL    HW1 7744   0.573   0.726   5.779
 2480SOL    HW2 7745   4.823   4.806   0.018
 2481SOL     OW 7746   1.331   3.707   4.339
 2481SOL    HW1 7747   1.265   3.642   4.363
 2481SOL    HW2 7748   1.371   3.732   4.422
 2482SOL     OW 7749   6.148   8.040   4.850
 2482SOL    HW1 7750   6.232   8.043   4.804
 2482SOL    HW2 7751   6.103   8.120   4.823
 2483SOL     OW 7752   5.071   5.718   3.634
 2483SOL    HW1 7753   5.109   5.632   3.652
 2483SOL    HW2 7754   5.038   5.748   3.719
 2484SOL     OW 7755   7.287   7.674   4.410
 2484SOL    HW1 7756   7.266   7.581   4.400
 2484SOL    HW2 7757   7.346   7.693   4.337
 2485SOL     OW 7758   5.059   0.974   5.167
 2485SOL    HW1 7759   5.087   1.001   5.080
 2485SOL    HW2 7760   5.059   0.878   5.164
 2486SOL     OW 7761   3.046   5.090   2.095
 2486SOL    HW1 7762   3.052   5.125   2.006
 2486SOL    HW2 7763   3.078   5.000   2.088
 2487SOL     OW 7764   1.786   7.564   0.255
 2487SOL    HW1 7765   1.785   7.657   0.231
 2487SOL    HW2 7766   1.803   7.564   0.349
 2488SOL     OW 7767   3.557   6.680   3.408
 2488SOL    HW1 7768   3.474   6.699   3.452
 2488SOL    HW2 7769   3.600   6.765   3.402
 2489SOL     OW 7770   8.216   7.887   2.827
 2489SOL    HW1 7771   8.174   7.902   2.742
 2489SOL    HW2 7772   8.200   7.794   2.845
 2490SOL     OW 7773   5.182   6.343   1.822
 2490SOL    HW1 7774   5.139   6.379   1.900
 2490SOL    HW2 7775   5.122   6.363   1.750
 2491SOL     OW 7776   3.914   6.139   4.403
 2491SOL    HW1 7777   3.990   6.084   4.422
 2491SOL    HW2 7778   3.936   6.183   4.321
 2492SOL     OW 7779   2.657   7.632   4.161
 2492SOL    HW1 7780   2.707   7.579   4.099
 2492SOL    HW2 7781   2.574   7.649   4.116
 2493SOL     OW 7782   2.015   3.956   3.583
 2493SOL    HW1 7783   1.956   4.030   3.600
 2493SOL    HW2 7784   2.017   3.908   3.666
 2494SOL     OW 7785   3.854   5.376   2.296
 2494SOL    HW1 7786   3.854   5.395   2.390
 2494SOL    HW2 7787   3.787   5.435   2.260
 2495SOL     OW 7788   1.192   6.592   2.033
 2495SOL    HW1 7789   1.112   6.629   2.069
 2495SOL    HW2 7790   1.249   6.579   2.109
 2496SOL     OW 7791   2.376   1.142   1.906
 2496SOL    HW1 7792   2.310   1.087   1.948
 2496SOL    HW2 7793   2.359   1.230   1.940
 2497SOL     OW 7794   3.669   2.032   1.390
 2497SOL    HW1 7795   3.582   2.001   1.367
 2497SOL    HW2 7796   3.677   2.116   1.344
 2498SOL     OW 7797   2.573   2.929   2.947
 2498SOL    HW1 7798   2.658   2.970   2.961
 2498SOL    HW2 7799   2.511   2.986   2.993
 2499SOL     OW 7800   1.318   5.765   3.532
 2499SOL    HW1 7801   1.379   5.760   3.458
 2499SOL    HW2 7802   1.374   5.775   3.609
 2500SOL     OW 7803   4.773   1.795   3.612
 2500SOL    HW1 7804   4.797   1.887   3.604
 2500SOL    HW2 7805   4.695   1.786   3.557
 2501SOL     OW 7806   6.264   6.973   0.127
 2501SOL    HW1 7807   6.324   7.041   0.097
 2501SOL    HW2 7808   6.177   7.009   0.111
 2502SOL     OW 7809   5.761   7.036   2.678
 2502SOL    HW1 7810   5.803   6.955   2.708
 2502SOL    HW2 7811   5.818   7.068   2.608
 2503SOL     OW 7812   7.412   4.576   2.652
 2503SOL    HW1 7813   7.334   4.630   2.638
 2503SOL    HW2 7814   7.479   4.637   2.683
 2504SOL     OW 7815   7.579   4.890   0.384
 2504SOL    HW1 7816   7.573   4.975   0.428
 2504SOL    HW2 7817   7.672   4.867   0.390
 2505SOL     OW 7818   0.250   1.311   1.487
 2505SOL    HW1 7819   0.213   1.239   1.538
 2505SOL    HW2 7820   0.244   1.387   1.545
 2506SOL     OW 7821   0.462   5.400   0.773
 2506SOL    HW1 7822   0.476   5.458   0.698
 2506SOL    HW2 7823   0.549   5.366   0.794
 2507SOL     OW 7824   4.662   6.556   3.332
 2507SOL    HW1 7825   4.646   6.496   3.259
 2507SOL    HW2 7826   4.583   6.611   3.336
 2508SOL     OW 7827   6.364   5.709   3.682
 2508SOL    HW1 7828   6.331   5.645   3.619
 2508SOL    HW2 7829   6.346   5.669   3.767
 2509SOL     OW 7830   8.134   5.986   5.125
 2509SOL    HW1 7831   8.092   5.924   5.185
 2509SOL    HW2 7832   8.185   5.931   5.065
 2510SOL     OW 7833   1.441   7.746   5.792
 2510SOL    HW1 7834   5.529   3.572   0.043
 2510SOL    HW2 7835   5.549   3.719   0.011
 2511SOL     OW 7836   1.476   3.937   4.615
 2511SOL    HW1 7837   1.513   3.980   4.538
 2511SOL    HW2 7838   1.393   3.982   4.630
 2512SOL     OW 7839   1.299   3.139   4.045
 2512SOL    HW1 7840   1.272   3.047   4.044
 2512SOL    HW2 7841   1.393   3.136   4.063
 2513SOL     OW 7842   4.073   7.088   0.562
 2513SOL    HW1 7843   3.979   7.078   0.550
 2513SOL    HW2 7844   4.097   7.162   0.506
 2514SOL     OW 7845   3.013   4.718   0.473
 2514SOL    HW1 7846   2.934   4.773   0.474
 2514SOL    HW2 7847   3.022   4.688   0.563
 2515SOL     OW 7848   7.839   6.967   2.774
 2515SOL    HW1 7849   7.878   6.895   2.725
 2515SOL    HW2 7850   7.767   6.927   2.823
 2516SOL     OW 7851   7.548   5.373   0.121
 2516SOL    HW1 7852   7.519   5.464   0.123
 2516SOL    HW2 7853   7.492   5.331   0.056
 2517SOL     OW 7854   2.430   1.070   5.164
 2517SOL    HW1 7855   2.397   1.025   5.242
 2517SOL    HW2 7856   2.371   1.042   5.094
 2518SOL     OW 7857   6.056   5.823   0.588
 2518SOL    HW1 7858   6.092   5.827   0.499
 2518SOL    HW2 7859   6.072   5.733   0.617
 2519SOL     OW 7860   1.465   7.602   0.128
 2519SOL    HW1 7861   1.537   7.583   0.188
 2519SOL    HW2 7862   1.484   7.549   0.050
 2520SOL     OW 7863   1.556   7.516   5.116
 2520SOL    HW1 7864   1.481   7.550   5.165
 2520SOL    HW2 7865   1.627   7.577   5.137
 2521SOL     OW 7866   1.548   5.137   4.680
 2521SOL    HW1 7867   1.465   5.143   4.728
 2521SOL    HW2 7868   1.604   5.202   4.721
 2522SOL     OW 7869   3.079   1.835   3.853
 2522SOL    HW1 7870   3.040   1.855   3.768
 2522SOL    HW2 7871   3.160   1.789   3.832
 2523SOL     OW 7872   4.842   3.876   5.410
 2523SOL    HW1 7873   4.893   3.957   5.413
 2523SOL    HW2 7874   4.753   3.905   5.388
 2524SOL     OW 7875   4.405   2.428   2.854
 2524SOL    HW1 7876   4.328   2.402   2.803
 2524SOL    HW2 7877   4.371   2.493   2.916
 2525SOL     OW 7878   7.597   7.128   4.228
 2525SOL    HW1 7879   7.642   7.064   4.283
 2525SOL    HW2 7880   7.504   7.108   4.240
 2526SOL     OW 7881   2.134   5.229   2.574
 2526SOL    HW1 7882   2.163   5.320   2.577
 2526SOL    HW2 7883   2.215   5.179   2.563
 2527SOL     OW 7884   3.288   3.271   4.093
 2527SOL    HW1 7885   3.380   3.256   4.114
 2527SOL    HW2 7886   3.287   3.280   3.998
 2528SOL     OW 7887   5.030   1.967   3.804
 2528SOL    HW1 7888   4.989   1.972   3.718
 2528SOL    HW2 7889   5.124   1.966   3.785
 2529SOL     OW 7890   4.937   4.414   4.134
 2529SOL    HW1 7891   4.937   4.434   4.041
 2529SOL    HW2 7892   4.885   4.483   4.174
 2530SOL     OW 7893   1.505   5.850   2.743
 2530SOL    HW1 7894   1.472   5.932   2.780
 2530SOL    HW2 7895   1.562   5.815   2.811
 2531SOL     OW 7896   2.680   0.706   4.056
 2531SOL    HW1 7897   2.665   0.703   3.962
 2531SOL    HW2 7898   2.621   0.774   4.088
 2532SOL     OW 7899   2.376   3.751   0.047
 2532SOL    HW1 7900   2.366   3.837   0.006
 2532SOL    HW2 7901   2.293   3.706   0.029
 2533SOL     OW 7902   5.279   2.334   0.782
 2533SOL    HW1 7903   5.252   2.380   0.862
 2533SOL    HW2 7904   5.325   2.400   0.731
 2534SOL     OW 7905   2.506   6.397   0.301
 2534SOL    HW1 7906   2.491   6.490   0.285
 2534SOL    HW2 7907   2.580   6.375   0.245
 2535SOL     OW 7908   0.915   6.428   4.536
 2535SOL    HW1 7909   1.009   6.410   4.529
 2535SOL    HW2 7910   0.910   6.516   4.573
 2536SOL     OW 7911   0.889   0.570   3.953
 2536SOL    HW1 7912   0.811   0.517   3.937
 2536SOL    HW2 7913   0.889   0.585   4.047
 2537SOL     OW 7914   7.578   7.076   3.320
 2537SOL    HW1 7915   7.653   7.107   3.371
 2537SOL    HW2 7916   7.600   7.096   3.229
 2538SOL     OW 7917   0.730   3.365   0.051
 2538SOL    HW1 7918   0.735   3.460   0.040
 2538SOL    HW2 7919   4.865   7.445   5.783
 2539SOL     OW 7920   1.531   5.534   4.935
 2539SOL    HW1 7921   1.525   5.610   4.877
 2539SOL    HW2 7922   1.448   5.532   4.982
 2540SOL     OW 7923   3.609   2.486   3.916
 2540SOL    HW1 7924   3.678   2.540   3.955
 2540SOL    HW2 7925   3.561   2.546   3.859
 2541SOL     OW 7926   4.660   6.709   0.234
 2541SOL    HW1 7927   4.736   6.680   0.183
 2541SOL    HW2 7928   4.619   6.628   0.265
 2542SOL     OW 7929   7.150   8.179   1.880
 2542SOL    HW1 7930   7.201   0.026   1.854
 2542SOL    HW2 7931   7.164   8.115   1.810
 2543SOL     OW 7932   4.044   7.699   1.687
 2543SOL    HW1 7933   4.082   7.744   1.612
 2543SOL    HW2 7934   3.968   7.753   1.711
 2544SOL     OW 7935   5.870   3.216   4.955
 2544SOL    HW1 7936   5.910   3.302   4.964
 2544SOL    HW2 7937   5.777   3.231   4.972
 2545SOL     OW 7938   8.127   2.567   2.678
 2545SOL    HW1 7939   8.118   2.542   2.770
 2545SOL    HW2 7940   8.075   2.503   2.630
 2546SOL     OW 7941   1.428   2.173   4.727
 2546SOL    HW1 7942   1.352   2.120   4.749
 2546SOL    HW2 7943   1.452   2.215   4.809
 2547SOL     OW 7944   6.842   7.330   1.231
 2547SOL    HW1 7945   6.853   7.332   1.136
 2547SOL    HW2 7946   6.931   7.328   1.265
 2548SOL     OW 7947   7.017   2.994   5.790
 2548SOL    HW1 7948   7.007   3.089   5.799
 2548SOL    HW2 7949   2.891   7.075   0.060
 2549SOL     OW 7950   1.845   4.038   4.958
 2549SOL    HW1 7951   1.868   4.027   4.866
 2549SOL    HW2 7952   1.859   4.131   4.975
 2550SOL     OW 7953   6.240   2.688   4.873
 2550SOL    HW1 7954   6.168   2.625   4.872
 2550SOL    HW2 7955   6.216   2.753   4.807
 2551SOL     OW 7956   6.984   8.211   1.571
 2551SOL    HW1 7957   7.006   8.165   1.490
 2551SOL    HW2 7958   6.946   8.144   1.628
 2552SOL     OW 7959   6.811   2.657   2.605
 2552SOL    HW1 7960   6.895   2.614   2.622
 2552SOL    HW2 7961   6.835   2.742   2.568
 2553SOL     OW 7962   0.083   2.645   0.748
 2553SOL    HW1 7963   0.056   2.623   0.659
 2553SOL    HW2 7964   0.161   2.592   0.763
 2554SOL     OW 7965   4.869   6.920   5.167
 2554SOL    HW1 7966   4.822   6.949   5.245
 2554SOL    HW2 7967   4.950   6.883   5.201
 2555SOL     OW 7968   2.502   5.058   4.039
 2555SOL    HW1 7969   2.542   4.972   4.031
 2555SOL    HW2 7970   2.571   5.113   4.076
 2556SOL     OW 7971   5.251   5.646   2.705
 2556SOL    HW1 7972   5.237   5.722   2.761
 2556SOL    HW2 7973   5.333   5.608   2.737
 2557SOL     OW 7974   4.127   0.402   1.622
 2557SOL    HW1 7975   4.032   0.417   1.621
 2557SOL    HW2 7976   4.139   0.318   1.577
 2558SOL     OW 7977   7.061   4.277   3.818
 2558SOL    HW1 7978   7.032   4.348   3.876
 2558SOL    HW2 7979   6.986   4.217   3.814
 2559SOL     OW 7980   0.776   1.824   5.268
 2559SOL    HW1 7981   0.744   1.797   5.354
 2559SOL    HW2 7982   0.785   1.919   5.274
 2560SOL     OW 7983   6.329   6.544   2.551
 2560SOL    HW1 7984   6.247   6.509   2.585
 2560SOL    HW2 7985   6.397   6.501   2.603
 2561SOL     OW 7986   7.428   6.540   0.875
 2561SOL    HW1 7987   7.365   6.561   0.944
 2561SOL    HW2 7988   7.437   6.621   0.825
 2562SOL     OW 7989   1.990   6.893   2.389
 2562SOL    HW1 7990   1.917   6.904   2.449
 2562SOL    HW2 7991   2.005   6.798   2.385
 2563SOL     OW 7992   7.313   7.926   3.395
 2563SOL    HW1 7993   7.327   7.831   3.394
 2563SOL    HW2 7994   7.339   7.956   3.308
 2564SOL     OW 7995   6.816   5.368   1.656
 2564SOL    HW1 7996   6.722   5.360   1.669
 2564SOL    HW2 7997   6.842   5.441   1.713
 2565SOL     OW 7998   8.014   1.591   4.678
 2565SOL    HW1 7999   8.106   1.564   4.683
 2565SOL    HW2 8000   7.967   1.525   4.730
 2566SOL     OW 8001   2.741   0.787   5.281
 2566SOL    HW1 8002   2.649   0.802   5.260
 2566SOL    HW2 8003   2.761   0.854   5.346
 2567SOL     OW 8004   5.231   1.848   0.656
 2567SOL    HW1 8005   5.236   1.780   0.724
 2567SOL    HW2 8006   5.138   1.856   0.637
 2568SOL     OW 8007   1.255   4.114   4.659
 2568SOL    HW1 8008   1.220   4.083   4.576
 2568SOL    HW2 8009   1.322   4.178   4.634
 2569SOL     OW 8010   7.896   7.295   1.411
 2569SOL    HW1 8011   7.824   7.348   1.377
 2569SOL    HW2 8012   7.853   7.223   1.457
 2570SOL     OW 8013   1.131   0.217   2.002
 2570SOL    HW1 8014   1.073   0.172   1.941
 2570SOL    HW2 8015   1.074   0.278   2.048
 2571SOL     OW 8016   5.705   2.056   4.774
 2571SOL    HW1 8017   5.776   2.024   4.718
 2571SOL    HW2 8018   5.749   2.102   4.845
 2572SOL     OW 8019   3.486   4.672   1.270
 2572SOL    HW1 8020   3.450   4.729   1.338
 2572SOL    HW2 8021   3.561   4.629   1.311
 2573SOL     OW 8022   6.637   6.287   3.748
 2573SOL    HW1 8023   6.678   6.240   3.675
 2573SOL    HW2 8024   6.687   6.368   3.756
 2574SOL     OW 8025   2.957   4.134   3.814
 2574SOL    HW1 8026   2.984   4.104   3.901
 2574SOL    HW2 8027   2.901   4.210   3.831
 2575SOL     OW 8028   6.153   7.682   3.868
 2575SOL    HW1 8029   6.220   7.695   3.801
 2575SOL    HW2 8030   6.154   7.764   3.918
 2576SOL     OW 8031   2.862   6.572   2.739
 2576SOL    HW1 8032   2.825   6.628   2.807
 2576SOL    HW2 8033   2.953   6.600   2.731
 2577SOL     OW 8034   5.466   7.326   5.482
 2577SOL    HW1 8035   5.445   7.233   5.489
 2577SOL    HW2 8036   5.411   7.357   5.411
 2578SOL     OW 8037   5.672   3.154   4.396
 2578SOL    HW1 8038   5.587   3.197   4.384
 2578SOL    HW2 8039   5.704   3.188   4.480
 2579SOL     OW 8040   0.109   7.623   1.375
 2579SOL    HW1 8041   0.175   7.638   1.443
 2579SOL    HW2 8042   0.042   7.570   1.418
 2580SOL     OW 8043   6.066   0.155   3.092
 2580SOL    HW1 8044   6.063   0.177   3.185
 2580SOL    HW2 8045   5.991   0.097   3.079
 2581SOL     OW 8046   0.919   0.076   1.854
 2581SOL    HW1 8047   0.868   0.156   1.866
 2581SOL    HW2 8048   0.886   0.016   1.921
 2582SOL     OW 8049   3.327   0.912   3.998
 2582SOL    HW1 8050   3.253   0.954   4.042
 2582SOL    HW2 8051   3.386   0.887   4.069
 2583SOL     OW 8052   1.008   0.660   1.390
 2583SOL    HW1 8053   1.046   0.672   1.303
 2583SOL    HW2 8054   1.061   0.591   1.430
 2584SOL     OW 8055   6.120   7.381   0.183
 2584SOL    HW1 8056   6.184   7.310   0.177
 2584SOL    HW2 8057   6.165   7.450   0.232
 2585SOL     OW 8058   7.410   5.717   2.395
 2585SOL    HW1 8059   7.360   5.725   2.476
 2585SOL    HW2 8060   7.480   5.655   2.415
 2586SOL     OW 8061   7.156   7.625   2.911
 2586SOL    HW1 8062   7.140   7.718   2.928
 2586SOL    HW2 8063   7.212   7.597   2.983
 2587SOL     OW 8064   0.686   5.260   5.277
 2587SOL    HW1 8065   0.632   5.260   5.356
 2587SOL    HW2 8066   0.709   5.168   5.263
 2588SOL     OW 8067   5.286   2.624   5.535
 2588SOL    HW1 8068   5.317   2.704   5.494
 2588SOL    HW2 8069   5.332   2.621   5.619
 2589SOL     OW 8070   0.521   4.820   3.884
 2589SOL    HW1 8071   0.566   4.891   3.839
 2589SOL    HW2 8072   0.433   4.821   3.847
 2590SOL     OW 8073   1.334   6.933   2.571
 2590SOL    HW1 8074   1.298   6.865   2.515
 2590SOL    HW2 8075   1.316   7.015   2.524
 2591SOL     OW 8076   3.563   2.918   5.439
 2591SOL    HW1 8077   3.584   2.957   5.354
 2591SOL    HW2 8078   3.561   2.992   5.500
 2592SOL     OW 8079   8.218   7.066   3.352
 2592SOL    HW1 8080   8.181   7.140   3.304
 2592SOL    HW2 8081   8.159   7.052   3.426
 2593SOL     OW 8082   7.910   4.792   4.968
 2593SOL    HW1 8083   7.914   4.697   4.955
 2593SOL    HW2 8084   7.819   4.815   4.949
 2594SOL     OW 8085   5.211   0.382   3.056
 2594SOL    HW1 8086   5.154   0.447   3.014
 2594SOL    HW2 8087   5.250   0.333   2.983
 2595SOL     OW 8088   6.859   7.158   5.777
 2595SOL    HW1 8089   2.729   2.980   0.029
 2595SOL    HW2 8090   6.819   7.118   5.700
 2596SOL     OW 8091   5.057   3.637   0.532
 2596SOL    HW1 8092   4.967   3.640   0.501
 2596SOL    HW2 8093   5.054   3.676   0.619
 2597SOL     OW 8094   8.037   5.987   1.401
 2597SOL    HW1 8095   8.106   5.939   1.446
 2597SOL    HW2 8096   8.077   6.070   1.376
 2598SOL     OW 8097   2.410   6.284   3.684
 2598SOL    HW1 8098   2.428   6.337   3.606
 2598SOL    HW2 8099   2.324   6.246   3.667
 2599SOL     OW 8100   6.928   1.485   0.906
 2599SOL    HW1 8101   6.991   1.553   0.883
 2599SOL    HW2 8102   6.929   1.425   0.831
 2600SOL     OW 8103   7.655   8.063   5.545
 2600SOL    HW1 8104   7.580   8.122   5.536
 2600SOL    HW2 8105   7.623   7.979   5.513
 2601SOL     OW 8106   1.532   4.797   3.597
 2601SOL    HW1 8107   1.484   4.812   3.516
 2601SOL    HW2 8108   1.524   4.703   3.613
 2602SOL     OW 8109   6.482   5.891   4.031
 2602SOL    HW1 8110   6.556   5.840   3.999
 2602SOL    HW2 8111   6.449   5.936   3.953
 2603SOL     OW 8112   7.659   1.955   5.165
 2603SOL    HW1 8113   7.728   2.019   5.182
 2603SOL    HW2 8114   7.581   1.994   5.204
 2604SOL     OW 8115   6.195   0.150   2.182
 2604SOL    HW1 8116   6.146   0.155   2.264
 2604SOL    HW2 8117   6.209   0.056   2.169
 2605SOL     OW 8118   4.231   3.601   2.768
 2605SOL    HW1 8119   4.264   3.658   2.699
 2605SOL    HW2 8120   4.139   3.625   2.777
 2606SOL     OW 8121   0.958   6.600   4.251
 2606SOL    HW1 8122   0.897   6.582   4.180
 2606SOL    HW2 8123   0.943   6.529   4.314
 2607SOL     OW 8124   7.171   7.112   0.677
 2607SOL    HW1 8125   7.184   7.117   0.582
 2607SOL    HW2 8126   7.112   7.184   0.697
 2608SOL     OW 8127   6.188   2.526   4.399
 2608SOL    HW1 8128   6.176   2.586   4.325
 2608SOL    HW2 8129   6.235   2.451   4.362
 2609SOL     OW 8130   1.035   3.995   5.199
 2609SOL    HW1 8131   0.963   4.039   5.245
 2609SOL    HW2 8132   0.992   3.938   5.136
 2610SOL     OW 8133   3.852   2.567   2.632
 2610SOL    HW1 8134   3.870   2.580   2.539
 2610SOL    HW2 8135   3.934   2.589   2.676
 2611SOL     OW 8136   5.464   5.015   4.340
 2611SOL    HW1 8137   5.547   5.010   4.387
 2611SOL    HW2 8138   5.402   5.050   4.404
 2612SOL     OW 8139   8.012   4.410   0.815
 2612SOL    HW1 8140   8.064   4.424   0.894
 2612SOL    HW2 8141   7.992   4.498   0.784
 2613SOL     OW 8142   2.724   3.975   2.556
 2613SOL    HW1 8143   2.720   3.973   2.460
 2613SOL    HW2 8144   2.809   4.015   2.575
 2614SOL     OW 8145   5.649   5.506   3.082
 2614SOL    HW1 8146   5.743   5.511   3.062
 2614SOL    HW2 8147   5.622   5.597   3.095
 2615SOL     OW 8148   0.087   0.856   0.223
 2615SOL    HW1 8149   0.148   0.866   0.150
 2615SOL    HW2 8150   0.009   0.816   0.184
 2616SOL     OW 8151   5.778   6.680   1.761
 2616SOL    HW1 8152   5.742   6.739   1.694
 2616SOL    HW2 8153   5.707   6.619   1.780
 2617SOL     OW 8154   6.715   0.592   1.721
 2617SOL    HW1 8155   6.797   0.621   1.760
 2617SOL    HW2 8156   6.673   0.672   1.690
 2618SOL     OW 8157   6.307   4.903   0.746
 2618SOL    HW1 8158   6.230   4.846   0.749
 2618SOL    HW2 8159   6.308   4.946   0.832
 2619SOL     OW 8160   6.389   2.363   2.042
 2619SOL    HW1 8161   6.421   2.352   2.131
 2619SOL    HW2 8162   6.468   2.380   1.990
 2620SOL     OW 8163   3.721   3.238   5.398
 2620SOL    HW1 8164   3.782   3.225   5.471
 2620SOL    HW2 8165   3.723   3.332   5.382
 2621SOL     OW 8166   7.875   4.995   0.967
 2621SOL    HW1 8167   7.889   4.911   0.923
 2621SOL    HW2 8168   7.913   4.982   1.054
 2622SOL     OW 8169   3.774   5.106   2.218
 2622SOL    HW1 8170   3.681   5.105   2.197
 2622SOL    HW2 8171   3.795   5.198   2.232
 2623SOL     OW 8172   7.462   6.858   2.281
 2623SOL    HW1 8173   7.376   6.900   2.280
 2623SOL    HW2 8174   7.506   6.894   2.358
 2624SOL     OW 8175   0.625   7.864   2.103
 2624SOL    HW1 8176   0.594   7.941   2.151
 2624SOL    HW2 8177   0.553   7.801   2.109
 2625SOL     OW 8178   6.718   7.994   4.377
 2625SOL    HW1 8179   6.805   8.017   4.344
 2625SOL    HW2 8180   6.733   7.972   4.469
 2626SOL     OW 8181   6.420   1.648   0.943
 2626SOL    HW1 8182   6.408   1.670   1.035
 2626SOL    HW2 8183   6.515   1.653   0.929
 2627SOL     OW 8184   6.610   5.968   2.596
 2627SOL    HW1 8185   6.688   5.931   2.555
 2627SOL    HW2 8186   6.552   5.893   2.610
 2628SOL     OW 8187   5.358   7.471   2.017
 2628SOL    HW1 8188   5.394   7.455   2.104
 2628SOL    HW2 8189   5.414   7.540   1.981
 2629SOL     OW 8190   6.106   1.330   0.631
 2629SOL    HW1 8191   6.089   1.376   0.713
 2629SOL    HW2 8192   6.046   1.369   0.568
 2630SOL     OW 8193   0.474   7.799   1.894
 2630SOL    HW1 8194   0.400   7.812   1.835
 2630SOL    HW2 8195   0.549   7.789   1.836
 2631SOL     OW 8196   7.919   5.989   2.823
 2631SOL    HW1 8197   7.969   5.919   2.780
 2631SOL    HW2 8198   7.968   6.069   2.804
 2632SOL     OW 8199   3.509   8.062   3.351
 2632SOL    HW1 8200   3.449   7.987   3.347
 2632SOL    HW2 8201   3.462   8.132   3.305
 2633SOL     OW 8202   5.938   0.552   3.446
 2633SOL    HW1 8203   6.012   0.550   3.385
 2633SOL    HW2 8204   5.871   0.604   3.402
 2634SOL     OW 8205   3.714   4.746   0.032
 2634SOL    HW1 8206   3.767   4.826   0.040
 2634SOL    HW2 8207   3.630   4.769   0.072
 2635SOL     OW 8208   3.034   6.145   2.725
 2635SOL    HW1 8209   2.949   6.147   2.680
 2635SOL    HW2 8210   3.060   6.053   2.721
 2636SOL     OW 8211   3.375   8.110   0.293
 2636SOL    HW1 8212   3.358   8.188   0.346
 2636SOL    HW2 8213   3.404   8.144   0.208
 2637SOL     OW 8214   3.133   6.996   2.204
 2637SOL    HW1 8215   3.046   7.027   2.229
 2637SOL    HW2 8216   3.119   6.906   2.176
 2638SOL     OW 8217   6.237   0.219   1.537
 2638SOL    HW1 8218   6.194   0.138   1.565
 2638SOL    HW2 8219   6.166   0.273   1.501
 2639SOL     OW 8220   4.094   1.038   3.070
 2639SOL    HW1 8221   4.111   1.127   3.040
 2639SOL    HW2 8222   4.092   1.045   3.165
 2640SOL     OW 8223   1.183   7.973   0.370
 2640SOL    HW1 8224   1.263   8.012   0.404
 2640SOL    HW2 8225   1.212   7.891   0.330
 2641SOL     OW 8226   6.914   2.807   0.429
 2641SOL    HW1 8227   6.863   2.753   0.489
 2641SOL    HW2 8228   6.883   2.782   0.342
 2642SOL     OW 8229   1.441   5.585   4.005
 2642SOL    HW1 8230   1.347   5.580   3.989
 2642SOL    HW2 8231   1.459   5.678   4.018
 2643SOL     OW 8232   1.619   1.001   3.517
 2643SOL    HW1 8233   1.607   1.095   3.532
 2643SOL    HW2 8234   1.706   0.993   3.478
 2644SOL     OW 8235   4.573   6.743   5.745
 2644SOL    HW1 8236   4.650   6.714   5.794
 2644SOL    HW2 8237   4.608   6.768   5.659
 2645SOL     OW 8238   7.316   6.893   4.679
 2645SOL    HW1 8239   7.394   6.948   4.673
 2645SOL    HW2 8240   7.247   6.953   4.708
 2646SOL     OW 8241   1.375   0.861   1.070
 2646SOL    HW1 8242   1.382   0.859   0.975
 2646SOL    HW2 8243   1.284   0.838   1.088
 2647SOL     OW 8244   5.082   3.952   4.379
 2647SOL    HW1 8245   5.123   4.028   4.421
 2647SOL    HW2 8246   5.155   3.905   4.339
 2648SOL     OW 8247   0.055   2.563   5.425
 2648SOL    HW1 8248   0.020   2.523   5.505
 2648SOL    HW2 8249   0.085   2.489   5.372
 2649SOL     OW 8250   6.894   7.078   5.123
 2649SOL    HW1 8251   6.872   7.171   5.117
 2649SOL    HW2 8252   6.980   7.071   5.082
 2650SOL     OW 8253   0.870   2.353   5.084
 2650SOL    HW1 8254   0.886   2.375   4.992
 2650SOL    HW2 8255   0.866   2.257   5.085
 2651SOL     OW 8256   2.913   0.446   2.066
 2651SOL    HW1 8257   2.944   0.426   2.154
 2651SOL    HW2 8258   2.992   0.446   2.012
 2652SOL     OW 8259   6.281   4.415   1.117
 2652SOL    HW1 8260   6.283   4.389   1.025
 2652SOL    HW2 8261   6.280   4.511   1.115
 2653SOL     OW 8262   0.790   4.030   0.253
 2653SOL    HW1 8263   0.835   4.114   0.250
 2653SOL    HW2 8264   0.701   4.052   0.280
 2654SOL     OW 8265   7.378   0.563   2.239
 2654SOL    HW1 8266   7.461   0.543   2.196
 2654SOL    HW2 8267   7.328   0.482   2.232
 2655SOL     OW 8268   2.378   0.284   2.192
 2655SOL    HW1 8269   2.413   0.212   2.140
 2655SOL    HW2 8270   2.385   0.254   2.283
 2656SOL     OW 8271   3.072   3.826   2.400
 2656SOL    HW1 8272   3.132   3.779   2.458
 2656SOL    HW2 8273   3.059   3.767   2.326
 2657SOL     OW 8274   3.218   0.496   5.547
 2657SOL    HW1 8275   3.160   0.566   5.516
 2657SOL    HW2 8276   3.246   0.526   5.633
 2658SOL     OW 8277   1.598   5.656   0.082
 2658SOL    HW1 8278   1.612   5.722   0.150
 2658SOL    HW2 8279   1.667   5.592   0.097
 2659SOL     OW 8280   5.462   4.875   2.035
 2659SOL    HW1 8281   5.411   4.819   1.976
 2659SOL    HW2 8282   5.545   4.889   1.989
 2660SOL     OW 8283   2.264   3.785   2.189
 2660SOL    HW1 8284   2.346   3.746   2.159
 2660SOL    HW2 8285   2.209   3.710   2.211
 2661SOL     OW 8286   6.604   7.817   1.654
 2661SOL    HW1 8287   6.592   7.871   1.732
 2661SOL    HW2 8288   6.618   7.729   1.688
 2662SOL     OW 8289   6.985   8.075   2.588
 2662SOL    HW1 8290   7.005   8.044   2.676
 2662SOL    HW2 8291   7.036   8.155   2.578
 2663SOL     OW 8292   6.161   8.028   1.835
 2663SOL    HW1 8293   6.107   7.952   1.858
 2663SOL    HW2 8294   6.156   8.033   1.740
 2664SOL     OW 8295   0.763   7.456   1.759
 2664SOL    HW1 8296   0.753   7.550   1.741
 2664SOL    HW2 8297   0.734   7.413   1.678
 2665SOL     OW 8298   4.235   4.787   5.510
 2665SOL    HW1 8299   4.319   4.745   5.528
 2665SOL    HW2 8300   4.259   4.872   5.473
 2666SOL     OW 8301   3.947   6.020   0.644
 2666SOL    HW1 8302   3.852   6.013   0.654
 2666SOL    HW2 8303   3.974   6.083   0.711
 2667SOL     OW 8304   0.396   1.903   1.989
 2667SOL    HW1 8305   0.433   1.816   2.006
 2667SOL    HW2 8306   0.445   1.935   1.913
 2668SOL     OW 8307   4.928   8.201   3.342
 2668SOL    HW1 8308   4.987   0.017   3.282
 2668SOL    HW2 8309   4.880   0.042   3.386
 2669SOL     OW 8310   4.089   1.978   0.810
 2669SOL    HW1 8311   4.021   1.971   0.877
 2669SOL    HW2 8312   4.050   2.033   0.742
 2670SOL     OW 8313   2.427   6.604   1.226
 2670SOL    HW1 8314   2.470   6.672   1.278
 2670SOL    HW2 8315   2.342   6.641   1.204
 2671SOL     OW 8316   0.706   4.656   1.261
 2671SOL    HW1 8317   0.714   4.735   1.314
 2671SOL    HW2 8318   0.628   4.612   1.295
 2672SOL     OW 8319   5.339   6.001   3.839
 2672SOL    HW1 8320   5.283   5.994   3.762
 2672SOL    HW2 8321   5.285   5.967   3.910
 2673SOL     OW 8322   4.104   7.656   3.168
 2673SOL    HW1 8323   4.041   7.632   3.236
 2673SOL    HW2 8324   4.147   7.735   3.201
 2674SOL     OW 8325   3.820   2.218   0.141
 2674SOL    HW1 8326   3.858   2.144   0.094
 2674SOL    HW2 8327   3.883   2.289   0.127
 2675SOL     OW 8328   0.779   3.516   0.941
 2675SOL    HW1 8329   0.799   3.469   0.860
 2675SOL    HW2 8330   0.766   3.607   0.913
 2676SOL     OW 8331   0.928   3.619   3.730
 2676SOL    HW1 8332   0.877   3.580   3.801
 2676SOL    HW2 8333   0.893   3.579   3.650
 2677SOL     OW 8334   4.758   3.947   5.061
 2677SOL    HW1 8335   4.843   3.989   5.046
 2677SOL    HW2 8336   4.735   3.910   4.976
 2678SOL     OW 8337   6.321   6.472   3.558
 2678SOL    HW1 8338   6.294   6.564   3.557
 2678SOL    HW2 8339   6.282   6.435   3.479
 2679SOL     OW 8340   1.100   5.544   3.664
 2679SOL    HW1 8341   1.167   5.603   3.630
 2679SOL    HW2 8342   1.144   5.459   3.671
 2680SOL     OW 8343   1.288   5.155   1.089
 2680SOL    HW1 8344   1.215   5.114   1.043
 2680SOL    HW2 8345   1.364   5.102   1.065
 2681SOL     OW 8346   0.739   2.626   3.618
 2681SOL    HW1 8347   0.766   2.647   3.707
 2681SOL    HW2 8348   0.774   2.538   3.603
 2682SOL     OW 8349   1.172   6.473   5.490
 2682SOL    HW1 8350   1.124   6.390   5.488
 2682SOL    HW2 8351   1.108   6.538   5.462
 2683SOL     OW 8352   6.863   0.081   2.936
 2683SOL    HW1 8353   6.934   0.144   2.948
 2683SOL    HW2 8354   6.862   0.030   3.017
 2684SOL     OW 8355   7.168   4.447   0.295
 2684SOL    HW1 8356   7.110   4.442   0.219
 2684SOL    HW2 8357   7.250   4.482   0.261
 2685SOL     OW 8358   2.985   5.995   5.122
 2685SOL    HW1 8359   2.971   6.069   5.063
 2685SOL    HW2 8360   2.924   6.010   5.194
 2686SOL     OW 8361   4.184   2.638   5.197
 2686SOL    HW1 8362   4.196   2.689   5.117
 2686SOL    HW2 8363   4.230   2.688   5.265
 2687SOL     OW 8364   0.884   1.392   3.767
 2687SOL    HW1 8365   0.792   1.406   3.790
 2687SOL    HW2 8366   0.914   1.322   3.825
 2688SOL     OW 8367   3.411   0.721   5.695
 2688SOL    HW1 8368   3.352   0.722   5.619
 2688SOL    HW2 8369   3.398   0.806   5.737
 2689SOL     OW 8370   6.224   0.501   5.375
 2689SOL    HW1 8371   6.167   0.576   5.358
 2689SOL    HW2 8372   6.242   0.464   5.289
 2690SOL     OW 8373   8.053   0.217   0.922
 2690SOL    HW1 8374   8.020   0.279   0.857
 2690SOL    HW2 8375   7.981   0.156   0.936
 2691SOL     OW 8376   4.735   0.160   3.447
 2691SOL    HW1 8377   4.777   0.214   3.514
 2691SOL    HW2 8378   4.662   0.118   3.492
 2692SOL     OW 8379   6.730   0.883   0.762
 2692SOL    HW1 8380   6.730   0.960   0.705
 2692SOL    HW2 8381   6.822   0.856   0.765
 2693SOL     OW 8382   2.457   1.473   1.114
 2693SOL    HW1 8383   2.362   1.474   1.124
 2693SOL    HW2 8384   2.481   1.565   1.106
 2694SOL     OW 8385   6.930   6.151   5.206
 2694SOL    HW1 8386   6.899   6.061   5.204
 2694SOL    HW2 8387   6.934   6.177   5.114
 2695SOL     OW 8388   1.604   0.936   0.123
 2695SOL    HW1 8389   1.628   0.859   0.174
 2695SOL    HW2 8390   1.588   1.004   0.189
 2696SOL     OW 8391   8.174   5.088   2.244
 2696SOL    HW1 8392   8.199   5.011   2.295
 2696SOL    HW2 8393   8.105   5.130   2.296
 2697SOL     OW 8394   6.266   1.333   3.026
 2697SOL    HW1 8395   6.189   1.290   3.065
 2697SOL    HW2 8396   6.233   1.416   2.993
 2698SOL     OW 8397   6.633   1.580   2.642
 2698SOL    HW1 8398   6.587   1.664   2.643
 2698SOL    HW2 8399   6.580   1.522   2.697
 2699SOL     OW 8400   5.020   0.474   2.157
 2699SOL    HW1 8401   4.937   0.505   2.121
 2699SOL    HW2 8402   5.086   0.526   2.111
 2700SOL     OW 8403   5.430   7.804   0.851
 2700SOL    HW1 8404   5.497   7.858   0.810
 2700SOL    HW2 8405   5.400   7.856   0.926
 2701SOL     OW 8406   2.712   5.018   5.593
 2701SOL    HW1 8407   2.649   4.990   5.527
 2701SOL    HW2 8408   2.718   5.113   5.582
 2702SOL     OW 8409   1.663   5.983   1.298
 2702SOL    HW1 8410   1.568   5.979   1.290
 2702SOL    HW2 8411   1.695   5.914   1.239
 2703SOL     OW 8412   4.220   1.261   5.127
 2703SOL    HW1 8413   4.198   1.188   5.069
 2703SOL    HW2 8414   4.208   1.226   5.215
 2704SOL     OW 8415   7.373   2.064   4.006
 2704SOL    HW1 8416   7.370   2.057   4.101
 2704SOL    HW2 8417   7.322   2.142   3.985
 2705SOL     OW 8418   2.740   2.587   3.600
 2705SOL    HW1 8419   2.662   2.607   3.548
 2705SOL    HW2 8420   2.736   2.649   3.673
 2706SOL     OW 8421   2.531   4.933   0.395
 2706SOL    HW1 8422   2.558   4.841   0.390
 2706SOL    HW2 8423   2.557   4.961   0.483
 2707SOL     OW 8424   4.024   3.058   1.335
 2707SOL    HW1 8425   3.941   3.029   1.373
 2707SOL    HW2 8426   4.003   3.141   1.293
 2708SOL     OW 8427   0.533   7.609   5.477
 2708SOL    HW1 8428   0.508   7.664   5.551
 2708SOL    HW2 8429   0.498   7.654   5.400
 2709SOL     OW 8430   4.676   5.180   4.815
 2709SOL    HW1 8431   4.731   5.218   4.884
 2709SOL    HW2 8432   4.628   5.109   4.858
 2710SOL     OW 8433   7.627   1.598   5.521
 2710SOL    HW1 8434   7.538   1.627   5.502
 2710SOL    HW2 8435   7.677   1.619   5.442
 2711SOL     OW 8436   6.847   2.450   0.748
 2711SOL    HW1 8437   6.765   2.400   0.742
 2711SOL    HW2 8438   6.825   2.525   0.804
 2712SOL     OW 8439   5.299   4.532   5.573
 2712SOL    HW1 8440   5.384   4.547   5.615
 2712SOL    HW2 8441   5.303   4.441   5.542
 2713SOL     OW 8442   2.109   3.851   0.626
 2713SOL    HW1 8443   2.169   3.797   0.678
 2713SOL    HW2 8444   2.028   3.800   0.621
 2714SOL     OW 8445   1.832   4.236   2.635
 2714SOL    HW1 8446   1.754   4.195   2.597
 2714SOL    HW2 8447   1.841   4.318   2.586
 2715SOL     OW 8448   3.623   4.613   3.426
 2715SOL    HW1 8449   3.680   4.594   3.500
 2715SOL    HW2 8450   3.676   4.591   3.349
 2716SOL     OW 8451   6.877   7.979   1.652
 2716SOL    HW1 8452   6.877   7.914   1.582
 2716SOL    HW2 8453   6.898   7.929   1.731
 2717SOL     OW 8454   3.132   0.592   3.999
 2717SOL    HW1 8455   3.097   0.639   4.074
 2717SOL    HW2 8456   3.055   0.560   3.952
 2718SOL     OW 8457   7.426   7.374   2.700
 2718SOL    HW1 8458   7.488   7.380   2.627
 2718SOL    HW2 8459   7.369   7.450   2.689
 2719SOL     OW 8460   5.687   2.893   3.017
 2719SOL    HW1 8461   5.769   2.942   3.005
 2719SOL    HW2 8462   5.709   2.803   2.993
 2720SOL     OW 8463   0.472   0.394   4.766
 2720SOL    HW1 8464   0.518   0.330   4.820
 2720SOL    HW2 8465   0.409   0.342   4.716
 2721SOL     OW 8466   5.780   5.585   1.715
 2721SOL    HW1 8467   5.760   5.669   1.755
 2721SOL    HW2 8468   5.706   5.529   1.738
 2722SOL     OW 8469   8.135   7.945   5.140
 2722SOL    HW1 8470   8.108   8.026   5.182
 2722SOL    HW2 8471   0.001   7.953   5.131
 2723SOL     OW 8472   2.900   8.116   0.110
 2723SOL    HW1 8473   2.824   8.118   0.052
 2723SOL    HW2 8474   2.914   8.207   0.135
 2724SOL     OW 8475   5.207   0.749   0.083
 2724SOL    HW1 8476   5.297   0.760   0.053
 2724SOL    HW2 8477   5.192   0.654   0.080
 2725SOL     OW 8478   4.145   3.935   5.134
 2725SOL    HW1 8479   4.211   3.903   5.196
 2725SOL    HW2 8480   4.148   3.872   5.062
 2726SOL     OW 8481   5.977   0.971   4.455
 2726SOL    HW1 8482   6.020   0.965   4.370
 2726SOL    HW2 8483   5.927   0.890   4.462
 2727SOL     OW 8484   5.533   8.178   0.966
 2727SOL    HW1 8485   5.564   8.105   0.912
 2727SOL    HW2 8486   5.544   0.026   0.911
 2728SOL     OW 8487   0.208   1.243   0.011
 2728SOL    HW1 8488   0.113   1.233   0.016
 2728SOL    HW2 8489   0.238   1.228   0.101
 2729SOL     OW 8490   5.964   3.767   0.285
 2729SOL    HW1 8491   5.983   3.795   0.195
 2729SOL    HW2 8492   6.027   3.816   0.339
 2730SOL     OW 8493   7.701   3.980   4.980
 2730SOL    HW1 8494   7.693   3.902   5.035
 2730SOL    HW2 8495   7.618   4.026   4.991
 2731SOL     OW 8496   0.749   2.228   0.851
 2731SOL    HW1 8497   0.692   2.179   0.792
 2731SOL    HW2 8498   0.769   2.309   0.804
 2732SOL     OW 8499   6.462   4.763   5.227
 2732SOL    HW1 8500   6.494   4.675   5.206
 2732SOL    HW2 8501   6.441   4.760   5.320
 2733SOL     OW 8502   3.252   1.699   0.593
 2733SOL    HW1 8503   3.289   1.614   0.568
 2733SOL    HW2 8504   3.308   1.764   0.549
 2734SOL     OW 8505   1.411   7.038   2.160
 2734SOL    HW1 8506   1.481   6.975   2.176
 2734SOL    HW2 8507   1.383   7.065   2.247
 2735SOL     OW 8508   4.159   7.051   4.207
 2735SOL    HW1 8509   4.178   6.962   4.237
 2735SOL    HW2 8510   4.080   7.076   4.255
 2736SOL     OW 8511   2.664   3.872   1.608
 2736SOL    HW1 8512   2.689   3.785   1.575
 2736SOL    HW2 8513   2.709   3.933   1.550
 2737SOL     OW 8514   3.429   7.993   5.037
 2737SOL    HW1 8515   3.340   7.996   5.072
 2737SOL    HW2 8516   3.424   8.044   4.956
 2738SOL     OW 8517   5.817   7.743   4.329
 2738SOL    HW1 8518   5.913   7.742   4.329
 2738SOL    HW2 8519   5.793   7.701   4.412
 2739SOL     OW 8520   2.895   5.356   2.405
 2739SOL    HW1 8521   2.949   5.323   2.477
 2739SOL    HW2 8522   2.869   5.278   2.356
 2740SOL     OW 8523   0.629   3.001   0.628
 2740SOL    HW1 8524   0.699   3.043   0.578
 2740SOL    HW2 8525   0.622   2.913   0.590
 2741SOL     OW 8526   6.661   7.428   3.932
 2741SOL    HW1 8527   6.676   7.505   3.877
 2741SOL    HW2 8528   6.621   7.364   3.873
 2742SOL     OW 8529   4.213   1.568   5.046
 2742SOL    HW1 8530   4.294   1.611   5.020
 2742SOL    HW2 8531   4.240   1.482   5.077
 2743SOL     OW 8532   7.986   5.189   2.400
 2743SOL    HW1 8533   7.901   5.232   2.391
 2743SOL    HW2 8534   8.019   5.219   2.485
 2744SOL     OW 8535   4.052   1.097   0.360
 2744SOL    HW1 8536   4.043   1.069   0.269
 2744SOL    HW2 8537   4.134   1.147   0.362
 2745SOL     OW 8538   5.153   4.734   1.480
 2745SOL    HW1 8539   5.155   4.810   1.538
 2745SOL    HW2 8540   5.098   4.762   1.407
 2746SOL     OW 8541   6.671   5.619   4.509
 2746SOL    HW1 8542   6.717   5.700   4.486
 2746SOL    HW2 8543   6.578   5.643   4.507
 2747SOL     OW 8544   7.183   4.044   4.662
 2747SOL    HW1 8545   7.121   3.979   4.628
 2747SOL    HW2 8546   7.240   4.064   4.588
 2748SOL     OW 8547   7.602   6.221   2.404
 2748SOL    HW1 8548   7.648   6.303   2.387
 2748SOL    HW2 8549   7.629   6.197   2.493
 2749SOL     OW 8550   5.132   3.421   5.071
 2749SOL    HW1 8551   5.094   3.508   5.065
 2749SOL    HW2 8552   5.120   3.383   4.984
 2750SOL     OW 8553   2.222   4.837   3.155
 2750SOL    HW1 8554   2.295   4.775   3.151
 2750SOL    HW2 8555   2.233   4.892   3.078
 2751SOL     OW 8556   3.305   2.227   2.858
 2751SOL    HW1 8557   3.295   2.318   2.831
 2751SOL    HW2 8558   3.285   2.176   2.779
 2752SOL     OW 8559   7.429   3.315   4.724
 2752SOL    HW1 8560   7.507   3.266   4.699
 2752SOL    HW2 8561   7.425   3.307   4.819
 2753SOL     OW 8562   0.561   5.933   5.419
 2753SOL    HW1 8563   0.488   5.975   5.373
 2753SOL    HW2 8564   0.636   5.947   5.361
 2754SOL     OW 8565   7.942   5.435   1.075
 2754SOL    HW1 8566   7.908   5.503   1.017
 2754SOL    HW2 8567   7.968   5.364   1.016
 2755SOL     OW 8568   4.981   3.364   1.039
 2755SOL    HW1 8569   4.963   3.311   0.961
 2755SOL    HW2 8570   4.988   3.301   1.110
 2756SOL     OW 8571   0.649   0.263   0.244
 2756SOL    HW1 8572   0.652   0.355   0.269
 2756SOL    HW2 8573   0.736   0.245   0.209
 2757SOL     OW 8574   6.533   0.473   5.666
 2757SOL    HW1 8575   6.459   0.489   5.724
 2757SOL    HW2 8576   6.518   0.384   5.633
 2758SOL     OW 8577   0.337   7.020   2.103
 2758SOL    HW1 8578   0.384   6.947   2.063
 2758SOL    HW2 8579   0.404   7.067   2.153
 2759SOL     OW 8580   4.456   5.259   5.126
 2759SOL    HW1 8581   4.487   5.331   5.181
 2759SOL    HW2 8582   4.409   5.201   5.186
 2760SOL     OW 8583   1.618   1.570   3.913
 2760SOL    HW1 8584   1.552   1.607   3.855
 2760SOL    HW2 8585   1.679   1.642   3.929
 2761SOL     OW 8586   2.438   2.433   3.171
 2761SOL    HW1 8587   2.435   2.391   3.085
 2761SOL    HW2 8588   2.463   2.524   3.153
 2762SOL     OW 8589   1.960   2.895   3.633
 2762SOL    HW1 8590   1.994   2.872   3.547
 2762SOL    HW2 8591   1.877   2.939   3.615
 2763SOL     OW 8592   1.721   7.716   3.512
 2763SOL    HW1 8593   1.761   7.632   3.488
 2763SOL    HW2 8594   1.759   7.737   3.597
 2764SOL     OW 8595   1.467   5.683   1.027
 2764SOL    HW1 8596   1.412   5.611   1.058
 2764SOL    HW2 8597   1.465   5.676   0.932
 2765SOL     OW 8598   4.395   1.456   1.795
 2765SOL    HW1 8599   4.335   1.513   1.747
 2765SOL    HW2 8600   4.395   1.374   1.745
 2766SOL     OW 8601   2.686   7.070   4.103
 2766SOL    HW1 8602   2.629   6.998   4.075
 2766SOL    HW2 8603   2.772   7.030   4.114
 2767SOL     OW 8604   4.291   7.305   3.072
 2767SOL    HW1 8605   4.219   7.250   3.042
 2767SOL    HW2 8606   4.275   7.390   3.032
 2768SOL     OW 8607   1.445   1.165   2.069
 2768SOL    HW1 8608   1.379   1.139   2.134
 2768SOL    HW2 8609   1.524   1.118   2.096
 2769SOL     OW 8610   6.684   6.974   0.087
 2769SOL    HW1 8611   6.733   7.012   0.014
 2769SOL    HW2 8612   6.621   6.915   0.046
 2770SOL     OW 8613   5.374   7.504   0.487
 2770SOL    HW1 8614   5.419   7.507   0.402
 2770SOL    HW2 8615   5.284   7.530   0.467
 2771SOL     OW 8616   0.523   2.092   3.170
 2771SOL    HW1 8617   0.587   2.140   3.223
 2771SOL    HW2 8618   0.576   2.040   3.109
 2772SOL     OW 8619   0.301   6.618   0.848
 2772SOL    HW1 8620   0.315   6.700   0.800
 2772SOL    HW2 8621   0.280   6.554   0.780
 2773SOL     OW 8622   5.530   6.668   0.196
 2773SOL    HW1 8623   5.468   6.683   0.268
 2773SOL    HW2 8624   5.554   6.576   0.204
 2774SOL     OW 8625   7.741   1.222   0.785
 2774SOL    HW1 8626   7.818   1.278   0.779
 2774SOL    HW2 8627   7.769   1.139   0.747
 2775SOL     OW 8628   2.293   1.898   5.030
 2775SOL    HW1 8629   2.257   1.867   4.947
 2775SOL    HW2 8630   2.216   1.919   5.083
 2776SOL     OW 8631   3.786   6.853   4.178
 2776SOL    HW1 8632   3.854   6.920   4.183
 2776SOL    HW2 8633   3.755   6.858   4.088
 2777SOL     OW 8634   0.036   7.975   0.191
 2777SOL    HW1 8635   8.207   7.929   0.130
 2777SOL    HW2 8636   8.220   7.971   0.275
 2778SOL     OW 8637   2.146   7.065   2.214
 2778SOL    HW1 8638   2.115   6.986   2.169
 2778SOL    HW2 8639   2.088   7.135   2.184
 2779SOL     OW 8640   7.139   0.024   5.806
 2779SOL    HW1 8641   3.097   4.103   0.038
 2779SOL    HW2 8642   7.067   8.191   5.818
 2780SOL     OW 8643   6.887   2.850   2.429
 2780SOL    HW1 8644   6.936   2.896   2.361
 2780SOL    HW2 8645   6.899   2.903   2.508
 2781SOL     OW 8646   4.249   5.750   4.221
 2781SOL    HW1 8647   4.183   5.701   4.269
 2781SOL    HW2 8648   4.292   5.804   4.287
 2782SOL     OW 8649   3.372   5.962   4.704
 2782SOL    HW1 8650   3.322   5.912   4.639
 2782SOL    HW2 8651   3.459   5.923   4.702
 2783SOL     OW 8652   7.191   5.302   2.557
 2783SOL    HW1 8653   7.203   5.220   2.605
 2783SOL    HW2 8654   7.280   5.335   2.543
 2784SOL     OW 8655   1.519   5.143   3.675
 2784SOL    HW1 8656   1.523   5.050   3.696
 2784SOL    HW2 8657   1.558   5.187   3.751
 2785SOL     OW 8658   5.744   1.121   2.015
 2785SOL    HW1 8659   5.668   1.165   1.976
 2785SOL    HW2 8660   5.771   1.057   1.950
 2786SOL     OW 8661   2.080   7.491   5.259
 2786SOL    HW1 8662   2.107   7.581   5.240
 2786SOL    HW2 8663   2.078   7.486   5.355
 2787SOL     OW 8664   4.700   3.108   0.457
 2787SOL    HW1 8665   4.788   3.072   0.467
 2787SOL    HW2 8666   4.643   3.045   0.502
 2788SOL     OW 8667   4.582   2.982   3.096
 2788SOL    HW1 8668   4.603   2.921   3.025
 2788SOL    HW2 8669   4.651   3.048   3.093
 2789SOL     OW 8670   8.150   8.132   2.509
 2789SOL    HW1 8671   8.094   8.065   2.547
 2789SOL    HW2 8672   8.121   8.214   2.549
 2790SOL     OW 8673   6.868   5.472   1.188
 2790SOL    HW1 8674   6.787   5.479   1.239
 2790SOL    HW2 8675   6.882   5.378   1.178
 2791SOL     OW 8676   5.896   0.351   5.333
 2791SOL    HW1 8677   5.935   0.265   5.346
 2791SOL    HW2 8678   5.887   0.387   5.421
 2792SOL     OW 8679   3.767   2.173   1.803
 2792SOL    HW1 8680   3.692   2.174   1.862
 2792SOL    HW2 8681   3.772   2.262   1.769
 2793SOL     OW 8682   2.950   0.900   3.637
 2793SOL    HW1 8683   2.923   0.808   3.639
 2793SOL    HW2 8684   3.003   0.908   3.558
 2794SOL     OW 8685   4.967   0.924   1.524
 2794SOL    HW1 8686   4.909   0.983   1.477
 2794SOL    HW2 8687   5.029   0.982   1.569
 2795SOL     OW 8688   3.019   1.692   1.531
 2795SOL    HW1 8689   3.002   1.601   1.506
 2795SOL    HW2 8690   3.059   1.686   1.618
 2796SOL     OW 8691   1.393   0.827   3.521
 2796SOL    HW1 8692   1.472   0.881   3.522
 2796SOL    HW2 8693   1.364   0.825   3.612
 2797SOL     OW 8694   3.109   7.322   2.339
 2797SOL    HW1 8695   3.163   7.289   2.267
 2797SOL    HW2 8696   3.161   7.306   2.418
 2798SOL     OW 8697   1.914   7.918   5.089
 2798SOL    HW1 8698   1.933   7.960   5.005
 2798SOL    HW2 8699   1.999   7.884   5.118
 2799SOL     OW 8700   0.738   6.280   1.427
 2799SOL    HW1 8701   0.701   6.220   1.492
 2799SOL    HW2 8702   0.744   6.228   1.347
 2800SOL     OW 8703   0.430   1.927   0.269
 2800SOL    HW1 8704   0.360   1.985   0.299
 2800SOL    HW2 8705   0.393   1.883   0.192
 2801SOL     OW 8706   1.373   7.249   1.994
 2801SOL    HW1 8707   1.413   7.209   2.071
 2801SOL    HW2 8708   1.368   7.178   1.930
 2802SOL     OW 8709   8.092   2.288   4.699
 2802SOL    HW1 8710   8.125   2.335   4.622
 2802SOL    HW2 8711   8.122   2.341   4.773
 2803SOL     OW 8712   1.493   7.889   3.488
 2803SOL    HW1 8713   1.573   7.848   3.520
 2803SOL    HW2 8714   1.426   7.821   3.494
 2804SOL     OW 8715   7.833   5.236   4.952
 2804SOL    HW1 8716   7.775   5.191   4.891
 2804SOL    HW2 8717   7.908   5.261   4.899
 2805SOL     OW 8718   3.522   2.144   1.918
 2805SOL    HW1 8719   3.462   2.079   1.956
 2805SOL    HW2 8720   3.471   2.225   1.914
 2806SOL     OW 8721   6.490   5.298   1.915
 2806SOL    HW1 8722   6.504   5.389   1.890
 2806SOL    HW2 8723   6.573   5.255   1.896
 2807SOL     OW 8724   4.961   2.937   1.672
 2807SOL    HW1 8725   4.891   2.950   1.736
 2807SOL    HW2 8726   5.017   2.870   1.711
 2808SOL     OW 8727   1.786   5.554   5.610
 2808SOL    HW1 8728   1.761   5.637   5.651
 2808SOL    HW2 8729   1.765   5.565   5.517
 2809SOL     OW 8730   2.155   7.282   1.892
 2809SOL    HW1 8731   2.148   7.351   1.826
 2809SOL    HW2 8732   2.187   7.327   1.970
 2810SOL     OW 8733   2.016   7.020   2.796
 2810SOL    HW1 8734   2.093   6.975   2.829
 2810SOL    HW2 8735   1.974   7.057   2.874
 2811SOL     OW 8736   4.458   2.051   5.638
 2811SOL    HW1 8737   4.376   2.067   5.685
 2811SOL    HW2 8738   4.486   1.964   5.668
 2812SOL     OW 8739   1.826   0.414   4.558
 2812SOL    HW1 8740   1.755   0.471   4.527
 2812SOL    HW2 8741   1.791   0.373   4.637
 2813SOL     OW 8742   0.873   5.751   0.520
 2813SOL    HW1 8743   0.824   5.825   0.484
 2813SOL    HW2 8744   0.957   5.788   0.545
 2814SOL     OW 8745   2.150   2.626   0.367
 2814SOL    HW1 8746   2.123   2.534   0.373
 2814SOL    HW2 8747   2.245   2.623   0.353
 2815SOL     OW 8748   6.485   7.062   4.578
 2815SOL    HW1 8749   6.418   6.994   4.572
 2815SOL    HW2 8750   6.462   7.111   4.657
 2816SOL     OW 8751   6.472   0.124   3.649
 2816SOL    HW1 8752   6.524   0.133   3.569
 2816SOL    HW2 8753   6.424   0.206   3.656
 2817SOL     OW 8754   7.601   1.184   1.677
 2817SOL    HW1 8755   7.615   1.142   1.592
 2817SOL    HW2 8756   7.660   1.138   1.737
 2818SOL     OW 8757   7.229   6.316   1.481
 2818SOL    HW1 8758   7.251   6.234   1.524
 2818SOL    HW2 8759   7.282   6.382   1.526
 2819SOL     OW 8760   0.262   0.993   0.371
 2819SOL    HW1 8761   0.332   0.974   0.308
 2819SOL    HW2 8762   0.183   0.957   0.330
 2820SOL     OW 8763   5.436   3.997   1.184
 2820SOL    HW1 8764   5.434   4.093   1.187
 2820SOL    HW2 8765   5.527   3.975   1.203
 2821SOL     OW 8766   1.285   0.858   0.461
 2821SOL    HW1 8767   1.328   0.831   0.380
 2821SOL    HW2 8768   1.314   0.948   0.475
 2822SOL     OW 8769   0.078   5.912   3.570
 2822SOL    HW1 8770   0.116   5.991   3.532
 2822SOL    HW2 8771   8.215   5.934   3.582
 2823SOL     OW 8772   2.888   2.605   1.180
 2823SOL    HW1 8773   2.905   2.641   1.267
 2823SOL    HW2 8774   2.842   2.523   1.197
 2824SOL     OW 8775   4.283   4.451   1.551
 2824SOL    HW1 8776   4.377   4.439   1.566
 2824SOL    HW2 8777   4.243   4.444   1.638
 2825SOL     OW 8778   0.529   2.791   1.325
 2825SOL    HW1 8779   0.606   2.839   1.356
 2825SOL    HW2 8780   0.523   2.811   1.232
 2826SOL     OW 8781   7.606   4.761   1.554
 2826SOL    HW1 8782   7.656   4.824   1.503
 2826SOL    HW2 8783   7.644   4.766   1.642
 2827SOL     OW 8784   2.321   3.872   5.510
 2827SOL    HW1 8785   2.283   3.907   5.590
 2827SOL    HW2 8786   2.246   3.842   5.458
 2828SOL     OW 8787   2.590   4.913   2.986
 2828SOL    HW1 8788   2.584   4.939   3.078
 2828SOL    HW2 8789   2.556   4.988   2.938
 2829SOL     OW 8790   7.715   5.262   3.869
 2829SOL    HW1 8791   7.748   5.201   3.803
 2829SOL    HW2 8792   7.754   5.346   3.845
 2830SOL     OW 8793   2.293   4.301   3.996
 2830SOL    HW1 8794   2.229   4.354   4.044
 2830SOL    HW2 8795   2.241   4.250   3.934
 2831SOL     OW 8796   7.833   2.419   2.028
 2831SOL    HW1 8797   7.755   2.393   2.076
 2831SOL    HW2 8798   7.806   2.496   1.977
 2832SOL     OW 8799   6.447   1.910   2.182
 2832SOL    HW1 8800   6.368   1.893   2.234
 2832SOL    HW2 8801   6.431   1.866   2.099
 2833SOL     OW 8802   6.592   5.278   4.728
 2833SOL    HW1 8803   6.667   5.243   4.776
 2833SOL    HW2 8804   6.520   5.218   4.749
 2834SOL     OW 8805   4.519   1.062   3.289
 2834SOL    HW1 8806   4.500   1.067   3.195
 2834SOL    HW2 8807   4.535   0.969   3.305
 2835SOL     OW 8808   2.994   3.970   2.638
 2835SOL    HW1 8809   3.036   3.963   2.552
 2835SOL    HW2 8810   2.970   3.880   2.660
 2836SOL     OW 8811   0.348   3.504   4.437
 2836SOL    HW1 8812   0.287   3.573   4.462
 2836SOL    HW2 8813   0.394   3.482   4.518
 2837SOL     OW 8814   3.561   4.156   4.083
 2837SOL    HW1 8815   3.621   4.225   4.112
 2837SOL    HW2 8816   3.579   4.083   4.143
 2838SOL     OW 8817   3.125   8.139   3.179
 2838SOL    HW1 8818   3.094   8.183   3.258
 2838SOL    HW2 8819   3.217   8.163   3.172
 2839SOL     OW 8820   2.396   0.505   0.060
 2839SOL    HW1 8821   2.464   0.472   0.118
 2839SOL    HW2 8822   6.558   4.668   5.811
 2840SOL     OW 8823   5.869   7.073   5.659
 2840SOL    HW1 8824   5.893   6.981   5.673
 2840SOL    HW2 8825   5.790   7.069   5.606
 2841SOL     OW 8826   4.400   6.679   3.280
 2841SOL    HW1 8827   4.455   6.754   3.257
 2841SOL    HW2 8828   4.332   6.716   3.336
 2842SOL     OW 8829   0.052   5.334   1.390
 2842SOL    HW1 8830   8.218   5.273   1.428
 2842SOL    HW2 8831   0.024   5.420   1.422
 2843SOL     OW 8832   0.683   0.765   5.295
 2843SOL    HW1 8833   0.643   0.772   5.208
 2843SOL    HW2 8834   0.762   0.713   5.280
 2844SOL     OW 8835   5.992   5.350   4.285
 2844SOL    HW1 8836   5.999   5.260   4.316
 2844SOL    HW2 8837   6.019   5.346   4.193
 2845SOL     OW 8838   4.562   3.207   5.479
 2845SOL    HW1 8839   4.547   3.137   5.415
 2845SOL    HW2 8840   4.494   3.272   5.460
 2846SOL     OW 8841   7.890   4.404   3.097
 2846SOL    HW1 8842   7.851   4.403   3.184
 2846SOL    HW2 8843   7.847   4.332   3.050
 2847SOL     OW 8844   0.314   2.393   4.708
 2847SOL    HW1 8845   0.236   2.447   4.699
 2847SOL    HW2 8846   0.362   2.405   4.626
 2848SOL     OW 8847   3.748   0.042   0.735
 2848SOL    HW1 8848   3.822   0.030   0.794
 2848SOL    HW2 8849   3.782   0.020   0.648
 2849SOL     OW 8850   7.591   7.292   4.732
 2849SOL    HW1 8851   7.588   7.312   4.638
 2849SOL    HW2 8852   7.565   7.373   4.775
 2850SOL     OW 8853   2.735   3.209   3.814
 2850SOL    HW1 8854   2.784   3.199   3.732
 2850SOL    HW2 8855   2.783   3.275   3.863
 2851SOL     OW 8856   4.934   1.330   1.772
 2851SOL    HW1 8857   4.998   1.284   1.717
 2851SOL    HW2 8858   4.871   1.263   1.797
 2852SOL     OW 8859   6.633   1.660   0.733
 2852SOL    HW1 8860   6.710   1.613   0.702
 2852SOL    HW2 8861   6.660   1.752   0.734
 2853SOL     OW 8862   2.913   7.371   3.521
 2853SOL    HW1 8863   2.918   7.402   3.612
 2853SOL    HW2 8864   2.999   7.333   3.504
 2854SOL     OW 8865   3.166   3.501   4.915
 2854SOL    HW1 8866   3.231   3.519   4.847
 2854SOL    HW2 8867   3.198   3.421   4.958
 2855SOL     OW 8868   5.439   2.948   3.529
 2855SOL    HW1 8869   5.410   3.001   3.455
 2855SOL    HW2 8870   5.456   2.862   3.492
 2856SOL     OW 8871   1.119   0.875   5.129
 2856SOL    HW1 8872   1.087   0.929   5.201
 2856SOL    HW2 8873   1.214   0.886   5.131
 2857SOL     OW 8874   4.436   0.795   5.201
 2857SOL    HW1 8875   4.402   0.806   5.290
 2857SOL    HW2 8876   4.469   0.882   5.177
 2858SOL     OW 8877   0.530   3.492   5.298
 2858SOL    HW1 8878   0.603   3.550   5.322
 2858SOL    HW2 8879   0.452   3.547   5.308
 2859SOL     OW 8880   7.247   2.342   3.085
 2859SOL    HW1 8881   7.257   2.261   3.135
 2859SOL    HW2 8882   7.221   2.407   3.150
 2860SOL     OW 8883   2.859   6.976   4.596
 2860SOL    HW1 8884   2.854   7.051   4.536
 2860SOL    HW2 8885   2.949   6.944   4.586
 2861SOL     OW 8886   0.818   4.145   5.263
 2861SOL    HW1 8887   0.789   4.234   5.284
 2861SOL    HW2 8888   0.756   4.114   5.196
 2862SOL     OW 8889   4.963   7.538   5.559
 2862SOL    HW1 8890   4.941   7.619   5.512
 2862SOL    HW2 8891   5.058   7.538   5.565
 2863SOL     OW 8892   7.259   5.765   2.609
 2863SOL    HW1 8893   7.208   5.832   2.563
 2863SOL    HW2 8894   7.229   5.770   2.700
 2864SOL     OW 8895   5.815   4.561   3.048
 2864SOL    HW1 8896   5.844   4.489   2.992
 2864SOL    HW2 8897   5.896   4.601   3.079
 2865SOL     OW 8898   7.458   8.180   3.796
 2865SOL    HW1 8899   7.476   8.118   3.725
 2865SOL    HW2 8900   7.367   8.163   3.821
 2866SOL     OW 8901   3.157   4.952   1.483
 2866SOL    HW1 8902   3.247   4.941   1.514
 2866SOL    HW2 8903   3.117   4.866   1.497
 2867SOL     OW 8904   4.362   6.113   2.282
 2867SOL    HW1 8905   4.307   6.191   2.278
 2867SOL    HW2 8906   4.444   6.139   2.239
 2868SOL     OW 8907   3.194   2.023   5.573
 2868SOL    HW1 8908   3.278   2.060   5.600
 2868SOL    HW2 8909   3.215   1.934   5.544
 2869SOL     OW 8910   4.514   4.670   5.234
 2869SOL    HW1 8911   4.468   4.602   5.284
 2869SOL    HW2 8912   4.531   4.630   5.149
 2870SOL     OW 8913   4.604   4.545   4.999
 2870SOL    HW1 8914   4.674   4.530   4.936
 2870SOL    HW2 8915   4.538   4.479   4.978
 2871SOL     OW 8916   5.528   7.442   0.265
 2871SOL    HW1 8917   5.610   7.477   0.300
 2871SOL    HW2 8918   5.554   7.391   0.188
 2872SOL     OW 8919   4.278   7.014   2.034
 2872SOL    HW1 8920   4.249   7.104   2.021
 2872SOL    HW2 8921   4.353   7.005   1.976
 2873SOL     OW 8922   3.514   7.603   0.674
 2873SOL    HW1 8923   3.523   7.510   0.695
 2873SOL    HW2 8924   3.511   7.647   0.759
 2874SOL     OW 8925   3.314   4.702   3.893
 2874SOL    HW1 8926   3.375   4.727   3.962
 2874SOL    HW2 8927   3.367   4.703   3.813
 2875SOL     OW 8928   7.169   1.947   3.478
 2875SOL    HW1 8929   7.096   2.009   3.476
 2875SOL    HW2 8930   7.154   1.895   3.557
 2876SOL     OW 8931   0.153   1.347   1.870
 2876SOL    HW1 8932   0.148   1.443   1.869
 2876SOL    HW2 8933   0.076   1.320   1.920
 2877SOL     OW 8934   1.539   0.420   1.752
 2877SOL    HW1 8935   1.451   0.392   1.778
 2877SOL    HW2 8936   1.576   0.457   1.832
 2878SOL     OW 8937   4.184   0.735   2.418
 2878SOL    HW1 8938   4.151   0.691   2.340
 2878SOL    HW2 8939   4.235   0.809   2.384
 2879SOL     OW 8940   6.557   6.776   5.088
 2879SOL    HW1 8941   6.518   6.770   5.001
 2879SOL    HW2 8942   6.651   6.783   5.072
 2880SOL     OW 8943   1.642   5.305   5.415
 2880SOL    HW1 8944   1.637   5.292   5.510
 2880SOL    HW2 8945   1.634   5.400   5.403
 2881SOL     OW 8946   6.834   0.095   3.584
 2881SOL    HW1 8947   6.857   0.067   3.673
 2881SOL    HW2 8948   6.798   0.183   3.595
 2882SOL     OW 8949   3.691   5.740   5.275
 2882SOL    HW1 8950   3.769   5.780   5.236
 2882SOL    HW2 8951   3.684   5.655   5.232
 2883SOL     OW 8952   0.946   2.196   5.679
 2883SOL    HW1 8953   0.982   2.122   5.630
 2883SOL    HW2 8954   0.974   2.273   5.629
 2884SOL     OW 8955   6.334   7.036   2.779
 2884SOL    HW1 8956   6.404   7.101   2.771
 2884SOL    HW2 8957   6.354   6.990   2.861
 2885SOL     OW 8958   4.784   0.551   1.971
 2885SOL    HW1 8959   4.756   0.640   1.990
 2885SOL    HW2 8960   4.730   0.523   1.897
 2886SOL     OW 8961   7.413   6.717   2.047
 2886SOL    HW1 8962   7.448   6.743   2.132
 2886SOL    HW2 8963   7.355   6.789   2.022
 2887SOL     OW 8964   5.523   4.904   5.783
 2887SOL    HW1 8965   5.483   4.978   5.737
 2887SOL    HW2 8966   1.489   0.825   0.001
 2888SOL     OW 8967   0.281   2.601   2.838
 2888SOL    HW1 8968   0.278   2.585   2.744
 2888SOL    HW2 8969   0.368   2.571   2.865
 2889SOL     OW 8970   0.231   0.299   1.321
 2889SOL    HW1 8971   0.161   0.274   1.261
 2889SOL    HW2 8972   0.272   0.216   1.346
 2890SOL     OW 8973   5.405   6.253   3.479
 2890SOL    HW1 8974   5.414   6.159   3.465
 2890SOL    HW2 8975   5.403   6.263   3.574
 2891SOL     OW 8976   6.627   8.004   3.029
 2891SOL    HW1 8977   6.595   8.073   3.087
 2891SOL    HW2 8978   6.581   7.925   3.058
 2892SOL     OW 8979   2.275   4.111   3.196
 2892SOL    HW1 8980   2.331   4.033   3.192
 2892SOL    HW2 8981   2.310   4.162   3.269
 2893SOL     OW 8982   4.845   3.421   0.273
 2893SOL    HW1 8983   4.908   3.481   0.233
 2893SOL    HW2 8984   4.775   3.413   0.208
 2894SOL     OW 8985   1.936   7.895   4.799
 2894SOL    HW1 8986   1.930   7.800   4.803
 2894SOL    HW2 8987   1.867   7.921   4.739
 2895SOL     OW 8988   6.179   6.081   1.399
 2895SOL    HW1 8989   6.173   6.082   1.303
 2895SOL    HW2 8990   6.254   6.137   1.419
 2896SOL     OW 8991   4.095   0.119   3.736
 2896SOL    HW1 8992   4.129   0.111   3.647
 2896SOL    HW2 8993   4.092   0.213   3.752
 2897SOL     OW 8994   0.634   0.361   4.206
 2897SOL    HW1 8995   0.580   0.336   4.131
 2897SOL    HW2 8996   0.571   0.386   4.274
 2898SOL     OW 8997   2.606   5.823   1.878
 2898SOL    HW1 8998   2.658   5.754   1.837
 2898SOL    HW2 8999   2.662   5.858   1.947
 2899SOL     OW 9000   7.158   5.059   3.404
 2899SOL    HW1 9001   7.153   4.998   3.330
 2899SOL    HW2 9002   7.240   5.107   3.391
 2900SOL     OW 9003   2.280   0.207   0.551
 2900SOL    HW1 9004   2.278   0.266   0.476
 2900SOL    HW2 9005   2.370   0.213   0.584
 2901SOL     OW 9006   1.186   6.327   1.922
 2901SOL    HW1 9007   1.136   6.290   1.995
 2901SOL    HW2 9008   1.206   6.416   1.949
 2902SOL     OW 9009   3.643   0.575   2.210
 2902SOL    HW1 9010   3.551   0.548   2.210
 2902SOL    HW2 9011   3.640   0.667   2.184
 2903SOL     OW 9012   6.241   6.311   3.092
 2903SOL    HW1 9013   6.159   6.335   3.048
 2903SOL    HW2 9014   6.261   6.224   3.058
 2904SOL     OW 9015   2.594   0.823   0.956
 2904SOL    HW1 9016   2.549   0.897   0.915
 2904SOL    HW2 9017   2.578   0.834   1.050
 2905SOL     OW 9018   6.023   6.069   0.836
 2905SOL    HW1 9019   6.020   6.159   0.803
 2905SOL    HW2 9020   5.932   6.046   0.853
 2906SOL     OW 9021   4.117   1.985   1.459
 2906SOL    HW1 9022   4.038   2.035   1.479
 2906SOL    HW2 9023   4.109   1.906   1.513
 2907SOL     OW 9024   5.895   7.517   2.733
 2907SOL    HW1 9025   5.984   7.484   2.722
 2907SOL    HW2 9026   5.849   7.487   2.654
 2908SOL     OW 9027   8.147   4.295   0.226
 2908SOL    HW1 9028   8.188   4.332   0.148
 2908SOL    HW2 9029   8.086   4.229   0.193
 2909SOL     OW 9030   3.822   3.870   4.206
 2909SOL    HW1 9031   3.830   3.824   4.289
 2909SOL    HW2 9032   3.878   3.947   4.216
 2910SOL     OW 9033   6.479   7.782   1.150
 2910SOL    HW1 9034   6.505   7.874   1.158
 2910SOL    HW2 9035   6.538   7.746   1.084
 2911SOL     OW 9036   7.060   4.933   1.749
 2911SOL    HW1 9037   7.070   4.841   1.774
 2911SOL    HW2 9038   6.997   4.969   1.811
 2912SOL     OW 9039   0.679   7.108   3.828
 2912SOL    HW1 9040   0.695   7.184   3.772
 2912SOL    HW2 9041   0.686   7.033   3.769
 2913SOL     OW 9042   1.222   1.591   2.174
 2913SOL    HW1 9043   1.203   1.525   2.241
 2913SOL    HW2 9044   1.290   1.646   2.213
 2914SOL     OW 9045   1.615   5.369   4.062
 2914SOL    HW1 9046   1.560   5.446   4.048
 2914SOL    HW2 9047   1.566   5.298   4.022
 2915SOL     OW 9048   1.701   5.600   0.428
 2915SOL    HW1 9049   1.757   5.661   0.380
 2915SOL    HW2 9050   1.618   5.646   0.437
 2916SOL     OW 9051   8.013   2.701   0.594
 2916SOL    HW1 9052   7.971   2.718   0.678
 2916SOL    HW2 9053   8.043   2.610   0.600
 2917SOL     OW 9054   5.485   0.880   4.514
 2917SOL    HW1 9055   5.527   0.866   4.599
 2917SOL    HW2 9056   5.415   0.815   4.510
 2918SOL     OW 9057   6.953   5.683   4.668
 2918SOL    HW1 9058   6.888   5.667   4.736
 2918SOL    HW2 9059   7.007   5.604   4.668
 2919SOL     OW 9060   6.263   4.290   2.707
 2919SOL    HW1 9061   6.245   4.322   2.795
 2919SOL    HW2 9062   6.342   4.237   2.716
 2920SOL     OW 9063   2.163   5.030   4.500
 2920SOL    HW1 9064   2.093   5.023   4.565
 2920SOL    HW2 9065   2.147   5.114   4.457
 2921SOL     OW 9066   5.760   3.636   5.609
 2921SOL    HW1 9067   5.822   3.709   5.607
 2921SOL    HW2 9068   5.724   3.632   5.520
 2922SOL     OW 9069   5.579   1.956   0.244
 2922SOL    HW1 9070   5.663   2.001   0.250
 2922SOL    HW2 9071   5.550   1.947   0.335
 2923SOL     OW 9072   3.645   0.411   4.573
 2923SOL    HW1 9073   3.673   0.357   4.647
 2923SOL    HW2 9074   3.662   0.501   4.600
 2924SOL     OW 9075   2.563   6.571   2.249
 2924SOL    HW1 9076   2.541   6.522   2.328
 2924SOL    HW2 9077   2.480   6.580   2.202
 2925SOL     OW 9078   0.718   6.106   0.194
 2925SOL    HW1 9079   0.676   6.021   0.184
 2925SOL    HW2 9080   0.723   6.142   0.105
 2926SOL     OW 9081   2.458   5.261   5.398
 2926SOL    HW1 9082   2.457   5.322   5.472
 2926SOL    HW2 9083   2.440   5.176   5.437
 2927SOL     OW 9084   1.040   7.187   3.875
 2927SOL    HW1 9085   1.053   7.133   3.797
 2927SOL    HW2 9086   0.998   7.128   3.938
 2928SOL     OW 9087   3.258   4.484   1.193
 2928SOL    HW1 9088   3.346   4.522   1.196
 2928SOL    HW2 9089   3.237   4.480   1.100
 2929SOL     OW 9090   0.146   2.088   4.614
 2929SOL    HW1 9091   0.075   2.086   4.679
 2929SOL    HW2 9092   0.199   2.011   4.634
 2930SOL     OW 9093   0.761   4.249   1.737
 2930SOL    HW1 9094   0.760   4.313   1.666
 2930SOL    HW2 9095   0.743   4.165   1.694
 2931SOL     OW 9096   3.790   0.558   3.802
 2931SOL    HW1 9097   3.729   0.610   3.854
 2931SOL    HW2 9098   3.833   0.622   3.745
 2932SOL     OW 9099   0.895   5.936   1.902
 2932SOL    HW1 9100   0.866   6.021   1.936
 2932SOL    HW2 9101   0.984   5.952   1.871
 2933SOL     OW 9102   4.270   7.968   5.773
 2933SOL    HW1 9103   4.289   8.044   5.718
 2933SOL    HW2 9104   4.189   7.931   5.737
 2934SOL     OW 9105   1.387   0.730   1.919
 2934SOL    HW1 9106   1.321   0.788   1.880
 2934SOL    HW2 9107   1.338   0.678   1.983
 2935SOL     OW 9108   0.309   0.914   2.141
 2935SOL    HW1 9109   0.339   0.940   2.054
 2935SOL    HW2 9110   0.388   0.885   2.186
 2936SOL     OW 9111   2.908   8.193   5.662
 2936SOL    HW1 9112   2.853   8.200   5.584
 2936SOL    HW2 9113   2.849   8.164   5.731
 2937SOL     OW 9114   2.973   5.009   0.052
 2937SOL    HW1 9115   2.890   4.962   0.040
 2937SOL    HW2 9116   2.979   5.023   0.146
 2938SOL     OW 9117   3.236   4.272   0.552
 2938SOL    HW1 9118   3.248   4.345   0.491
 2938SOL    HW2 9119   3.273   4.304   0.635
 2939SOL     OW 9120   0.375   3.112   5.516
 2939SOL    HW1 9121   0.363   3.059   5.437
 2939SOL    HW2 9122   0.429   3.186   5.487
 2940SOL     OW 9123   2.422   0.833   2.736
 2940SOL    HW1 9124   2.474   0.802   2.662
 2940SOL    HW2 9125   2.333   0.805   2.716
 2941SOL     OW 9126   1.363   5.955   1.668
 2941SOL    HW1 9127   1.441   5.965   1.723
 2941SOL    HW2 9128   1.386   5.998   1.586
 2942SOL     OW 9129   1.940   2.091   3.601
 2942SOL    HW1 9130   2.008   2.054   3.545
 2942SOL    HW2 9131   1.927   2.026   3.670
 2943SOL     OW 9132   6.495   5.566   2.283
 2943SOL    HW1 9133   6.584   5.547   2.254
 2943SOL    HW2 9134   6.476   5.653   2.247
 2944SOL     OW 9135   6.430   0.300   2.191
 2944SOL    HW1 9136   6.340   0.269   2.187
 2944SOL    HW2 9137   6.426   0.389   2.156
 2945SOL     OW 9138   8.137   4.765   2.138
 2945SOL    HW1 9139   8.132   4.800   2.227
 2945SOL    HW2 9140   8.211   4.810   2.098
 2946SOL     OW 9141   7.966   5.962   0.759
 2946SOL    HW1 9142   7.903   5.922   0.699
 2946SOL    HW2 9143   7.926   5.955   0.845
 2947SOL     OW 9144   6.220   3.400   5.666
 2947SOL    HW1 9145   6.200   3.405   5.760
 2947SOL    HW2 9146   6.278   3.324   5.658
 2948SOL     OW 9147   7.736   2.822   5.782
 2948SOL    HW1 9148   7.696   2.790   5.701
 2948SOL    HW2 9149   3.619   6.861   0.022
 2949SOL     OW 9150   4.744   6.938   1.481
 2949SOL    HW1 9151   4.795   6.942   1.400
 2949SOL    HW2 9152   4.655   6.920   1.452
 2950SOL     OW 9153   1.696   1.894   3.017
 2950SOL    HW1 9154   1.626   1.829   3.011
 2950SOL    HW2 9155   1.719   1.912   2.926
 2951SOL     OW 9156   3.821   1.613   0.857
 2951SOL    HW1 9157   3.779   1.553   0.796
 2951SOL    HW2 9158   3.905   1.572   0.877
 2952SOL     OW 9159   2.545   1.844   0.245
 2952SOL    HW1 9160   2.563   1.885   0.160
 2952SOL    HW2 9161   2.629   1.808   0.273
 2953SOL     OW 9162   0.859   5.387   3.910
 2953SOL    HW1 9163   0.853   5.397   4.005
 2953SOL    HW2 9164   0.953   5.392   3.891
 2954SOL     OW 9165   1.026   4.436   0.069
 2954SOL    HW1 9166   5.097   0.277   5.815
 2954SOL    HW2 9167   1.113   4.396   0.073
 2955SOL     OW 9168   3.717   3.522   2.712
 2955SOL    HW1 9169   3.786   3.462   2.685
 2955SOL    HW2 9170   3.655   3.468   2.760
 2956SOL     OW 9171   3.257   7.465   3.085
 2956SOL    HW1 9172   3.229   7.555   3.103
 2956SOL    HW2 9173   3.292   7.433   3.168
 2957SOL     OW 9174   7.486   2.884   2.609
 2957SOL    HW1 9175   7.483   2.803   2.659
 2957SOL    HW2 9176   7.555   2.936   2.651
 2958SOL     OW 9177   4.491   0.462   1.468
 2958SOL    HW1 9178   4.444   0.497   1.392
 2958SOL    HW2 9179   4.580   0.449   1.436
 2959SOL     OW 9180   0.180   5.893   3.880
 2959SOL    HW1 9181   0.269   5.905   3.846
 2959SOL    HW2 9182   0.145   5.819   3.830
 2960SOL     OW 9183   7.879   1.699   1.831
 2960SOL    HW1 9184   7.903   1.606   1.828
 2960SOL    HW2 9185   7.815   1.705   1.902
 2961SOL     OW 9186   1.074   2.293   2.986
 2961SOL    HW1 9187   1.038   2.206   3.001
 2961SOL    HW2 9188   1.167   2.284   3.006
 2962SOL     OW 9189   3.766   3.530   1.105
 2962SOL    HW1 9190   3.786   3.546   1.197
 2962SOL    HW2 9191   3.685   3.579   1.089
 2963SOL     OW 9192   2.506   5.620   0.187
 2963SOL    HW1 9193   2.553   5.680   0.129
 2963SOL    HW2 9194   2.505   5.664   0.272
 2964SOL     OW 9195   0.482   1.631   3.225
 2964SOL    HW1 9196   0.557   1.609   3.281
 2964SOL    HW2 9197   0.501   1.720   3.195
 2965SOL     OW 9198   5.325   4.447   1.125
 2965SOL    HW1 9199   5.289   4.386   1.190
 2965SOL    HW2 9200   5.415   4.461   1.153
 2966SOL     OW 9201   4.987   4.233   1.127
 2966SOL    HW1 9202   4.918   4.270   1.072
 2966SOL    HW2 9203   5.040   4.309   1.153
 2967SOL     OW 9204   6.947   3.581   5.727
 2967SOL    HW1 9205   6.986   3.494   5.722
 2967SOL    HW2 9206   7.013   3.639   5.689
 2968SOL     OW 9207   2.146   4.774   0.250
 2968SOL    HW1 9208   2.197   4.722   0.312
 2968SOL    HW2 9209   2.201   4.851   0.234
 2969SOL     OW 9210   6.530   4.204   2.694
 2969SOL    HW1 9211   6.607   4.167   2.650
 2969SOL    HW2 9212   6.539   4.175   2.785
 2970SOL     OW 9213   5.368   0.700   4.292
 2970SOL    HW1 9214   5.299   0.643   4.259
 2970SOL    HW2 9215   5.322   0.779   4.321
 2971SOL     OW 9216   0.536   7.936   2.625
 2971SOL    HW1 9217   0.616   7.889   2.650
 2971SOL    HW2 9218   0.506   7.892   2.545
 2972SOL     OW 9219   5.968   4.797   3.706
 2972SOL    HW1 9220   6.053   4.824   3.741
 2972SOL    HW2 9221   5.922   4.879   3.690
 2973SOL     OW 9222   1.877   2.675   0.270
 2973SOL    HW1 9223   1.810   2.695   0.335
 2973SOL    HW2 9224   1.960   2.680   0.318
 2974SOL     OW 9225   1.570   5.063   1.733
 2974SOL    HW1 9226   1.612   4.983   1.766
 2974SOL    HW2 9227   1.630   5.096   1.666
 2975SOL     OW 9228   4.961   4.311   1.825
 2975SOL    HW1 9229   4.889   4.262   1.865
 2975SOL    HW2 9230   5.024   4.244   1.798
 2976SOL     OW 9231   3.005   6.420   1.838
 2976SOL    HW1 9232   3.040   6.361   1.772
 2976SOL    HW2 9233   3.073   6.423   1.906
 2977SOL     OW 9234   4.862   3.119   5.436
 2977SOL    HW1 9235   4.768   3.135   5.431
 2977SOL    HW2 9236   4.901   3.206   5.441
 2978SOL     OW 9237   0.514   8.072   2.245
 2978SOL    HW1 9238   0.496   8.047   2.336
 2978SOL    HW2 9239   0.577   8.143   2.252
 2979SOL     OW 9240   3.531   1.316   2.348
 2979SOL    HW1 9241   3.556   1.404   2.376
 2979SOL    HW2 9242   3.514   1.269   2.430
 2980SOL     OW 9243   7.125   7.085   4.745
 2980SOL    HW1 9244   7.143   7.177   4.728
 2980SOL    HW2 9245   7.056   7.062   4.683
 2981SOL     OW 9246   2.646   0.452   0.773
 2981SOL    HW1 9247   2.716   0.471   0.710
 2981SOL    HW2 9248   2.692   0.425   0.853
 2982SOL     OW 9249   4.031   6.252   4.181
 2982SOL    HW1 9250   4.047   6.239   4.088
 2982SOL    HW2 9251   4.112   6.290   4.214
 2983SOL     OW 9252   2.438   0.774   5.267
 2983SOL    HW1 9253   2.478   0.687   5.265
 2983SOL    HW2 9254   2.345   0.757   5.255
 2984SOL     OW 9255   6.773   0.172   5.245
 2984SOL    HW1 9256   6.859   0.145   5.212
 2984SOL    HW2 9257   6.762   0.122   5.326
 2985SOL     OW 9258   1.776   7.519   2.628
 2985SOL    HW1 9259   1.797   7.472   2.709
 2985SOL    HW2 9260   1.744   7.604   2.658
 2986SOL     OW 9261   2.881   0.501   5.748
 2986SOL    HW1 9262   2.857   0.577   5.800
 2986SOL    HW2 9263   2.813   0.495   5.681
 2987SOL     OW 9264   0.395   0.495   2.391
 2987SOL    HW1 9265   0.488   0.498   2.414
 2987SOL    HW2 9266   0.370   0.404   2.408
 2988SOL     OW 9267   6.119   6.030   5.675
 2988SOL    HW1 9268   6.094   6.034   5.767
 2988SOL    HW2 9269   6.198   6.084   5.669
 2989SOL     OW 9270   5.155   8.137   2.873
 2989SOL    HW1 9271   5.129   8.057   2.919
 2989SOL    HW2 9272   5.073   8.175   2.842
 2990SOL     OW 9273   7.245   3.991   2.770
 2990SOL    HW1 9274   7.229   3.955   2.683
 2990SOL    HW2 9275   7.180   4.060   2.779
 2991SOL     OW 9276   3.416   2.721   1.608
 2991SOL    HW1 9277   3.457   2.699   1.692
 2991SOL    HW2 9278   3.423   2.816   1.601
 2992SOL     OW 9279   7.424   5.016   2.118
 2992SOL    HW1 9280   7.365   4.980   2.052
 2992SOL    HW2 9281   7.367   5.062   2.179
 2993SOL     OW 9282   3.864   6.589   4.169
 2993SOL    HW1 9283   3.947   6.578   4.216
 2993SOL    HW2 9284   3.841   6.681   4.184
 2994SOL     OW 9285   3.961   5.893   1.454
 2994SOL    HW1 9286   3.883   5.946   1.472
 2994SOL    HW2 9287   3.944   5.809   1.496
 2995SOL     OW 9288   4.681   6.142   3.607
 2995SOL    HW1 9289   4.772   6.164   3.588
 2995SOL    HW2 9290   4.633   6.224   3.593
 2996SOL     OW 9291   6.981   3.786   4.633
 2996SOL    HW1 9292   6.904   3.733   4.611
 2996SOL    HW2 9293   6.968   3.868   4.585
 2997SOL     OW 9294   7.435   4.334   4.515
 2997SOL    HW1 9295   7.426   4.397   4.444
 2997SOL    HW2 9296   7.380   4.260   4.488
 2998SOL     OW 9297   3.171   2.957   2.665
 2998SOL    HW1 9298   3.083   2.922   2.654
 2998SOL    HW2 9299   3.226   2.880   2.676
 2999SOL     OW 9300   7.081   7.193   3.393
 2999SOL    HW1 9301   7.000   7.143   3.387
 2999SOL    HW2 9302   7.150   7.129   3.375
 3000SOL     OW 9303   1.729   0.835   4.070
 3000SOL    HW1 9304   1.808   0.782   4.075
 3000SOL    HW2 9305   1.698   0.825   3.980
 3001SOL     OW 9306   3.241   2.752   1.377
 3001SOL    HW1 9307   3.187   2.677   1.353
 3001SOL    HW2 9308   3.249   2.747   1.472
 3002SOL     OW 9309   1.437   1.827   5.585
 3002SOL    HW1 9310   1.432   1.818   5.490
 3002SOL    HW2 9311   1.522   1.790   5.609
 3003SOL     OW 9312   6.632   3.041   2.313
 3003SOL    HW1 9313   6.590   3.069   2.232
 3003SOL    HW2 9314   6.647   2.947   2.302
 3004SOL     OW 9315   2.486   1.579   4.066
 3004SOL    HW1 9316   2.530   1.508   4.019
 3004SOL    HW2 9317   2.424   1.615   4.003
 3005SOL     OW 9318   2.392   3.223   1.230
 3005SOL    HW1 9319   2.413   3.186   1.144
 3005SOL    HW2 9320   2.445   3.173   1.292
 3006SOL     OW 9321   7.884   3.648   1.312
 3006SOL    HW1 9322   7.792   3.627   1.296
 3006SOL    HW2 9323   7.921   3.660   1.225
 3007SOL     OW 9324   5.511   6.630   1.904
 3007SOL    HW1 9325   5.483   6.539   1.898
 3007SOL    HW2 9326   5.460   6.675   1.836
 3008SOL     OW 9327   2.190   4.707   4.852
 3008SOL    HW1 9328   2.158   4.685   4.765
 3008SOL    HW2 9329   2.156   4.795   4.869
 3009SOL     OW 9330   0.604   8.086   3.364
 3009SOL    HW1 9331   0.672   8.136   3.320
 3009SOL    HW2 9332   0.651   8.032   3.428
 3010SOL     OW 9333   1.746   6.508   3.760
 3010SOL    HW1 9334   1.716   6.482   3.847
 3010SOL    HW2 9335   1.841   6.500   3.763
 3011SOL     OW 9336   2.189   2.916   0.828
 3011SOL    HW1 9337   2.123   2.883   0.767
 3011SOL    HW2 9338   2.237   2.838   0.856
 3012SOL     OW 9339   5.981   0.521   3.714
 3012SOL    HW1 9340   5.940   0.538   3.629
 3012SOL    HW2 9341   6.074   0.508   3.694
 3013SOL     OW 9342   5.696   3.732   3.276
 3013SOL    HW1 9343   5.750   3.750   3.353
 3013SOL    HW2 9344   5.711   3.806   3.217
 3014SOL     OW 9345   7.565   4.009   0.731
 3014SOL    HW1 9346   7.488   4.023   0.676
 3014SOL    HW2 9347   7.548   4.062   0.809
 3015SOL     OW 9348   6.302   4.321   3.855
 3015SOL    HW1 9349   6.374   4.285   3.802
 3015SOL    HW2 9350   6.284   4.407   3.816
 3016SOL     OW 9351   2.612   4.477   4.274
 3016SOL    HW1 9352   2.590   4.529   4.351
 3016SOL    HW2 9353   2.543   4.496   4.211
 3017SOL     OW 9354   0.226   7.105   4.288
 3017SOL    HW1 9355   0.313   7.071   4.310
 3017SOL    HW2 9356   0.186   7.038   4.233
 3018SOL     OW 9357   0.246   0.519   4.517
 3018SOL    HW1 9358   0.168   0.574   4.519
 3018SOL    HW2 9359   0.247   0.476   4.602
 3019SOL     OW 9360   3.318   1.221   3.159
 3019SOL    HW1 9361   3.250   1.286   3.177
 3019SOL    HW2 9362   3.392   1.272   3.127
 3020SOL     OW 9363   2.101   4.738   5.517
 3020SOL    HW1 9364   2.119   4.827   5.548
 3020SOL    HW2 9365   2.172   4.720   5.455
 3021SOL     OW 9366   4.710   6.664   5.203
 3021SOL    HW1 9367   4.748   6.745   5.170
 3021SOL    HW2 9368   4.633   6.692   5.252
 3022SOL     OW 9369   7.702   3.135   2.931
 3022SOL    HW1 9370   7.726   3.058   2.983
 3022SOL    HW2 9371   7.740   3.209   2.979
 3023SOL     OW 9372   6.336   3.423   0.641
 3023SOL    HW1 9373   6.242   3.437   0.655
 3023SOL    HW2 9374   6.366   3.382   0.722
 3024SOL     OW 9375   6.831   8.069   0.079
 3024SOL    HW1 9376   6.917   8.026   0.082
 3024SOL    HW2 9377   6.780   8.016   0.017
 3025SOL     OW 9378   1.636   7.316   0.527
 3025SOL    HW1 9379   1.622   7.353   0.440
 3025SOL    HW2 9380   1.603   7.226   0.521
 3026SOL     OW 9381   2.224   5.112   1.537
 3026SOL    HW1 9382   2.272   5.193   1.520
 3026SOL    HW2 9383   2.237   5.096   1.631
 3027SOL     OW 9384   0.565   4.634   0.767
 3027SOL    HW1 9385   0.492   4.645   0.706
 3027SOL    HW2 9386   0.617   4.562   0.730
 3028SOL     OW 9387   7.934   5.234   2.904
 3028SOL    HW1 9388   7.864   5.170   2.916
 3028SOL    HW2 9389   7.998   5.213   2.972
 3029SOL     OW 9390   3.991   3.545   3.637
 3029SOL    HW1 9391   4.053   3.493   3.586
 3029SOL    HW2 9392   3.985   3.499   3.721
 3030SOL     OW 9393   5.755   7.661   5.241
 3030SOL    HW1 9394   5.819   7.591   5.248
 3030SOL    HW2 9395   5.744   7.675   5.147
 3031SOL     OW 9396   7.595   5.122   1.228
 3031SOL    HW1 9397   7.681   5.155   1.253
 3031SOL    HW2 9398   7.534   5.163   1.289
 3032SOL     OW 9399   4.374   7.670   2.749
 3032SOL    HW1 9400   4.355   7.764   2.746
 3032SOL    HW2 9401   4.467   7.665   2.771
 3033SOL     OW 9402   2.793   6.661   3.973
 3033SOL    HW1 9403   2.774   6.568   3.960
 3033SOL    HW2 9404   2.795   6.672   4.068
 3034SOL     OW 9405   3.748   7.424   1.213
 3034SOL    HW1 9406   3.776   7.341   1.252
 3034SOL    HW2 9407   3.657   7.409   1.187
 3035SOL     OW 9408   4.484   3.831   1.160
 3035SOL    HW1 9409   4.484   3.776   1.082
 3035SOL    HW2 9410   4.555   3.797   1.214
 3036SOL     OW 9411   4.445   6.662   0.976
 3036SOL    HW1 9412   4.468   6.621   0.892
 3036SOL    HW2 9413   4.444   6.756   0.958
 3037SOL     OW 9414   8.020   0.404   0.111
 3037SOL    HW1 9415   8.087   0.348   0.149
 3037SOL    HW2 9416   7.952   0.410   0.179
 3038SOL     OW 9417   4.166   1.076   1.773
 3038SOL    HW1 9418   4.071   1.071   1.768
 3038SOL    HW2 9419   4.195   0.985   1.774
 3039SOL     OW 9420   4.958   4.050   2.515
 3039SOL    HW1 9421   5.020   4.069   2.445
 3039SOL    HW2 9422   4.957   3.954   2.520
 3040SOL     OW 9423   3.980   3.504   1.822
 3040SOL    HW1 9424   4.056   3.558   1.843
 3040SOL    HW2 9425   3.912   3.533   1.883
 3041SOL     OW 9426   0.076   0.991   2.042
 3041SOL    HW1 9427   0.014   0.951   2.103
 3041SOL    HW2 9428   0.159   0.990   2.089
 3042SOL     OW 9429   2.069   0.024   0.533
 3042SOL    HW1 9430   2.021   0.052   0.455
 3042SOL    HW2 9431   2.140   0.088   0.542
 3043SOL     OW 9432   7.340   3.526   5.395
 3043SOL    HW1 9433   7.248   3.507   5.411
 3043SOL    HW2 9434   7.343   3.621   5.386
 3044SOL     OW 9435   3.740   6.772   2.502
 3044SOL    HW1 9436   3.721   6.807   2.589
 3044SOL    HW2 9437   3.655   6.741   2.470
 3045SOL     OW 9438   0.472   3.965   4.438
 3045SOL    HW1 9439   0.506   3.882   4.405
 3045SOL    HW2 9440   0.509   3.973   4.526
 3046SOL     OW 9441   3.223   6.352   4.125
 3046SOL    HW1 9442   3.190   6.422   4.181
 3046SOL    HW2 9443   3.164   6.352   4.050
 3047SOL     OW 9444   3.678   2.090   3.493
 3047SOL    HW1 9445   3.594   2.062   3.456
 3047SOL    HW2 9446   3.660   2.175   3.533
 3048SOL     OW 9447   1.029   7.733   4.475
 3048SOL    HW1 9448   1.026   7.667   4.406
 3048SOL    HW2 9449   1.093   7.700   4.537
 3049SOL     OW 9450   6.888   3.514   3.315
 3049SOL    HW1 9451   6.820   3.525   3.382
 3049SOL    HW2 9452   6.925   3.601   3.303
 3050SOL     OW 9453   7.697   7.218   3.527
 3050SOL    HW1 9454   7.687   7.294   3.585
 3050SOL    HW2 9455   7.730   7.149   3.584
 3051SOL     OW 9456   1.242   7.332   5.077
 3051SOL    HW1 9457   1.267   7.330   5.169
 3051SOL    HW2 9458   1.325   7.324   5.029
 3052SOL     OW 9459   7.042   2.116   0.328
 3052SOL    HW1 9460   7.086   2.198   0.353
 3052SOL    HW2 9461   6.949   2.134   0.340
 3053SOL     OW 9462   0.573   2.029   2.546
 3053SOL    HW1 9463   0.562   2.053   2.454
 3053SOL    HW2 9464   0.667   2.038   2.562
 3054SOL     OW 9465   7.585   4.845   1.093
 3054SOL    HW1 9466   7.617   4.929   1.127
 3054SOL    HW2 9467   7.548   4.867   1.008
 3055SOL     OW 9468   5.199   0.931   2.180
 3055SOL    HW1 9469   5.148   0.852   2.197
 3055SOL    HW2 9470   5.281   0.917   2.228
 3056SOL     OW 9471   7.529   6.391   3.856
 3056SOL    HW1 9472   7.560   6.444   3.929
 3056SOL    HW2 9473   7.567   6.305   3.870
 3057SOL     OW 9474   6.868   2.991   2.650
 3057SOL    HW1 9475   6.854   3.065   2.591
 3057SOL    HW2 9476   6.833   3.020   2.734
 3058SOL     OW 9477   1.851   6.442   0.308
 3058SOL    HW1 9478   1.916   6.499   0.267
 3058SOL    HW2 9479   1.767   6.484   0.288
 3059SOL     OW 9480   1.837   1.839   0.613
 3059SOL    HW1 9481   1.884   1.799   0.540
 3059SOL    HW2 9482   1.882   1.806   0.691
 3060SOL     OW 9483   0.424   7.892   5.048
 3060SOL    HW1 9484   0.478   7.939   4.984
 3060SOL    HW2 9485   0.479   7.887   5.126
 3061SOL     OW 9486   1.733   4.160   0.519
 3061SOL    HW1 9487   1.777   4.176   0.602
 3061SOL    HW2 9488   1.792   4.100   0.472
 3062SOL     OW 9489   0.708   5.933   2.320
 3062SOL    HW1 9490   0.724   6.027   2.325
 3062SOL    HW2 9491   0.736   5.899   2.405
 3063SOL     OW 9492   7.648   5.444   5.569
 3063SOL    HW1 9493   7.720   5.408   5.518
 3063SOL    HW2 9494   7.574   5.386   5.551
 3064SOL     OW 9495   4.410   0.329   1.718
 3064SOL    HW1 9496   4.429   0.369   1.633
 3064SOL    HW2 9497   4.349   0.258   1.698
 3065SOL     OW 9498   4.938   2.591   5.777
 3065SOL    HW1 9499   4.851   2.595   5.736
 3065SOL    HW2 9500   4.996   2.564   5.706
 3066SOL     OW 9501   2.149   6.891   3.662
 3066SOL    HW1 9502   2.190   6.805   3.673
 3066SOL    HW2 9503   2.222   6.952   3.660
 3067SOL     OW 9504   3.815   1.427   1.111
 3067SOL    HW1 9505   3.816   1.501   1.171
 3067SOL    HW2 9506   3.905   1.421   1.079
 3068SOL     OW 9507   0.546   8.000   1.584
 3068SOL    HW1 9508   0.466   8.003   1.636
 3068SOL    HW2 9509   0.604   7.942   1.633
 3069SOL     OW 9510   1.371   6.078   5.124
 3069SOL    HW1 9511   1.396   6.158   5.170
 3069SOL    HW2 9512   1.287   6.053   5.163
 3070SOL     OW 9513   5.235   2.316   3.250
 3070SOL    HW1 9514   5.299   2.386   3.266
 3070SOL    HW2 9515   5.288   2.242   3.219
 3071SOL     OW 9516   4.766   1.571   2.578
 3071SOL    HW1 9517   4.751   1.617   2.495
 3071SOL    HW2 9518   4.847   1.609   2.612
 3072SOL     OW 9519   2.017   3.094   3.836
 3072SOL    HW1 9520   2.003   3.019   3.778
 3072SOL    HW2 9521   2.098   3.073   3.882
 3073SOL     OW 9522   5.665   0.313   1.878
 3073SOL    HW1 9523   5.687   0.239   1.821
 3073SOL    HW2 9524   5.571   0.326   1.865
 3074SOL     OW 9525   4.552   5.390   1.849
 3074SOL    HW1 9526   4.630   5.342   1.821
 3074SOL    HW2 9527   4.479   5.342   1.810
 3075SOL     OW 9528   5.361   6.085   2.528
 3075SOL    HW1 9529   5.271   6.105   2.502
 3075SOL    HW2 9530   5.412   6.159   2.495
 3076SOL     OW 9531   0.830   6.999   0.651
 3076SOL    HW1 9532   0.792   6.948   0.723
 3076SOL    HW2 9533   0.802   6.953   0.572
 3077SOL     OW 9534   5.837   0.353   4.183
 3077SOL    HW1 9535   5.771   0.402   4.134
 3077SOL    HW2 9536   5.920   0.382   4.145
 3078SOL     OW 9537   3.616   3.907   3.591
 3078SOL    HW1 9538   3.694   3.861   3.621
 3078SOL    HW2 9539   3.647   3.994   3.565
 3079SOL     OW 9540   7.138   1.716   0.128
 3079SOL    HW1 9541   7.118   1.780   0.197
 3079SOL    HW2 9542   7.222   1.678   0.153
 3080SOL     OW 9543   6.867   3.243   2.015
 3080SOL    HW1 9544   6.826   3.295   1.946
 3080SOL    HW2 9545   6.942   3.201   1.973
 3081SOL     OW 9546   7.828   6.452   0.846
 3081SOL    HW1 9547   7.880   6.490   0.917
 3081SOL    HW2 9548   7.748   6.421   0.889
 3082SOL     OW 9549   1.428   0.662   5.234
 3082SOL    HW1 9550   1.479   0.715   5.295
 3082SOL    HW2 9551   1.441   0.704   5.149
 3083SOL     OW 9552   3.539   7.216   1.349
 3083SOL    HW1 9553   3.555   7.277   1.421
 3083SOL    HW2 9554   3.447   7.191   1.360
 3084SOL     OW 9555   5.409   7.059   1.978
 3084SOL    HW1 9556   5.347   7.059   2.051
 3084SOL    HW2 9557   5.423   7.152   1.959
 3085SOL     OW 9558   6.638   4.551   5.259
 3085SOL    HW1 9559   6.668   4.464   5.233
 3085SOL    HW2 9560   6.671   4.563   5.348
 3086SOL     OW 9561   2.340   1.343   5.096
 3086SOL    HW1 9562   2.248   1.344   5.124
 3086SOL    HW2 9563   2.372   1.256   5.122
 3087SOL     OW 9564   5.253   4.724   0.014
 3087SOL    HW1 9565   1.163   0.519   5.815
 3087SOL    HW2 9566   1.106   0.642   5.749
 3088SOL     OW 9567   4.021   7.954   3.163
 3088SOL    HW1 9568   3.953   7.975   3.227
 3088SOL    HW2 9569   4.092   7.916   3.215
 3089SOL     OW 9570   5.915   1.817   2.737
 3089SOL    HW1 9571   5.941   1.884   2.674
 3089SOL    HW2 9572   5.965   1.837   2.816
 3090SOL     OW 9573   3.315   1.510   5.367
 3090SOL    HW1 9574   3.253   1.580   5.345
 3090SOL    HW2 9575   3.396   1.556   5.389
 3091SOL     OW 9576   2.845   4.849   2.366
 3091SOL    HW1 9577   2.879   4.794   2.437
 3091SOL    HW2 9578   2.814   4.928   2.410
 3092SOL     OW 9579   0.903   7.040   0.219
 3092SOL    HW1 9580   0.902   7.135   0.210
 3092SOL    HW2 9581   0.893   7.007   0.130
 3093SOL     OW 9582   2.709   5.314   2.694
 3093SOL    HW1 9583   2.751   5.259   2.627
 3093SOL    HW2 9584   2.781   5.344   2.749
 3094SOL     OW 9585   5.803   0.312   4.453
 3094SOL    HW1 9586   5.723   0.341   4.497
 3094SOL    HW2 9587   5.803   0.359   4.370
 3095SOL     OW 9588   4.102   2.635   0.933
 3095SOL    HW1 9589   4.178   2.663   0.882
 3095SOL    HW2 9590   4.086   2.708   0.993
 3096SOL     OW 9591   7.220   5.201   3.923
 3096SOL    HW1 9592   7.163   5.263   3.877
 3096SOL    HW2 9593   7.166   5.122   3.934
 3097SOL     OW 9594   0.923   1.870   4.604
 3097SOL    HW1 9595   0.877   1.786   4.600
 3097SOL    HW2 9596   0.866   1.931   4.557
 3098SOL     OW 9597   4.805   2.070   4.644
 3098SOL    HW1 9598   4.850   2.079   4.728
 3098SOL    HW2 9599   4.760   2.154   4.632
 3099SOL     OW 9600   4.871   1.603   3.364
 3099SOL    HW1 9601   4.937   1.663   3.399
 3099SOL    HW2 9602   4.867   1.625   3.271
 3100SOL     OW 9603   4.363   3.911   0.168
 3100SOL    HW1 9604   4.325   3.880   0.250
 3100SOL    HW2 9605   4.397   3.832   0.126
 3101SOL     OW 9606   6.483   0.213   5.601
 3101SOL    HW1 9607   6.510   0.181   5.687
 3101SOL    HW2 9608   6.486   0.136   5.545
 3102SOL     OW 9609   1.418   0.592   3.363
 3102SOL    HW1 9610   1.440   0.564   3.452
 3102SOL    HW2 9611   1.404   0.686   3.370
 3103SOL     OW 9612   2.080   7.809   0.809
 3103SOL    HW1 9613   2.072   7.798   0.714
 3103SOL    HW2 9614   2.071   7.721   0.844
 3104SOL     OW 9615   1.654   2.895   4.598
 3104SOL    HW1 9616   1.612   2.902   4.512
 3104SOL    HW2 9617   1.655   2.801   4.616
 3105SOL     OW 9618   2.551   1.185   4.751
 3105SOL    HW1 9619   2.615   1.224   4.692
 3105SOL    HW2 9620   2.518   1.108   4.704
 3106SOL     OW 9621   6.882   7.784   5.334
 3106SOL    HW1 9622   6.853   7.708   5.284
 3106SOL    HW2 9623   6.923   7.747   5.412
 3107SOL     OW 9624   3.699   4.406   4.155
 3107SOL    HW1 9625   3.736   4.445   4.234
 3107SOL    HW2 9626   3.746   4.448   4.083
 3108SOL     OW 9627   6.493   7.599   0.131
 3108SOL    HW1 9628   6.406   7.626   0.161
 3108SOL    HW2 9629   6.551   7.622   0.203
 3109SOL     OW 9630   6.810   1.162   2.428
 3109SOL    HW1 9631   6.880   1.162   2.494
 3109SOL    HW2 9632   6.729   1.156   2.479
 3110SOL     OW 9633   4.565   6.279   1.028
 3110SOL    HW1 9634   4.528   6.192   1.045
 3110SOL    HW2 9635   4.499   6.340   1.061
 3111SOL     OW 9636   5.431   4.499   0.695
 3111SOL    HW1 9637   5.344   4.528   0.723
 3111SOL    HW2 9638   5.420   4.475   0.603
 3112SOL     OW 9639   6.242   3.952   1.085
 3112SOL    HW1 9640   6.289   3.873   1.061
 3112SOL    HW2 9641   6.242   4.005   1.006
 3113SOL     OW 9642   3.684   6.494   4.501
 3113SOL    HW1 9643   3.703   6.588   4.493
 3113SOL    HW2 9644   3.740   6.464   4.572
 3114SOL     OW 9645   0.963   6.153   4.918
 3114SOL    HW1 9646   0.999   6.132   5.004
 3114SOL    HW2 9647   1.031   6.127   4.856
 3115SOL     OW 9648   5.122   7.544   0.388
 3115SOL    HW1 9649   5.074   7.550   0.306
 3115SOL    HW2 9650   5.079   7.607   0.446
 3116SOL     OW 9651   7.171   6.630   3.753
 3116SOL    HW1 9652   7.099   6.671   3.705
 3116SOL    HW2 9653   7.198   6.557   3.698
 3117SOL     OW 9654   3.396   2.174   1.590
 3117SOL    HW1 9655   3.483   2.215   1.589
 3117SOL    HW2 9656   3.382   2.150   1.682
 3118SOL     OW 9657   0.851   3.704   0.357
 3118SOL    HW1 9658   0.764   3.703   0.396
 3118SOL    HW2 9659   0.835   3.700   0.263
 3119SOL     OW 9660   5.411   7.565   1.218
 3119SOL    HW1 9661   5.470   7.493   1.238
 3119SOL    HW2 9662   5.423   7.627   1.290
 3120SOL     OW 9663   6.151   2.715   4.213
 3120SOL    HW1 9664   6.109   2.754   4.137
 3120SOL    HW2 9665   6.240   2.751   4.213
 3121SOL     OW 9666   5.831   7.416   3.526
 3121SOL    HW1 9667   5.755   7.470   3.548
 3121SOL    HW2 9668   5.849   7.437   3.434
 3122SOL     OW 9669   0.848   3.535   4.443
 3122SOL    HW1 9670   0.817   3.448   4.417
 3122SOL    HW2 9671   0.839   3.537   4.538
 3123SOL     OW 9672   7.914   2.091   4.370
 3123SOL    HW1 9673   7.894   2.145   4.447
 3123SOL    HW2 9674   7.925   2.154   4.299
 3124SOL     OW 9675   5.910   5.425   2.757
 3124SOL    HW1 9676   5.853   5.355   2.725
 3124SOL    HW2 9677   5.983   5.427   2.695
 3125SOL     OW 9678   7.627   7.500   0.270
 3125SOL    HW1 9679   7.638   7.594   0.258
 3125SOL    HW2 9680   7.540   7.490   0.309
 3126SOL     OW 9681   1.607   7.915   2.261
 3126SOL    HW1 9682   1.517   7.916   2.294
 3126SOL    HW2 9683   1.598   7.893   2.168
 3127SOL     OW 9684   5.642   0.268   1.535
 3127SOL    HW1 9685   5.616   0.178   1.553
 3127SOL    HW2 9686   5.732   0.261   1.504
 3128SOL     OW 9687   0.165   1.715   2.925
 3128SOL    HW1 9688   0.165   1.631   2.971
 3128SOL    HW2 9689   0.115   1.699   2.845
 3129SOL     OW 9690   0.498   1.862   3.437
 3129SOL    HW1 9691   0.522   1.776   3.401
 3129SOL    HW2 9692   0.570   1.884   3.496
 3130SOL     OW 9693   5.615   3.960   2.489
 3130SOL    HW1 9694   5.580   3.885   2.537
 3130SOL    HW2 9695   5.548   3.981   2.424
 3131SOL     OW 9696   3.634   1.647   0.411
 3131SOL    HW1 9697   3.540   1.643   0.393
 3131SOL    HW2 9698   3.674   1.670   0.327
 3132SOL     OW 9699   2.259   2.685   0.921
 3132SOL    HW1 9700   2.192   2.637   0.873
 3132SOL    HW2 9701   2.270   2.635   1.002
 3133SOL     OW 9702   0.713   3.572   1.234
 3133SOL    HW1 9703   0.624   3.592   1.262
 3133SOL    HW2 9704   0.709   3.577   1.138
 3134SOL     OW 9705   7.423   0.899   1.562
 3134SOL    HW1 9706   7.431   0.899   1.657
 3134SOL    HW2 9707   7.473   0.823   1.534
 3135SOL     OW 9708   0.247   3.429   0.596
 3135SOL    HW1 9709   0.327   3.473   0.626
 3135SOL    HW2 9710   0.207   3.395   0.676
 3136SOL     OW 9711   5.802   3.807   4.605
 3136SOL    HW1 9712   5.892   3.775   4.616
 3136SOL    HW2 9713   5.751   3.754   4.666
 3137SOL     OW 9714   3.848   4.799   1.029
 3137SOL    HW1 9715   3.830   4.784   1.122
 3137SOL    HW2 9716   3.943   4.791   1.022
 3138SOL     OW 9717   5.904   4.325   0.014
 3138SOL    HW1 9718   5.820   4.370   0.013
 3138SOL    HW2 9719   1.820   0.214   5.742
 3139SOL     OW 9720   1.300   7.233   0.750
 3139SOL    HW1 9721   1.219   7.196   0.784
 3139SOL    HW2 9722   1.279   7.261   0.661
 3140SOL     OW 9723   7.649   0.477   2.175
 3140SOL    HW1 9724   7.634   0.385   2.152
 3140SOL    HW2 9725   7.649   0.478   2.271
 3141SOL     OW 9726   7.159   2.587   3.910
 3141SOL    HW1 9727   7.205   2.505   3.928
 3141SOL    HW2 9728   7.094   2.594   3.980
 3142SOL     OW 9729   6.641   6.585   1.691
 3142SOL    HW1 9730   6.730   6.580   1.726
 3142SOL    HW2 9731   6.586   6.595   1.769
 3143SOL     OW 9732   6.433   1.594   5.415
 3143SOL    HW1 9733   6.396   1.557   5.335
 3143SOL    HW2 9734   6.468   1.518   5.462
 3144SOL     OW 9735   0.578   6.903   5.055
 3144SOL    HW1 9736   0.646   6.929   4.993
 3144SOL    HW2 9737   0.625   6.856   5.124
 3145SOL     OW 9738   3.828   3.295   1.432
 3145SOL    HW1 9739   3.736   3.318   1.447
 3145SOL    HW2 9740   3.868   3.297   1.519
 3146SOL     OW 9741   7.753   7.620   2.568
 3146SOL    HW1 9742   7.755   7.552   2.635
 3146SOL    HW2 9743   7.806   7.691   2.604
 3147SOL     OW 9744   4.715   4.372   0.158
 3147SOL    HW1 9745   4.770   4.419   0.095
 3147SOL    HW2 9746   4.626   4.403   0.141
 3148SOL     OW 9747   4.169   6.668   1.420
 3148SOL    HW1 9748   4.076   6.686   1.409
 3148SOL    HW2 9749   4.205   6.675   1.332
 3149SOL     OW 9750   2.383   1.872   2.452
 3149SOL    HW1 9751   2.324   1.797   2.442
 3149SOL    HW2 9752   2.459   1.837   2.499
 3150SOL     OW 9753   4.013   1.328   3.027
 3150SOL    HW1 9754   4.002   1.416   2.991
 3150SOL    HW2 9755   4.057   1.342   3.111
 3151SOL     OW 9756   3.387   4.315   3.419
 3151SOL    HW1 9757   3.306   4.307   3.368
 3151SOL    HW2 9758   3.364   4.371   3.493
 3152SOL     OW 9759   7.130   1.410   1.310
 3152SOL    HW1 9760   7.174   1.326   1.296
 3152SOL    HW2 9761   7.138   1.456   1.226
 3153SOL     OW 9762   3.935   1.163   5.685
 3153SOL    HW1 9763   3.932   1.084   5.739
 3153SOL    HW2 9764   3.857   1.212   5.710
 3154SOL     OW 9765   2.165   1.735   5.701
 3154SOL    HW1 9766   2.228   1.747   5.630
 3154SOL    HW2 9767   2.200   1.662   5.752
 3155SOL     OW 9768   4.094   1.553   0.705
 3155SOL    HW1 9769   4.030   1.602   0.653
 3155SOL    HW2 9770   4.175   1.603   0.697
 3156SOL     OW 9771   4.734   8.208   3.922
 3156SOL    HW1 9772   4.703   0.058   3.965
 3156SOL    HW2 9773   4.822   0.001   3.892
 3157SOL     OW 9774   2.129   3.109   5.557
 3157SOL    HW1 9775   2.139   3.201   5.532
 3157SOL    HW2 9776   2.114   3.064   5.474
 3158SOL     OW 9777   4.111   4.775   0.931
 3158SOL    HW1 9778   4.049   4.762   0.859
 3158SOL    HW2 9779   4.197   4.768   0.890
 3159SOL     OW 9780   7.581   7.778   1.296
 3159SOL    HW1 9781   7.643   7.808   1.363
 3159SOL    HW2 9782   7.557   7.857   1.248
 3160SOL     OW 9783   1.110   3.797   4.000
 3160SOL    HW1 9784   1.092   3.834   3.913
 3160SOL    HW2 9785   1.157   3.716   3.982
 3161SOL     OW 9786   6.701   3.924   4.350
 3161SOL    HW1 9787   6.689   3.900   4.442
 3161SOL    HW2 9788   6.744   4.009   4.353
 3162SOL     OW 9789   3.322   1.143   2.005
 3162SOL    HW1 9790   3.388   1.136   2.074
 3162SOL    HW2 9791   3.261   1.072   2.023
 3163SOL     OW 9792   6.023   7.375   1.667
 3163SOL    HW1 9793   6.002   7.301   1.610
 3163SOL    HW2 9794   6.114   7.395   1.647
 3164SOL     OW 9795   5.512   5.618   5.048
 3164SOL    HW1 9796   5.420   5.626   5.075
 3164SOL    HW2 9797   5.561   5.625   5.130
 3165SOL     OW 9798   7.106   3.593   2.095
 3165SOL    HW1 9799   7.185   3.630   2.134
 3165SOL    HW2 9800   7.050   3.572   2.170
 3166SOL     OW 9801   6.112   7.104   4.286
 3166SOL    HW1 9802   6.031   7.065   4.320
 3166SOL    HW2 9803   6.143   7.160   4.357
 3167SOL     OW 9804   1.617   1.643   0.793
 3167SOL    HW1 9805   1.614   1.719   0.735
 3167SOL    HW2 9806   1.705   1.607   0.781
 3168SOL     OW 9807   4.344   5.106   0.500
 3168SOL    HW1 9808   4.361   5.024   0.547
 3168SOL    HW2 9809   4.400   5.170   0.543
 3169SOL     OW 9810   1.539   4.823   0.830
 3169SOL    HW1 9811   1.465   4.795   0.883
 3169SOL    HW2 9812   1.606   4.848   0.893
 3170SOL     OW 9813   3.908   2.470   0.983
 3170SOL    HW1 9814   3.987   2.523   0.977
 3170SOL    HW2 9815   3.841   2.522   0.939
 3171SOL     OW 9816   4.005   7.517   1.192
 3171SOL    HW1 9817   4.050   7.435   1.211
 3171SOL    HW2 9818   3.913   7.492   1.180
 3172SOL     OW 9819   7.480   3.857   5.690
 3172SOL    HW1 9820   7.517   3.790   5.632
 3172SOL    HW2 9821   7.456   3.809   5.769
 3173SOL     OW 9822   3.326   7.418   1.276
 3173SOL    HW1 9823   3.353   7.410   1.185
 3173SOL    HW2 9824   3.326   7.328   1.309
 3174SOL     OW 9825   2.322   5.989   2.763
 3174SOL    HW1 9826   2.307   6.034   2.846
 3174SOL    HW2 9827   2.417   5.981   2.757
 3175SOL     OW 9828   3.494   1.906   1.080
 3175SOL    HW1 9829   3.589   1.908   1.066
 3175SOL    HW2 9830   3.463   1.990   1.046
 3176SOL     OW 9831   5.309   0.077   1.658
 3176SOL    HW1 9832   5.264   0.086   1.742
 3176SOL    HW2 9833   5.272   8.227   1.619
 3177SOL     OW 9834   7.323   2.040   4.279
 3177SOL    HW1 9835   7.308   1.946   4.292
 3177SOL    HW2 9836   7.239   2.081   4.300
 3178SOL     OW 9837   1.789   7.234   4.005
 3178SOL    HW1 9838   1.743   7.282   3.936
 3178SOL    HW2 9839   1.723   7.177   4.043
 3179SOL     OW 9840   6.369   7.211   0.002
 3179SOL    HW1 9841   6.458   7.247   0.002
 3179SOL    HW2 9842   2.218   3.122   5.736
 3180SOL     OW 9843   1.330   7.344   1.299
 3180SOL    HW1 9844   1.253   7.296   1.330
 3180SOL    HW2 9845   1.340   7.416   1.361
 3181SOL     OW 9846   8.002   3.363   2.938
 3181SOL    HW1 9847   7.928   3.382   2.996
 3181SOL    HW2 9848   8.056   3.302   2.987
 3182SOL     OW 9849   0.061   7.358   1.515
 3182SOL    HW1 9850   0.051   7.263   1.517
 3182SOL    HW2 9851   0.152   7.373   1.540
 3183SOL     OW 9852   4.607   4.448   2.636
 3183SOL    HW1 9853   4.544   4.429   2.705
 3183SOL    HW2 9854   4.607   4.370   2.581
 3184SOL     OW 9855   7.105   1.754   1.351
 3184SOL    HW1 9856   7.079   1.787   1.265
 3184SOL    HW2 9857   7.056   1.807   1.414
 3185SOL     OW 9858   6.686   6.329   1.381
 3185SOL    HW1 9859   6.766   6.315   1.431
 3185SOL    HW2 9860   6.695   6.272   1.304
 3186SOL     OW 9861   4.483   5.468   4.488
 3186SOL    HW1 9862   4.560   5.504   4.444
 3186SOL    HW2 9863   4.505   5.472   4.581
 3187SOL     OW 9864   4.673   2.491   3.135
 3187SOL    HW1 9865   4.616   2.565   3.156
 3187SOL    HW2 9866   4.682   2.494   3.040
 3188SOL     OW 9867   7.991   1.924   5.639
 3188SOL    HW1 9868   7.916   1.898   5.586
 3188SOL    HW2 9869   8.004   1.852   5.701
 3189SOL     OW 9870   5.887   3.347   1.880
 3189SOL    HW1 9871   5.800   3.367   1.914
 3189SOL    HW2 9872   5.876   3.264   1.833
 3190SOL     OW 9873   6.979   1.066   5.671
 3190SOL    HW1 9874   7.019   1.144   5.709
 3190SOL    HW2 9875   7.015   0.993   5.722
 3191SOL     OW 9876   3.332   3.995   1.628
 3191SOL    HW1 9877   3.290   3.945   1.698
 3191SOL    HW2 9878   3.364   4.074   1.671
 3192SOL     OW 9879   7.190   4.172   4.059
 3192SOL    HW1 9880   7.136   4.210   4.128
 3192SOL    HW2 9881   7.160   4.215   3.979
 3193SOL     OW 9882   7.117   7.976   2.834
 3193SOL    HW1 9883   7.194   7.921   2.850
 3193SOL    HW2 9884   7.043   7.917   2.846
 3194SOL     OW 9885   1.645   2.555   1.302
 3194SOL    HW1 9886   1.608   2.554   1.214
 3194SOL    HW2 9887   1.703   2.479   1.304
 3195SOL     OW 9888   4.961   3.786   0.774
 3195SOL    HW1 9889   4.870   3.764   0.795
 3195SOL    HW2 9890   4.983   3.858   0.834
 3196SOL     OW 9891   6.744   1.008   4.155
 3196SOL    HW1 9892   6.721   1.044   4.241
 3196SOL    HW2 9893   6.685   0.934   4.143
 3197SOL     OW 9894   7.713   1.995   3.064
 3197SOL    HW1 9895   7.635   1.983   3.010
 3197SOL    HW2 9896   7.761   2.065   3.021
 3198SOL     OW 9897   3.836   7.909   1.716
 3198SOL    HW1 9898   3.774   7.943   1.651
 3198SOL    HW2 9899   3.794   7.928   1.800
 3199SOL     OW 9900   0.851   3.804   1.420
 3199SOL    HW1 9901   0.796   3.743   1.469
 3199SOL    HW2 9902   0.926   3.820   1.477
 3200SOL     OW 9903   1.878   0.793   1.336
 3200SOL    HW1 9904   1.866   0.780   1.242
 3200SOL    HW2 9905   1.873   0.705   1.374
 3201SOL     OW 9906   0.464   4.039   2.590
 3201SOL    HW1 9907   0.413   4.101   2.641
 3201SOL    HW2 9908   0.546   4.085   2.571
 3202SOL     OW 9909   6.225   1.095   2.234
 3202SOL    HW1 9910   6.251   1.119   2.323
 3202SOL    HW2 9911   6.133   1.121   2.227
 3203SOL     OW 9912   1.789   1.167   5.756
 3203SOL    HW1 9913   5.867   5.243   0.016
 3203SOL    HW2 9914   1.862   1.220   5.787
 3204SOL     OW 9915   3.412   4.763   0.170
 3204SOL    HW1 9916   3.322   4.784   0.196
 3204SOL    HW2 9917   3.433   4.828   0.103
 3205SOL     OW 9918   7.979   4.251   4.733
 3205SOL    HW1 9919   8.004   4.193   4.804
 3205SOL    HW2 9920   7.933   4.323   4.776
 3206SOL     OW 9921   0.097   1.637   2.410
 3206SOL    HW1 9922   0.173   1.652   2.354
 3206SOL    HW2 9923   0.100   1.543   2.430
 3207SOL     OW 9924   0.964   2.407   4.812
 3207SOL    HW1 9925   0.939   2.477   4.751
 3207SOL    HW2 9926   0.972   2.329   4.757
 3208SOL     OW 9927   6.236   5.720   2.419
 3208SOL    HW1 9928   6.230   5.718   2.324
 3208SOL    HW2 9929   6.210   5.809   2.443
 3209SOL     OW 9930   6.373   1.783   2.617
 3209SOL    HW1 9931   6.377   1.877   2.637
 3209SOL    HW2 9932   6.441   1.769   2.551
 3210SOL     OW 9933   6.654   7.148   1.013
 3210SOL    HW1 9934   6.680   7.118   0.926
 3210SOL    HW2 9935   6.617   7.070   1.055
 3211SOL     OW 9936   3.441   8.183   0.029
 3211SOL    HW1 9937   7.526   3.988   5.805
 3211SOL    HW2 9938   7.616   4.108   5.785
 3212SOL     OW 9939   1.989   7.905   5.654
 3212SOL    HW1 9940   1.918   7.926   5.594
 3212SOL    HW2 9941   1.947   7.858   5.726
 3213SOL     OW 9942   4.505   3.058   0.092
 3213SOL    HW1 9943   4.491   3.129   0.154
 3213SOL    HW2 9944   4.423   3.052   0.043
 3214SOL     OW 9945   0.095   6.997   4.733
 3214SOL    HW1 9946   0.131   7.060   4.671
 3214SOL    HW2 9947   0.114   6.912   4.695
 3215SOL     OW 9948   2.439   6.648   5.664
 3215SOL    HW1 9949   2.344   6.639   5.655
 3215SOL    HW2 9950   2.463   6.717   5.602
 3216SOL     OW 9951   0.611   3.428   0.709
 3216SOL    HW1 9952   0.580   3.358   0.652
 3216SOL    HW2 9953   0.541   3.493   0.708
 3217SOL     OW 9954   1.067   7.521   0.889
 3217SOL    HW1 9955   1.013   7.518   0.968
 3217SOL    HW2 9956   1.122   7.599   0.900
 3218SOL     OW 9957   1.515   6.239   1.364
 3218SOL    HW1 9958   1.546   6.235   1.455
 3218SOL    HW2 9959   1.453   6.166   1.357
 3219SOL     OW 9960   6.913   2.367   5.309
 3219SOL    HW1 9961   6.964   2.297   5.269
 3219SOL    HW2 9962   6.978   2.424   5.350
 3220SOL     OW 9963   7.365   4.717   0.347
 3220SOL    HW1 9964   7.379   4.630   0.309
 3220SOL    HW2 9965   7.452   4.756   0.350
 3221SOL     OW 9966   5.481   3.314   4.280
 3221SOL    HW1 9967   5.558   3.368   4.264
 3221SOL    HW2 9968   5.443   3.299   4.193
 3222SOL     OW 9969   5.236   4.626   0.283
 3222SOL    HW1 9970   5.251   4.653   0.192
 3222SOL    HW2 9971   5.314   4.656   0.330
 3223SOL     OW 9972   5.502   4.642   5.252
 3223SOL    HW1 9973   5.557   4.691   5.191
 3223SOL    HW2 9974   5.561   4.577   5.290
 3224SOL     OW 9975   5.461   8.001   4.370
 3224SOL    HW1 9976   5.527   7.975   4.434
 3224SOL    HW2 9977   5.378   7.994   4.417
 3225SOL     OW 9978   6.999   3.802   2.893
 3225SOL    HW1 9979   7.089   3.775   2.912
 3225SOL    HW2 9980   6.964   3.831   2.977
 3226SOL     OW 9981   6.962   6.034   0.843
 3226SOL    HW1 9982   7.004   6.005   0.924
 3226SOL    HW2 9983   7.014   6.109   0.815
 3227SOL     OW 9984   0.938   7.847   1.521
 3227SOL    HW1 9985   0.992   7.771   1.500
 3227SOL    HW2 9986   0.866   7.811   1.573
 3228SOL     OW 9987   3.711   6.336   4.299
 3228SOL    HW1 9988   3.700   6.374   4.386
 3228SOL    HW2 9989   3.758   6.403   4.249
 3229SOL     OW 9990   4.620   1.107   2.019
 3229SOL    HW1 9991   4.646   1.123   2.110
 3229SOL    HW2 9992   4.527   1.087   2.024
 3230SOL     OW 9993   5.403   6.630   3.486
 3230SOL    HW1 9994   5.340   6.674   3.544
 3230SOL    HW2 9995   5.349   6.593   3.416
 3231SOL     OW 9996   7.613   0.764   0.152
 3231SOL    HW1 9997   7.567   0.753   0.069
 3231SOL    HW2 9998   7.545   0.758   0.219
 3232SOL     OW 9999   2.361   0.053   3.849
 3232SOL    HW110000   2.302   0.103   3.905
 3232SOL    HW210001   2.362   8.194   3.887
 3233SOL     OW10002   7.198   2.844   5.663
 3233SOL    HW110003   7.274   2.900   5.681
 3233SOL    HW210004   7.122   2.898   5.687
 3234SOL     OW10005   2.307   7.018   1.922
 3234SOL    HW110006   2.285   7.092   1.866
 3234SOL    HW210007   2.245   7.023   1.994
 3235SOL     OW10008   0.742   3.206   1.666
 3235SOL    HW110009   0.751   3.245   1.579
 3235SOL    HW210010   0.654   3.230   1.694
 3236SOL     OW10011   6.042   5.676   4.854
 3236SOL    HW110012   6.063   5.638   4.769
 3236SOL    HW210013   5.973   5.740   4.835
 3237SOL     OW10014   3.725   3.912   2.737
 3237SOL    HW110015   3.785   3.888   2.667
 3237SOL    HW210016   3.646   3.861   2.720
 3238SOL     OW10017   5.194   7.302   0.273
 3238SOL    HW110018   5.107   7.263   0.262
 3238SOL    HW210019   5.181   7.374   0.334
 3239SOL     OW10020   0.964   5.693   5.720
 3239SOL    HW110021   0.872   5.684   5.745
 3239SOL    HW210022   0.973   5.785   5.694
 3240SOL     OW10023   0.161   1.515   2.120
 3240SOL    HW110024   0.094   1.577   2.089
 3240SOL    HW210025   0.139   1.499   2.212
 3241SOL     OW10026   8.129   7.953   0.472
 3241SOL    HW110027   8.048   7.911   0.502
 3241SOL    HW210028   8.199   7.897   0.506
 3242SOL     OW10029   4.016   5.229   0.317
 3242SOL    HW110030   4.043   5.232   0.409
 3242SOL    HW210031   4.098   5.235   0.268
 3243SOL     OW10032   1.143   5.823   1.057
 3243SOL    HW110033   1.159   5.734   1.026
 3243SOL    HW210034   1.072   5.814   1.121
 3244SOL     OW10035   0.871   0.038   1.085
 3244SOL    HW110036   0.851   0.100   1.155
 3244SOL    HW210037   0.959   0.061   1.057
 3245SOL     OW10038   0.440   1.365   0.998
 3245SOL    HW110039   0.419   1.418   0.921
 3245SOL    HW210040   0.358   1.320   1.019
 3246SOL     OW10041   5.946   5.659   3.468
 3246SOL    HW110042   5.932   5.579   3.417
 3246SOL    HW210043   5.858   5.685   3.496
 3247SOL     OW10044   6.660   4.163   0.395
 3247SOL    HW110045   6.600   4.097   0.359
 3247SOL    HW210046   6.648   4.239   0.338
 3248SOL     OW10047   1.227   5.736   2.734
 3248SOL    HW110048   1.318   5.707   2.723
 3248SOL    HW210049   1.176   5.670   2.687
 3249SOL     OW10050   7.782   3.965   3.363
 3249SOL    HW110051   7.704   3.923   3.399
 3249SOL    HW210052   7.853   3.938   3.422
 3250SOL     OW10053   6.877   0.543   0.880
 3250SOL    HW110054   6.941   0.543   0.951
 3250SOL    HW210055   6.810   0.480   0.908
 3251SOL     OW10056   1.045   6.063   0.083
 3251SOL    HW110057   0.973   6.014   0.044
 3251SOL    HW210058   1.112   5.997   0.101
 3252SOL     OW10059   1.762   6.221   2.369
 3252SOL    HW110060   1.789   6.284   2.302
 3252SOL    HW210061   1.843   6.201   2.416
 3253SOL     OW10062   1.701   2.576   2.244
 3253SOL    HW110063   1.762   2.648   2.258
 3253SOL    HW210064   1.672   2.551   2.332
 3254SOL     OW10065   4.802   6.075   5.615
 3254SOL    HW110066   4.819   6.121   5.697
 3254SOL    HW210067   4.759   5.994   5.641
 3255SOL     OW10068   0.346   6.576   3.857
 3255SOL    HW110069   0.291   6.499   3.873
 3255SOL    HW210070   0.352   6.582   3.762
 3256SOL     OW10071   0.432   4.321   1.734
 3256SOL    HW110072   0.346   4.358   1.755
 3256SOL    HW210073   0.437   4.241   1.786
 3257SOL     OW10074   2.227   0.698   1.060
 3257SOL    HW110075   2.300   0.671   1.005
 3257SOL    HW210076   2.170   0.749   1.002
 3258SOL     OW10077   1.270   2.132   3.667
 3258SOL    HW110078   1.215   2.067   3.623
 3258SOL    HW210079   1.305   2.086   3.743
 3259SOL     OW10080   3.529   1.833   4.713
 3259SOL    HW110081   3.557   1.746   4.684
 3259SOL    HW210082   3.537   1.888   4.635
 3260SOL     OW10083   5.177   0.951   1.902
 3260SOL    HW110084   5.242   0.890   1.866
 3260SOL    HW210085   5.177   0.933   1.996
 3261SOL     OW10086   3.194   2.708   3.824
 3261SOL    HW110087   3.173   2.725   3.916
 3261SOL    HW210088   3.127   2.754   3.774
 3262SOL     OW10089   0.779   4.017   3.788
 3262SOL    HW110090   0.755   3.984   3.874
 3262SOL    HW210091   0.869   3.986   3.775
 3263SOL     OW10092   1.591   2.058   1.739
 3263SOL    HW110093   1.567   1.985   1.682
 3263SOL    HW210094   1.686   2.052   1.745
 3264SOL     OW10095   1.659   8.164   4.829
 3264SOL    HW110096   1.704   8.218   4.894
 3264SOL    HW210097   1.729   8.136   4.770
 3265SOL     OW10098   0.103   7.114   4.998
 3265SOL    HW110099   0.190   7.108   5.039
 3265SOL    HW210100   0.110   7.062   4.918
 3266SOL     OW10101   2.685   7.427   0.005
 3266SOL    HW110102   6.874   3.325   5.766
 3266SOL    HW210103   6.723   3.331   5.769
 3267SOL     OW10104   6.800   4.178   4.399
 3267SOL    HW110105   6.771   4.224   4.320
 3267SOL    HW210106   6.874   4.229   4.431
 3268SOL     OW10107   0.236   4.417   1.996
 3268SOL    HW110108   0.196   4.338   2.033
 3268SOL    HW210109   0.301   4.444   2.061
 3269SOL     OW10110   0.059   5.906   2.702
 3269SOL    HW110111   0.138   5.854   2.714
 3269SOL    HW210112   8.218   5.851   2.736
 3270SOL     OW10113   7.956   5.923   0.344
 3270SOL    HW110114   8.007   6.003   0.353
 3270SOL    HW210115   7.894   5.941   0.274
 3271SOL     OW10116   7.673   2.683   5.564
 3271SOL    HW110117   7.704   2.597   5.593
 3271SOL    HW210118   7.720   2.699   5.482
 3272SOL     OW10119   7.267   0.207   5.629
 3272SOL    HW110120   7.199   0.158   5.676
 3272SOL    HW210121   7.311   0.259   5.696
 3273SOL     OW10122   0.411   1.280   2.344
 3273SOL    HW110123   0.442   1.341   2.276
 3273SOL    HW210124   0.442   1.318   2.426
 3274SOL     OW10125   7.786   7.977   0.070
 3274SOL    HW110126   3.643   3.868   5.798
 3274SOL    HW210127   7.853   8.045   0.079
 3275SOL     OW10128   0.677   7.522   0.245
 3275SOL    HW110129   0.740   7.582   0.285
 3275SOL    HW210130   0.599   7.575   0.231
 3276SOL     OW10131   2.917   5.124   2.973
 3276SOL    HW110132   2.862   5.090   2.903
 3276SOL    HW210133   2.986   5.059   2.983
 3277SOL     OW10134   2.538   5.203   0.337
 3277SOL    HW110135   2.547   5.186   0.243
 3277SOL    HW210136   2.505   5.121   0.373
 3278SOL     OW10137   4.130   7.223   1.959
 3278SOL    HW110138   4.148   7.189   1.871
 3278SOL    HW210139   4.056   7.282   1.947
 3279SOL     OW10140   5.646   2.478   0.626
 3279SOL    HW110141   5.678   2.532   0.554
 3279SOL    HW210142   5.682   2.391   0.609
 3280SOL     OW10143   8.115   2.064   3.060
 3280SOL    HW110144   8.122   2.001   2.988
 3280SOL    HW210145   8.148   2.146   3.023
 3281SOL     OW10146   5.423   6.625   0.989
 3281SOL    HW110147   5.498   6.673   1.024
 3281SOL    HW210148   5.390   6.680   0.918
 3282SOL     OW10149   4.542   8.094   4.510
 3282SOL    HW110150   4.496   8.175   4.487
 3282SOL    HW210151   4.628   8.123   4.540
 3283SOL     OW10152   4.868   5.500   1.534
 3283SOL    HW110153   4.921   5.467   1.461
 3283SOL    HW210154   4.781   5.464   1.518
 3284SOL     OW10155   2.350   4.926   5.172
 3284SOL    HW110156   2.411   4.917   5.099
 3284SOL    HW210157   2.307   5.010   5.156
 3285SOL     OW10158   0.429   7.107   2.539
 3285SOL    HW110159   0.436   7.202   2.540
 3285SOL    HW210160   0.401   7.084   2.627
 3286SOL     OW10161   5.377   3.408   1.797
 3286SOL    HW110162   5.462   3.451   1.792
 3286SOL    HW210163   5.397   3.315   1.790
 3287SOL     OW10164   7.584   1.547   4.002
 3287SOL    HW110165   7.565   1.585   3.916
 3287SOL    HW210166   7.662   1.494   3.987
 3288SOL     OW10167   2.254   2.903   2.738
 3288SOL    HW110168   2.246   2.998   2.747
 3288SOL    HW210169   2.178   2.877   2.686
 3289SOL     OW10170   6.768   6.127   3.547
 3289SOL    HW110171   6.737   6.056   3.491
 3289SOL    HW210172   6.862   6.133   3.529
 3290SOL     OW10173   7.867   1.176   0.226
 3290SOL    HW110174   7.945   1.156   0.175
 3290SOL    HW210175   7.900   1.215   0.307
 3291SOL     OW10176   3.038   2.710   0.615
 3291SOL    HW110177   2.975   2.641   0.635
 3291SOL    HW210178   3.124   2.669   0.627
 3292SOL     OW10179   2.415   8.057   2.963
 3292SOL    HW110180   2.421   8.128   3.027
 3292SOL    HW210181   2.361   7.991   3.005
 3293SOL     OW10182   6.098   4.815   5.492
 3293SOL    HW110183   6.167   4.781   5.435
 3293SOL    HW210184   6.024   4.831   5.433
 3294SOL     OW10185   5.680   7.993   4.217
 3294SOL    HW110186   5.601   8.001   4.271
 3294SOL    HW210187   5.733   7.927   4.262
 3295SOL     OW10188   5.425   3.406   5.185
 3295SOL    HW110189   5.457   3.318   5.205
 3295SOL    HW210190   5.334   3.393   5.157
 3296SOL     OW10191   1.913   4.914   0.176
 3296SOL    HW110192   1.998   4.895   0.216
 3296SOL    HW210193   1.932   4.925   0.083
 3297SOL     OW10194   2.347   3.920   1.905
 3297SOL    HW110195   2.307   3.883   1.826
 3297SOL    HW210196   2.276   3.923   1.969
 3298SOL     OW10197   4.965   7.252   5.507
 3298SOL    HW110198   4.979   7.344   5.530
 3298SOL    HW210199   4.882   7.251   5.460
 3299SOL     OW10200   5.649   0.219   1.112
 3299SOL    HW110201   5.658   0.276   1.036
 3299SOL    HW210202   5.632   0.279   1.185
 3300SOL     OW10203   2.804   4.058   1.467
 3300SOL    HW110204   2.742   4.106   1.412
 3300SOL    HW210205   2.890   4.080   1.431
 3301SOL     OW10206   0.624   1.323   4.673
 3301SOL    HW110207   0.658   1.242   4.712
 3301SOL    HW210208   0.617   1.303   4.580
 3302SOL     OW10209   2.802   4.383   5.681
 3302SOL    HW110210   2.812   4.440   5.757
 3302SOL    HW210211   2.838   4.299   5.709
 3303SOL     OW10212   7.285   1.533   1.118
 3303SOL    HW110213   7.317   1.570   1.200
 3303SOL    HW210214   7.307   1.599   1.052
 3304SOL     OW10215   0.304   3.381   5.503
 3304SOL    HW110216   0.261   3.358   5.586
 3304SOL    HW210217   0.266   3.466   5.479
 3305SOL     OW10218   0.731   7.901   3.557
 3305SOL    HW110219   0.786   7.847   3.500
 3305SOL    HW210220   0.684   7.838   3.612
 3306SOL     OW10221   4.451   1.863   1.825
 3306SOL    HW110222   4.506   1.786   1.839
 3306SOL    HW210223   4.509   1.927   1.784
 3307SOL     OW10224   2.984   1.123   0.102
 3307SOL    HW110225   2.998   1.121   0.197
 3307SOL    HW210226   3.052   1.182   0.069
 3308SOL     OW10227   3.420   5.017   1.554
 3308SOL    HW110228   3.495   5.005   1.496
 3308SOL    HW210229   3.453   4.996   1.641
 3309SOL     OW10230   6.376   0.735   0.880
 3309SOL    HW110231   6.389   0.644   0.854
 3309SOL    HW210232   6.455   0.758   0.930
 3310SOL     OW10233   2.117   8.051   4.928
 3310SOL    HW110234   2.079   8.032   4.842
 3310SOL    HW210235   2.129   8.146   4.928
 3311SOL     OW10236   1.446   0.894   1.507
 3311SOL    HW110237   1.441   0.807   1.468
 3311SOL    HW210238   1.380   0.893   1.576
 3312SOL     OW10239   7.713   2.487   0.387
 3312SOL    HW110240   7.727   2.444   0.303
 3312SOL    HW210241   7.663   2.424   0.438
 3313SOL     OW10242   4.624   3.988   2.898
 3313SOL    HW110243   4.548   4.043   2.916
 3313SOL    HW210244   4.589   3.899   2.891
 3314SOL     OW10245   1.133   3.795   0.073
 3314SOL    HW110246   1.158   3.880   0.109
 3314SOL    HW210247   1.126   3.738   0.150
 3315SOL     OW10248   3.480   6.399   2.844
 3315SOL    HW110249   3.561   6.445   2.866
 3315SOL    HW210250   3.508   6.315   2.808
 3316SOL     OW10251   0.103   4.203   4.186
 3316SOL    HW110252   0.079   4.117   4.152
 3316SOL    HW210253   0.173   4.186   4.248
 3317SOL     OW10254   5.162   5.944   4.036
 3317SOL    HW110255   5.098   6.015   4.034
 3317SOL    HW210256   5.119   5.872   3.989
 3318SOL     OW10257   1.603   0.825   3.803
 3318SOL    HW110258   1.629   0.817   3.711
 3318SOL    HW210259   1.508   0.837   3.800
 3319SOL     OW10260   6.242   5.990   4.498
 3319SOL    HW110261   6.278   5.911   4.539
 3319SOL    HW210262   6.297   6.004   4.421
 3320SOL     OW10263   6.452   3.089   1.837
 3320SOL    HW110264   6.386   3.143   1.880
 3320SOL    HW210265   6.471   3.135   1.755
 3321SOL     OW10266   0.168   2.262   5.590
 3321SOL    HW110267   0.262   2.261   5.608
 3321SOL    HW210268   0.160   2.227   5.501
 3322SOL     OW10269   6.969   5.803   3.787
 3322SOL    HW110270   6.881   5.815   3.752
 3322SOL    HW210271   6.991   5.888   3.826
 3323SOL     OW10272   4.546   7.252   1.701
 3323SOL    HW110273   4.540   7.311   1.776
 3323SOL    HW210274   4.464   7.266   1.653
 3324SOL     OW10275   7.540   3.191   3.490
 3324SOL    HW110276   7.501   3.278   3.478
 3324SOL    HW210277   7.619   3.192   3.437
 3325SOL     OW10278   3.479   0.015   2.695
 3325SOL    HW110279   3.451   0.023   2.786
 3325SOL    HW210280   3.565   8.202   2.700
 3326SOL     OW10281   8.136   2.014   5.250
 3326SOL    HW110282   0.000   2.029   5.263
 3326SOL    HW210283   8.125   1.920   5.264
 3327SOL     OW10284   5.593   2.862   0.729
 3327SOL    HW110285   5.564   2.786   0.780
 3327SOL    HW210286   5.688   2.861   0.736
 3328SOL     OW10287   3.901   5.418   2.595
 3328SOL    HW110288   3.991   5.394   2.618
 3328SOL    HW210289   3.884   5.498   2.644
 3329SOL     OW10290   0.043   1.456   0.754
 3329SOL    HW110291   0.082   1.531   0.799
 3329SOL    HW210292   8.194   1.436   0.805
 3330SOL     OW10293   1.629   4.030   3.115
 3330SOL    HW110294   1.662   4.046   3.027
 3330SOL    HW210295   1.598   4.116   3.145
 3331SOL     OW10296   6.124   4.339   0.189
 3331SOL    HW110297   6.092   4.408   0.246
 3331SOL    HW210298   6.065   4.340   0.114
 3332SOL     OW10299   4.596   6.172   0.348
 3332SOL    HW110300   4.535   6.209   0.412
 3332SOL    HW210301   4.676   6.156   0.398
 3333SOL     OW10302   7.232   4.260   1.744
 3333SOL    HW110303   7.274   4.223   1.822
 3333SOL    HW210304   7.283   4.338   1.724
 3334SOL     OW10305   1.273   6.988   5.131
 3334SOL    HW110306   1.235   7.073   5.108
 3334SOL    HW210307   1.215   6.924   5.090
 3335SOL     OW10308   3.933   7.232   2.791
 3335SOL    HW110309   3.975   7.297   2.847
 3335SOL    HW210310   3.990   7.155   2.796
 3336SOL     OW10311   0.177   3.584   2.955
 3336SOL    HW110312   0.138   3.498   2.940
 3336SOL    HW210313   0.201   3.583   3.048
 3337SOL     OW10314   1.365   6.463   2.237
 3337SOL    HW110315   1.423   6.387   2.240
 3337SOL    HW210316   1.323   6.464   2.323
 3338SOL     OW10317   6.816   1.360   1.792
 3338SOL    HW110318   6.888   1.423   1.791
 3338SOL    HW210319   6.754   1.396   1.856
 3339SOL     OW10320   7.662   0.786   1.389
 3339SOL    HW110321   7.696   0.830   1.311
 3339SOL    HW210322   7.642   0.697   1.360
 3340SOL     OW10323   5.682   5.031   3.898
 3340SOL    HW110324   5.767   4.988   3.905
 3340SOL    HW210325   5.664   5.062   3.987
 3341SOL     OW10326   5.405   0.834   3.771
 3341SOL    HW110327   5.470   0.776   3.730
 3341SOL    HW210328   5.384   0.898   3.703
 3342SOL     OW10329   5.993   4.341   1.991
 3342SOL    HW110330   5.968   4.421   1.945
 3342SOL    HW210331   6.004   4.368   2.082
 3343SOL     OW10332   2.392   7.626   0.799
 3343SOL    HW110333   2.397   7.706   0.852
 3343SOL    HW210334   2.317   7.640   0.741
 3344SOL     OW10335   1.791   1.570   5.368
 3344SOL    HW110336   1.831   1.600   5.286
 3344SOL    HW210337   1.771   1.478   5.352
 3345SOL     OW10338   2.231   5.766   4.660
 3345SOL    HW110339   2.298   5.732   4.600
 3345SOL    HW210340   2.177   5.690   4.681
 3346SOL     OW10341   1.153   4.910   2.594
 3346SOL    HW110342   1.090   4.964   2.547
 3346SOL    HW210343   1.103   4.873   2.667
 3347SOL     OW10344   0.307   8.005   2.064
 3347SOL    HW110345   0.370   7.952   2.016
 3347SOL    HW210346   0.342   8.009   2.153
 3348SOL     OW10347   1.200   6.389   4.795
 3348SOL    HW110348   1.255   6.403   4.718
 3348SOL    HW210349   1.222   6.462   4.853
 3349SOL     OW10350   4.004   2.856   0.335
 3349SOL    HW110351   4.026   2.939   0.377
 3349SOL    HW210352   4.010   2.874   0.241
 3350SOL     OW10353   4.067   6.922   3.982
 3350SOL    HW110354   4.094   6.970   4.060
 3350SOL    HW210355   4.102   6.834   3.995
 3351SOL     OW10356   7.460   6.898   0.370
 3351SOL    HW110357   7.368   6.875   0.384
 3351SOL    HW210358   7.494   6.915   0.458
 3352SOL     OW10359   4.232   2.387   0.907
 3352SOL    HW110360   4.171   2.457   0.931
 3352SOL    HW210361   4.236   2.390   0.811
 3353SOL     OW10362   3.020   5.362   4.265
 3353SOL    HW110363   2.957   5.317   4.209
 3353SOL    HW210364   3.106   5.330   4.237
 3354SOL     OW10365   2.380   1.077   2.841
 3354SOL    HW110366   2.314   1.055   2.907
 3354SOL    HW210367   2.395   0.996   2.793
 3355SOL     OW10368   6.263   5.180   2.448
 3355SOL    HW110369   6.289   5.247   2.511
 3355SOL    HW210370   6.238   5.105   2.502
 3356SOL     OW10371   1.786   1.800   4.076
 3356SOL    HW110372   1.809   1.731   4.014
 3356SOL    HW210373   1.819   1.880   4.035
 3357SOL     OW10374   2.549   1.938   4.904
 3357SOL    HW110375   2.583   2.021   4.939
 3357SOL    HW210376   2.481   1.912   4.966
 3358SOL     OW10377   5.285   1.823   2.157
 3358SOL    HW110378   5.349   1.785   2.096
 3358SOL    HW210379   5.209   1.843   2.103
 3359SOL     OW10380   1.706   7.128   2.757
 3359SOL    HW110381   1.800   7.139   2.743
 3359SOL    HW210382   1.690   7.165   2.844
 3360SOL     OW10383   3.219   0.628   2.424
 3360SOL    HW110384   3.292   0.594   2.475
 3360SOL    HW210385   3.202   0.714   2.462
 3361SOL     OW10386   2.051   1.289   5.448
 3361SOL    HW110387   2.060   1.330   5.362
 3361SOL    HW210388   1.994   1.348   5.497
 3362SOL     OW10389   1.641   7.821   1.390
 3362SOL    HW110390   1.613   7.802   1.480
 3362SOL    HW210391   1.627   7.739   1.343
 3363SOL     OW10392   3.418   3.985   3.331
 3363SOL    HW110393   3.426   3.907   3.386
 3363SOL    HW210394   3.437   4.058   3.390
 3364SOL     OW10395   8.142   4.869   2.416
 3364SOL    HW110396   8.207   4.915   2.469
 3364SOL    HW210397   8.061   4.877   2.466
 3365SOL     OW10398   4.728   1.365   0.497
 3365SOL    HW110399   4.801   1.410   0.541
 3365SOL    HW210400   4.671   1.336   0.569
 3366SOL     OW10401   5.196   5.076   0.016
 3366SOL    HW110402   1.131   0.949   5.754
 3366SOL    HW210403   0.991   0.942   5.810
 3367SOL     OW10404   1.327   2.869   5.502
 3367SOL    HW110405   1.271   2.868   5.580
 3367SOL    HW210406   1.402   2.924   5.526
 3368SOL     OW10407   4.570   4.885   1.014
 3368SOL    HW110408   4.632   4.837   0.958
 3368SOL    HW210409   4.505   4.920   0.953
 3369SOL     OW10410   6.851   8.008   3.474
 3369SOL    HW110411   6.930   8.056   3.450
 3369SOL    HW210412   6.864   7.984   3.566
 3370SOL     OW10413   2.574   4.227   2.054
 3370SOL    HW110414   2.609   4.304   2.099
 3370SOL    HW210415   2.491   4.209   2.099
 3371SOL     OW10416   0.107   6.835   4.298
 3371SOL    HW110417   0.054   6.876   4.230
 3371SOL    HW210418   0.186   6.805   4.252
 3372SOL     OW10419   8.132   5.783   2.959
 3372SOL    HW110420   8.202   5.732   3.000
 3372SOL    HW210421   8.065   5.718   2.937
 3373SOL     OW10422   5.141   6.749   1.341
 3373SOL    HW110423   5.047   6.739   1.326
 3373SOL    HW210424   5.182   6.689   1.279
 3374SOL     OW10425   2.674   6.546   3.625
 3374SOL    HW110426   2.660   6.623   3.680
 3374SOL    HW210427   2.758   6.511   3.653
 3375SOL     OW10428   4.625   4.836   5.497
 3375SOL    HW110429   4.657   4.900   5.433
 3375SOL    HW210430   4.545   4.875   5.532
 3376SOL     OW10431   1.002   2.416   5.530
 3376SOL    HW110432   1.071   2.465   5.574
 3376SOL    HW210433   1.016   2.433   5.437
 3377SOL     OW10434   3.929   6.678   0.516
 3377SOL    HW110435   3.977   6.596   0.528
 3377SOL    HW210436   3.994   6.739   0.481
 3378SOL     OW10437   2.948   3.155   1.202
 3378SOL    HW110438   3.003   3.085   1.167
 3378SOL    HW210439   2.887   3.175   1.131
 3379SOL     OW10440   5.638   1.432   3.533
 3379SOL    HW110441   5.569   1.421   3.598
 3379SOL    HW210442   5.596   1.479   3.461
 3380SOL     OW10443   0.096   1.585   5.127
 3380SOL    HW110444   0.021   1.608   5.073
 3380SOL    HW210445   0.074   1.499   5.164
 3381SOL     OW10446   2.139   6.382   2.905
 3381SOL    HW110447   2.212   6.332   2.869
 3381SOL    HW210448   2.094   6.321   2.963
 3382SOL     OW10449   0.371   5.790   0.291
 3382SOL    HW110450   0.300   5.779   0.354
 3382SOL    HW210451   0.403   5.879   0.305
 3383SOL     OW10452   6.333   0.756   5.671
 3383SOL    HW110453   6.409   0.715   5.629
 3383SOL    HW210454   6.281   0.682   5.703
 3384SOL     OW10455   7.401   1.085   2.964
 3384SOL    HW110456   7.389   1.179   2.979
 3384SOL    HW210457   7.495   1.075   2.949
 3385SOL     OW10458   2.548   0.513   1.170
 3385SOL    HW110459   2.534   0.607   1.184
 3385SOL    HW210460   2.594   0.484   1.248
 3386SOL     OW10461   2.843   7.133   4.369
 3386SOL    HW110462   2.764   7.187   4.366
 3386SOL    HW210463   2.846   7.091   4.283
 3387SOL     OW10464   4.068   5.335   0.860
 3387SOL    HW110465   4.017   5.396   0.913
 3387SOL    HW210466   4.115   5.282   0.924
 3388SOL     OW10467   4.008   4.332   0.600
 3388SOL    HW110468   4.009   4.241   0.628
 3388SOL    HW210469   3.915   4.356   0.600
 3389SOL     OW10470   5.328   0.521   0.283
 3389SOL    HW110471   5.411   0.474   0.289
 3389SOL    HW210472   5.290   0.492   0.200
 3390SOL     OW10473   4.679   2.318   3.964
 3390SOL    HW110474   4.606   2.369   3.929
 3390SOL    HW210475   4.736   2.303   3.889
 3391SOL     OW10476   8.033   0.883   0.142
 3391SOL    HW110477   7.982   0.877   0.223
 3391SOL    HW210478   8.074   0.969   0.146
 3392SOL     OW10479   6.793   0.597   2.914
 3392SOL    HW110480   6.881   0.587   2.950
 3392SOL    HW210481   6.749   0.514   2.932
 3393SOL     OW10482   4.079   1.572   1.836
 3393SOL    HW110483   4.050   1.639   1.897
 3393SOL    HW210484   4.101   1.620   1.756
 3394SOL     OW10485   2.012   2.528   4.452
 3394SOL    HW110486   2.075   2.589   4.414
 3394SOL    HW210487   1.945   2.584   4.491
 3395SOL     OW10488   0.722   1.177   0.874
 3395SOL    HW110489   0.720   1.220   0.789
 3395SOL    HW210490   0.636   1.195   0.912
 3396SOL     OW10491   0.773   0.217   3.705
 3396SOL    HW110492   0.789   0.139   3.652
 3396SOL    HW210493   0.856   0.233   3.750
 3397SOL     OW10494   6.167   0.752   1.077
 3397SOL    HW110495   6.133   0.836   1.109
 3397SOL    HW210496   6.236   0.776   1.015
 3398SOL     OW10497   3.618   7.629   3.521
 3398SOL    HW110498   3.574   7.639   3.605
 3398SOL    HW210499   3.602   7.712   3.476
 3399SOL     OW10500   5.368   4.434   0.453
 3399SOL    HW110501   5.397   4.523   0.432
 3399SOL    HW210502   5.276   4.432   0.428
 3400SOL     OW10503   5.505   7.050   4.727
 3400SOL    HW110504   5.558   7.068   4.805
 3400SOL    HW210505   5.448   7.126   4.719
 3401SOL     OW10506   3.247   6.977   0.501
 3401SOL    HW110507   3.251   6.991   0.406
 3401SOL    HW210508   3.301   7.047   0.538
 3402SOL     OW10509   3.874   6.993   2.998
 3402SOL    HW110510   3.786   6.980   3.032
 3402SOL    HW210511   3.862   6.998   2.903
 3403SOL     OW10512   4.043   3.836   2.202
 3403SOL    HW110513   4.117   3.852   2.144
 3403SOL    HW210514   4.079   3.784   2.274
 3404SOL     OW10515   5.210   5.845   5.509
 3404SOL    HW110516   5.189   5.906   5.580
 3404SOL    HW210517   5.199   5.758   5.547
 3405SOL     OW10518   2.244   5.505   4.095
 3405SOL    HW110519   2.301   5.533   4.166
 3405SOL    HW210520   2.247   5.409   4.098
 3406SOL     OW10521   7.931   3.024   5.412
 3406SOL    HW110522   7.925   3.106   5.461
 3406SOL    HW210523   8.003   3.038   5.350
 3407SOL     OW10524   4.088   6.123   2.424
 3407SOL    HW110525   4.131   6.191   2.372
 3407SOL    HW210526   4.083   6.047   2.365
 3408SOL     OW10527   5.574   4.091   0.266
 3408SOL    HW110528   5.667   4.069   0.263
 3408SOL    HW210529   5.536   4.043   0.193
 3409SOL     OW10530   2.741   3.230   0.706
 3409SOL    HW110531   2.660   3.257   0.750
 3409SOL    HW210532   2.715   3.157   0.650
 3410SOL     OW10533   2.920   4.671   2.588
 3410SOL    HW110534   2.936   4.584   2.552
 3410SOL    HW210535   2.922   4.659   2.683
 3411SOL     OW10536   6.678   2.589   3.114
 3411SOL    HW110537   6.705   2.677   3.087
 3411SOL    HW210538   6.605   2.568   3.056
 3412SOL     OW10539   7.981   0.207   4.329
 3412SOL    HW110540   7.897   0.224   4.286
 3412SOL    HW210541   7.958   0.160   4.409
 3413SOL     OW10542   2.647   1.164   2.850
 3413SOL    HW110543   2.557   1.132   2.855
 3413SOL    HW210544   2.643   1.238   2.790
 3414SOL     OW10545   0.363   8.156   3.019
 3414SOL    HW110546   0.395   8.068   3.037
 3414SOL    HW210547   0.433   8.214   3.049
 3415SOL     OW10548   5.483   1.564   3.305
 3415SOL    HW110549   5.392   1.585   3.286
 3415SOL    HW210550   5.530   1.645   3.286
 3416SOL     OW10551   1.386   2.059   1.371
 3416SOL    HW110552   1.430   2.109   1.303
 3416SOL    HW210553   1.405   1.968   1.350
 3417SOL     OW10554   1.835   2.656   4.973
 3417SOL    HW110555   1.824   2.724   5.039
 3417SOL    HW210556   1.764   2.671   4.911
 3418SOL     OW10557   2.219   2.475   1.132
 3418SOL    HW110558   2.221   2.546   1.196
 3418SOL    HW210559   2.127   2.468   1.107
 3419SOL     OW10560   4.435   3.235   3.201
 3419SOL    HW110561   4.465   3.326   3.202
 3419SOL    HW210562   4.502   3.188   3.151
 3420SOL     OW10563   7.411   4.600   4.966
 3420SOL    HW110564   7.345   4.570   5.028
 3420SOL    HW210565   7.391   4.553   4.885
 3421SOL     OW10566   1.478   6.051   4.418
 3421SOL    HW110567   1.430   5.973   4.391
 3421SOL    HW210568   1.456   6.117   4.353
 3422SOL     OW10569   6.682   1.165   1.633
 3422SOL    HW110570   6.760   1.138   1.681
 3422SOL    HW210571   6.672   1.258   1.653
 3423SOL     OW10572   3.101   4.763   1.826
 3423SOL    HW110573   3.084   4.854   1.802
 3423SOL    HW210574   3.180   4.740   1.777
 3424SOL     OW10575   1.497   5.761   3.729
 3424SOL    HW110576   1.497   5.820   3.805
 3424SOL    HW210577   1.588   5.758   3.701
 3425SOL     OW10578   3.563   5.771   2.246
 3425SOL    HW110579   3.468   5.766   2.256
 3425SOL    HW210580   3.595   5.793   2.334
 3426SOL     OW10581   5.816   0.624   3.217
 3426SOL    HW110582   5.901   0.585   3.197
 3426SOL    HW210583   5.759   0.591   3.148
 3427SOL     OW10584   7.331   7.414   4.126
 3427SOL    HW110585   7.358   7.502   4.151
 3427SOL    HW210586   7.297   7.375   4.207
 3428SOL     OW10587   0.072   0.600   2.241
 3428SOL    HW110588   0.126   0.530   2.203
 3428SOL    HW210589   0.133   0.650   2.295
 3429SOL     OW10590   5.358   7.185   1.177
 3429SOL    HW110591   5.312   7.266   1.156
 3429SOL    HW210592   5.447   7.213   1.199
 3430SOL     OW10593   0.349   7.103   3.478
 3430SOL    HW110594   0.311   7.037   3.420
 3430SOL    HW210595   0.433   7.126   3.437
 3431SOL     OW10596   7.354   6.703   4.381
 3431SOL    HW110597   7.372   6.744   4.296
 3431SOL    HW210598   7.259   6.696   4.385
 3432SOL     OW10599   5.287   6.465   2.184
 3432SOL    HW110600   5.224   6.429   2.246
 3432SOL    HW210601   5.344   6.391   2.163
 3433SOL     OW10602   3.722   4.659   2.481
 3433SOL    HW110603   3.811   4.636   2.507
 3433SOL    HW210604   3.725   4.666   2.386
 3434SOL     OW10605   5.414   2.952   2.265
 3434SOL    HW110606   5.395   2.863   2.296
 3434SOL    HW210607   5.423   3.004   2.345
 3435SOL     OW10608   7.746   1.335   5.432
 3435SOL    HW110609   7.711   1.423   5.446
 3435SOL    HW210610   7.728   1.317   5.340
 3436SOL     OW10611   7.164   6.655   0.794
 3436SOL    HW110612   7.223   6.689   0.726
 3436SOL    HW210613   7.208   6.676   0.876
 3437SOL     OW10614   2.162   1.975   3.128
 3437SOL    HW110615   2.251   2.008   3.141
 3437SOL    HW210616   2.109   2.024   3.191
 3438SOL     OW10617   5.587   2.521   2.211
 3438SOL    HW110618   5.589   2.616   2.224
 3438SOL    HW210619   5.496   2.501   2.191
 3439SOL     OW10620   6.460   6.448   5.022
 3439SOL    HW110621   6.453   6.525   4.966
 3439SOL    HW210622   6.474   6.375   4.962
 3440SOL     OW10623   5.077   0.386   3.429
 3440SOL    HW110624   5.157   0.431   3.455
 3440SOL    HW210625   5.006   0.441   3.464
 3441SOL     OW10626   0.025   8.223   4.565
 3441SOL    HW110627   0.109   8.192   4.598
 3441SOL    HW210628   0.048   0.054   4.494
 3442SOL     OW10629   7.164   0.179   1.462
 3442SOL    HW110630   7.107   0.123   1.515
 3442SOL    HW210631   7.116   0.261   1.452
 3443SOL     OW10632   0.391   4.557   0.467
 3443SOL    HW110633   0.399   4.466   0.437
 3443SOL    HW210634   0.452   4.606   0.412
 3444SOL     OW10635   7.272   2.864   4.565
 3444SOL    HW110636   7.273   2.771   4.586
 3444SOL    HW210637   7.182   2.881   4.537
 3445SOL     OW10638   1.947   7.699   5.435
 3445SOL    HW110639   2.036   7.694   5.471
 3445SOL    HW210640   1.914   7.784   5.465
 3446SOL     OW10641   1.314   0.627   1.616
 3446SOL    HW110642   1.356   0.667   1.692
 3446SOL    HW210643   1.281   0.543   1.649
 3447SOL     OW10644   0.321   6.171   1.294
 3447SOL    HW110645   0.331   6.221   1.375
 3447SOL    HW210646   0.321   6.079   1.322
 3448SOL     OW10647   4.123   5.310   2.703
 3448SOL    HW110648   4.190   5.242   2.713
 3448SOL    HW210649   4.042   5.267   2.731
 3449SOL     OW10650   1.714   7.851   0.286
 3449SOL    HW110651   1.792   7.886   0.330
 3449SOL    HW210652   1.733   7.860   0.193
 3450SOL     OW10653   5.464   2.080   1.162
 3450SOL    HW110654   5.537   2.141   1.155
 3450SOL    HW210655   5.390   2.134   1.191
 3451SOL     OW10656   1.685   3.230   4.445
 3451SOL    HW110657   1.763   3.253   4.496
 3451SOL    HW210658   1.624   3.302   4.460
 3452SOL     OW10659   7.513   3.628   1.787
 3452SOL    HW110660   7.473   3.560   1.842
 3452SOL    HW210661   7.594   3.588   1.755
 3453SOL     OW10662   2.812   6.768   4.260
 3453SOL    HW110663   2.845   6.807   4.341
 3453SOL    HW210664   2.726   6.734   4.284
 3454SOL     OW10665   1.652   6.575   1.212
 3454SOL    HW110666   1.730   6.536   1.252
 3454SOL    HW210667   1.615   6.505   1.159
 3455SOL     OW10668   5.259   1.743   2.437
 3455SOL    HW110669   5.298   1.741   2.350
 3455SOL    HW210670   5.333   1.756   2.496
 3456SOL     OW10671   3.956   2.466   0.087
 3456SOL    HW110672   4.001   2.509   0.015
 3456SOL    HW210673   3.899   2.534   0.124
 3457SOL     OW10674   0.663   3.401   3.331
 3457SOL    HW110675   0.719   3.372   3.403
 3457SOL    HW210676   0.695   3.488   3.309
 3458SOL     OW10677   2.318   1.657   3.850
 3458SOL    HW110678   2.256   1.652   3.777
 3458SOL    HW210679   2.404   1.648   3.809
 3459SOL     OW10680   4.746   2.127   2.801
 3459SOL    HW110681   4.746   2.190   2.729
 3459SOL    HW210682   4.743   2.181   2.880
 3460SOL     OW10683   1.311   5.637   0.131
 3460SOL    HW110684   1.288   5.581   0.205
 3460SOL    HW210685   1.406   5.628   0.124
 3461SOL     OW10686   0.649   7.640   4.881
 3461SOL    HW110687   0.685   7.614   4.966
 3461SOL    HW210688   0.722   7.682   4.836
 3462SOL     OW10689   6.743   6.986   4.746
 3462SOL    HW110690   6.713   7.048   4.812
 3462SOL    HW210691   6.798   7.038   4.688
 3463SOL     OW10692   3.604   5.124   4.960
 3463SOL    HW110693   3.585   5.213   4.932
 3463SOL    HW210694   3.695   5.127   4.989
 3464SOL     OW10695   1.720   2.446   1.707
 3464SOL    HW110696   1.717   2.538   1.732
 3464SOL    HW210697   1.800   2.437   1.655
 3465SOL     OW10698   2.730   1.282   1.433
 3465SOL    HW110699   2.694   1.193   1.436
 3465SOL    HW210700   2.678   1.327   1.367
 3466SOL     OW10701   4.630   0.182   4.063
 3466SOL    HW110702   4.684   0.227   4.128
 3466SOL    HW210703   4.540   0.205   4.087
 3467SOL     OW10704   2.198   6.696   0.341
 3467SOL    HW110705   2.193   6.650   0.425
 3467SOL    HW210706   2.165   6.633   0.277
 3468SOL     OW10707   6.507   3.702   4.436
 3468SOL    HW110708   6.471   3.785   4.467
 3468SOL    HW210709   6.580   3.727   4.380
 3469SOL     OW10710   3.994   2.194   2.448
 3469SOL    HW110711   4.064   2.129   2.453
 3469SOL    HW210712   3.925   2.151   2.396
 3470SOL     OW10713   3.733   1.536   3.192
 3470SOL    HW110714   3.711   1.443   3.185
 3470SOL    HW210715   3.758   1.548   3.284
 3471SOL     OW10716   5.241   5.912   5.254
 3471SOL    HW110717   5.257   5.874   5.340
 3471SOL    HW210718   5.199   5.996   5.272
 3472SOL     OW10719   6.134   7.972   2.462
 3472SOL    HW110720   6.088   7.899   2.504
 3472SOL    HW210721   6.213   7.983   2.515
 3473SOL     OW10722   0.085   2.795   1.963
 3473SOL    HW110723   0.072   2.776   1.870
 3473SOL    HW210724   0.007   2.844   1.989
 3474SOL     OW10725   5.855   4.968   2.676
 3474SOL    HW110726   5.839   4.875   2.659
 3474SOL    HW210727   5.882   5.003   2.591
 3475SOL     OW10728   7.305   2.600   5.572
 3475SOL    HW110729   7.388   2.581   5.617
 3475SOL    HW210730   7.285   2.690   5.598
 3476SOL     OW10731   1.604   7.446   1.974
 3476SOL    HW110732   1.558   7.506   1.915
 3476SOL    HW210733   1.546   7.370   1.981
 3477SOL     OW10734   4.790   4.130   3.829
 3477SOL    HW110735   4.800   4.086   3.914
 3477SOL    HW210736   4.869   4.106   3.780
 3478SOL     OW10737   0.598   2.136   1.303
 3478SOL    HW110738   0.679   2.125   1.253
 3478SOL    HW210739   0.616   2.208   1.363
 3479SOL     OW10740   0.868   7.427   0.557
 3479SOL    HW110741   0.946   7.442   0.504
 3479SOL    HW210742   0.849   7.512   0.597
 3480SOL     OW10743   4.200   6.020   0.232
 3480SOL    HW110744   4.116   5.997   0.191
 3480SOL    HW210745   4.226   6.102   0.190
 3481SOL     OW10746   0.100   6.768   0.673
 3481SOL    HW110747   0.165   6.730   0.614
 3481SOL    HW210748   0.030   6.797   0.615
 3482SOL     OW10749   2.213   2.454   5.113
 3482SOL    HW110750   2.156   2.524   5.081
 3482SOL    HW210751   2.220   2.394   5.039
 3483SOL     OW10752   4.988   5.758   1.639
 3483SOL    HW110753   5.017   5.778   1.550
 3483SOL    HW210754   4.919   5.692   1.628
 3484SOL     OW10755   3.006   5.819   3.753
 3484SOL    HW110756   2.984   5.882   3.822
 3484SOL    HW210757   3.056   5.751   3.798
 3485SOL     OW10758   5.765   5.409   5.166
 3485SOL    HW110759   5.850   5.449   5.147
 3485SOL    HW210760   5.732   5.458   5.242
 3486SOL     OW10761   4.286   2.757   3.682
 3486SOL    HW110762   4.246   2.838   3.651
 3486SOL    HW210763   4.335   2.782   3.760
 3487SOL     OW10764   4.508   2.993   0.861
 3487SOL    HW110765   4.532   2.916   0.809
 3487SOL    HW210766   4.510   2.963   0.952
 3488SOL     OW10767   5.652   7.928   1.597
 3488SOL    HW110768   5.720   7.872   1.560
 3488SOL    HW210769   5.624   7.883   1.677
 3489SOL     OW10770   6.373   2.604   2.526
 3489SOL    HW110771   6.375   2.508   2.532
 3489SOL    HW210772   6.447   2.633   2.580
 3490SOL     OW10773   6.391   2.294   5.277
 3490SOL    HW110774   6.425   2.332   5.196
 3490SOL    HW210775   6.357   2.208   5.251
 3491SOL     OW10776   7.223   0.889   3.028
 3491SOL    HW110777   7.277   0.967   3.017
 3491SOL    HW210778   7.236   0.838   2.948
 3492SOL     OW10779   6.088   6.878   1.196
 3492SOL    HW110780   6.019   6.819   1.225
 3492SOL    HW210781   6.169   6.839   1.230
 3493SOL     OW10782   7.483   4.194   0.296
 3493SOL    HW110783   7.439   4.260   0.242
 3493SOL    HW210784   7.570   4.231   0.312
 3494SOL     OW10785   5.685   4.173   1.847
 3494SOL    HW110786   5.656   4.126   1.769
 3494SOL    HW210787   5.776   4.197   1.829
 3495SOL     OW10788   5.139   3.807   2.909
 3495SOL    HW110789   5.156   3.844   2.822
 3495SOL    HW210790   5.053   3.841   2.933
 3496SOL     OW10791   0.458   4.326   3.807
 3496SOL    HW110792   0.552   4.343   3.800
 3496SOL    HW210793   0.417   4.390   3.749
 3497SOL     OW10794   4.831   0.306   4.213
 3497SOL    HW110795   4.904   0.258   4.252
 3497SOL    HW210796   4.772   0.324   4.286
 3498SOL     OW10797   6.969   6.865   1.602
 3498SOL    HW110798   7.041   6.837   1.658
 3498SOL    HW210799   7.012   6.896   1.522
 3499SOL     OW10800   6.150   6.068   4.752
 3499SOL    HW110801   6.167   6.020   4.671
 3499SOL    HW210802   6.203   6.024   4.818
 3500SOL     OW10803   1.475   5.340   2.510
 3500SOL    HW110804   1.440   5.297   2.588
 3500SOL    HW210805   1.522   5.416   2.544
 3501SOL     OW10806   4.990   0.707   5.186
 3501SOL    HW110807   4.990   0.725   5.280
 3501SOL    HW210808   4.901   0.727   5.158
 3502SOL     OW10809   2.533   6.231   0.543
 3502SOL    HW110810   2.549   6.285   0.620
 3502SOL    HW210811   2.512   6.294   0.474
 3503SOL     OW10812   3.449   7.788   3.083
 3503SOL    HW110813   3.395   7.761   3.009
 3503SOL    HW210814   3.386   7.819   3.148
 3504SOL     OW10815   2.592   1.808   2.613
 3504SOL    HW110816   2.546   1.829   2.694
 3504SOL    HW210817   2.681   1.786   2.641
 3505SOL     OW10818   7.920   1.487   1.123
 3505SOL    HW110819   7.998   1.543   1.119
 3505SOL    HW210820   7.925   1.446   1.209
 3506SOL     OW10821   3.556   4.046   0.002
 3506SOL    HW110822   7.689   8.125   5.734
 3506SOL    HW210823   3.516   3.973   0.050
 3507SOL     OW10824   3.191   0.023   2.078
 3507SOL    HW110825   3.104   0.056   2.102
 3507SOL    HW210826   3.183   0.000   1.985
 3508SOL     OW10827   4.549   1.327   0.695
 3508SOL    HW110828   4.552   1.367   0.782
 3508SOL    HW210829   4.501   1.245   0.707
 3509SOL     OW10830   7.897   7.525   4.263
 3509SOL    HW110831   7.826   7.472   4.228
 3509SOL    HW210832   7.930   7.475   4.337
 3510SOL     OW10833   2.830   4.535   4.747
 3510SOL    HW110834   2.775   4.462   4.776
 3510SOL    HW210835   2.781   4.613   4.772
 3511SOL     OW10836   7.544   7.994   1.568
 3511SOL    HW110837   7.488   7.918   1.585
 3511SOL    HW210838   7.494   8.069   1.600
 3512SOL     OW10839   6.584   6.622   2.775
 3512SOL    HW110840   6.583   6.539   2.727
 3512SOL    HW210841   6.514   6.613   2.840
 3513SOL     OW10842   4.720   4.603   3.874
 3513SOL    HW110843   4.790   4.614   3.938
 3513SOL    HW210844   4.657   4.672   3.894
 3514SOL     OW10845   2.255   4.518   2.882
 3514SOL    HW110846   2.296   4.594   2.923
 3514SOL    HW210847   2.161   4.538   2.883
 3515SOL     OW10848   6.701   5.121   2.997
 3515SOL    HW110849   6.694   5.031   3.029
 3515SOL    HW210850   6.759   5.165   3.060
 3516SOL     OW10851   2.074   4.337   0.572
 3516SOL    HW110852   2.108   4.408   0.627
 3516SOL    HW210853   2.142   4.270   0.575
 3517SOL     OW10854   5.447   0.473   1.571
 3517SOL    HW110855   5.492   0.554   1.594
 3517SOL    HW210856   5.515   0.417   1.533
 3518SOL     OW10857   7.242   6.813   1.706
 3518SOL    HW110858   7.229   6.885   1.767
 3518SOL    HW210859   7.304   6.848   1.641
 3519SOL     OW10860   3.356   5.336   3.083
 3519SOL    HW110861   3.383   5.279   3.011
 3519SOL    HW210862   3.286   5.390   3.047
 3520SOL     OW10863   4.519   1.807   5.462
 3520SOL    HW110864   4.520   1.798   5.557
 3520SOL    HW210865   4.609   1.831   5.439
 3521SOL     OW10866   1.998   5.958   0.140
 3521SOL    HW110867   1.979   6.052   0.145
 3521SOL    HW210868   2.067   5.944   0.204
 3522SOL     OW10869   2.000   7.469   2.171
 3522SOL    HW110870   1.944   7.403   2.130
 3522SOL    HW210871   2.032   7.522   2.098
 3523SOL     OW10872   7.371   1.720   1.287
 3523SOL    HW110873   7.406   1.795   1.239
 3523SOL    HW210874   7.277   1.736   1.291
 3524SOL     OW10875   7.101   1.679   0.837
 3524SOL    HW110876   7.193   1.704   0.846
 3524SOL    HW210877   7.095   1.641   0.749
 3525SOL     OW10878   1.954   3.183   5.157
 3525SOL    HW110879   1.903   3.261   5.180
 3525SOL    HW210880   2.015   3.213   5.090
 3526SOL     OW10881   6.722   2.102   2.822
 3526SOL    HW110882   6.768   2.050   2.756
 3526SOL    HW210883   6.785   2.111   2.893
 3527SOL     OW10884   4.312   5.465   0.776
 3527SOL    HW110885   4.291   5.514   0.697
 3527SOL    HW210886   4.227   5.444   0.814
 3528SOL     OW10887   5.071   7.959   2.095
 3528SOL    HW110888   5.155   7.986   2.133
 3528SOL    HW210889   5.090   7.944   2.002
 3529SOL     OW10890   4.414   5.188   2.833
 3529SOL    HW110891   4.404   5.277   2.866
 3529SOL    HW210892   4.420   5.134   2.912
 3530SOL     OW10893   5.641   2.702   2.564
 3530SOL    HW110894   5.621   2.608   2.562
 3530SOL    HW210895   5.732   2.708   2.535
 3531SOL     OW10896   7.771   1.191   3.451
 3531SOL    HW110897   7.779   1.103   3.488
 3531SOL    HW210898   7.710   1.236   3.510
 3532SOL     OW10899   6.567   4.017   1.012
 3532SOL    HW110900   6.617   4.091   0.977
 3532SOL    HW210901   6.486   4.017   0.961
 3533SOL     OW10902   2.452   3.232   3.674
 3533SOL    HW110903   2.491   3.191   3.751
 3533SOL    HW210904   2.368   3.187   3.663
 3534SOL     OW10905   5.498   6.644   1.326
 3534SOL    HW110906   5.513   6.738   1.335
 3534SOL    HW210907   5.554   6.618   1.252
 3535SOL     OW10908   4.174   6.942   5.432
 3535SOL    HW110909   4.196   6.854   5.463
 3535SOL    HW210910   4.079   6.940   5.421
 3536SOL     OW10911   3.227   1.644   4.252
 3536SOL    HW110912   3.156   1.640   4.316
 3536SOL    HW210913   3.194   1.701   4.182
 3537SOL     OW10914   1.516   6.732   1.853
 3537SOL    HW110915   1.446   6.670   1.833
 3537SOL    HW210916   1.540   6.713   1.944
 3538SOL     OW10917   1.765   5.059   1.450
 3538SOL    HW110918   1.846   5.036   1.404
 3538SOL    HW210919   1.791   5.129   1.510
 3539SOL     OW10920   7.567   1.348   3.590
 3539SOL    HW110921   7.509   1.424   3.591
 3539SOL    HW210922   7.607   1.346   3.677
 3540SOL     OW10923   3.373   3.121   2.751
 3540SOL    HW110924   3.296   3.067   2.732
 3540SOL    HW210925   3.345   3.210   2.730
 3541SOL     OW10926   1.038   4.126   2.574
 3541SOL    HW110927   1.100   4.069   2.619
 3541SOL    HW210928   1.062   4.215   2.601
 3542SOL     OW10929   3.976   6.959   2.686
 3542SOL    HW110930   3.890   6.919   2.699
 3542SOL    HW210931   3.972   6.999   2.599
 3543SOL     OW10932   3.385   7.282   4.168
 3543SOL    HW110933   3.391   7.327   4.252
 3543SOL    HW210934   3.299   7.241   4.169
 3544SOL     OW10935   1.151   5.004   3.531
 3544SOL    HW110936   1.137   5.094   3.502
 3544SOL    HW210937   1.241   4.984   3.505
 3545SOL     OW10938   4.359   2.916   4.193
 3545SOL    HW110939   4.341   2.987   4.254
 3545SOL    HW210940   4.334   2.836   4.240
 3546SOL     OW10941   2.919   2.823   2.710
 3546SOL    HW110942   2.916   2.766   2.787
 3546SOL    HW210943   2.861   2.781   2.646
 3547SOL     OW10944   6.302   5.791   1.898
 3547SOL    HW110945   6.328   5.862   1.840
 3547SOL    HW210946   6.254   5.731   1.842
 3548SOL     OW10947   2.525   3.279   2.791
 3548SOL    HW110948   2.439   3.320   2.783
 3548SOL    HW210949   2.564   3.290   2.705
 3549SOL     OW10950   3.978   2.101   0.478
 3549SOL    HW110951   3.944   2.050   0.404
 3549SOL    HW210952   3.979   2.191   0.446
 3550SOL     OW10953   2.853   3.661   0.005
 3550SOL    HW110954   2.766   3.625   0.023
 3550SOL    HW210955   6.994   7.735   5.741
 3551SOL     OW10956   4.526   0.895   4.302
 3551SOL    HW110957   4.505   0.911   4.210
 3551SOL    HW210958   4.618   0.867   4.301
 3552SOL     OW10959   1.236   1.990   4.148
 3552SOL    HW110960   1.169   1.931   4.114
 3552SOL    HW210961   1.316   1.937   4.149
 3553SOL     OW10962   6.454   1.995   3.949
 3553SOL    HW110963   6.472   2.006   3.856
 3553SOL    HW210964   6.359   1.984   3.955
 3554SOL     OW10965   8.131   6.392   3.027
 3554SOL    HW110966   8.046   6.397   3.070
 3554SOL    HW210967   8.111   6.368   2.937
 3555SOL     OW10968   2.914   4.458   3.627
 3555SOL    HW110969   2.841   4.505   3.586
 3555SOL    HW210970   2.879   4.428   3.711
 3556SOL     OW10971   2.882   6.122   3.267
 3556SOL    HW110972   2.864   6.043   3.319
 3556SOL    HW210973   2.975   6.138   3.280
 3557SOL     OW10974   6.706   7.901   5.587
 3557SOL    HW110975   6.760   7.828   5.557
 3557SOL    HW210976   6.655   7.865   5.660
 3558SOL     OW10977   4.687   7.268   5.766
 3558SOL    HW110978   0.619   3.198   0.017
 3558SOL    HW210979   4.599   7.254   5.801
 3559SOL     OW10980   4.928   0.690   4.422
 3559SOL    HW110981   4.955   0.637   4.497
 3559SOL    HW210982   4.881   0.764   4.461
 3560SOL     OW10983   6.988   7.669   3.304
 3560SOL    HW110984   6.995   7.669   3.399
 3560SOL    HW210985   7.044   7.597   3.275
 3561SOL     OW10986   1.772   3.500   0.401
 3561SOL    HW110987   1.769   3.475   0.493
 3561SOL    HW210988   1.791   3.419   0.355
 3562SOL     OW10989   2.067   7.585   0.473
 3562SOL    HW110990   2.151   7.543   0.453
 3562SOL    HW210991   2.014   7.515   0.511
 3563SOL     OW10992   5.958   0.969   3.380
 3563SOL    HW110993   5.905   0.898   3.417
 3563SOL    HW210994   5.909   0.998   3.303
 3564SOL     OW10995   2.344   1.832   1.795
 3564SOL    HW110996   2.410   1.885   1.751
 3564SOL    HW210997   2.379   1.817   1.883
 3565SOL     OW10998   0.791   1.170   3.590
 3565SOL    HW110999   0.746   1.225   3.654
 3565SOL    HW211000   0.834   1.232   3.532
 3566SOL     OW11001   4.065   6.472   3.122
 3566SOL    HW111002   4.067   6.564   3.097
 3566SOL    HW211003   4.127   6.466   3.195
 3567SOL     OW11004   4.084   3.885   0.591
 3567SOL    HW111005   3.998   3.843   0.599
 3567SOL    HW211006   4.124   3.876   0.677
 3568SOL     OW11007   5.879   2.621   3.837
 3568SOL    HW111008   5.818   2.687   3.870
 3568SOL    HW211009   5.855   2.611   3.745
 3569SOL     OW11010   6.191   0.811   4.985
 3569SOL    HW111011   6.283   0.832   5.001
 3569SOL    HW211012   6.193   0.736   4.925
 3570SOL     OW11013   5.507   5.869   2.445
 3570SOL    HW111014   5.445   5.799   2.462
 3570SOL    HW211015   5.473   5.944   2.494
 3571SOL     OW11016   7.278   7.213   5.542
 3571SOL    HW111017   7.193   7.241   5.507
 3571SOL    HW211018   7.320   7.168   5.469
 3572SOL     OW11019   1.676   2.736   0.855
 3572SOL    HW111020   1.605   2.772   0.803
 3572SOL    HW211021   1.753   2.743   0.799
 3573SOL     OW11022   7.624   1.337   1.259
 3573SOL    HW111023   7.603   1.376   1.174
 3573SOL    HW211024   7.551   1.278   1.277
 3574SOL     OW11025   8.017   2.582   5.772
 3574SOL    HW111026   8.022   2.642   5.698
 3574SOL    HW211027   8.053   2.500   5.739
 3575SOL     OW11028   1.053   5.461   0.242
 3575SOL    HW111029   1.144   5.433   0.255
 3575SOL    HW211030   1.001   5.385   0.267
 3576SOL     OW11031   3.870   5.977   1.773
 3576SOL    HW111032   3.813   6.001   1.700
 3576SOL    HW211033   3.882   5.883   1.764
 3577SOL     OW11034   0.710   5.478   5.598
 3577SOL    HW111035   0.629   5.527   5.607
 3577SOL    HW211036   0.771   5.539   5.556
 3578SOL     OW11037   6.181   5.395   4.907
 3578SOL    HW111038   6.121   5.467   4.927
 3578SOL    HW211039   6.249   5.402   4.974
 3579SOL     OW11040   0.646   7.145   4.637
 3579SOL    HW111041   0.561   7.131   4.678
 3579SOL    HW211042   0.692   7.062   4.647
 3580SOL     OW11043   4.275   1.325   2.871
 3580SOL    HW111044   4.340   1.383   2.911
 3580SOL    HW211045   4.286   1.242   2.917
 3581SOL     OW11046   0.153   6.148   1.966
 3581SOL    HW111047   0.099   6.219   2.000
 3581SOL    HW211048   0.159   6.165   1.872
 3582SOL     OW11049   0.599   1.106   4.951
 3582SOL    HW111050   0.620   1.075   4.863
 3582SOL    HW211051   0.684   1.121   4.993
 3583SOL     OW11052   1.298   3.324   1.180
 3583SOL    HW111053   1.314   3.416   1.202
 3583SOL    HW211054   1.361   3.275   1.233
 3584SOL     OW11055   7.634   4.377   4.145
 3584SOL    HW111056   7.700   4.380   4.215
 3584SOL    HW211057   7.596   4.289   4.153
 3585SOL     OW11058   5.732   7.391   3.809
 3585SOL    HW111059   5.824   7.388   3.783
 3585SOL    HW211060   5.726   7.464   3.870
 3586SOL     OW11061   7.118   3.093   2.001
 3586SOL    HW111062   7.164   3.171   2.031
 3586SOL    HW211063   7.187   3.030   1.982
 3587SOL     OW11064   1.179   7.938   2.852
 3587SOL    HW111065   1.268   7.952   2.819
 3587SOL    HW211066   1.191   7.911   2.943
 3588SOL     OW11067   3.461   4.704   2.587
 3588SOL    HW111068   3.485   4.622   2.630
 3588SOL    HW211069   3.532   4.719   2.524
 3589SOL     OW11070   7.078   5.866   0.392
 3589SOL    HW111071   7.067   5.961   0.383
 3589SOL    HW211072   7.065   5.832   0.303
 3590SOL     OW11073   1.172   1.159   4.084
 3590SOL    HW111074   1.106   1.229   4.082
 3590SOL    HW211075   1.253   1.203   4.109
 3591SOL     OW11076   2.993   7.919   5.798
 3591SOL    HW111077   2.975   7.826   5.785
 3591SOL    HW211078   3.087   7.928   5.784
 3592SOL     OW11079   7.708   4.164   4.566
 3592SOL    HW111080   7.639   4.108   4.531
 3592SOL    HW211081   7.787   4.111   4.561
 3593SOL     OW11082   3.158   5.174   5.075
 3593SOL    HW111083   3.237   5.163   5.128
 3593SOL    HW211084   3.153   5.268   5.058
 3594SOL     OW11085   5.239   0.699   0.506
 3594SOL    HW111086   5.164   0.756   0.490
 3594SOL    HW211087   5.249   0.649   0.425
 3595SOL     OW11088   6.150   3.260   2.722
 3595SOL    HW111089   6.201   3.230   2.647
 3595SOL    HW211090   6.062   3.274   2.687
 3596SOL     OW11091   6.442   5.012   1.667
 3596SOL    HW111092   6.350   4.990   1.654
 3596SOL    HW211093   6.456   5.091   1.615
 3597SOL     OW11094   2.408   6.529   3.074
 3597SOL    HW111095   2.483   6.476   3.101
 3597SOL    HW211096   2.374   6.485   2.996
 3598SOL     OW11097   7.867   8.015   1.077
 3598SOL    HW111098   7.792   8.000   1.135
 3598SOL    HW211099   7.937   7.961   1.114
 3599SOL     OW11100   6.727   2.278   4.886
 3599SOL    HW111101   6.815   2.315   4.886
 3599SOL    HW211102   6.740   2.185   4.907
 3600SOL     OW11103   4.717   5.920   0.018
 3600SOL    HW111104   0.647   1.869   5.781
 3600SOL    HW211105   4.787   5.863   0.050
 3601SOL     OW11106   4.623   0.892   0.434
 3601SOL    HW111107   4.578   0.831   0.375
 3601SOL    HW211108   4.632   0.972   0.382
 3602SOL     OW11109   6.316   1.490   5.187
 3602SOL    HW111110   6.317   1.510   5.094
 3602SOL    HW211111   6.285   1.399   5.191
 3603SOL     OW11112   1.766   6.427   2.764
 3603SOL    HW111113   1.704   6.391   2.701
 3603SOL    HW211114   1.788   6.353   2.821
 3604SOL     OW11115   5.162   3.662   3.492
 3604SOL    HW111116   5.070   3.647   3.516
 3604SOL    HW211117   5.158   3.700   3.404
 3605SOL     OW11118   5.994   7.034   2.240
 3605SOL    HW111119   5.954   7.013   2.156
 3605SOL    HW211120   6.088   7.041   2.221
 3606SOL     OW11121   5.796   1.884   1.556
 3606SOL    HW111122   5.804   1.891   1.651
 3606SOL    HW211123   5.750   1.964   1.529
 3607SOL     OW11124   3.392   2.241   4.673
 3607SOL    HW111125   3.377   2.258   4.766
 3607SOL    HW211126   3.335   2.304   4.628
 3608SOL     OW11127   3.988   6.696   3.386
 3608SOL    HW111128   4.028   6.765   3.333
 3608SOL    HW211129   3.949   6.742   3.460
 3609SOL     OW11130   5.147   5.488   1.408
 3609SOL    HW111131   5.145   5.467   1.501
 3609SOL    HW211132   5.128   5.582   1.404
 3610SOL     OW11133   7.593   3.262   0.978
 3610SOL    HW111134   7.584   3.287   1.070
 3610SOL    HW211135   7.564   3.339   0.929
 3611SOL     OW11136   1.105   5.263   2.771
 3611SOL    HW111137   1.091   5.168   2.775
 3611SOL    HW211138   1.030   5.300   2.818
 3612SOL     OW11139   3.897   3.370   3.221
 3612SOL    HW111140   3.844   3.336   3.293
 3612SOL    HW211141   3.981   3.391   3.261
 3613SOL     OW11142   5.589   1.033   3.861
 3613SOL    HW111143   5.535   0.955   3.852
 3613SOL    HW211144   5.679   1.001   3.857
 3614SOL     OW11145   1.637   7.422   3.861
 3614SOL    HW111146   1.647   7.469   3.778
 3614SOL    HW211147   1.695   7.468   3.922
 3615SOL     OW11148   2.158   6.017   2.125
 3615SOL    HW111149   2.147   6.050   2.036
 3615SOL    HW211150   2.225   5.949   2.117
 3616SOL     OW11151   2.946   3.577   4.351
 3616SOL    HW111152   2.960   3.634   4.275
 3616SOL    HW211153   2.933   3.638   4.424
 3617SOL     OW11154   1.562   0.573   1.037
 3617SOL    HW111155   1.596   0.484   1.030
 3617SOL    HW211156   1.553   0.603   0.947
 3618SOL     OW11157   7.855   2.191   4.612
 3618SOL    HW111158   7.940   2.223   4.642
 3618SOL    HW211159   7.794   2.220   4.680
 3619SOL     OW11160   3.610   5.669   1.869
 3619SOL    HW111161   3.515   5.656   1.874
 3619SOL    HW211162   3.620   5.748   1.816
 3620SOL     OW11163   6.114   6.051   1.111
 3620SOL    HW111164   6.123   6.089   1.024
 3620SOL    HW211165   6.020   6.039   1.123
 3621SOL     OW11166   3.173   3.502   3.829
 3621SOL    HW111167   3.080   3.514   3.847
 3621SOL    HW211168   3.176   3.470   3.739
 3622SOL     OW11169   7.041   7.062   0.135
 3622SOL    HW111170   7.008   7.020   0.214
 3622SOL    HW211171   7.020   7.155   0.146
 3623SOL     OW11172   1.618   2.683   4.292
 3623SOL    HW111173   1.628   2.590   4.272
 3623SOL    HW211174   1.588   2.722   4.210
 3624SOL     OW11175   0.438   5.027   2.592
 3624SOL    HW111176   0.523   5.051   2.555
 3624SOL    HW211177   0.377   5.090   2.554
 3625SOL     OW11178   8.058   0.557   4.408
 3625SOL    HW111179   8.050   0.584   4.500
 3625SOL    HW211180   8.112   0.478   4.411
 3626SOL     OW11181   0.576   0.692   3.698
 3626SOL    HW111182   0.576   0.616   3.756
 3626SOL    HW211183   0.628   0.665   3.622
 3627SOL     OW11184   6.676   7.758   0.949
 3627SOL    HW111185   6.707   7.757   0.858
 3627SOL    HW211186   6.752   7.732   1.001
 3628SOL     OW11187   6.472   2.633   0.720
 3628SOL    HW111188   6.453   2.698   0.788
 3628SOL    HW211189   6.482   2.551   0.768
 3629SOL     OW11190   4.129   0.402   3.745
 3629SOL    HW111191   4.213   0.447   3.742
 3629SOL    HW211192   4.074   0.449   3.682
 3630SOL     OW11193   0.181   4.957   3.505
 3630SOL    HW111194   0.110   4.970   3.568
 3630SOL    HW211195   0.175   4.864   3.482
 3631SOL     OW11196   6.311   7.289   3.860
 3631SOL    HW111197   6.329   7.370   3.813
 3631SOL    HW211198   6.216   7.287   3.868
 3632SOL     OW11199   1.273   6.639   0.936
 3632SOL    HW111200   1.248   6.628   1.028
 3632SOL    HW211201   1.318   6.723   0.933
 3633SOL     OW11202   3.599   4.626   5.177
 3633SOL    HW111203   3.515   4.668   5.159
 3633SOL    HW211204   3.664   4.685   5.140
 3634SOL     OW11205   3.510   5.215   2.226
 3634SOL    HW111206   3.433   5.269   2.241
 3634SOL    HW211207   3.492   5.169   2.144
 3635SOL     OW11208   6.654   2.805   3.583
 3635SOL    HW111209   6.691   2.734   3.531
 3635SOL    HW211210   6.642   2.877   3.521
 3636SOL     OW11211   3.949   4.100   5.601
 3636SOL    HW111212   4.027   4.052   5.573
 3636SOL    HW211213   3.981   4.187   5.624
 3637SOL     OW11214   6.444   2.544   2.974
 3637SOL    HW111215   6.395   2.496   3.041
 3637SOL    HW211216   6.448   2.484   2.900
 3638SOL     OW11217   4.810   0.363   3.617
 3638SOL    HW111218   4.839   0.454   3.612
 3638SOL    HW211219   4.820   0.340   3.709
 3639SOL     OW11220   3.335   5.073   0.642
 3639SOL    HW111221   3.240   5.070   0.649
 3639SOL    HW211222   3.358   4.993   0.595
 3640SOL     OW11223   1.110   0.702   3.323
 3640SOL    HW111224   1.095   0.781   3.271
 3640SOL    HW211225   1.052   0.636   3.284
 3641SOL     OW11226   0.907   6.783   5.043
 3641SOL    HW111227   1.003   6.779   5.040
 3641SOL    HW211228   0.888   6.850   5.109
 3642SOL     OW11229   3.974   1.089   4.722
 3642SOL    HW111230   3.901   1.035   4.751
 3642SOL    HW211231   3.955   1.107   4.630
 3643SOL     OW11232   2.407   7.579   5.121
 3643SOL    HW111233   2.493   7.610   5.150
 3643SOL    HW211234   2.389   7.629   5.041
 3644SOL     OW11235   3.320   4.345   3.705
 3644SOL    HW111236   3.411   4.327   3.728
 3644SOL    HW211237   3.285   4.394   3.779
 3645SOL     OW11238   6.227   7.370   1.032
 3645SOL    HW111239   6.308   7.345   1.076
 3645SOL    HW211240   6.168   7.296   1.046
 3646SOL     OW11241   6.957   5.062   5.627
 3646SOL    HW111242   6.995   5.063   5.539
 3646SOL    HW211243   6.902   5.140   5.630
 3647SOL     OW11244   4.837   7.503   4.365
 3647SOL    HW111245   4.796   7.563   4.427
 3647SOL    HW211246   4.894   7.448   4.419
 3648SOL     OW11247   0.209   5.288   3.836
 3648SOL    HW111248   0.133   5.345   3.822
 3648SOL    HW211249   0.178   5.221   3.896
 3649SOL     OW11250   0.651   4.447   2.667
 3649SOL    HW111251   0.664   4.415   2.756
 3649SOL    HW211252   0.560   4.475   2.664
 3650SOL     OW11253   2.080   6.960   1.370
 3650SOL    HW111254   2.111   7.023   1.435
 3650SOL    HW211255   2.018   6.905   1.418
 3651SOL     OW11256   5.523   3.757   1.695
 3651SOL    HW111257   5.554   3.666   1.698
 3651SOL    HW211258   5.440   3.753   1.648
 3652SOL     OW11259   7.622   3.569   1.090
 3652SOL    HW111260   7.649   3.509   1.159
 3652SOL    HW211261   7.533   3.542   1.068
 3653SOL     OW11262   6.450   3.124   3.948
 3653SOL    HW111263   6.397   3.109   4.026
 3653SOL    HW211264   6.406   3.075   3.879
 3654SOL     OW11265   1.102   1.447   1.059
 3654SOL    HW111266   1.168   1.428   0.992
 3654SOL    HW211267   1.019   1.424   1.018
 3655SOL     OW11268   5.652   5.435   1.244
 3655SOL    HW111269   5.648   5.425   1.149
 3655SOL    HW211270   5.560   5.439   1.271
 3656SOL     OW11271   0.980   7.492   1.244
 3656SOL    HW111272   1.003   7.579   1.212
 3656SOL    HW211273   0.999   7.496   1.338
 3657SOL     OW11274   7.185   1.365   0.068
 3657SOL    HW111275   7.212   1.307   0.139
 3657SOL    HW211276   7.095   1.390   0.090
 3658SOL     OW11277   2.147   2.677   5.720
 3658SOL    HW111278   2.153   2.721   5.805
 3658SOL    HW211279   2.136   2.748   5.657
 3659SOL     OW11280   3.434   5.431   5.197
 3659SOL    HW111281   3.494   5.448   5.269
 3659SOL    HW211282   3.428   5.336   5.192
 3660SOL     OW11283   1.073   3.687   2.577
 3660SOL    HW111284   1.109   3.601   2.554
 3660SOL    HW211285   1.025   3.714   2.499
 3661SOL     OW11286   2.706   1.102   2.315
 3661SOL    HW111287   2.702   1.085   2.221
 3661SOL    HW211288   2.636   1.048   2.352
 3662SOL     OW11289   6.520   2.351   4.657
 3662SOL    HW111290   6.501   2.445   4.650
 3662SOL    HW211291   6.541   2.338   4.749
 3663SOL     OW11292   3.806   0.396   1.257
 3663SOL    HW111293   3.788   0.470   1.314
 3663SOL    HW211294   3.899   0.377   1.272
 3664SOL     OW11295   4.768   7.535   2.553
 3664SOL    HW111296   4.704   7.589   2.599
 3664SOL    HW211297   4.851   7.581   2.564
 3665SOL     OW11298   6.712   5.844   5.550
 3665SOL    HW111299   6.701   5.812   5.639
 3665SOL    HW211300   6.778   5.913   5.557
 3666SOL     OW11301   2.592   0.783   4.431
 3666SOL    HW111302   2.594   0.827   4.516
 3666SOL    HW211303   2.500   0.785   4.405
 3667SOL     OW11304   1.525   5.120   0.406
 3667SOL    HW111305   1.611   5.078   0.410
 3667SOL    HW211306   1.543   5.210   0.381
 3668SOL     OW11307   4.513   0.749   0.157
 3668SOL    HW111308   4.459   0.827   0.170
 3668SOL    HW211309   4.453   0.685   0.119
 3669SOL     OW11310   5.638   6.523   1.106
 3669SOL    HW111311   5.705   6.455   1.115
 3669SOL    HW211312   5.555   6.475   1.100
 3670SOL     OW11313   5.881   2.721   2.388
 3670SOL    HW111314   5.850   2.811   2.401
 3670SOL    HW211315   5.976   2.727   2.396
 3671SOL     OW11316   6.011   7.658   2.102
 3671SOL    HW111317   5.935   7.713   2.118
 3671SOL    HW211318   6.010   7.643   2.007
 3672SOL     OW11319   2.961   0.857   2.482
 3672SOL    HW111320   2.878   0.871   2.437
 3672SOL    HW211321   3.021   0.828   2.413
 3673SOL     OW11322   1.029   7.200   4.716
 3673SOL    HW111323   0.975   7.139   4.766
 3673SOL    HW211324   0.988   7.285   4.729
 3674SOL     OW11325   4.495   2.429   1.686
 3674SOL    HW111326   4.527   2.351   1.642
 3674SOL    HW211327   4.504   2.499   1.621
 3675SOL     OW11328   1.420   6.061   2.114
 3675SOL    HW111329   1.438   5.967   2.111
 3675SOL    HW211330   1.359   6.072   2.187
 3676SOL     OW11331   6.841   1.177   0.845
 3676SOL    HW111332   6.749   1.178   0.870
 3676SOL    HW211333   6.846   1.116   0.771
 3677SOL     OW11334   2.389   2.278   2.894
 3677SOL    HW111335   2.320   2.213   2.886
 3677SOL    HW211336   2.468   2.233   2.863
 3678SOL     OW11337   1.416   6.986   3.116
 3678SOL    HW111338   1.367   7.065   3.138
 3678SOL    HW211339   1.359   6.914   3.143
 3679SOL     OW11340   0.269   5.650   1.088
 3679SOL    HW111341   0.364   5.663   1.087
 3679SOL    HW211342   0.234   5.736   1.110
 3680SOL     OW11343   6.265   4.687   2.366
 3680SOL    HW111344   6.280   4.770   2.321
 3680SOL    HW211345   6.353   4.655   2.386
 3681SOL     OW11346   2.257   1.281   3.433
 3681SOL    HW111347   2.161   1.282   3.437
 3681SOL    HW211348   2.278   1.292   3.340
 3682SOL     OW11349   7.985   6.468   1.500
 3682SOL    HW111350   7.895   6.439   1.484
 3682SOL    HW211351   7.983   6.507   1.587
 3683SOL     OW11352   2.595   4.213   2.800
 3683SOL    HW111353   2.606   4.119   2.787
 3683SOL    HW211354   2.508   4.221   2.840
 3684SOL     OW11355   1.639   0.763   2.025
 3684SOL    HW111356   1.624   0.675   2.060
 3684SOL    HW211357   1.566   0.777   1.965
 3685SOL     OW11358   2.293   5.025   2.938
 3685SOL    HW111359   2.244   5.088   2.884
 3685SOL    HW211360   2.305   4.949   2.881
 3686SOL     OW11361   3.050   1.836   0.745
 3686SOL    HW111362   3.012   1.784   0.674
 3686SOL    HW211363   3.041   1.927   0.716
 3687SOL     OW11364   6.037   3.159   4.638
 3687SOL    HW111365   6.071   3.249   4.635
 3687SOL    HW211366   6.060   3.128   4.726
 3688SOL     OW11367   3.160   2.074   4.301
 3688SOL    HW111368   3.170   2.168   4.288
 3688SOL    HW211369   3.125   2.042   4.218
 3689SOL     OW11370   7.631   6.391   0.398
 3689SOL    HW111371   7.550   6.414   0.444
 3689SOL    HW211372   7.616   6.417   0.307
 3690SOL     OW11373   2.693   7.439   4.496
 3690SOL    HW111374   2.627   7.432   4.565
 3690SOL    HW211375   2.653   7.395   4.421
 3691SOL     OW11376   0.530   6.529   4.058
 3691SOL    HW111377   0.482   6.527   3.975
 3691SOL    HW211378   0.518   6.442   4.095
 3692SOL     OW11379   1.067   6.828   1.478
 3692SOL    HW111380   1.127   6.805   1.407
 3692SOL    HW211381   1.108   6.793   1.557
 3693SOL     OW11382   4.041   8.091   1.729
 3693SOL    HW111383   4.014   8.166   1.676
 3693SOL    HW211384   3.961   8.041   1.742
 3694SOL     OW11385   0.857   4.069   1.399
 3694SOL    HW111386   0.788   4.097   1.460
 3694SOL    HW211387   0.849   3.974   1.396
 3695SOL     OW11388   1.754   4.590   0.354
 3695SOL    HW111389   1.842   4.620   0.378
 3695SOL    HW211390   1.696   4.638   0.413
 3696SOL     OW11391   2.327   4.125   0.242
 3696SOL    HW111392   2.346   4.035   0.269
 3696SOL    HW211393   2.387   4.179   0.293
 3697SOL     OW11394   6.366   2.503   3.745
 3697SOL    HW111395   6.300   2.434   3.746
 3697SOL    HW211396   6.440   2.466   3.793
 3698SOL     OW11397   0.535   2.860   5.103
 3698SOL    HW111398   0.464   2.838   5.163
 3698SOL    HW211399   0.615   2.844   5.154
 3699SOL     OW11400   0.989   0.636   2.429
 3699SOL    HW111401   1.075   0.594   2.425
 3699SOL    HW211402   0.999   0.705   2.495
 3700SOL     OW11403   7.760   7.092   1.038
 3700SOL    HW111404   7.670   7.096   1.071
 3700SOL    HW211405   7.808   7.042   1.104
 3701SOL     OW11406   4.945   3.773   2.029
 3701SOL    HW111407   4.996   3.726   2.095
 3701SOL    HW211408   5.010   3.798   1.963
 3702SOL     OW11409   1.161   2.658   0.171
 3702SOL    HW111410   1.245   2.619   0.148
 3702SOL    HW211411   1.101   2.628   0.102
 3703SOL     OW11412   8.137   2.323   1.502
 3703SOL    HW111413   8.174   2.384   1.566
 3703SOL    HW211414   8.161   2.236   1.535
 3704SOL     OW11415   4.781   1.580   4.885
 3704SOL    HW111416   4.733   1.505   4.919
 3704SOL    HW211417   4.819   1.548   4.803
 3705SOL     OW11418   7.441   7.012   3.070
 3705SOL    HW111419   7.397   6.974   2.994
 3705SOL    HW211420   7.455   7.104   3.046
 3706SOL     OW11421   1.152   0.116   3.617
 3706SOL    HW111422   1.229   0.059   3.609
 3706SOL    HW211423   1.185   0.204   3.600
 3707SOL     OW11424   1.110   4.340   1.163
 3707SOL    HW111425   1.112   4.390   1.244
 3707SOL    HW211426   1.050   4.389   1.106
 3708SOL     OW11427   7.346   5.429   0.955
 3708SOL    HW111428   7.406   5.443   1.029
 3708SOL    HW211429   7.278   5.495   0.966
 3709SOL     OW11430   3.829   7.392   0.577
 3709SOL    HW111431   3.798   7.441   0.653
 3709SOL    HW211432   3.879   7.456   0.527
 3710SOL     OW11433   5.203   1.773   2.981
 3710SOL    HW111434   5.123   1.741   2.940
 3710SOL    HW211435   5.178   1.790   3.072
 3711SOL     OW11436   0.054   3.348   5.001
 3711SOL    HW111437   0.119   3.301   4.950
 3711SOL    HW211438   0.063   3.313   5.090
 3712SOL     OW11439   1.019   0.240   3.825
 3712SOL    HW111440   1.069   0.321   3.818
 3712SOL    HW211441   1.078   0.173   3.790
 3713SOL     OW11442   4.300   4.581   4.642
 3713SOL    HW111443   4.269   4.659   4.688
 3713SOL    HW211444   4.395   4.583   4.653
 3714SOL     OW11445   5.848   1.715   1.809
 3714SOL    HW111446   5.828   1.711   1.902
 3714SOL    HW211447   5.915   1.783   1.802
 3715SOL     OW11448   3.274   2.079   5.265
 3715SOL    HW111449   3.353   2.031   5.291
 3715SOL    HW211450   3.254   2.047   5.177
 3716SOL     OW11451   6.768   3.255   3.488
 3716SOL    HW111452   6.721   3.185   3.444
 3716SOL    HW211453   6.858   3.246   3.458
 3717SOL     OW11454   7.086   5.533   0.569
 3717SOL    HW111455   7.131   5.456   0.604
 3717SOL    HW211456   7.125   5.607   0.616
 3718SOL     OW11457   6.672   3.848   2.683
 3718SOL    HW111458   6.726   3.770   2.697
 3718SOL    HW211459   6.726   3.921   2.715
 3719SOL     OW11460   6.008   3.613   4.539
 3719SOL    HW111461   6.010   3.567   4.455
 3719SOL    HW211462   6.044   3.700   4.520
 3720SOL     OW11463   0.287   4.090   3.371
 3720SOL    HW111464   0.244   4.153   3.313
 3720SOL    HW211465   0.364   4.136   3.403
 3721SOL     OW11466   1.646   7.068   5.453
 3721SOL    HW111467   1.654   7.070   5.358
 3721SOL    HW211468   1.736   7.069   5.485
 3722SOL     OW11469   3.664   5.586   3.520
 3722SOL    HW111470   3.747   5.607   3.477
 3722SOL    HW211471   3.627   5.514   3.468
 3723SOL     OW11472   4.542   7.380   0.130
 3723SOL    HW111473   4.507   7.300   0.091
 3723SOL    HW211474   4.502   7.384   0.217
 3724SOL     OW11475   4.092   2.178   0.194
 3724SOL    HW111476   4.161   2.190   0.129
 3724SOL    HW211477   4.069   2.085   0.187
 3725SOL     OW11478   8.145   1.400   2.678
 3725SOL    HW111479   8.154   1.346   2.599
 3725SOL    HW211480   8.124   1.338   2.747
 3726SOL     OW11481   7.348   6.240   5.123
 3726SOL    HW111482   7.262   6.265   5.156
 3726SOL    HW211483   7.344   6.145   5.113
 3727SOL     OW11484   3.594   3.634   5.120
 3727SOL    HW111485   3.571   3.724   5.098
 3727SOL    HW211486   3.537   3.580   5.064
 3728SOL     OW11487   0.927   0.557   3.098
 3728SOL    HW111488   1.013   0.589   3.070
 3728SOL    HW211489   0.911   0.481   3.042
 3729SOL     OW11490   7.224   5.685   1.693
 3729SOL    HW111491   7.212   5.683   1.598
 3729SOL    HW211492   7.308   5.642   1.708
 3730SOL     OW11493   3.256   5.707   4.123
 3730SOL    HW111494   3.213   5.665   4.198
 3730SOL    HW211495   3.338   5.659   4.112
 3731SOL     OW11496   7.660   1.396   1.516
 3731SOL    HW111497   7.694   1.340   1.446
 3731SOL    HW211498   7.625   1.335   1.581
 3732SOL     OW11499   4.148   0.160   0.538
 3732SOL    HW111500   4.081   0.214   0.579
 3732SOL    HW211501   4.231   0.203   0.561
 3733SOL     OW11502   4.514   7.907   3.070
 3733SOL    HW111503   4.538   7.827   3.117
 3733SOL    HW211504   4.590   7.964   3.080
 3734SOL     OW11505   1.146   6.251   3.072
 3734SOL    HW111506   1.096   6.316   3.121
 3734SOL    HW211507   1.210   6.218   3.135
 3735SOL     OW11508   3.838   2.166   3.821
 3735SOL    HW111509   3.902   2.104   3.784
 3735SOL    HW211510   3.867   2.180   3.911
 3736SOL     OW11511   5.962   5.102   5.801
 3736SOL    HW111512   1.903   0.954   0.053
 3736SOL    HW211513   1.782   1.042   0.026
 3737SOL     OW11514   1.927   0.855   4.437
 3737SOL    HW111515   1.939   0.829   4.346
 3737SOL    HW211516   2.016   0.857   4.473
 3738SOL     OW11517   8.147   2.825   3.699
 3738SOL    HW111518   8.115   2.792   3.615
 3738SOL    HW211519   0.012   2.810   3.697
 3739SOL     OW11520   7.747   6.160   3.808
 3739SOL    HW111521   7.733   6.168   3.902
 3739SOL    HW211522   7.799   6.081   3.798
 3740SOL     OW11523   2.783   7.558   2.821
 3740SOL    HW111524   2.832   7.615   2.762
 3740SOL    HW211525   2.806   7.589   2.909
 3741SOL     OW11526   2.638   8.076   3.817
 3741SOL    HW111527   2.652   7.983   3.800
 3741SOL    HW211528   2.678   8.120   3.742
 3742SOL     OW11529   6.973   2.753   1.142
 3742SOL    HW111530   7.053   2.700   1.139
 3742SOL    HW211531   6.944   2.747   1.233
 3743SOL     OW11532   5.189   5.611   4.578
 3743SOL    HW111533   5.235   5.541   4.533
 3743SOL    HW211534   5.252   5.683   4.581
 3744SOL     OW11535   0.106   0.363   5.576
 3744SOL    HW111536   0.110   0.439   5.634
 3744SOL    HW211537   0.190   0.363   5.530
 3745SOL     OW11538   5.384   7.278   3.908
 3745SOL    HW111539   5.363   7.273   4.001
 3745SOL    HW211540   5.301   7.264   3.863
 3746SOL     OW11541   6.847   5.100   1.292
 3746SOL    HW111542   6.891   5.057   1.365
 3746SOL    HW211543   6.914   5.155   1.253
 3747SOL     OW11544   3.048   7.021   3.206
 3747SOL    HW111545   3.115   7.059   3.263
 3747SOL    HW211546   3.096   6.996   3.127
 3748SOL     OW11547   1.715   4.793   1.361
 3748SOL    HW111548   1.753   4.746   1.435
 3748SOL    HW211549   1.722   4.885   1.386
 3749SOL     OW11550   0.021   3.063   1.340
 3749SOL    HW111551   0.074   3.069   1.420
 3749SOL    HW211552   8.182   3.130   1.352
 3750SOL     OW11553   2.616   2.942   2.316
 3750SOL    HW111554   2.641   2.946   2.408
 3750SOL    HW211555   2.630   3.031   2.284
 3751SOL     OW11556   3.618   2.426   4.880
 3751SOL    HW111557   3.533   2.463   4.856
 3751SOL    HW211558   3.599   2.337   4.908
 3752SOL     OW11559   2.260   6.530   4.376
 3752SOL    HW111560   2.289   6.564   4.461
 3752SOL    HW211561   2.240   6.438   4.392
 3753SOL     OW11562   4.706   5.517   4.385
 3753SOL    HW111563   4.796   5.525   4.415
 3753SOL    HW211564   4.701   5.575   4.309
 3754SOL     OW11565   6.141   4.052   2.096
 3754SOL    HW111566   6.169   4.132   2.051
 3754SOL    HW211567   6.174   3.981   2.042
 3755SOL     OW11568   3.357   0.789   4.741
 3755SOL    HW111569   3.291   0.720   4.746
 3755SOL    HW211570   3.434   0.745   4.705
 3756SOL     OW11571   0.038   1.862   5.762
 3756SOL    HW111572   8.221   1.946   5.758
 3756SOL    HW211573   0.131   1.885   5.761
 3757SOL     OW11574   3.249   3.133   0.097
 3757SOL    HW111575   3.313   3.065   0.079
 3757SOL    HW211576   3.164   3.088   0.093
 3758SOL     OW11577   1.115   6.972   0.767
 3758SOL    HW111578   1.024   6.992   0.748
 3758SOL    HW211579   1.129   7.007   0.855
 3759SOL     OW11580   4.378   4.459   4.003
 3759SOL    HW111581   4.296   4.450   4.051
 3759SOL    HW211582   4.359   4.521   3.932
 3760SOL     OW11583   4.348   1.121   4.218
 3760SOL    HW111584   4.426   1.075   4.188
 3760SOL    HW211585   4.289   1.052   4.248
 3761SOL     OW11586   6.923   1.133   3.970
 3761SOL    HW111587   6.871   1.078   4.029
 3761SOL    HW211588   7.011   1.097   3.975
 3762SOL     OW11589   1.527   3.849   3.386
 3762SOL    HW111590   1.494   3.936   3.363
 3762SOL    HW211591   1.617   3.849   3.353
 3763SOL     OW11592   3.357   5.860   3.688
 3763SOL    HW111593   3.374   5.775   3.647
 3763SOL    HW211594   3.267   5.881   3.663
 3764SOL     OW11595   2.587   4.935   3.264
 3764SOL    HW111596   2.549   4.991   3.332
 3764SOL    HW211597   2.561   4.846   3.290
 3765SOL     OW11598   6.114   6.610   0.588
 3765SOL    HW111599   6.178   6.539   0.598
 3765SOL    HW211600   6.117   6.633   0.495
 3766SOL     OW11601   3.536   5.190   0.071
 3766SOL    HW111602   3.541   5.285   0.078
 3766SOL    HW211603   3.506   5.161   0.157
 3767SOL     OW11604   3.080   0.685   4.776
 3767SOL    HW111605   3.038   0.738   4.844
 3767SOL    HW211606   3.013   0.673   4.709
 3768SOL     OW11607   0.372   2.794   2.039
 3768SOL    HW111608   0.389   2.802   2.133
 3768SOL    HW211609   0.281   2.764   2.034
 3769SOL     OW11610   7.643   1.804   2.604
 3769SOL    HW111611   7.707   1.749   2.559
 3769SOL    HW211612   7.662   1.893   2.573
 3770SOL     OW11613   5.054   0.972   4.159
 3770SOL    HW111614   5.087   0.984   4.248
 3770SOL    HW211615   5.109   0.903   4.122
 3771SOL     OW11616   2.444   2.855   0.348
 3771SOL    HW111617   2.503   2.813   0.411
 3771SOL    HW211618   2.356   2.834   0.381
 3772SOL     OW11619   6.490   4.534   1.816
 3772SOL    HW111620   6.486   4.514   1.723
 3772SOL    HW211621   6.500   4.449   1.859
 3773SOL     OW11622   1.625   2.491   0.538
 3773SOL    HW111623   1.611   2.428   0.467
 3773SOL    HW211624   1.543   2.489   0.588
 3774SOL     OW11625   5.322   5.601   0.277
 3774SOL    HW111626   5.259   5.670   0.296
 3774SOL    HW211627   5.398   5.622   0.330
 3775SOL     OW11628   3.903   0.809   2.594
 3775SOL    HW111629   3.843   0.869   2.550
 3775SOL    HW211630   3.990   0.842   2.571
 3776SOL     OW11631   7.428   4.476   0.208
 3776SOL    HW111632   7.404   4.483   0.115
 3776SOL    HW211633   7.523   4.470   0.208
 3777SOL     OW11634   5.666   7.491   2.155
 3777SOL    HW111635   5.687   7.405   2.192
 3777SOL    HW211636   5.673   7.478   2.060
 3778SOL     OW11637   5.536   1.124   3.010
 3778SOL    HW111638   5.575   1.054   2.957
 3778SOL    HW211639   5.556   1.205   2.962
 3779SOL     OW11640   3.855   1.996   1.996
 3779SOL    HW111641   3.930   1.948   1.960
 3779SOL    HW211642   3.826   2.052   1.924
 3780SOL     OW11643   3.218   1.052   4.660
 3780SOL    HW111644   3.270   0.993   4.714
 3780SOL    HW211645   3.230   1.019   4.571
 3781SOL     OW11646   2.857   6.632   4.484
 3781SOL    HW111647   2.779   6.606   4.436
 3781SOL    HW211648   2.845   6.595   4.572
 3782SOL     OW11649   7.760   3.805   2.583
 3782SOL    HW111650   7.722   3.740   2.524
 3782SOL    HW211651   7.750   3.888   2.536
 3783SOL     OW11652   1.051   0.699   4.625
 3783SOL    HW111653   1.131   0.734   4.585
 3783SOL    HW211654   1.040   0.612   4.586
 3784SOL     OW11655   6.738   2.872   3.086
 3784SOL    HW111656   6.812   2.848   3.030
 3784SOL    HW211657   6.760   2.959   3.119
 3785SOL     OW11658   7.042   4.357   4.206
 3785SOL    HW111659   6.970   4.316   4.159
 3785SOL    HW211660   7.045   4.447   4.174
 3786SOL     OW11661   6.211   3.712   4.200
 3786SOL    HW111662   6.179   3.629   4.235
 3786SOL    HW211663   6.257   3.752   4.274
 3787SOL     OW11664   4.359   1.743   3.916
 3787SOL    HW111665   4.305   1.812   3.954
 3787SOL    HW211666   4.411   1.787   3.849
 3788SOL     OW11667   5.548   5.220   5.808
 3788SOL    HW111668   5.598   5.155   5.759
 3788SOL    HW211669   1.499   1.156   0.036
 3789SOL     OW11670   5.934   6.824   2.974
 3789SOL    HW111671   5.976   6.888   2.917
 3789SOL    HW211672   5.881   6.876   3.035
 3790SOL     OW11673   5.273   1.345   4.118
 3790SOL    HW111674   5.213   1.283   4.077
 3790SOL    HW211675   5.264   1.425   4.067
 3791SOL     OW11676   6.042   5.547   0.640
 3791SOL    HW111677   6.076   5.460   0.660
 3791SOL    HW211678   5.952   5.531   0.610
 3792SOL     OW11679   3.012   4.275   3.435
 3792SOL    HW111680   2.931   4.300   3.391
 3792SOL    HW211681   2.992   4.283   3.528
 3793SOL     OW11682   4.006   1.005   0.636
 3793SOL    HW111683   4.025   1.008   0.542
 3793SOL    HW211684   4.052   0.927   0.667
 3794SOL     OW11685   3.706   5.073   4.624
 3794SOL    HW111686   3.667   5.160   4.630
 3794SOL    HW211687   3.647   5.017   4.673
 3795SOL     OW11688   0.296   1.824   5.109
 3795SOL    HW111689   0.364   1.781   5.057
 3795SOL    HW211690   0.225   1.759   5.114
 3796SOL     OW11691   3.560   8.179   4.060
 3796SOL    HW111692   3.507   0.021   4.096
 3796SOL    HW211693   3.563   8.114   4.130
 3797SOL     OW11694   2.652   5.636   2.727
 3797SOL    HW111695   2.747   5.622   2.733
 3797SOL    HW211696   2.625   5.588   2.649
 3798SOL     OW11697   8.089   4.816   5.598
 3798SOL    HW111698   8.088   4.720   5.598
 3798SOL    HW211699   8.006   4.840   5.639
 3799SOL     OW11700   3.587   3.437   4.339
 3799SOL    HW111701   3.561   3.515   4.290
 3799SOL    HW211702   3.626   3.471   4.419
 3800SOL     OW11703   6.313   7.644   1.771
 3800SOL    HW111704   6.259   7.570   1.743
 3800SOL    HW211705   6.266   7.721   1.740
 3801SOL     OW11706   3.088   2.959   0.504
 3801SOL    HW111707   3.137   2.887   0.544
 3801SOL    HW211708   3.140   3.037   0.524
 3802SOL     OW11709   6.359   2.787   5.210
 3802SOL    HW111710   6.408   2.740   5.142
 3802SOL    HW211711   6.420   2.794   5.283
 3803SOL     OW11712   5.653   7.322   4.215
 3803SOL    HW111713   5.606   7.242   4.194
 3803SOL    HW211714   5.600   7.392   4.176
 3804SOL     OW11715   5.600   4.590   3.726
 3804SOL    HW111716   5.536   4.593   3.797
 3804SOL    HW211717   5.548   4.596   3.646
 3805SOL     OW11718   0.590   6.194   4.487
 3805SOL    HW111719   0.653   6.172   4.556
 3805SOL    HW211720   0.520   6.130   4.497
 3806SOL     OW11721   4.331   7.857   1.166
 3806SOL    HW111722   4.252   7.818   1.129
 3806SOL    HW211723   4.399   7.791   1.151
 3807SOL     OW11724   2.198   5.712   0.523
 3807SOL    HW111725   2.244   5.766   0.587
 3807SOL    HW211726   2.230   5.742   0.438
 3808SOL     OW11727   5.481   3.379   1.237
 3808SOL    HW111728   5.422   3.304   1.234
 3808SOL    HW211729   5.510   3.390   1.146
 3809SOL     OW11730   3.894   0.747   3.483
 3809SOL    HW111731   3.809   0.755   3.526
 3809SOL    HW211732   3.913   0.835   3.451
 3810SOL     OW11733   4.956   3.271   4.347
 3810SOL    HW111734   4.987   3.271   4.257
 3810SOL    HW211735   4.979   3.358   4.381
 3811SOL     OW11736   6.857   6.000   1.769
 3811SOL    HW111737   6.851   6.092   1.796
 3811SOL    HW211738   6.868   5.952   1.851
 3812SOL     OW11739   6.342   4.045   0.847
 3812SOL    HW111740   6.372   4.118   0.793
 3812SOL    HW211741   6.296   3.988   0.786
 3813SOL     OW11742   4.611   1.759   5.131
 3813SOL    HW111743   4.688   1.705   5.114
 3813SOL    HW211744   4.642   1.829   5.188
 3814SOL     OW11745   4.550   4.513   0.474
 3814SOL    HW111746   4.456   4.528   0.483
 3814SOL    HW211747   4.558   4.419   0.459
 3815SOL     OW11748   4.890   3.760   0.011
 3815SOL    HW111749   4.874   3.789   0.101
 3815SOL    HW211750   0.859   7.914   5.806
 3816SOL     OW11751   2.389   0.324   2.906
 3816SOL    HW111752   2.462   0.384   2.922
 3816SOL    HW211753   2.311   0.375   2.926
 3817SOL     OW11754   8.076   8.148   3.958
 3817SOL    HW111755   8.100   0.003   3.996
 3817SOL    HW211756   8.076   8.088   4.032
 3818SOL     OW11757   5.561   7.702   1.429
 3818SOL    HW111758   5.504   7.697   1.506
 3818SOL    HW211759   5.649   7.690   1.464
 3819SOL     OW11760   3.667   2.298   2.529
 3819SOL    HW111761   3.709   2.340   2.454
 3819SOL    HW211762   3.651   2.208   2.501
 3820SOL     OW11763   2.037   1.586   4.155
 3820SOL    HW111764   2.093   1.650   4.200
 3820SOL    HW211765   1.956   1.585   4.207
 3821SOL     OW11766   7.259   2.948   5.397
 3821SOL    HW111767   7.233   2.898   5.474
 3821SOL    HW211768   7.189   2.932   5.334
 3822SOL     OW11769   2.047   1.190   0.004
 3822SOL    HW111770   6.115   5.379   5.786
 3822SOL    HW211771   6.104   5.230   5.808
 3823SOL     OW11772   1.229   5.906   5.372
 3823SOL    HW111773   1.238   5.937   5.462
 3823SOL    HW211774   1.187   5.978   5.326
 3824SOL     OW11775   2.168   7.525   1.686
 3824SOL    HW111776   2.159   7.607   1.638
 3824SOL    HW211777   2.218   7.468   1.627
 3825SOL     OW11778   7.760   0.316   3.913
 3825SOL    HW111779   7.674   0.274   3.907
 3825SOL    HW211780   7.822   0.248   3.885
 3826SOL     OW11781   0.586   1.889   3.825
 3826SOL    HW111782   0.497   1.863   3.801
 3826SOL    HW211783   0.622   1.929   3.746
 3827SOL     OW11784   2.063   7.620   1.174
 3827SOL    HW111785   2.032   7.599   1.086
 3827SOL    HW211786   2.119   7.697   1.162
 3828SOL     OW11787   5.320   2.853   2.742
 3828SOL    HW111788   5.250   2.906   2.779
 3828SOL    HW211789   5.394   2.913   2.733
 3829SOL     OW11790   8.223   7.619   4.658
 3829SOL    HW111791   0.020   7.545   4.603
 3829SOL    HW211792   8.127   7.615   4.660
 3830SOL     OW11793   5.612   1.801   3.278
 3830SOL    HW111794   5.560   1.834   3.205
 3830SOL    HW211795   5.616   1.874   3.340
 3831SOL     OW11796   6.567   5.191   1.468
 3831SOL    HW111797   6.539   5.223   1.382
 3831SOL    HW211798   6.650   5.146   1.452
 3832SOL     OW11799   4.509   5.172   1.652
 3832SOL    HW111800   4.415   5.187   1.654
 3832SOL    HW211801   4.527   5.122   1.732
 3833SOL     OW11802   4.342   4.937   4.106
 3833SOL    HW111803   4.404   5.006   4.083
 3833SOL    HW211804   4.373   4.903   4.190
 3834SOL     OW11805   5.210   3.464   4.240
 3834SOL    HW111806   5.290   3.490   4.195
 3834SOL    HW211807   5.140   3.505   4.190
 3835SOL     OW11808   4.794   3.012   5.134
 3835SOL    HW111809   4.791   2.991   5.041
 3835SOL    HW211810   4.884   3.042   5.149
 3836SOL     OW11811   0.796   6.006   0.873
 3836SOL    HW111812   0.757   6.027   0.788
 3836SOL    HW211813   0.804   6.091   0.917
 3837SOL     OW11814   0.758   2.386   5.349
 3837SOL    HW111815   0.828   2.401   5.286
 3837SOL    HW211816   0.743   2.472   5.389
 3838SOL     OW11817   7.353   1.344   3.008
 3838SOL    HW111818   7.293   1.411   3.041
 3838SOL    HW211819   7.405   1.389   2.941
 3839SOL     OW11820   1.169   6.650   1.750
 3839SOL    HW111821   1.093   6.707   1.762
 3839SOL    HW211822   1.184   6.612   1.836
 3840SOL     OW11823   3.709   1.511   5.179
 3840SOL    HW111824   3.731   1.455   5.105
 3840SOL    HW211825   3.776   1.579   5.178
 3841SOL     OW11826   6.655   3.832   5.563
 3841SOL    HW111827   6.735   3.871   5.598
 3841SOL    HW211828   6.686   3.762   5.505
 3842SOL     OW11829   7.938   5.908   1.970
 3842SOL    HW111830   7.962   5.819   1.996
 3842SOL    HW211831   7.920   5.953   2.053
 3843SOL     OW11832   6.491   1.187   1.435
 3843SOL    HW111833   6.556   1.137   1.385
 3843SOL    HW211834   6.538   1.218   1.512
 3844SOL     OW11835   4.875   5.356   1.293
 3844SOL    HW111836   4.951   5.381   1.241
 3844SOL    HW211837   4.843   5.275   1.253
 3845SOL     OW11838   2.741   3.604   0.957
 3845SOL    HW111839   2.682   3.679   0.951
 3845SOL    HW211840   2.779   3.597   0.869
 3846SOL     OW11841   5.344   2.787   5.296
 3846SOL    HW111842   5.352   2.723   5.225
 3846SOL    HW211843   5.271   2.843   5.270
 3847SOL     OW11844   5.575   6.476   5.545
 3847SOL    HW111845   5.547   6.384   5.548
 3847SOL    HW211846   5.500   6.523   5.510
 3848SOL     OW11847   7.454   4.500   0.871
 3848SOL    HW111848   7.514   4.566   0.837
 3848SOL    HW211849   7.479   4.489   0.963
 3849SOL     OW11850   2.970   1.192   5.374
 3849SOL    HW111851   2.874   1.195   5.368
 3849SOL    HW211852   3.000   1.248   5.303
 3850SOL     OW11853   0.824   0.971   0.052
 3850SOL    HW111854   4.918   5.091   5.778
 3850SOL    HW211855   0.763   0.905   0.087
 3851SOL     OW11856   0.804   6.442   2.715
 3851SOL    HW111857   0.862   6.366   2.713
 3851SOL    HW211858   0.836   6.495   2.788
 3852SOL     OW11859   1.797   3.892   1.952
 3852SOL    HW111860   1.865   3.864   2.013
 3852SOL    HW211861   1.842   3.951   1.892
 3853SOL     OW11862   2.017   4.708   1.109
 3853SOL    HW111863   2.104   4.688   1.074
 3853SOL    HW211864   1.957   4.687   1.037
 3854SOL     OW11865   4.298   6.359   4.299
 3854SOL    HW111866   4.380   6.324   4.264
 3854SOL    HW211867   4.303   6.341   4.393
 3855SOL     OW11868   5.255   0.909   0.734
 3855SOL    HW111869   5.255   0.823   0.691
 3855SOL    HW211870   5.286   0.891   0.823
 3856SOL     OW11871   5.388   0.557   3.956
 3856SOL    HW111872   5.303   0.523   3.983
 3856SOL    HW211873   5.369   0.615   3.882
 3857SOL     OW11874   6.483   7.357   1.121
 3857SOL    HW111875   6.551   7.304   1.079
 3857SOL    HW211876   6.460   7.308   1.200
 3858SOL     OW11877   3.296   7.979   4.657
 3858SOL    HW111878   3.335   8.039   4.721
 3858SOL    HW211879   3.265   7.905   4.710
 3859SOL     OW11880   0.701   7.320   3.636
 3859SOL    HW111881   0.778   7.360   3.676
 3859SOL    HW211882   0.730   7.292   3.549
 3860SOL     OW11883   0.681   1.825   0.572
 3860SOL    HW111884   0.651   1.784   0.653
 3860SOL    HW211885   0.633   1.779   0.503
 3861SOL     OW11886   4.706   6.394   5.170
 3861SOL    HW111887   4.713   6.489   5.179
 3861SOL    HW211888   4.700   6.361   5.260
 3862SOL     OW11889   2.531   4.334   3.594
 3862SOL    HW111890   2.507   4.251   3.553
 3862SOL    HW211891   2.594   4.310   3.661
 3863SOL     OW11892   4.465   1.618   4.970
 3863SOL    HW111893   4.513   1.669   5.035
 3863SOL    HW211894   4.525   1.613   4.895
 3864SOL     OW11895   2.228   1.464   1.731
 3864SOL    HW111896   2.215   1.480   1.824
 3864SOL    HW211897   2.155   1.407   1.706
 3865SOL     OW11898   6.319   7.090   4.061
 3865SOL    HW111899   6.242   7.083   4.118
 3865SOL    HW211900   6.302   7.167   4.007
 3866SOL     OW11901   1.948   3.502   2.843
 3866SOL    HW111902   1.935   3.596   2.831
 3866SOL    HW211903   2.037   3.494   2.878
 3867SOL     OW11904   7.651   6.098   4.719
 3867SOL    HW111905   7.720   6.147   4.764
 3867SOL    HW211906   7.573   6.153   4.728
 3868SOL     OW11907   7.626   6.298   4.290
 3868SOL    HW111908   7.546   6.258   4.255
 3868SOL    HW211909   7.670   6.227   4.336
 3869SOL     OW11910   0.788   7.397   2.082
 3869SOL    HW111911   0.779   7.491   2.065
 3869SOL    HW211912   0.874   7.374   2.047
 3870SOL     OW11913   5.833   0.601   1.830
 3870SOL    HW111914   5.823   0.688   1.868
 3870SOL    HW211915   5.751   0.586   1.783
 3871SOL     OW11916   5.598   0.433   0.268
 3871SOL    HW111917   5.654   0.486   0.211
 3871SOL    HW211918   5.619   0.343   0.245
 3872SOL     OW11919   1.935   6.326   4.717
 3872SOL    HW111920   1.853   6.374   4.705
 3872SOL    HW211921   1.929   6.254   4.654
 3873SOL     OW11922   6.637   2.946   0.845
 3873SOL    HW111923   6.597   2.878   0.899
 3873SOL    HW211924   6.680   3.004   0.907
 3874SOL     OW11925   6.982   7.640   3.563
 3874SOL    HW111926   7.056   7.584   3.586
 3874SOL    HW211927   6.905   7.586   3.578
 3875SOL     OW11928   3.490   0.327   1.784
 3875SOL    HW111929   3.404   0.349   1.748
 3875SOL    HW211930   3.550   0.338   1.710
 3876SOL     OW11931   1.538   2.024   3.337
 3876SOL    HW111932   1.562   2.088   3.270
 3876SOL    HW211933   1.546   1.939   3.293
 3877SOL     OW11934   1.494   1.075   1.223
 3877SOL    HW111935   1.464   0.985   1.211
 3877SOL    HW211936   1.588   1.071   1.208
 3878SOL     OW11937   4.338   6.963   1.280
 3878SOL    HW111938   4.259   6.933   1.234
 3878SOL    HW211939   4.380   7.023   1.219
 3879SOL     OW11940   2.538   5.142   2.825
 3879SOL    HW111941   2.494   5.198   2.889
 3879SOL    HW211942   2.597   5.201   2.778
 3880SOL     OW11943   4.835   4.306   3.459
 3880SOL    HW111944   4.762   4.349   3.503
 3880SOL    HW211945   4.797   4.226   3.422
 3881SOL     OW11946   2.880   7.241   1.412
 3881SOL    HW111947   2.811   7.240   1.478
 3881SOL    HW211948   2.914   7.151   1.411
 3882SOL     OW11949   4.618   2.811   1.571
 3882SOL    HW111950   4.703   2.837   1.536
 3882SOL    HW211951   4.634   2.798   1.665
 3883SOL     OW11952   0.578   5.217   1.062
 3883SOL    HW111953   0.511   5.166   1.017
 3883SOL    HW211954   0.634   5.152   1.104
 3884SOL     OW11955   6.716   7.575   2.999
 3884SOL    HW111956   6.785   7.569   3.065
 3884SOL    HW211957   6.635   7.553   3.046
 3885SOL     OW11958   6.362   4.946   1.001
 3885SOL    HW111959   6.450   4.911   0.985
 3885SOL    HW211960   6.375   5.015   1.066
 3886SOL     OW11961   6.933   3.255   0.271
 3886SOL    HW111962   6.876   3.181   0.290
 3886SOL    HW211963   7.021   3.224   0.291
 3887SOL     OW11964   0.716   0.707   2.365
 3887SOL    HW111965   0.811   0.713   2.359
 3887SOL    HW211966   0.700   0.620   2.401
 3888SOL     OW11967   2.444   7.871   0.963
 3888SOL    HW111968   2.408   7.887   0.876
 3888SOL    HW211969   2.510   7.940   0.975
 3889SOL     OW11970   3.217   5.836   4.539
 3889SOL    HW111971   3.258   5.869   4.459
 3889SOL    HW211972   3.128   5.813   4.513
 3890SOL     OW11973   4.900   7.264   2.797
 3890SOL    HW111974   4.966   7.212   2.751
 3890SOL    HW211975   4.941   7.286   2.881
 3891SOL     OW11976   3.804   6.438   0.857
 3891SOL    HW111977   3.715   6.459   0.830
 3891SOL    HW211978   3.819   6.490   0.936
 3892SOL     OW11979   5.277   5.637   5.195
 3892SOL    HW111980   5.202   5.597   5.239
 3892SOL    HW211981   5.248   5.725   5.173
 3893SOL     OW11982   4.712   6.535   2.626
 3893SOL    HW111983   4.776   6.551   2.695
 3893SOL    HW211984   4.639   6.593   2.648
 3894SOL     OW11985   6.420   6.379   2.268
 3894SOL    HW111986   6.377   6.327   2.200
 3894SOL    HW211987   6.413   6.326   2.347
 3895SOL     OW11988   3.039   0.901   5.045
 3895SOL    HW111989   2.993   0.983   5.062
 3895SOL    HW211990   3.103   0.895   5.116
 3896SOL     OW11991   1.712   4.387   5.427
 3896SOL    HW111992   1.759   4.308   5.400
 3896SOL    HW211993   1.728   4.450   5.357
 3897SOL     OW11994   0.620   3.713   3.195
 3897SOL    HW111995   0.705   3.674   3.217
 3897SOL    HW211996   0.598   3.767   3.271
 3898SOL     OW11997   5.581   1.706   0.675
 3898SOL    HW111998   5.664   1.665   0.699
 3898SOL    HW211999   5.564   1.769   0.745
 3899SOL     OW12000   0.401   7.367   5.704
 3899SOL    HW112001   0.327   7.312   5.729
 3899SOL    HW212002   0.362   7.441   5.658
 3900SOL     OW12003   0.573   5.416   1.250
 3900SOL    HW112004   0.492   5.389   1.293
 3900SOL    HW212005   0.572   5.372   1.165
 3901SOL     OW12006   2.171   3.553   1.547
 3901SOL    HW112007   2.125   3.549   1.463
 3901SOL    HW212008   2.244   3.613   1.532
 3902SOL     OW12009   4.746   6.403   1.586
 3902SOL    HW112010   4.695   6.484   1.579
 3902SOL    HW212011   4.809   6.420   1.656
 3903SOL     OW12012   7.829   8.196   4.147
 3903SOL    HW112013   7.815   0.061   4.159
 3903SOL    HW212014   7.822   8.182   4.053
 3904SOL     OW12015   2.269   6.801   1.786
 3904SOL    HW112016   2.267   6.879   1.841
 3904SOL    HW212017   2.358   6.798   1.751
 3905SOL     OW12018   5.751   8.176   1.816
 3905SOL    HW112019   5.795   8.093   1.833
 3905SOL    HW212020   5.792   0.009   1.876
 3906SOL     OW12021   1.558   4.931   3.838
 3906SOL    HW112022   1.525   4.870   3.904
 3906SOL    HW212023   1.583   4.876   3.764
 3907SOL     OW12024   4.670   1.756   1.468
 3907SOL    HW112025   4.703   1.694   1.533
 3907SOL    HW212026   4.749   1.795   1.429
 3908SOL     OW12027   2.404   4.328   0.804
 3908SOL    HW112028   2.318   4.370   0.802
 3908SOL    HW212029   2.386   4.237   0.828
 3909SOL     OW12030   7.646   1.534   4.657
 3909SOL    HW112031   7.613   1.478   4.728
 3909SOL    HW212032   7.635   1.623   4.690
 3910SOL     OW12033   7.208   5.781   0.657
 3910SOL    HW112034   7.151   5.852   0.686
 3910SOL    HW212035   7.230   5.803   0.566
 3911SOL     OW12036   3.487   6.510   5.449
 3911SOL    HW112037   3.540   6.430   5.453
 3911SOL    HW212038   3.521   6.557   5.373
 3912SOL     OW12039   5.161   2.084   0.802
 3912SOL    HW112040   5.174   2.048   0.714
 3912SOL    HW212041   5.204   2.170   0.799
 3913SOL     OW12042   4.597   4.017   2.054
 3913SOL    HW112043   4.616   4.101   2.095
 3913SOL    HW212044   4.510   4.027   2.016
 3914SOL     OW12045   3.803   7.406   3.079
 3914SOL    HW112046   3.839   7.364   3.157
 3914SOL    HW212047   3.800   7.499   3.101
 3915SOL     OW12048   3.060   3.244   5.209
 3915SOL    HW112049   3.105   3.287   5.282
 3915SOL    HW212050   3.126   3.238   5.140
 3916SOL     OW12051   2.013   6.761   4.978
 3916SOL    HW112052   1.987   6.678   4.939
 3916SOL    HW212053   1.968   6.828   4.926
 3917SOL     OW12054   7.024   4.706   1.243
 3917SOL    HW112055   7.008   4.755   1.324
 3917SOL    HW212056   7.010   4.770   1.173
 3918SOL     OW12057   5.477   8.051   3.507
 3918SOL    HW112058   5.404   8.101   3.469
 3918SOL    HW212059   5.550   8.067   3.447
 3919SOL     OW12060   6.202   6.501   5.169
 3919SOL    HW112061   6.180   6.439   5.238
 3919SOL    HW212062   6.280   6.464   5.127
 3920SOL     OW12063   3.939   6.816   3.648
 3920SOL    HW112064   3.981   6.887   3.696
 3920SOL    HW212065   3.943   6.741   3.707
 3921SOL     OW12066   1.191   7.790   1.824
 3921SOL    HW112067   1.233   7.829   1.748
 3921SOL    HW212068   1.148   7.863   1.868
 3922SOL     OW12069   5.660   5.699   0.713
 3922SOL    HW112070   5.733   5.679   0.772
 3922SOL    HW212071   5.625   5.782   0.745
 3923SOL     OW12072   6.621   6.557   5.494
 3923SOL    HW112073   6.714   6.566   5.475
 3923SOL    HW212074   6.605   6.620   5.564
 3924SOL     OW12075   8.205   0.007   0.605
 3924SOL    HW112076   0.058   8.188   0.597
 3924SOL    HW212077   8.138   8.169   0.615
 3925SOL     OW12078   7.029   7.877   0.405
 3925SOL    HW112079   6.939   7.845   0.404
 3925SOL    HW212080   7.046   7.897   0.497
 3926SOL     OW12081   2.730   7.977   4.682
 3926SOL    HW112082   2.740   8.068   4.711
 3926SOL    HW212083   2.769   7.925   4.753
 3927SOL     OW12084   0.619   0.934   1.682
 3927SOL    HW112085   0.692   0.986   1.715
 3927SOL    HW212086   0.660   0.865   1.630
 3928SOL     OW12087   6.625   6.236   3.332
 3928SOL    HW112088   6.627   6.157   3.278
 3928SOL    HW212089   6.664   6.209   3.415
 3929SOL     OW12090   0.200   8.078   0.596
 3929SOL    HW112091   0.265   8.054   0.530
 3929SOL    HW212092   0.185   7.998   0.646
 3930SOL     OW12093   1.217   5.009   1.589
 3930SOL    HW112094   1.243   5.051   1.507
 3930SOL    HW212095   1.204   5.082   1.650
 3931SOL     OW12096   4.757   5.938   4.023
 3931SOL    HW112097   4.714   6.018   3.994
 3931SOL    HW212098   4.733   5.930   4.115
 3932SOL     OW12099   0.584   6.852   1.610
 3932SOL    HW112100   0.517   6.903   1.565
 3932SOL    HW212101   0.663   6.865   1.558
 3933SOL     OW12102   0.975   5.456   3.165
 3933SOL    HW112103   0.998   5.545   3.138
 3933SOL    HW212104   0.897   5.435   3.114
 3934SOL     OW12105   3.017   4.062   1.317
 3934SOL    HW112106   3.061   4.140   1.351
 3934SOL    HW212107   3.039   3.993   1.380
 3935SOL     OW12108   8.223   4.139   1.435
 3935SOL    HW112109   8.180   4.053   1.429
 3935SOL    HW212110   0.069   4.133   1.377
 3936SOL     OW12111   3.131   6.150   0.964
 3936SOL    HW112112   3.153   6.071   1.013
 3936SOL    HW212113   3.039   6.139   0.941
 3937SOL     OW12114   7.003   8.057   4.375
 3937SOL    HW112115   7.001   7.964   4.396
 3937SOL    HW212116   7.047   8.061   4.290
 3938SOL     OW12117   3.524   0.942   2.346
 3938SOL    HW112118   3.473   0.899   2.415
 3938SOL    HW212119   3.490   1.032   2.345
 3939SOL     OW12120   3.148   4.778   0.232
 3939SOL    HW112121   3.114   4.734   0.154
 3939SOL    HW212122   3.108   4.730   0.305
 3940SOL     OW12123   0.119   3.633   4.537
 3940SOL    HW112124   0.086   3.723   4.530
 3940SOL    HW212125   0.042   3.581   4.558
 3941SOL     OW12126   2.371   3.125   2.331
 3941SOL    HW112127   2.463   3.144   2.347
 3941SOL    HW212128   2.369   3.032   2.307
 3942SOL     OW12129   5.235   3.047   4.173
 3942SOL    HW112130   5.302   3.074   4.111
 3942SOL    HW212131   5.175   3.122   4.177
 3943SOL     OW12132   5.042   4.939   3.970
 3943SOL    HW112133   4.960   4.937   3.920
 3943SOL    HW212134   5.019   4.984   4.051
 3944SOL     OW12135   4.048   5.576   4.285
 3944SOL    HW112136   4.004   5.579   4.370
 3944SOL    HW212137   3.983   5.538   4.226
 3945SOL     OW12138   1.260   8.203   5.524
 3945SOL    HW112139   1.185   8.170   5.474
 3945SOL    HW212140   1.238   0.065   5.541
 3946SOL     OW12141   3.067   1.042   3.179
 3946SOL    HW112142   3.008   1.057   3.105
 3946SOL    HW212143   3.106   1.128   3.197
 3947SOL     OW12144   5.100   6.938   4.137
 3947SOL    HW112145   5.124   6.928   4.229
 3947SOL    HW212146   5.052   7.021   4.133
 3948SOL     OW12147   1.626   3.528   3.948
 3948SOL    HW112148   1.715   3.563   3.953
 3948SOL    HW212149   1.633   3.440   3.985
 3949SOL     OW12150   2.058   2.432   5.783
 3949SOL    HW112151   2.063   2.526   5.764
 3949SOL    HW212152   2.018   2.394   5.705
 3950SOL     OW12153   5.749   2.053   3.959
 3950SOL    HW112154   5.663   2.035   3.996
 3950SOL    HW212155   5.747   2.146   3.937
 3951SOL     OW12156   7.323   6.779   4.979
 3951SOL    HW112157   7.350   6.731   4.901
 3951SOL    HW212158   7.392   6.761   5.043
 3952SOL     OW12159   2.671   3.647   0.637
 3952SOL    HW112160   2.577   3.657   0.624
 3952SOL    HW212161   2.705   3.627   0.550
 3953SOL     OW12162   7.292   2.448   4.804
 3953SOL    HW112163   7.242   2.368   4.790
 3953SOL    HW212164   7.263   2.481   4.889
 3954SOL     OW12165   4.816   7.838   5.561
 3954SOL    HW112166   4.761   7.916   5.555
 3954SOL    HW212167   4.841   7.819   5.471
 3955SOL     OW12168   7.423   8.107   4.514
 3955SOL    HW112169   7.481   8.046   4.468
 3955SOL    HW212170   7.379   8.054   4.580
 3956SOL     OW12171   4.307   0.599   2.862
 3956SOL    HW112172   4.379   0.593   2.925
 3956SOL    HW212173   4.273   0.688   2.873
 3957SOL     OW12174   0.769   4.205   5.513
 3957SOL    HW112175   0.839   4.140   5.526
 3957SOL    HW212176   0.722   4.174   5.436
 3958SOL     OW12177   6.028   7.699   2.428
 3958SOL    HW112178   6.111   7.689   2.475
 3958SOL    HW212179   6.049   7.674   2.338
 3959SOL     OW12180   1.294   2.122   1.009
 3959SOL    HW112181   1.262   2.190   0.950
 3959SOL    HW212182   1.340   2.060   0.952
 3960SOL     OW12183   1.367   1.519   4.913
 3960SOL    HW112184   1.446   1.571   4.928
 3960SOL    HW212185   1.321   1.567   4.844
 3961SOL     OW12186   5.761   7.708   2.555
 3961SOL    HW112187   5.843   7.706   2.506
 3961SOL    HW212188   5.695   7.678   2.493
 3962SOL     OW12189   3.887   3.772   3.512
 3962SOL    HW112190   3.940   3.693   3.502
 3962SOL    HW212191   3.937   3.841   3.468
 3963SOL     OW12192   3.601   0.454   0.960
 3963SOL    HW112193   3.611   0.548   0.976
 3963SOL    HW212194   3.548   0.423   1.033
 3964SOL     OW12195   6.245   1.045   0.788
 3964SOL    HW112196   6.316   1.108   0.778
 3964SOL    HW212197   6.170   1.098   0.815
 3965SOL     OW12198   0.811   2.001   1.759
 3965SOL    HW112199   0.841   1.958   1.679
 3965SOL    HW212200   0.891   2.018   1.809
 3966SOL     OW12201   2.333   1.089   1.638
 3966SOL    HW112202   2.359   1.108   1.728
 3966SOL    HW212203   2.300   0.999   1.641
 3967SOL     OW12204   5.717   1.149   5.717
 3967SOL    HW112205   5.752   1.063   5.738
 3967SOL    HW212206   5.694   1.144   5.624
 3968SOL     OW12207   1.547   6.475   2.587
 3968SOL    HW112208   1.464   6.520   2.573
 3968SOL    HW212209   1.614   6.540   2.564
 3969SOL     OW12210   7.868   7.828   2.947
 3969SOL    HW112211   7.819   7.747   2.930
 3969SOL    HW212212   7.895   7.858   2.860
 3970SOL     OW12213   6.067   1.534   3.871
 3970SOL    HW112214   6.070   1.488   3.955
 3970SOL    HW212215   6.139   1.497   3.821
 3971SOL     OW12216   2.358   7.153   3.437
 3971SOL    HW112217   2.313   7.168   3.354
 3971SOL    HW212218   2.435   7.209   3.432
 3972SOL     OW12219   7.228   6.084   4.675
 3972SOL    HW112220   7.182   6.166   4.693
 3972SOL    HW212221   7.185   6.020   4.732
 3973SOL     OW12222   2.343   5.831   3.676
 3973SOL    HW112223   2.278   5.785   3.623
 3973SOL    HW212224   2.334   5.792   3.763
 3974SOL     OW12225   1.209   2.878   4.071
 3974SOL    HW112226   1.228   2.833   3.989
 3974SOL    HW212227   1.117   2.858   4.089
 3975SOL     OW12228   2.263   5.144   2.190
 3975SOL    HW112229   2.283   5.123   2.281
 3975SOL    HW212230   2.192   5.209   2.196
 3976SOL     OW12231   5.849   3.383   1.210
 3976SOL    HW112232   5.818   3.457   1.157
 3976SOL    HW212233   5.836   3.306   1.154
 3977SOL     OW12234   4.277   6.180   2.897
 3977SOL    HW112235   4.350   6.185   2.835
 3977SOL    HW212236   4.199   6.176   2.842
 3978SOL     OW12237   0.150   5.641   1.511
 3978SOL    HW112238   0.208   5.597   1.449
 3978SOL    HW212239   0.064   5.600   1.498
 3979SOL     OW12240   5.056   5.411   5.050
 3979SOL    HW112241   5.067   5.492   5.000
 3979SOL    HW212242   5.089   5.432   5.137
 3980SOL     OW12243   8.218   4.670   0.062
 3980SOL    HW112244   4.077   0.591   5.796
 3980SOL    HW212245   8.136   4.662   0.111
 3981SOL     OW12246   1.403   6.331   1.077
 3981SOL    HW112247   1.316   6.290   1.077
 3981SOL    HW212248   1.447   6.293   1.153
 3982SOL     OW12249   7.190   1.069   4.538
 3982SOL    HW112250   7.223   0.984   4.567
 3982SOL    HW212251   7.164   1.056   4.447
 3983SOL     OW12252   7.344   1.806   3.899
 3983SOL    HW112253   7.267   1.827   3.846
 3983SOL    HW212254   7.373   1.891   3.933
 3984SOL     OW12255   8.028   6.313   2.102
 3984SOL    HW112256   8.025   6.405   2.076
 3984SOL    HW212257   7.960   6.271   2.049
 3985SOL     OW12258   7.159   3.348   0.730
 3985SOL    HW112259   7.077   3.392   0.706
 3985SOL    HW212260   7.204   3.333   0.647
 3986SOL     OW12261   7.856   4.399   0.520
 3986SOL    HW112262   7.851   4.477   0.576
 3986SOL    HW212263   7.785   4.343   0.550
 3987SOL     OW12264   2.473   5.443   5.609
 3987SOL    HW112265   2.467   5.425   5.703
 3987SOL    HW212266   2.398   5.499   5.591
 3988SOL     OW12267   5.182   4.826   2.160
 3988SOL    HW112268   5.160   4.769   2.086
 3988SOL    HW212269   5.249   4.885   2.125
 3989SOL     OW12270   2.597   3.836   1.064
 3989SOL    HW112271   2.665   3.885   1.111
 3989SOL    HW212272   2.538   3.904   1.030
 3990SOL     OW12273   1.898   5.973   4.891
 3990SOL    HW112274   1.931   6.062   4.898
 3990SOL    HW212275   1.900   5.954   4.797
 3991SOL     OW12276   6.477   5.741   3.438
 3991SOL    HW112277   6.515   5.813   3.489
 3991SOL    HW212278   6.387   5.735   3.470
 3992SOL     OW12279   1.355   6.037   1.396
 3992SOL    HW112280   1.324   5.967   1.338
 3992SOL    HW212281   1.276   6.068   1.441
 3993SOL     OW12282   0.618   7.515   3.130
 3993SOL    HW112283   0.691   7.481   3.181
 3993SOL    HW212284   0.620   7.465   3.048
 3994SOL     OW12285   5.709   7.857   1.246
 3994SOL    HW112286   5.702   7.930   1.307
 3994SOL    HW212287   5.655   7.788   1.285
 3995SOL     OW12288   4.078   7.915   4.787
 3995SOL    HW112289   4.041   7.883   4.869
 3995SOL    HW212290   4.168   7.881   4.787
 3996SOL     OW12291   2.513   0.202   4.220
 3996SOL    HW112292   2.494   0.296   4.213
 3996SOL    HW212293   2.568   0.183   4.144
 3997SOL     OW12294   1.358   4.076   1.123
 3997SOL    HW112295   1.366   4.146   1.188
 3997SOL    HW212296   1.312   4.116   1.050
 3998SOL     OW12297   3.620   3.506   1.766
 3998SOL    HW112298   3.592   3.423   1.804
 3998SOL    HW212299   3.545   3.564   1.777
 3999SOL     OW12300   4.868   1.630   3.081
 3999SOL    HW112301   4.915   1.658   3.002
 3999SOL    HW212302   4.786   1.680   3.079
 4000SOL     OW12303   5.093   7.122   3.170
 4000SOL    HW112304   5.154   7.138   3.242
 4000SOL    HW212305   5.064   7.209   3.144
 4001SOL     OW12306   1.716   0.198   1.727
 4001SOL    HW112307   1.649   0.251   1.684
 4001SOL    HW212308   1.752   0.143   1.657
 4002SOL     OW12309   6.673   4.249   0.862
 4002SOL    HW112310   6.621   4.233   0.783
 4002SOL    HW212311   6.630   4.323   0.905
 4003SOL     OW12312   7.513   2.737   2.336
 4003SOL    HW112313   7.531   2.769   2.424
 4003SOL    HW212314   7.561   2.654   2.330
 4004SOL     OW12315   3.251   7.852   0.260
 4004SOL    HW112316   3.299   7.935   0.261
 4004SOL    HW212317   3.239   7.833   0.167
 4005SOL     OW12318   0.670   7.746   3.278
 4005SOL    HW112319   0.655   7.666   3.227
 4005SOL    HW212320   0.760   7.737   3.309
 4006SOL     OW12321   7.398   5.000   4.852
 4006SOL    HW112322   7.419   4.907   4.839
 4006SOL    HW212323   7.380   5.008   4.946
 4007SOL     OW12324   2.942   2.417   1.601
 4007SOL    HW112325   2.914   2.333   1.638
 4007SOL    HW212326   3.022   2.439   1.650
 4008SOL     OW12327   7.214   3.298   5.142
 4008SOL    HW112328   7.156   3.251   5.082
 4008SOL    HW212329   7.299   3.255   5.132
 4009SOL     OW12330   2.565   0.700   3.778
 4009SOL    HW112331   2.495   0.764   3.791
 4009SOL    HW212332   2.575   0.693   3.683
 4010SOL     OW12333   5.961   4.743   3.997
 4010SOL    HW112334   5.982   4.833   3.972
 4010SOL    HW212335   5.980   4.691   3.919
 4011SOL     OW12336   6.977   4.520   3.944
 4011SOL    HW112337   6.965   4.602   3.896
 4011SOL    HW212338   6.895   4.508   3.992
 4012SOL     OW12339   4.579   4.262   0.492
 4012SOL    HW112340   4.555   4.206   0.418
 4012SOL    HW212341   4.530   4.225   0.566
 4013SOL     OW12342   1.752   5.136   2.412
 4013SOL    HW112343   1.665   5.164   2.441
 4013SOL    HW212344   1.750   5.144   2.317
 4014SOL     OW12345   3.534   4.306   5.715
 4014SOL    HW112346   3.618   4.263   5.697
 4014SOL    HW212347   3.475   4.234   5.737
 4015SOL     OW12348   0.558   1.413   5.680
 4015SOL    HW112349   0.613   1.490   5.698
 4015SOL    HW212350   0.471   1.449   5.664
 4016SOL     OW12351   5.645   7.974   0.828
 4016SOL    HW112352   5.706   7.918   0.876
 4016SOL    HW212353   5.696   8.008   0.755
 4017SOL     OW12354   7.740   1.980   0.082
 4017SOL    HW112355   7.810   1.965   0.146
 4017SOL    HW212356   7.762   1.922   0.009
 4018SOL     OW12357   0.854   2.270   2.821
 4018SOL    HW112358   0.873   2.221   2.741
 4018SOL    HW212359   0.939   2.281   2.863
 4019SOL     OW12360   6.707   0.837   5.612
 4019SOL    HW112361   6.679   0.811   5.700
 4019SOL    HW212362   6.748   0.758   5.576
 4020SOL     OW12363   8.130   3.882   3.833
 4020SOL    HW112364   8.083   3.897   3.751
 4020SOL    HW212365   8.211   3.839   3.806
 4021SOL     OW12366   7.314   7.878   5.352
 4021SOL    HW112367   7.406   7.898   5.333
 4021SOL    HW212368   7.264   7.944   5.303
 4022SOL     OW12369   1.231   4.637   5.272
 4022SOL    HW112370   1.244   4.723   5.312
 4022SOL    HW212371   1.185   4.655   5.190
 4023SOL     OW12372   4.769   7.481   0.562
 4023SOL    HW112373   4.856   7.486   0.601
 4023SOL    HW212374   4.769   7.399   0.513
 4024SOL     OW12375   0.265   4.453   4.261
 4024SOL    HW112376   0.306   4.433   4.345
 4024SOL    HW212377   0.241   4.367   4.225
 4025SOL     OW12378   2.899   1.710   4.795
 4025SOL    HW112379   2.804   1.722   4.799
 4025SOL    HW212380   2.927   1.764   4.721
 4026SOL     OW12381   4.293   2.368   3.697
 4026SOL    HW112382   4.368   2.404   3.743
 4026SOL    HW212383   4.306   2.394   3.606
 4027SOL     OW12384   3.630   6.289   5.475
 4027SOL    HW112385   3.722   6.311   5.492
 4027SOL    HW212386   3.589   6.292   5.561
 4028SOL     OW12387   6.954   6.804   1.057
 4028SOL    HW112388   6.982   6.716   1.030
 4028SOL    HW212389   6.862   6.808   1.032
 4029SOL     OW12390   0.457   7.603   4.690
 4029SOL    HW112391   0.395   7.672   4.714
 4029SOL    HW212392   0.532   7.617   4.747
 4030SOL     OW12393   2.779   4.315   5.414
 4030SOL    HW112394   2.858   4.280   5.373
 4030SOL    HW212395   2.810   4.353   5.496
 4031SOL     OW12396   6.496   5.066   3.820
 4031SOL    HW112397   6.522   5.121   3.894
 4031SOL    HW212398   6.511   5.121   3.743
 4032SOL     OW12399   2.760   0.093   3.627
 4032SOL    HW112400   2.673   0.126   3.650
 4032SOL    HW212401   2.772   0.119   3.536
 4033SOL     OW12402   2.585   5.151   1.777
 4033SOL    HW112403   2.592   5.061   1.808
 4033SOL    HW212404   2.522   5.192   1.837
 4034SOL     OW12405   1.816   5.285   3.833
 4034SOL    HW112406   1.808   5.376   3.862
 4034SOL    HW212407   1.843   5.292   3.741
 4035SOL     OW12408   6.389   5.705   4.909
 4035SOL    HW112409   6.331   5.630   4.925
 4035SOL    HW212410   6.432   5.721   4.993
 4036SOL     OW12411   5.402   3.289   4.018
 4036SOL    HW112412   5.456   3.336   3.954
 4036SOL    HW212413   5.312   3.302   3.988
 4037SOL     OW12414   4.487   6.713   1.940
 4037SOL    HW112415   4.446   6.650   1.880
 4037SOL    HW212416   4.437   6.794   1.927
 4038SOL     OW12417   5.043   0.426   1.889
 4038SOL    HW112418   4.991   0.450   1.965
 4038SOL    HW212419   5.075   0.509   1.855
 4039SOL     OW12420   7.466   7.280   2.995
 4039SOL    HW112421   7.417   7.341   3.051
 4039SOL    HW212422   7.478   7.327   2.913
 4040SOL     OW12423   3.317   3.711   5.293
 4040SOL    HW112424   3.338   3.737   5.383
 4040SOL    HW212425   3.327   3.791   5.242
 4041SOL     OW12426   0.040   1.699   3.320
 4041SOL    HW112427   0.067   1.650   3.398
 4041SOL    HW212428   8.188   1.657   3.292
 4042SOL     OW12429   1.738   2.291   3.631
 4042SOL    HW112430   1.683   2.213   3.624
 4042SOL    HW212431   1.827   2.259   3.616
 4043SOL     OW12432   1.507   3.211   1.312
 4043SOL    HW112433   1.462   3.235   1.393
 4043SOL    HW212434   1.574   3.278   1.301
 4044SOL     OW12435   5.966   4.215   4.611
 4044SOL    HW112436   6.036   4.171   4.660
 4044SOL    HW212437   5.992   4.307   4.609
 4045SOL     OW12438   7.530   1.202   4.045
 4045SOL    HW112439   7.462   1.191   3.979
 4045SOL    HW212440   7.511   1.134   4.110
 4046SOL     OW12441   0.806   2.053   0.529
 4046SOL    HW112442   0.750   1.976   0.540
 4046SOL    HW212443   0.895   2.019   0.538
 4047SOL     OW12444   6.383   3.276   5.407
 4047SOL    HW112445   6.414   3.350   5.355
 4047SOL    HW212446   6.297   3.255   5.369
 4048SOL     OW12447   6.388   6.896   2.993
 4048SOL    HW112448   6.455   6.892   3.061
 4048SOL    HW212449   6.346   6.810   2.997
 4049SOL     OW12450   6.352   2.536   1.726
 4049SOL    HW112451   6.318   2.608   1.779
 4049SOL    HW212452   6.439   2.566   1.698
 4050SOL     OW12453   2.681   2.592   5.203
 4050SOL    HW112454   2.660   2.685   5.201
 4050SOL    HW212455   2.775   2.588   5.188
 4051SOL     OW12456   6.008   4.554   0.941
 4051SOL    HW112457   5.951   4.483   0.912
 4051SOL    HW212458   5.995   4.558   1.036
 4052SOL     OW12459   5.673   3.243   2.857
 4052SOL    HW112460   5.695   3.246   2.950
 4052SOL    HW212461   5.606   3.310   2.846
 4053SOL     OW12462   1.195   7.989   4.977
 4053SOL    HW112463   1.156   8.043   4.908
 4053SOL    HW212464   1.283   8.024   4.988
 4054SOL     OW12465   2.878   1.513   5.363
 4054SOL    HW112466   2.825   1.500   5.284
 4054SOL    HW212467   2.967   1.528   5.330
 4055SOL     OW12468   6.661   2.973   5.321
 4055SOL    HW112469   6.604   2.914   5.371
 4055SOL    HW212470   6.702   2.916   5.256
 4056SOL     OW12471   7.944   2.676   1.916
 4056SOL    HW112472   7.989   2.731   1.980
 4056SOL    HW212473   7.976   2.588   1.935
 4057SOL     OW12474   1.984   3.347   3.423
 4057SOL    HW112475   1.909   3.291   3.443
 4057SOL    HW212476   1.946   3.434   3.411
 4058SOL     OW12477   4.359   0.230   2.125
 4058SOL    HW112478   4.328   0.166   2.061
 4058SOL    HW212479   4.448   0.250   2.097
 4059SOL     OW12480   3.221   3.986   1.139
 4059SOL    HW112481   3.288   3.987   1.207
 4059SOL    HW212482   3.140   3.967   1.185
 4060SOL     OW12483   5.314   7.213   4.184
 4060SOL    HW112484   5.246   7.280   4.196
 4060SOL    HW212485   5.296   7.148   4.252
 4061SOL     OW12486   1.575   3.395   2.371
 4061SOL    HW112487   1.542   3.413   2.283
 4061SOL    HW212488   1.541   3.308   2.392
 4062SOL     OW12489   1.219   4.703   4.379
 4062SOL    HW112490   1.193   4.658   4.298
 4062SOL    HW212491   1.313   4.687   4.386
 4063SOL     OW12492   7.966   0.358   3.445
 4063SOL    HW112493   7.945   0.359   3.538
 4063SOL    HW212494   8.038   0.420   3.436
 4064SOL     OW12495   5.508   5.249   2.596
 4064SOL    HW112496   5.433   5.242   2.656
 4064SOL    HW212497   5.516   5.343   2.579
 4065SOL     OW12498   5.951   1.476   2.550
 4065SOL    HW112499   6.027   1.531   2.531
 4065SOL    HW212500   5.982   1.414   2.616
 4066SOL     OW12501   2.006   4.888   0.865
 4066SOL    HW112502   1.964   4.905   0.781
 4066SOL    HW212503   1.982   4.963   0.919
 4067SOL     OW12504   6.000   0.179   3.389
 4067SOL    HW112505   5.923   0.209   3.436
 4067SOL    HW212506   6.015   0.090   3.421
 4068SOL     OW12507   0.469   0.299   4.004
 4068SOL    HW112508   0.378   0.321   3.983
 4068SOL    HW212509   0.473   0.203   3.998
 4069SOL     OW12510   7.756   5.606   1.854
 4069SOL    HW112511   7.773   5.649   1.770
 4069SOL    HW212512   7.755   5.513   1.833
 4070SOL     OW12513   2.991   7.528   5.250
 4070SOL    HW112514   2.918   7.586   5.271
 4070SOL    HW212515   2.961   7.478   5.174
 4071SOL     OW12516   4.811   3.047   2.304
 4071SOL    HW112517   4.753   2.971   2.309
 4071SOL    HW212518   4.778   3.107   2.371
 4072SOL     OW12519   6.092   4.247   5.590
 4072SOL    HW112520   6.029   4.220   5.523
 4072SOL    HW212521   6.060   4.208   5.671
 4073SOL     OW12522   4.161   1.570   2.274
 4073SOL    HW112523   4.213   1.514   2.216
 4073SOL    HW212524   4.093   1.512   2.309
 4074SOL     OW12525   5.229   4.721   4.003
 4074SOL    HW112526   5.152   4.739   3.949
 4074SOL    HW212527   5.204   4.645   4.055
 4075SOL     OW12528   1.122   2.014   1.182
 4075SOL    HW112529   1.179   2.043   1.111
 4075SOL    HW212530   1.118   2.089   1.241
 4076SOL     OW12531   0.555   5.794   5.665
 4076SOL    HW112532   0.531   5.845   5.743
 4076SOL    HW212533   0.575   5.860   5.599
 4077SOL     OW12534   3.302   7.381   4.768
 4077SOL    HW112535   3.297   7.475   4.785
 4077SOL    HW212536   3.395   7.365   4.751
 4078SOL     OW12537   6.636   3.092   2.888
 4078SOL    HW112538   6.640   3.107   2.982
 4078SOL    HW212539   6.584   3.012   2.879
 4079SOL     OW12540   4.447   3.666   0.036
 4079SOL    HW112541   4.363   3.619   0.041
 4079SOL    HW212542   4.513   3.598   0.050
 4080SOL     OW12543   5.589   5.759   3.156
 4080SOL    HW112544   5.506   5.775   3.111
 4080SOL    HW212545   5.624   5.846   3.173
 4081SOL     OW12546   0.854   2.476   1.287
 4081SOL    HW112547   0.861   2.538   1.360
 4081SOL    HW212548   0.763   2.483   1.257
 4082SOL     OW12549   3.766   7.664   3.783
 4082SOL    HW112550   3.764   7.569   3.790
 4082SOL    HW212551   3.783   7.695   3.872
 4083SOL     OW12552   6.595   1.124   3.491
 4083SOL    HW112553   6.646   1.082   3.421
 4083SOL    HW212554   6.660   1.167   3.546
 4084SOL     OW12555   4.414   5.036   0.836
 4084SOL    HW112556   4.442   5.117   0.793
 4084SOL    HW212557   4.412   4.971   0.766
 4085SOL     OW12558   2.787   3.669   1.259
 4085SOL    HW112559   2.819   3.731   1.194
 4085SOL    HW212560   2.808   3.583   1.222
 4086SOL     OW12561   7.083   7.876   0.684
 4086SOL    HW112562   7.172   7.908   0.701
 4086SOL    HW212563   7.026   7.945   0.718
 4087SOL     OW12564   0.385   0.241   0.317
 4087SOL    HW112565   0.344   0.315   0.273
 4087SOL    HW212566   0.475   0.242   0.285
 4088SOL     OW12567   2.135   3.243   4.946
 4088SOL    HW112568   2.146   3.186   4.870
 4088SOL    HW212569   2.184   3.322   4.925
 4089SOL     OW12570   2.665   4.711   0.779
 4089SOL    HW112571   2.746   4.708   0.830
 4089SOL    HW212572   2.664   4.628   0.731
 4090SOL     OW12573   6.664   5.061   2.724
 4090SOL    HW112574   6.707   5.138   2.686
 4090SOL    HW212575   6.666   5.077   2.818
 4091SOL     OW12576   0.624   0.931   2.497
 4091SOL    HW112577   0.645   0.849   2.452
 4091SOL    HW212578   0.674   0.997   2.449
 4092SOL     OW12579   2.364   3.874   0.425
 4092SOL    HW112580   2.407   3.804   0.473
 4092SOL    HW212581   2.322   3.928   0.493
 4093SOL     OW12582   2.983   4.307   1.584
 4093SOL    HW112583   2.897   4.350   1.581
 4093SOL    HW212584   3.019   4.318   1.496
 4094SOL     OW12585   2.326   0.807   1.663
 4094SOL    HW112586   2.369   0.731   1.624
 4094SOL    HW212587   2.340   0.797   1.757
 4095SOL     OW12588   1.376   2.564   0.780
 4095SOL    HW112589   1.330   2.582   0.698
 4095SOL    HW212590   1.339   2.626   0.843
 4096SOL     OW12591   4.099   6.141   2.687
 4096SOL    HW112592   4.074   6.141   2.595
 4096SOL    HW212593   4.016   6.136   2.735
 4097SOL     OW12594   3.803   4.163   0.089
 4097SOL    HW112595   3.860   4.203   0.024
 4097SOL    HW212596   3.734   4.121   0.037
 4098SOL     OW12597   7.885   7.893   5.801
 4098SOL    HW112598   3.727   3.806   0.063
 4098SOL    HW212599   7.917   7.974   5.762
 4099SOL     OW12600   8.164   0.040   5.462
 4099SOL    HW112601   0.000   0.063   5.528
 4099SOL    HW212602   8.088   0.094   5.484
 4100SOL     OW12603   5.643   2.396   1.362
 4100SOL    HW112604   5.627   2.399   1.456
 4100SOL    HW212605   5.557   2.406   1.322
 4101SOL     OW12606   0.183   5.602   2.515
 4101SOL    HW112607   0.143   5.645   2.440
 4101SOL    HW212608   0.240   5.669   2.553
 4102SOL     OW12609   7.381   0.804   4.109
 4102SOL    HW112610   7.291   0.772   4.111
 4102SOL    HW212611   7.406   0.797   4.017
 4103SOL     OW12612   6.026   4.388   4.933
 4103SOL    HW112613   6.107   4.415   4.890
 4103SOL    HW212614   5.956   4.425   4.879
 4104SOL     OW12615   3.687   0.234   0.436
 4104SOL    HW112616   3.681   0.145   0.402
 4104SOL    HW212617   3.761   0.232   0.496
 4105SOL     OW12618   5.384   0.263   5.592
 4105SOL    HW112619   5.391   0.168   5.605
 4105SOL    HW212620   5.471   0.296   5.612
 4106SOL     OW12621   4.782   6.804   5.574
 4106SOL    HW112622   4.768   6.836   5.485
 4106SOL    HW212623   4.839   6.869   5.615
 4107SOL     OW12624   5.313   7.699   2.284
 4107SOL    HW112625   5.305   7.709   2.189
 4107SOL    HW212626   5.230   7.732   2.318
 4108SOL     OW12627   0.758   5.070   1.224
 4108SOL    HW112628   0.799   5.152   1.198
 4108SOL    HW212629   0.826   5.023   1.272
 4109SOL     OW12630   3.707   6.336   1.852
 4109SOL    HW112631   3.782   6.366   1.800
 4109SOL    HW212632   3.631   6.348   1.795
 4110SOL     OW12633   2.840   0.340   4.217
 4110SOL    HW112634   2.747   0.342   4.239
 4110SOL    HW212635   2.867   0.250   4.236
 4111SOL     OW12636   0.038   6.185   4.389
 4111SOL    HW112637   0.083   6.266   4.366
 4111SOL    HW212638   8.183   6.213   4.424
 4112SOL     OW12639   1.783   1.280   4.594
 4112SOL    HW112640   1.698   1.274   4.551
 4112SOL    HW212641   1.793   1.373   4.615
 4113SOL     OW12642   5.245   8.096   4.113
 4113SOL    HW112643   5.309   8.128   4.177
 4113SOL    HW212644   5.163   8.137   4.139
 4114SOL     OW12645   2.528   7.106   1.469
 4114SOL    HW112646   2.516   7.141   1.557
 4114SOL    HW212647   2.609   7.056   1.474
 4115SOL     OW12648   3.870   1.718   3.021
 4115SOL    HW112649   3.842   1.806   3.048
 4115SOL    HW212650   3.813   1.659   3.070
 4116SOL     OW12651   7.318   4.433   3.025
 4116SOL    HW112652   7.304   4.346   2.987
 4116SOL    HW212653   7.397   4.423   3.079
 4117SOL     OW12654   5.857   1.415   3.377
 4117SOL    HW112655   5.777   1.423   3.428
 4117SOL    HW212656   5.928   1.430   3.440
 4118SOL     OW12657   5.217   7.269   5.093
 4118SOL    HW112658   5.247   7.345   5.044
 4118SOL    HW212659   5.124   7.261   5.071
 4119SOL     OW12660   6.560   6.692   3.593
 4119SOL    HW112661   6.589   6.601   3.584
 4119SOL    HW212662   6.495   6.704   3.524
 4120SOL     OW12663   5.123   1.098   0.387
 4120SOL    HW112664   5.057   1.047   0.434
 4120SOL    HW212665   5.113   1.071   0.296
 4121SOL     OW12666   4.544   5.496   5.265
 4121SOL    HW112667   4.553   5.588   5.241
 4121SOL    HW212668   4.501   5.498   5.351
 4122SOL     OW12669   5.702   0.905   4.734
 4122SOL    HW112670   5.780   0.885   4.785
 4122SOL    HW212671   5.634   0.848   4.771
 4123SOL     OW12672   4.141   7.851   3.598
 4123SOL    HW112673   4.172   7.941   3.605
 4123SOL    HW212674   4.197   7.801   3.658
 4124SOL     OW12675   7.435   5.672   5.581
 4124SOL    HW112676   7.491   5.736   5.625
 4124SOL    HW212677   7.496   5.606   5.549
 4125SOL     OW12678   3.122   3.015   1.387
 4125SOL    HW112679   3.136   3.013   1.292
 4125SOL    HW212680   3.134   2.924   1.414
 4126SOL     OW12681   3.885   3.670   2.047
 4126SOL    HW112682   3.945   3.704   2.114
 4126SOL    HW212683   3.841   3.748   2.013
 4127SOL     OW12684   4.802   4.052   1.184
 4127SOL    HW112685   4.811   3.986   1.115
 4127SOL    HW212686   4.877   4.110   1.171
 4128SOL     OW12687   4.522   3.402   1.057
 4128SOL    HW112688   4.575   3.400   1.137
 4128SOL    HW212689   4.577   3.359   0.991
 4129SOL     OW12690   5.308   2.726   0.274
 4129SOL    HW112691   5.295   2.814   0.238
 4129SOL    HW212692   5.228   2.709   0.324
 4130SOL     OW12693   7.846   3.134   2.684
 4130SOL    HW112694   7.821   3.132   2.776
 4130SOL    HW212695   7.938   3.160   2.684
 4131SOL     OW12696   3.306   7.955   0.756
 4131SOL    HW112697   3.264   8.029   0.800
 4131SOL    HW212698   3.233   7.899   0.729
 4132SOL     OW12699   3.152   6.202   2.988
 4132SOL    HW112700   3.127   6.136   3.052
 4132SOL    HW212701   3.129   6.164   2.903
 4133SOL     OW12702   3.021   3.588   1.409
 4133SOL    HW112703   2.985   3.635   1.334
 4133SOL    HW212704   3.049   3.504   1.373
 4134SOL     OW12705   7.928   1.425   0.779
 4134SOL    HW112706   8.009   1.390   0.816
 4134SOL    HW212707   7.925   1.516   0.810
 4135SOL     OW12708   5.763   5.705   1.176
 4135SOL    HW112709   5.718   5.621   1.167
 4135SOL    HW212710   5.694   5.771   1.163
 4136SOL     OW12711   6.050   8.113   0.289
 4136SOL    HW112712   6.048   8.195   0.338
 4136SOL    HW212713   5.964   8.109   0.246
 4137SOL     OW12714   0.678   4.868   0.913
 4137SOL    HW112715   0.639   4.807   0.850
 4137SOL    HW212716   0.757   4.824   0.944
 4138SOL     OW12717   0.154   6.157   5.056
 4138SOL    HW112718   0.206   6.115   5.125
 4138SOL    HW212719   0.133   6.086   4.995
 4139SOL     OW12720   0.388   0.972   1.848
 4139SOL    HW112721   0.454   0.940   1.786
 4139SOL    HW212722   0.395   1.067   1.844
 4140SOL     OW12723   0.620   3.463   2.692
 4140SOL    HW112724   0.708   3.499   2.697
 4140SOL    HW212725   0.586   3.470   2.781
 4141SOL     OW12726   4.304   3.301   3.885
 4141SOL    HW112727   4.347   3.347   3.813
 4141SOL    HW212728   4.284   3.214   3.850
 4142SOL     OW12729   1.918   1.200   2.501
 4142SOL    HW112730   1.973   1.241   2.568
 4142SOL    HW212731   1.836   1.179   2.546
 4143SOL     OW12732   4.233   0.505   0.730
 4143SOL    HW112733   4.260   0.442   0.663
 4143SOL    HW212734   4.191   0.576   0.681
 4144SOL     OW12735   6.246   0.181   5.360
 4144SOL    HW112736   6.242   0.270   5.395
 4144SOL    HW212737   6.157   0.147   5.370
 4145SOL     OW12738   8.146   5.579   1.163
 4145SOL    HW112739   8.151   5.542   1.251
 4145SOL    HW212740   8.066   5.542   1.126
 4146SOL     OW12741   4.469   3.718   0.554
 4146SOL    HW112742   4.519   3.650   0.509
 4146SOL    HW212743   4.532   3.760   0.613
 4147SOL     OW12744   1.957   1.822   2.648
 4147SOL    HW112745   1.939   1.756   2.715
 4147SOL    HW212746   2.006   1.890   2.694
 4148SOL     OW12747   7.481   3.918   3.185
 4148SOL    HW112748   7.395   3.942   3.151
 4148SOL    HW212749   7.542   3.950   3.119
 4149SOL     OW12750   4.213   7.444   3.455
 4149SOL    HW112751   4.221   7.512   3.389
 4149SOL    HW212752   4.155   7.482   3.522
 4150SOL     OW12753   4.812   2.670   0.809
 4150SOL    HW112754   4.883   2.643   0.868
 4150SOL    HW212755   4.797   2.594   0.753
 4151SOL     OW12756   3.673   5.008   0.929
 4151SOL    HW112757   3.733   5.002   1.003
 4151SOL    HW212758   3.589   4.976   0.963
 4152SOL     OW12759   2.640   8.138   4.140
 4152SOL    HW112760   2.684   8.197   4.078
 4152SOL    HW212761   2.626   8.192   4.218
 4153SOL     OW12762   0.584   1.390   3.470
 4153SOL    HW112763   0.515   1.359   3.412
 4153SOL    HW212764   0.626   1.310   3.502
 4154SOL     OW12765   3.631   0.894   5.519
 4154SOL    HW112766   3.558   0.954   5.534
 4154SOL    HW212767   3.659   0.911   5.429
 4155SOL     OW12768   6.046   7.199   3.987
 4155SOL    HW112769   5.997   7.279   3.966
 4155SOL    HW212770   6.038   7.190   4.082
 4156SOL     OW12771   2.891   5.706   4.109
 4156SOL    HW112772   2.923   5.793   4.084
 4156SOL    HW212773   2.837   5.678   4.035
 4157SOL     OW12774   3.561   4.289   3.826
 4157SOL    HW112775   3.650   4.279   3.791
 4157SOL    HW212776   3.559   4.231   3.902
 4158SOL     OW12777   8.140   1.789   0.803
 4158SOL    HW112778   8.210   1.795   0.738
 4158SOL    HW212779   8.179   1.741   0.876
 4159SOL     OW12780   7.476   3.428   3.591
 4159SOL    HW112781   7.420   3.485   3.538
 4159SOL    HW212782   7.546   3.485   3.622
 4160SOL     OW12783   7.283   3.398   2.355
 4160SOL    HW112784   7.310   3.488   2.338
 4160SOL    HW212785   7.347   3.345   2.307
 4161SOL     OW12786   1.901   4.142   0.746
 4161SOL    HW112787   1.982   4.136   0.696
 4161SOL    HW212788   1.929   4.166   0.834
 4162SOL     OW12789   0.673   2.999   3.112
 4162SOL    HW112790   0.742   2.983   3.176
 4162SOL    HW212791   0.681   3.092   3.092
 4163SOL     OW12792   7.009   2.812   4.567
 4163SOL    HW112793   6.987   2.719   4.562
 4163SOL    HW212794   6.941   2.856   4.515
 4164SOL     OW12795   7.039   3.307   5.706
 4164SOL    HW112796   7.124   3.329   5.744
 4164SOL    HW212797   7.059   3.244   5.637
 4165SOL     OW12798   4.365   2.153   2.299
 4165SOL    HW112799   4.408   2.088   2.243
 4165SOL    HW212800   4.420   2.231   2.291
 4166SOL     OW12801   2.879   0.437   3.960
 4166SOL    HW112802   2.787   0.459   3.943
 4166SOL    HW212803   2.879   0.404   4.050
 4167SOL     OW12804   3.079   0.759   1.767
 4167SOL    HW112805   3.021   0.729   1.837
 4167SOL    HW212806   3.165   0.763   1.808
 4168SOL     OW12807   6.045   5.458   5.187
 4168SOL    HW112808   6.087   5.544   5.184
 4168SOL    HW212809   6.091   5.411   5.256
 4169SOL     OW12810   6.842   3.851   2.129
 4169SOL    HW112811   6.816   3.942   2.142
 4169SOL    HW212812   6.851   3.842   2.034
 4170SOL     OW12813   0.837   5.942   3.894
 4170SOL    HW112814   0.879   5.894   3.823
 4170SOL    HW212815   0.763   5.986   3.852
 4171SOL     OW12816   6.597   7.247   1.819
 4171SOL    HW112817   6.518   7.195   1.806
 4171SOL    HW212818   6.669   7.185   1.805
 4172SOL     OW12819   1.218   0.363   5.817
 4172SOL    HW112820   5.273   4.407   0.022
 4172SOL    HW212821   5.413   4.459   0.047
 4173SOL     OW12822   4.364   2.202   3.017
 4173SOL    HW112823   4.356   2.295   2.995
 4173SOL    HW212824   4.318   2.156   2.947
 4174SOL     OW12825   2.038   5.809   3.974
 4174SOL    HW112826   2.091   5.871   4.023
 4174SOL    HW212827   2.030   5.733   4.032
 4175SOL     OW12828   1.755   7.921   5.507
 4175SOL    HW112829   1.769   7.964   5.422
 4175SOL    HW212830   1.692   7.977   5.552
 4176SOL     OW12831   0.664   2.312   5.629
 4176SOL    HW112832   0.747   2.312   5.581
 4176SOL    HW212833   0.689   2.314   5.721
 4177SOL     OW12834   4.612   7.143   2.957
 4177SOL    HW112835   4.636   7.155   3.049
 4177SOL    HW212836   4.630   7.228   2.917
 4178SOL     OW12837   8.145   3.022   0.184
 4178SOL    HW112838   8.085   3.071   0.240
 4178SOL    HW212839   8.088   2.971   0.127
 4179SOL     OW12840   5.458   6.254   3.744
 4179SOL    HW112841   5.544   6.273   3.781
 4179SOL    HW212842   5.439   6.165   3.773
 4180SOL     OW12843   1.092   3.737   0.737
 4180SOL    HW112844   1.166   3.797   0.728
 4180SOL    HW212845   1.048   3.766   0.817
 4181SOL     OW12846   3.438   1.382   5.168
 4181SOL    HW112847   3.473   1.455   5.117
 4181SOL    HW212848   3.394   1.424   5.242
 4182SOL     OW12849   0.502   6.821   0.729
 4182SOL    HW112850   0.477   6.882   0.659
 4182SOL    HW212851   0.592   6.844   0.750
 4183SOL     OW12852   8.156   7.429   2.068
 4183SOL    HW112853   8.101   7.460   2.140
 4183SOL    HW212854   8.118   7.345   2.043
 4184SOL     OW12855   3.958   1.574   4.389
 4184SOL    HW112856   4.035   1.535   4.431
 4184SOL    HW212857   3.950   1.527   4.306
 4185SOL     OW12858   1.253   7.842   5.527
 4185SOL    HW112859   1.301   7.767   5.563
 4185SOL    HW212860   1.211   7.807   5.448
 4186SOL     OW12861   0.234   7.299   0.995
 4186SOL    HW112862   0.222   7.240   0.920
 4186SOL    HW212863   0.156   7.284   1.049
 4187SOL     OW12864   5.670   4.281   1.036
 4187SOL    HW112865   5.654   4.268   0.943
 4187SOL    HW212866   5.750   4.231   1.054
 4188SOL     OW12867   6.488   1.435   2.826
 4188SOL    HW112868   6.395   1.439   2.849
 4188SOL    HW212869   6.530   1.399   2.904
 4189SOL     OW12870   6.086   6.111   1.654
 4189SOL    HW112871   6.045   6.029   1.683
 4189SOL    HW212872   6.141   6.086   1.580
 4190SOL     OW12873   5.211   2.021   4.097
 4190SOL    HW112874   5.169   2.001   4.180
 4190SOL    HW212875   5.166   2.100   4.066
 4191SOL     OW12876   3.418   3.632   4.226
 4191SOL    HW112877   3.338   3.606   4.180
 4191SOL    HW212878   3.389   3.654   4.314
 4192SOL     OW12879   4.827   3.795   0.474
 4192SOL    HW112880   4.798   3.855   0.542
 4192SOL    HW212881   4.752   3.737   0.459
 4193SOL     OW12882   1.892   2.363   4.964
 4193SOL    HW112883   1.852   2.350   4.878
 4193SOL    HW212884   1.846   2.439   5.001
 4194SOL     OW12885   6.986   3.970   4.425
 4194SOL    HW112886   6.941   4.051   4.402
 4194SOL    HW212887   7.056   3.963   4.360
 4195SOL     OW12888   3.029   7.790   2.778
 4195SOL    HW112889   2.969   7.864   2.787
 4195SOL    HW212890   3.016   7.760   2.688
 4196SOL     OW12891   2.190   6.863   2.916
 4196SOL    HW112892   2.177   6.798   2.985
 4196SOL    HW212893   2.276   6.901   2.935
 4197SOL     OW12894   6.124   4.521   0.455
 4197SOL    HW112895   6.029   4.535   0.455
 4197SOL    HW212896   6.160   4.607   0.433
 4198SOL     OW12897   3.023   6.583   0.579
 4198SOL    HW112898   2.958   6.603   0.511
 4198SOL    HW212899   3.099   6.635   0.555
 4199SOL     OW12900   5.777   3.272   0.927
 4199SOL    HW112901   5.814   3.360   0.919
 4199SOL    HW212902   5.698   3.274   0.873
 4200SOL     OW12903   4.825   4.238   4.691
 4200SOL    HW112904   4.832   4.302   4.620
 4200SOL    HW212905   4.785   4.286   4.763
 4201SOL     OW12906   2.003   0.026   0.820
 4201SOL    HW112907   2.037   0.015   0.731
 4201SOL    HW212908   1.917   0.067   0.808
 4202SOL     OW12909   1.123   4.542   4.177
 4202SOL    HW112910   1.169   4.478   4.123
 4202SOL    HW212911   1.057   4.491   4.224
 4203SOL     OW12912   5.916   7.345   5.727
 4203SOL    HW112913   5.870   7.263   5.707
 4203SOL    HW212914   5.996   7.317   5.771
 4204SOL     OW12915   2.201   0.261   3.946
 4204SOL    HW112916   2.218   0.350   3.976
 4204SOL    HW212917   2.181   0.271   3.853
 4205SOL     OW12918   4.235   2.492   0.211
 4205SOL    HW112919   4.167   2.493   0.143
 4205SOL    HW212920   4.186   2.483   0.293
 4206SOL     OW12921   4.441   2.194   4.580
 4206SOL    HW112922   4.356   2.204   4.623
 4206SOL    HW212923   4.499   2.254   4.628
 4207SOL     OW12924   6.028   8.193   3.536
 4207SOL    HW112925   5.969   8.144   3.593
 4207SOL    HW212926   6.109   8.200   3.586
 4208SOL     OW12927   3.511   1.572   3.875
 4208SOL    HW112928   3.432   1.624   3.861
 4208SOL    HW212929   3.582   1.636   3.874
 4209SOL     OW12930   0.260   5.362   0.198
 4209SOL    HW112931   0.267   5.330   0.108
 4209SOL    HW212932   0.338   5.416   0.211
 4210SOL     OW12933   3.760   1.714   3.838
 4210SOL    HW112934   3.845   1.681   3.868
 4210SOL    HW212935   3.726   1.763   3.912
 4211SOL     OW12936   5.676   1.145   3.506
 4211SOL    HW112937   5.745   1.203   3.473
 4211SOL    HW212938   5.633   1.111   3.427
 4212SOL     OW12939   6.294   3.694   0.956
 4212SOL    HW112940   6.380   3.699   0.999
 4212SOL    HW212941   6.262   3.606   0.976
 4213SOL     OW12942   1.225   1.948   4.839
 4213SOL    HW112943   1.195   1.857   4.834
 4213SOL    HW212944   1.147   2.000   4.822
 4214SOL     OW12945   7.931   7.719   0.850
 4214SOL    HW112946   7.969   7.806   0.844
 4214SOL    HW212947   8.001   7.660   0.821
 4215SOL     OW12948   2.185   2.879   3.052
 4215SOL    HW112949   2.226   2.866   2.966
 4215SOL    HW212950   2.188   2.974   3.066
 4216SOL     OW12951   3.990   6.239   0.838
 4216SOL    HW112952   3.942   6.320   0.856
 4216SOL    HW212953   4.082   6.264   0.845
 4217SOL     OW12954   5.380   6.820   4.467
 4217SOL    HW112955   5.465   6.802   4.426
 4217SOL    HW212956   5.382   6.771   4.549
 4218SOL     OW12957   7.333   4.386   1.230
 4218SOL    HW112958   7.384   4.454   1.274
 4218SOL    HW212959   7.281   4.346   1.300
 4219SOL     OW12960   7.573   2.938   0.731
 4219SOL    HW112961   7.508   2.892   0.784
 4219SOL    HW212962   7.535   3.024   0.715
 4220SOL     OW12963   7.401   0.208   4.443
 4220SOL    HW112964   7.311   0.181   4.427
 4220SOL    HW212965   7.454   0.139   4.403
 4221SOL     OW12966   1.360   7.081   2.840
 4221SOL    HW112967   1.347   7.067   2.934
 4221SOL    HW212968   1.272   7.078   2.803
 4222SOL     OW12969   2.702   7.242   3.815
 4222SOL    HW112970   2.666   7.232   3.903
 4222SOL    HW212971   2.691   7.335   3.794
 4223SOL     OW12972   8.144   4.739   1.814
 4223SOL    HW112973   8.194   4.670   1.770
 4223SOL    HW212974   8.088   4.775   1.745
 4224SOL     OW12975   0.208   0.250   2.135
 4224SOL    HW112976   0.131   0.274   2.186
 4224SOL    HW212977   0.254   0.185   2.189
 4225SOL     OW12978   3.636   5.403   1.541
 4225SOL    HW112979   3.608   5.492   1.521
 4225SOL    HW212980   3.589   5.380   1.621
 4226SOL     OW12981   4.409   1.562   3.012
 4226SOL    HW112982   4.320   1.587   2.989
 4226SOL    HW212983   4.462   1.589   2.937
 4227SOL     OW12984   2.093   5.004   3.589
 4227SOL    HW112985   2.141   4.931   3.628
 4227SOL    HW212986   2.153   5.078   3.594
 4228SOL     OW12987   1.670   6.429   4.709
 4228SOL    HW112988   1.629   6.455   4.627
 4228SOL    HW212989   1.673   6.509   4.761
 4229SOL     OW12990   4.630   2.044   0.133
 4229SOL    HW112991   4.675   2.127   0.147
 4229SOL    HW212992   4.675   1.982   0.191
 4230SOL     OW12993   1.811   4.997   3.611
 4230SOL    HW112994   1.805   5.011   3.706
 4230SOL    HW212995   1.904   4.981   3.595
 4231SOL     OW12996   1.810   6.759   3.575
 4231SOL    HW112997   1.889   6.740   3.626
 4231SOL    HW212998   1.746   6.789   3.640
 4232SOL     OW12999   2.769   7.620   5.353
 4232SOL    HW113000   2.794   7.695   5.407
 4232SOL    HW213001   2.736   7.556   5.415
 4233SOL     OW13002   4.445   4.169   5.524
 4233SOL    HW113003   4.376   4.199   5.465
 4233SOL    HW213004   4.514   4.137   5.466
 4234SOL     OW13005   3.725   5.437   0.957
 4234SOL    HW113006   3.783   5.512   0.969
 4234SOL    HW213007   3.733   5.387   1.038
 4235SOL     OW13008   4.171   1.934   4.896
 4235SOL    HW113009   4.248   1.928   4.953
 4235SOL    HW213010   4.102   1.970   4.952
 4236SOL     OW13011   0.911   1.956   0.156
 4236SOL    HW113012   0.979   2.013   0.193
 4236SOL    HW213013   0.940   1.867   0.176
 4237SOL     OW13014   1.116   5.973   0.410
 4237SOL    HW113015   1.095   5.916   0.336
 4237SOL    HW213016   1.082   6.059   0.385
 4238SOL     OW13017   1.822   6.809   1.400
 4238SOL    HW113018   1.805   6.789   1.492
 4238SOL    HW213019   1.789   6.733   1.352
 4239SOL     OW13020   2.749   0.411   5.453
 4239SOL    HW113021   2.721   0.353   5.382
 4239SOL    HW213022   2.845   0.408   5.450
 4240SOL     OW13023   5.758   7.542   0.395
 4240SOL    HW113024   5.807   7.605   0.447
 4240SOL    HW213025   5.796   7.457   0.419
 4241SOL     OW13026   0.852   4.305   4.108
 4241SOL    HW113027   0.888   4.219   4.086
 4241SOL    HW213028   0.890   4.326   4.193
 4242SOL     OW13029   2.406   0.064   0.190
 4242SOL    HW113030   2.345   8.224   0.163
 4242SOL    HW213031   2.427   0.110   0.109
 4243SOL     OW13032   6.724   0.835   3.440
 4243SOL    HW113033   6.800   0.883   3.472
 4243SOL    HW213034   6.694   0.784   3.516
 4244SOL     OW13035   2.612   0.971   1.614
 4244SOL    HW113036   2.518   0.956   1.619
 4244SOL    HW213037   2.648   0.921   1.687
 4245SOL     OW13038   0.127   7.787   1.956
 4245SOL    HW113039   0.044   7.750   1.926
 4245SOL    HW213040   0.171   7.816   1.876
 4246SOL     OW13041   1.911   5.051   2.003
 4246SOL    HW113042   1.937   5.038   2.094
 4246SOL    HW213043   1.959   4.983   1.955
 4247SOL     OW13044   1.822   3.744   1.192
 4247SOL    HW113045   1.827   3.829   1.149
 4247SOL    HW213046   1.730   3.734   1.215
 4248SOL     OW13047   6.188   7.274   4.821
 4248SOL    HW113048   6.128   7.299   4.892
 4248SOL    HW213049   6.235   7.355   4.800
 4249SOL     OW13050   6.848   2.379   3.194
 4249SOL    HW113051   6.803   2.454   3.155
 4249SOL    HW213052   6.845   2.311   3.127
 4250SOL     OW13053   3.723   3.765   5.387
 4250SOL    HW113054   3.721   3.695   5.321
 4250SOL    HW213055   3.799   3.818   5.364
 4251SOL     OW13056   5.366   1.785   5.120
 4251SOL    HW113057   5.360   1.880   5.112
 4251SOL    HW213058   5.340   1.767   5.210
 4252SOL     OW13059   6.700   1.695   5.405
 4252SOL    HW113060   6.608   1.674   5.386
 4252SOL    HW213061   6.697   1.749   5.484
 4253SOL     OW13062   2.596   7.946   1.369
 4253SOL    HW113063   2.665   7.967   1.306
 4253SOL    HW213064   2.530   8.014   1.356
 4254SOL     OW13065   0.856   3.694   4.166
 4254SOL    HW113066   0.948   3.709   4.143
 4254SOL    HW213067   0.844   3.600   4.155
 4255SOL     OW13068   3.095   2.497   2.542
 4255SOL    HW113069   3.092   2.563   2.473
 4255SOL    HW213070   3.011   2.452   2.537
 4256SOL     OW13071   2.048   7.303   0.276
 4256SOL    HW113072   2.031   7.321   0.369
 4256SOL    HW213073   2.081   7.213   0.275
 4257SOL     OW13074   0.665   4.031   5.052
 4257SOL    HW113075   0.578   4.064   5.030
 4257SOL    HW213076   0.648   3.945   5.092
 4258SOL     OW13077   7.695   7.995   2.479
 4258SOL    HW113078   7.782   7.962   2.504
 4258SOL    HW213079   7.634   7.939   2.526
 4259SOL     OW13080   5.362   3.398   3.130
 4259SOL    HW113081   5.434   3.350   3.090
 4259SOL    HW213082   5.385   3.490   3.119
 4260SOL     OW13083   6.838   1.679   4.844
 4260SOL    HW113084   6.916   1.629   4.867
 4260SOL    HW213085   6.809   1.718   4.927
 4261SOL     OW13086   2.602   2.526   4.929
 4261SOL    HW113087   2.615   2.546   5.022
 4261SOL    HW213088   2.541   2.452   4.929
 4262SOL     OW13089   4.653   1.143   0.323
 4262SOL    HW113090   4.697   1.209   0.376
 4262SOL    HW213091   4.612   1.192   0.252
 4263SOL     OW13092   7.222   6.624   1.355
 4263SOL    HW113093   7.264   6.710   1.352
 4263SOL    HW213094   7.260   6.581   1.432
 4264SOL     OW13095   1.618   7.494   1.020
 4264SOL    HW113096   1.618   7.545   0.939
 4264SOL    HW213097   1.611   7.403   0.992
 4265SOL     OW13098   5.415   5.151   1.954
 4265SOL    HW113099   5.401   5.204   2.033
 4265SOL    HW213100   5.443   5.066   1.987
 4266SOL     OW13101   4.591   0.039   3.647
 4266SOL    HW113102   4.600   8.179   3.680
 4266SOL    HW213103   4.566   0.090   3.724
 4267SOL     OW13104   0.796   1.650   1.067
 4267SOL    HW113105   0.879   1.697   1.071
 4267SOL    HW213106   0.799   1.603   0.984
 4268SOL     OW13107   3.293   3.739   1.308
 4268SOL    HW113108   3.317   3.712   1.397
 4268SOL    HW213109   3.334   3.674   1.251
 4269SOL     OW13110   1.112   1.624   2.437
 4269SOL    HW113111   1.189   1.624   2.493
 4269SOL    HW213112   1.074   1.711   2.448
 4270SOL     OW13113   1.202   2.855   2.510
 4270SOL    HW113114   1.272   2.807   2.465
 4270SOL    HW213115   1.134   2.789   2.525
 4271SOL     OW13116   6.840   6.433   4.091
 4271SOL    HW113117   6.775   6.442   4.022
 4271SOL    HW213118   6.806   6.364   4.148
 4272SOL     OW13119   3.888   3.219   4.590
 4272SOL    HW113120   3.882   3.174   4.674
 4272SOL    HW213121   3.944   3.163   4.537
 4273SOL     OW13122   4.065   2.665   2.769
 4273SOL    HW113123   4.040   2.729   2.835
 4273SOL    HW213124   4.129   2.711   2.714
 4274SOL     OW13125   3.339   2.321   1.841
 4274SOL    HW113126   3.263   2.351   1.891
 4274SOL    HW213127   3.322   2.350   1.751
 4275SOL     OW13128   3.202   2.327   3.403
 4275SOL    HW113129   3.207   2.293   3.314
 4275SOL    HW213130   3.231   2.254   3.458
 4276SOL     OW13131   7.877   4.215   2.177
 4276SOL    HW113132   7.923   4.226   2.260
 4276SOL    HW213133   7.945   4.222   2.110
 4277SOL     OW13134   7.633   0.990   5.573
 4277SOL    HW113135   7.567   1.059   5.580
 4277SOL    HW213136   7.716   1.036   5.586
 4278SOL     OW13137   1.965   0.654   5.452
 4278SOL    HW113138   1.893   0.613   5.404
 4278SOL    HW213139   1.992   0.588   5.515
 4279SOL     OW13140   7.232   4.459   5.123
 4279SOL    HW113141   7.227   4.479   5.216
 4279SOL    HW213142   7.280   4.377   5.118
 4280SOL     OW13143   2.234   3.521   4.038
 4280SOL    HW113144   2.234   3.567   3.954
 4280SOL    HW213145   2.325   3.522   4.066
 4281SOL     OW13146   1.064   7.619   1.468
 4281SOL    HW113147   1.061   7.603   1.562
 4281SOL    HW213148   1.155   7.643   1.451
 4282SOL     OW13149   7.629   5.009   3.314
 4282SOL    HW113150   7.538   5.033   3.332
 4282SOL    HW213151   7.674   5.092   3.299
 4283SOL     OW13152   1.039   2.794   1.245
 4283SOL    HW113153   1.084   2.738   1.308
 4283SOL    HW213154   1.083   2.777   1.162
 4284SOL     OW13155   5.836   0.901   1.814
 4284SOL    HW113156   5.927   0.931   1.817
 4284SOL    HW213157   5.810   0.912   1.723
 4285SOL     OW13158   6.280   4.337   4.795
 4285SOL    HW113159   6.374   4.323   4.806
 4285SOL    HW213160   6.246   4.253   4.763
 4286SOL     OW13161   3.172   3.610   2.716
 4286SOL    HW113162   3.213   3.632   2.800
 4286SOL    HW213163   3.239   3.630   2.651
 4287SOL     OW13164   3.083   4.083   0.713
 4287SOL    HW113165   3.097   4.145   0.641
 4287SOL    HW213166   3.060   4.138   0.788
 4288SOL     OW13167   0.314   5.365   3.194
 4288SOL    HW113168   0.359   5.360   3.110
 4288SOL    HW213169   0.354   5.297   3.247
 4289SOL     OW13170   5.348   5.610   1.816
 4289SOL    HW113171   5.336   5.678   1.749
 4289SOL    HW213172   5.384   5.657   1.891
 4290SOL     OW13173   5.228   3.145   0.440
 4290SOL    HW113174   5.303   3.154   0.382
 4290SOL    HW213175   5.229   3.224   0.494
 4291SOL     OW13176   4.927   2.045   3.066
 4291SOL    HW113177   4.880   2.110   3.118
 4291SOL    HW213178   4.858   1.989   3.030
 4292SOL     OW13179   5.739   6.912   0.516
 4292SOL    HW113180   5.829   6.936   0.538
 4292SOL    HW213181   5.710   6.981   0.456
 4293SOL     OW13182   1.460   2.482   4.088
 4293SOL    HW113183   1.507   2.439   4.159
 4293SOL    HW213184   1.529   2.512   4.029
 4294SOL     OW13185   3.412   6.130   4.092
 4294SOL    HW113186   3.353   6.076   4.040
 4294SOL    HW213187   3.362   6.210   4.109
 4295SOL     OW13188   8.072   0.721   2.887
 4295SOL    HW113189   8.085   0.627   2.897
 4295SOL    HW213190   8.009   0.744   2.955
 4296SOL     OW13191   4.441   3.653   1.416
 4296SOL    HW113192   4.517   3.685   1.367
 4296SOL    HW213193   4.479   3.604   1.489
 4297SOL     OW13194   5.643   4.592   1.689
 4297SOL    HW113195   5.568   4.639   1.652
 4297SOL    HW213196   5.639   4.505   1.648
 4298SOL     OW13197   4.781   3.275   2.471
 4298SOL    HW113198   4.703   3.303   2.520
 4298SOL    HW213199   4.845   3.253   2.538
 4299SOL     OW13200   2.969   3.690   5.391
 4299SOL    HW113201   3.001   3.663   5.305
 4299SOL    HW213202   2.883   3.648   5.400
 4300SOL     OW13203   6.142   1.514   4.157
 4300SOL    HW113204   6.102   1.482   4.238
 4300SOL    HW213205   6.227   1.548   4.184
 4301SOL     OW13206   0.306   2.112   2.432
 4301SOL    HW113207   0.250   2.049   2.477
 4301SOL    HW213208   0.333   2.173   2.500
 4302SOL     OW13209   5.776   5.389   3.965
 4302SOL    HW113210   5.869   5.373   3.949
 4302SOL    HW213211   5.762   5.361   4.055
 4303SOL     OW13212   4.470   3.301   4.094
 4303SOL    HW113213   4.418   3.294   4.014
 4303SOL    HW213214   4.498   3.393   4.097
 4304SOL     OW13215   5.903   5.882   2.648
 4304SOL    HW113216   5.831   5.824   2.671
 4304SOL    HW213217   5.867   5.970   2.660
 4305SOL     OW13218   3.172   4.842   3.588
 4305SOL    HW113219   3.113   4.784   3.541
 4305SOL    HW213220   3.255   4.794   3.592
 4306SOL     OW13221   1.390   5.315   0.051
 4306SOL    HW113222   5.474   1.267   5.809
 4306SOL    HW213223   1.479   5.294   0.021
 4307SOL     OW13224   1.907   4.414   0.894
 4307SOL    HW113225   1.840   4.477   0.920
 4307SOL    HW213226   1.861   4.350   0.840
 4308SOL     OW13227   4.442   0.914   3.645
 4308SOL    HW113228   4.491   0.847   3.693
 4308SOL    HW213229   4.508   0.978   3.618
 4309SOL     OW13230   1.948   0.285   5.189
 4309SOL    HW113231   2.016   0.352   5.197
 4309SOL    HW213232   1.967   0.223   5.260
 4310SOL     OW13233   7.047   5.506   2.129
 4310SOL    HW113234   7.076   5.565   2.060
 4310SOL    HW213235   7.085   5.542   2.209
 4311SOL     OW13236   2.813   6.966   4.931
 4311SOL    HW113237   2.778   6.903   4.868
 4311SOL    HW213238   2.745   6.973   4.998
 4312SOL     OW13239   3.979   5.631   2.042
 4312SOL    HW113240   3.935   5.710   2.072
 4312SOL    HW213241   3.922   5.559   2.069
 4313SOL     OW13242   6.727   3.056   0.331
 4313SOL    HW113243   6.738   3.057   0.426
 4313SOL    HW213244   6.766   2.973   0.304
 4314SOL     OW13245   2.029   5.638   1.005
 4314SOL    HW113246   2.086   5.709   1.034
 4314SOL    HW213247   1.961   5.681   0.954
 4315SOL     OW13248   1.789   7.595   4.055
 4315SOL    HW113249   1.740   7.640   4.124
 4315SOL    HW213250   1.818   7.665   3.997
 4316SOL     OW13251   1.357   6.678   2.731
 4316SOL    HW113252   1.292   6.747   2.746
 4316SOL    HW213253   1.389   6.655   2.818
 4317SOL     OW13254   6.918   7.698   2.604
 4317SOL    HW113255   6.916   7.737   2.691
 4317SOL    HW213256   6.876   7.763   2.548
 4318SOL     OW13257   2.789   0.425   4.980
 4318SOL    HW113258   2.859   0.478   5.019
 4318SOL    HW213259   2.722   0.489   4.956
 4319SOL     OW13260   0.282   6.745   4.772
 4319SOL    HW113261   0.217   6.740   4.702
 4319SOL    HW213262   0.366   6.736   4.727
 4320SOL     OW13263   1.403   7.020   1.836
 4320SOL    HW113264   1.326   6.992   1.786
 4320SOL    HW213265   1.461   6.944   1.836
 4321SOL     OW13266   2.405   5.350   1.480
 4321SOL    HW113267   2.473   5.305   1.429
 4321SOL    HW213268   2.454   5.412   1.535
 4322SOL     OW13269   3.507   7.352   3.737
 4322SOL    HW113270   3.473   7.430   3.780
 4322SOL    HW213271   3.602   7.356   3.752
 4323SOL     OW13272   7.937   2.703   3.882
 4323SOL    HW113273   7.903   2.786   3.847
 4323SOL    HW213274   8.032   2.709   3.870
 4324SOL     OW13275   3.431   2.163   0.983
 4324SOL    HW113276   3.478   2.246   0.995
 4324SOL    HW213277   3.377   2.177   0.906
 4325SOL     OW13278   4.642   7.402   1.361
 4325SOL    HW113279   4.560   7.430   1.402
 4325SOL    HW213280   4.711   7.443   1.414
 4326SOL     OW13281   6.787   7.454   5.303
 4326SOL    HW113282   6.880   7.443   5.323
 4326SOL    HW213283   6.742   7.426   5.382
 4327SOL     OW13284   6.309   5.805   4.675
 4327SOL    HW113285   6.343   5.793   4.764
 4327SOL    HW213286   6.249   5.731   4.662
 4328SOL     OW13287   2.509   5.510   5.192
 4328SOL    HW113288   2.547   5.545   5.273
 4328SOL    HW213289   2.568   5.439   5.167
 4329SOL     OW13290   1.944   2.756   2.059
 4329SOL    HW113291   2.033   2.724   2.071
 4329SOL    HW213292   1.947   2.808   1.979
 4330SOL     OW13293   7.623   6.510   1.508
 4330SOL    HW113294   7.660   6.562   1.437
 4330SOL    HW213295   7.638   6.419   1.482
 4331SOL     OW13296   8.060   7.745   1.267
 4331SOL    HW113297   8.082   7.652   1.277
 4331SOL    HW213298   7.987   7.759   1.327
 4332SOL     OW13299   3.672   0.412   4.959
 4332SOL    HW113300   3.600   0.467   4.929
 4332SOL    HW213301   3.737   0.473   4.993
 4333SOL     OW13302   0.413   4.319   0.070
 4333SOL    HW113303   0.501   4.341   0.039
 4333SOL    HW213304   0.417   4.334   0.164
 4334SOL     OW13305   5.080   2.018   2.841
 4334SOL    HW113306   5.010   2.050   2.784
 4334SOL    HW213307   5.043   2.021   2.929
 4335SOL     OW13308   2.028   4.469   2.611
 4335SOL    HW113309   2.084   4.392   2.607
 4335SOL    HW213310   2.049   4.518   2.531
 4336SOL     OW13311   2.314   3.969   4.161
 4336SOL    HW113312   2.344   3.916   4.087
 4336SOL    HW213313   2.394   3.991   4.209
 4337SOL     OW13314   5.190   5.590   5.637
 4337SOL    HW113315   5.254   5.519   5.636
 4337SOL    HW213316   5.105   5.546   5.629
 4338SOL     OW13317   7.156   2.266   1.710
 4338SOL    HW113318   7.113   2.195   1.758
 4338SOL    HW213319   7.244   2.269   1.747
 4339SOL     OW13320   3.413   5.859   0.347
 4339SOL    HW113321   3.396   5.952   0.333
 4339SOL    HW213322   3.488   5.839   0.291
 4340SOL     OW13323   6.683   0.383   3.921
 4340SOL    HW113324   6.694   0.321   3.993
 4340SOL    HW213325   6.742   0.455   3.942
 4341SOL     OW13326   6.649   0.629   0.719
 4341SOL    HW113327   6.663   0.723   0.732
 4341SOL    HW213328   6.735   0.589   0.731
 4342SOL     OW13329   1.452   0.834   5.013
 4342SOL    HW113330   1.441   0.914   5.064
 4342SOL    HW213331   1.480   0.864   4.927
 4343SOL     OW13332   2.146   5.420   0.895
 4343SOL    HW113333   2.114   5.432   0.806
 4343SOL    HW213334   2.107   5.492   0.945
 4344SOL     OW13335   0.428   4.727   1.667
 4344SOL    HW113336   0.388   4.721   1.754
 4344SOL    HW213337   0.512   4.681   1.676
 4345SOL     OW13338   5.332   1.770   3.607
 4345SOL    HW113339   5.337   1.675   3.617
 4345SOL    HW213340   5.401   1.804   3.663
 4346SOL     OW13341   4.662   3.705   0.797
 4346SOL    HW113342   4.585   3.719   0.851
 4346SOL    HW213343   4.684   3.613   0.809
 4347SOL     OW13344   0.948   1.911   5.652
 4347SOL    HW113345   0.999   1.872   5.581
 4347SOL    HW213346   0.859   1.879   5.639
 4348SOL     OW13347   4.385   8.055   0.252
 4348SOL    HW113348   4.370   8.099   0.336
 4348SOL    HW213349   4.373   7.962   0.271
 4349SOL     OW13350   6.438   3.133   1.142
 4349SOL    HW113351   6.426   3.044   1.175
 4349SOL    HW213352   6.365   3.183   1.179
 4350SOL     OW13353   0.333   1.813   2.286
 4350SOL    HW113354   0.395   1.779   2.221
 4350SOL    HW213355   0.373   1.792   2.370
 4351SOL     OW13356   2.203   4.718   0.893
 4351SOL    HW113357   2.271   4.773   0.855
 4351SOL    HW213358   2.129   4.777   0.907
 4352SOL     OW13359   3.284   0.431   2.685
 4352SOL    HW113360   3.357   0.419   2.624
 4352SOL    HW213361   3.318   0.403   2.770
 4353SOL     OW13362   3.546   3.424   3.376
 4353SOL    HW113363   3.594   3.454   3.299
 4353SOL    HW213364   3.580   3.477   3.448
 4354SOL     OW13365   1.670   2.735   0.434
 4354SOL    HW113366   1.631   2.669   0.491
 4354SOL    HW213367   1.666   2.816   0.485
 4355SOL     OW13368   0.411   4.417   4.536
 4355SOL    HW113369   0.501   4.432   4.566
 4355SOL    HW213370   0.358   4.422   4.616
 4356SOL     OW13371   2.590   8.150   2.340
 4356SOL    HW113372   2.543   8.151   2.423
 4356SOL    HW213373   2.645   8.229   2.342
 4357SOL     OW13374   1.897   1.393   0.787
 4357SOL    HW113375   1.842   1.413   0.863
 4357SOL    HW213376   1.879   1.464   0.725
 4358SOL     OW13377   7.823   7.745   4.794
 4358SOL    HW113378   7.826   7.835   4.826
 4358SOL    HW213379   7.831   7.752   4.699
 4359SOL     OW13380   7.850   3.002   0.632
 4359SOL    HW113381   7.923   2.957   0.673
 4359SOL    HW213382   7.776   2.988   0.692
 4360SOL     OW13383   1.742   3.487   4.938
 4360SOL    HW113384   1.770   3.403   4.902
 4360SOL    HW213385   1.805   3.550   4.904
 4361SOL     OW13386   7.196   7.664   5.484
 4361SOL    HW113387   7.234   7.750   5.464
 4361SOL    HW213388   7.264   7.601   5.460
 4362SOL     OW13389   3.940   5.832   0.288
 4362SOL    HW113390   4.028   5.814   0.320
 4362SOL    HW213391   3.884   5.821   0.365
 4363SOL     OW13392   3.347   3.563   5.797
 4363SOL    HW113393   3.325   3.653   5.774
 4363SOL    HW213394   7.539   7.685   0.034
 4364SOL     OW13395   4.952   2.908   2.829
 4364SOL    HW113396   4.890   2.941   2.894
 4364SOL    HW213397   5.021   2.974   2.827
 4365SOL     OW13398   5.145   7.868   2.932
 4365SOL    HW113399   5.202   7.814   2.878
 4365SOL    HW213400   5.175   7.853   3.022
 4366SOL     OW13401   3.647   4.061   0.978
 4366SOL    HW113402   3.561   4.023   0.958
 4366SOL    HW213403   3.639   4.154   0.955
 4367SOL     OW13404   7.475   4.062   4.839
 4367SOL    HW113405   7.417   4.008   4.786
 4367SOL    HW213406   7.563   4.039   4.811
 4368SOL     OW13407   4.784   2.891   4.622
 4368SOL    HW113408   4.864   2.933   4.590
 4368SOL    HW213409   4.726   2.890   4.546
 4369SOL     OW13410   1.322   3.609   2.292
 4369SOL    HW113411   1.298   3.541   2.230
 4369SOL    HW213412   1.281   3.582   2.374
 4370SOL     OW13413   3.481   5.455   4.078
 4370SOL    HW113414   3.519   5.505   4.150
 4370SOL    HW213415   3.553   5.446   4.015
 4371SOL     OW13416   4.577   0.018   2.765
 4371SOL    HW113417   4.560   0.108   2.736
 4371SOL    HW213418   4.509   0.001   2.830
 4372SOL     OW13419   2.214   1.360   2.475
 4372SOL    HW113420   2.153   1.369   2.548
 4372SOL    HW213421   2.209   1.444   2.429
 4373SOL     OW13422   3.755   1.306   4.975
 4373SOL    HW113423   3.847   1.328   4.960
 4373SOL    HW213424   3.715   1.311   4.888
 4374SOL     OW13425   1.815   4.661   2.010
 4374SOL    HW113426   1.785   4.571   2.025
 4374SOL    HW213427   1.901   4.665   2.051
 4375SOL     OW13428   2.998   1.927   4.086
 4375SOL    HW113429   3.014   1.875   4.007
 4375SOL    HW213430   2.967   2.011   4.053
 4376SOL     OW13431   4.702   5.650   4.135
 4376SOL    HW113432   4.620   5.672   4.091
 4376SOL    HW213433   4.755   5.608   4.067
 4377SOL     OW13434   8.163   2.397   5.135
 4377SOL    HW113435   0.021   2.373   5.167
 4377SOL    HW213436   8.125   2.449   5.206
 4378SOL     OW13437   7.740   0.252   4.192
 4378SOL    HW113438   7.742   0.297   4.108
 4378SOL    HW213439   7.648   0.230   4.206
 4379SOL     OW13440   0.650   2.580   0.940
 4379SOL    HW113441   0.665   2.541   0.854
 4379SOL    HW213442   0.735   2.618   0.965
 4380SOL     OW13443   2.926   6.615   0.948
 4380SOL    HW113444   2.909   6.580   0.861
 4380SOL    HW213445   2.929   6.710   0.935
 4381SOL     OW13446   2.683   4.637   5.213
 4381SOL    HW113447   2.776   4.613   5.219
 4381SOL    HW213448   2.683   4.732   5.204
 4382SOL     OW13449   5.785   0.808   3.903
 4382SOL    HW113450   5.754   0.720   3.882
 4382SOL    HW213451   5.807   0.847   3.818
 4383SOL     OW13452   7.960   0.753   1.948
 4383SOL    HW113453   7.865   0.739   1.948
 4383SOL    HW213454   7.983   0.764   2.040
 4384SOL     OW13455   7.374   1.714   3.135
 4384SOL    HW113456   7.399   1.767   3.210
 4384SOL    HW213457   7.435   1.641   3.135
 4385SOL     OW13458   4.342   0.429   3.223
 4385SOL    HW113459   4.427   0.419   3.266
 4385SOL    HW213460   4.334   0.523   3.206
 4386SOL     OW13461   4.235   5.527   2.586
 4386SOL    HW113462   4.197   5.454   2.635
 4386SOL    HW213463   4.238   5.599   2.649
 4387SOL     OW13464   1.495   6.407   0.159
 4387SOL    HW113465   1.420   6.374   0.208
 4387SOL    HW213466   1.461   6.423   0.071
 4388SOL     OW13467   2.598   7.344   5.471
 4388SOL    HW113468   2.608   7.353   5.566
 4388SOL    HW213469   2.524   7.400   5.450
 4389SOL     OW13470   5.033   8.095   1.833
 4389SOL    HW113471   5.012   8.188   1.837
 4389SOL    HW213472   4.949   8.052   1.816
 4390SOL     OW13473   5.126   6.490   0.194
 4390SOL    HW113474   5.204   6.459   0.148
 4390SOL    HW213475   5.093   6.413   0.241
 4391SOL     OW13476   8.079   3.769   5.694
 4391SOL    HW113477   8.004   3.715   5.669
 4391SOL    HW213478   8.110   3.731   5.776
 4392SOL     OW13479   1.438   7.825   2.060
 4392SOL    HW113480   1.416   7.781   1.978
 4392SOL    HW213481   1.440   7.755   2.125
 4393SOL     OW13482   7.592   0.270   3.600
 4393SOL    HW113483   7.589   0.305   3.689
 4393SOL    HW213484   7.548   0.185   3.607
 4394SOL     OW13485   2.699   3.997   4.668
 4394SOL    HW113486   2.709   3.922   4.727
 4394SOL    HW213487   2.641   4.057   4.715
 4395SOL     OW13488   0.455   0.235   1.965
 4395SOL    HW113489   0.372   0.246   2.010
 4395SOL    HW213490   0.511   0.304   2.000
 4396SOL     OW13491   4.174   1.452   4.548
 4396SOL    HW113492   4.259   1.456   4.505
 4396SOL    HW213493   4.185   1.503   4.628
 4397SOL     OW13494   0.604   8.029   4.893
 4397SOL    HW113495   0.622   8.039   4.800
 4397SOL    HW213496   0.690   8.017   4.933
 4398SOL     OW13497   5.873   1.177   1.283
 4398SOL    HW113498   5.895   1.137   1.367
 4398SOL    HW213499   5.884   1.271   1.298
 4399SOL     OW13500   3.491   3.841   5.529
 4399SOL    HW113501   3.513   3.924   5.571
 4399SOL    HW213502   3.565   3.823   5.471
 4400SOL     OW13503   0.816   0.147   1.635
 4400SOL    HW113504   0.845   0.101   1.556
 4400SOL    HW213505   0.861   0.102   1.706
 4401SOL     OW13506   1.274   6.099   2.329
 4401SOL    HW113507   1.243   6.072   2.415
 4401SOL    HW213508   1.354   6.148   2.346
 4402SOL     OW13509   1.465   7.603   2.231
 4402SOL    HW113510   1.418   7.521   2.246
 4402SOL    HW213511   1.547   7.577   2.189
 4403SOL     OW13512   4.665   4.240   2.207
 4403SOL    HW113513   4.665   4.215   2.299
 4403SOL    HW213514   4.591   4.300   2.199
 4404SOL     OW13515   5.882   1.575   2.143
 4404SOL    HW113516   5.797   1.530   2.141
 4404SOL    HW213517   5.878   1.630   2.221
 4405SOL     OW13518   0.533   4.626   5.144
 4405SOL    HW113519   0.604   4.651   5.085
 4405SOL    HW213520   0.522   4.702   5.201
 4406SOL     OW13521   3.866   4.924   2.448
 4406SOL    HW113522   3.852   4.972   2.366
 4406SOL    HW213523   3.782   4.881   2.465
 4407SOL     OW13524   8.207   2.468   4.879
 4407SOL    HW113525   8.194   2.562   4.887
 4407SOL    HW213526   8.182   2.433   4.965
 4408SOL     OW13527   0.990   7.336   2.316
 4408SOL    HW113528   0.985   7.338   2.412
 4408SOL    HW213529   0.954   7.420   2.289
 4409SOL     OW13530   6.660   4.157   5.484
 4409SOL    HW113531   6.574   4.194   5.505
 4409SOL    HW213532   6.668   4.080   5.541
 4410SOL     OW13533   1.428   3.427   0.817
 4410SOL    HW113534   1.339   3.430   0.782
 4410SOL    HW213535   1.420   3.380   0.900
 4411SOL     OW13536   3.278   2.398   5.767
 4411SOL    HW113537   3.195   2.385   5.722
 4411SOL    HW213538   3.344   2.384   5.699
 4412SOL     OW13539   2.026   6.882   0.608
 4412SOL    HW113540   2.047   6.874   0.701
 4412SOL    HW213541   2.028   6.792   0.576
 4413SOL     OW13542   1.476   4.032   1.491
 4413SOL    HW113543   1.520   4.028   1.576
 4413SOL    HW213544   1.437   3.945   1.481
 4414SOL     OW13545   4.046   2.651   1.931
 4414SOL    HW113546   4.104   2.713   1.975
 4414SOL    HW213547   4.027   2.692   1.847
 4415SOL     OW13548   6.210   0.822   2.107
 4415SOL    HW113549   6.262   0.882   2.161
 4415SOL    HW213550   6.274   0.762   2.070
 4416SOL     OW13551   3.722   7.801   2.877
 4416SOL    HW113552   3.760   7.714   2.867
 4416SOL    HW213553   3.704   7.809   2.971
 4417SOL     OW13554   7.802   0.027   4.872
 4417SOL    HW113555   7.879   0.003   4.820
 4417SOL    HW213556   7.819   8.219   4.959
 4418SOL     OW13557   6.307   4.029   2.505
 4418SOL    HW113558   6.355   4.110   2.521
 4418SOL    HW213559   6.298   3.989   2.592
 4419SOL     OW13560   3.955   3.838   2.573
 4419SOL    HW113561   3.954   3.760   2.517
 4419SOL    HW213562   3.980   3.805   2.659
 4420SOL     OW13563   4.245   8.160   4.172
 4420SOL    HW113564   4.297   8.082   4.192
 4420SOL    HW213565   4.154   8.132   4.183
 4421SOL     OW13566   0.135   1.354   5.473
 4421SOL    HW113567   0.082   1.387   5.400
 4421SOL    HW213568   0.225   1.367   5.444
 4422SOL     OW13569   0.164   1.383   2.395
 4422SOL    HW113570   0.239   1.351   2.345
 4422SOL    HW213571   0.135   1.308   2.447
 4423SOL     OW13572   6.156   2.884   2.034
 4423SOL    HW113573   6.185   2.973   2.056
 4423SOL    HW213574   6.083   2.897   1.974
 4424SOL     OW13575   2.906   2.168   2.565
 4424SOL    HW113576   2.843   2.122   2.509
 4424SOL    HW213577   2.986   2.115   2.560
 4425SOL     OW13578   6.936   1.175   1.422
 4425SOL    HW113579   6.885   1.245   1.381
 4425SOL    HW213580   6.993   1.220   1.485
 4426SOL     OW13581   5.718   7.057   1.174
 4426SOL    HW113582   5.791   7.048   1.235
 4426SOL    HW213583   5.673   7.136   1.203
 4427SOL     OW13584   7.601   5.060   2.710
 4427SOL    HW113585   7.655   5.057   2.789
 4427SOL    HW213586   7.514   5.033   2.740
 4428SOL     OW13587   3.412   0.334   5.371
 4428SOL    HW113588   3.336   0.336   5.429
 4428SOL    HW213589   3.402   0.252   5.322
 4429SOL     OW13590   4.004   1.613   3.914
 4429SOL    HW113591   4.060   1.682   3.950
 4429SOL    HW213592   3.982   1.558   3.989
 4430SOL     OW13593   2.344   2.833   2.340
 4430SOL    HW113594   2.437   2.827   2.363
 4430SOL    HW213595   2.305   2.754   2.377
 4431SOL     OW13596   2.402   4.199   5.022
 4431SOL    HW113597   2.308   4.213   5.031
 4431SOL    HW213598   2.438   4.217   5.109
 4432SOL     OW13599   4.094   7.985   0.911
 4432SOL    HW113600   4.181   7.984   0.870
 4432SOL    HW213601   4.095   7.909   0.969
 4433SOL     OW13602   1.660   7.533   4.736
 4433SOL    HW113603   1.675   7.458   4.679
 4433SOL    HW213604   1.610   7.595   4.682
 4434SOL     OW13605   2.895   4.183   0.453
 4434SOL    HW113606   2.827   4.120   0.431
 4434SOL    HW213607   2.973   4.152   0.406
 4435SOL     OW13608   1.857   0.185   0.379
 4435SOL    HW113609   1.823   0.243   0.447
 4435SOL    HW213610   1.874   0.243   0.304
 4436SOL     OW13611   1.298   7.733   4.886
 4436SOL    HW113612   1.387   7.729   4.922
 4436SOL    HW213613   1.266   7.820   4.910
 4437SOL     OW13614   3.413   5.481   4.456
 4437SOL    HW113615   3.341   5.542   4.473
 4437SOL    HW213616   3.479   5.534   4.412
 4438SOL     OW13617   6.516   7.000   5.236
 4438SOL    HW113618   6.431   7.037   5.211
 4438SOL    HW213619   6.528   6.925   5.178
 4439SOL     OW13620   2.958   5.470   5.533
 4439SOL    HW113621   3.029   5.454   5.595
 4439SOL    HW213622   2.977   5.556   5.497
 4440SOL     OW13623   5.453   4.704   0.421
 4440SOL    HW113624   5.541   4.739   0.404
 4440SOL    HW213625   5.418   4.760   0.490
 4441SOL     OW13626   7.446   3.290   4.989
 4441SOL    HW113627   7.528   3.249   5.018
 4441SOL    HW213628   7.441   3.371   5.039
 4442SOL     OW13629   4.184   2.421   4.605
 4442SOL    HW113630   4.181   2.411   4.510
 4442SOL    HW213631   4.154   2.337   4.639
 4443SOL     OW13632   0.027   7.187   0.756
 4443SOL    HW113633   8.211   7.212   0.675
 4443SOL    HW213634   8.186   7.161   0.815
 4444SOL     OW13635   2.083   0.366   3.151
 4444SOL    HW113636   1.996   0.331   3.134
 4444SOL    HW213637   2.087   0.376   3.246
 4445SOL     OW13638   7.341   0.715   5.202
 4445SOL    HW113639   7.399   0.760   5.264
 4445SOL    HW213640   7.368   0.748   5.116
 4446SOL     OW13641   0.388   7.540   2.855
 4446SOL    HW113642   0.387   7.589   2.773
 4446SOL    HW213643   0.446   7.466   2.839
 4447SOL     OW13644   0.003   4.365   3.346
 4447SOL    HW113645   8.189   4.434   3.397
 4447SOL    HW213646   0.049   4.312   3.411
 4448SOL     OW13647   5.067   1.253   5.052
 4448SOL    HW113648   5.098   1.269   5.141
 4448SOL    HW213649   5.047   1.340   5.018
 4449SOL     OW13650   5.175   4.731   3.496
 4449SOL    HW113651   5.212   4.819   3.497
 4449SOL    HW213652   5.081   4.744   3.505
 4450SOL     OW13653   0.002   1.019   0.613
 4450SOL    HW113654   0.024   1.108   0.586
 4450SOL    HW213655   8.142   1.025   0.647
 4451SOL     OW13656   8.057   4.112   2.872
 4451SOL    HW113657   8.114   4.176   2.830
 4451SOL    HW213658   8.076   4.120   2.965
 4452SOL     OW13659   0.700   6.198   2.411
 4452SOL    HW113660   0.693   6.247   2.329
 4452SOL    HW213661   0.746   6.257   2.471
 4453SOL     OW13662   2.058   5.491   1.699
 4453SOL    HW113663   2.005   5.571   1.705
 4453SOL    HW213664   2.026   5.436   1.770
 4454SOL     OW13665   0.450   0.920   3.571
 4454SOL    HW113666   0.476   0.832   3.599
 4454SOL    HW213667   0.361   0.909   3.537
 4455SOL     OW13668   5.655   1.950   5.424
 4455SOL    HW113669   5.672   1.856   5.420
 4455SOL    HW213670   5.742   1.990   5.433
 4456SOL     OW13671   6.657   5.563   4.770
 4456SOL    HW113672   6.659   5.563   4.674
 4456SOL    HW213673   6.621   5.478   4.794
 4457SOL     OW13674   6.868   1.666   3.169
 4457SOL    HW113675   6.940   1.605   3.156
 4457SOL    HW213676   6.850   1.663   3.263
 4458SOL     OW13677   7.620   7.056   3.959
 4458SOL    HW113678   7.634   7.100   4.043
 4458SOL    HW213679   7.528   7.071   3.939
 4459SOL     OW13680   7.394   2.216   5.082
 4459SOL    HW113681   7.304   2.202   5.111
 4459SOL    HW213682   7.408   2.310   5.094
 4460SOL     OW13683   1.150   3.647   0.303
 4460SOL    HW113684   1.111   3.570   0.345
 4460SOL    HW213685   1.210   3.683   0.369
 4461SOL     OW13686   2.264   5.258   3.571
 4461SOL    HW113687   2.204   5.332   3.580
 4461SOL    HW213688   2.342   5.285   3.619
 4462SOL     OW13689   6.533   7.614   0.622
 4462SOL    HW113690   6.558   7.523   0.639
 4462SOL    HW213691   6.612   7.665   0.641
 4463SOL     OW13692   2.589   5.431   3.426
 4463SOL    HW113693   2.504   5.474   3.431
 4463SOL    HW213694   2.634   5.457   3.507
 4464SOL     OW13695   3.858   7.317   5.085
 4464SOL    HW113696   3.763   7.320   5.072
 4464SOL    HW213697   3.874   7.231   5.123
 4465SOL     OW13698   3.751   3.667   4.036
 4465SOL    HW113699   3.799   3.729   4.090
 4465SOL    HW213700   3.762   3.699   3.946
 4466SOL     OW13701   6.586   3.200   2.069
 4466SOL    HW113702   6.681   3.209   2.064
 4466SOL    HW213703   6.562   3.157   1.987
 4467SOL     OW13704   2.218   7.280   2.373
 4467SOL    HW113705   2.295   7.257   2.425
 4467SOL    HW213706   2.213   7.212   2.306
 4468SOL     OW13707   3.034   7.783   0.400
 4468SOL    HW113708   3.123   7.817   0.395
 4468SOL    HW213709   3.001   7.790   0.311
 4469SOL     OW13710   2.298   0.791   3.294
 4469SOL    HW113711   2.219   0.785   3.240
 4469SOL    HW213712   2.370   0.779   3.232
 4470SOL     OW13713   7.925   1.432   5.164
 4470SOL    HW113714   7.831   1.443   5.147
 4470SOL    HW213715   7.967   1.500   5.111
 4471SOL     OW13716   6.242   2.019   2.668
 4471SOL    HW113717   6.266   2.080   2.737
 4471SOL    HW213718   6.146   2.016   2.670
 4472SOL     OW13719   0.519   1.185   1.477
 4472SOL    HW113720   0.590   1.197   1.540
 4472SOL    HW213721   0.488   1.274   1.458
 4473SOL     OW13722   6.456   3.375   5.012
 4473SOL    HW113723   6.410   3.427   5.078
 4473SOL    HW213724   6.515   3.318   5.062
 4474SOL     OW13725   4.407   7.287   2.142
 4474SOL    HW113726   4.453   7.353   2.194
 4474SOL    HW213727   4.349   7.244   2.205
 4475SOL     OW13728   3.490   4.905   3.731
 4475SOL    HW113729   3.519   4.884   3.820
 4475SOL    HW213730   3.458   4.995   3.737
 4476SOL     OW13731   2.221   7.146   5.780
 4476SOL    HW113732   2.309   7.144   5.817
 4476SOL    HW213733   6.284   3.080   0.025
 4477SOL     OW13734   6.324   4.274   2.020
 4477SOL    HW113735   6.358   4.218   2.090
 4477SOL    HW213736   6.272   4.340   2.065
 4478SOL     OW13737   7.286   3.806   1.665
 4478SOL    HW113738   7.355   3.740   1.671
 4478SOL    HW213739   7.330   3.884   1.632
 4479SOL     OW13740   6.643   7.445   4.683
 4479SOL    HW113741   6.592   7.503   4.626
 4479SOL    HW213742   6.707   7.404   4.625
 4480SOL     OW13743   3.541   4.090   4.437
 4480SOL    HW113744   3.455   4.129   4.420
 4480SOL    HW213745   3.543   4.011   4.384
 4481SOL     OW13746   2.077   5.555   4.701
 4481SOL    HW113747   2.031   5.593   4.776
 4481SOL    HW213748   2.111   5.472   4.733
 4482SOL     OW13749   2.447   5.737   1.292
 4482SOL    HW113750   2.377   5.710   1.351
 4482SOL    HW213751   2.471   5.825   1.321
 4483SOL     OW13752   2.615   7.317   4.745
 4483SOL    HW113753   2.634   7.327   4.838
 4483SOL    HW213754   2.691   7.270   4.710
 4484SOL     OW13755   0.987   6.489   5.065
 4484SOL    HW113756   1.054   6.556   5.073
 4484SOL    HW213757   0.965   6.487   4.972
 4485SOL     OW13758   4.484   6.568   5.028
 4485SOL    HW113759   4.440   6.652   5.042
 4485SOL    HW213760   4.568   6.577   5.072
 4486SOL     OW13761   0.415   6.506   1.431
 4486SOL    HW113762   0.338   6.487   1.378
 4486SOL    HW213763   0.421   6.433   1.492
 4487SOL     OW13764   1.362   3.477   4.185
 4487SOL    HW113765   1.360   3.564   4.225
 4487SOL    HW213766   1.434   3.432   4.230
 4488SOL     OW13767   1.986   6.209   0.234
 4488SOL    HW113768   2.069   6.237   0.272
 4488SOL    HW213769   1.925   6.280   0.254
 4489SOL     OW13770   0.701   4.941   1.778
 4489SOL    HW113771   0.784   4.972   1.813
 4489SOL    HW213772   0.725   4.875   1.714
 4490SOL     OW13773   0.376   3.064   1.188
 4490SOL    HW113774   0.289   3.098   1.167
 4490SOL    HW213775   0.386   2.986   1.134
 4491SOL     OW13776   7.152   1.406   4.644
 4491SOL    HW113777   7.063   1.409   4.608
 4491SOL    HW213778   7.143   1.360   4.727
 4492SOL     OW13779   2.691   6.034   3.080
 4492SOL    HW113780   2.690   6.100   3.010
 4492SOL    HW213781   2.761   6.062   3.139
 4493SOL     OW13782   2.435   6.932   4.394
 4493SOL    HW113783   2.482   6.982   4.461
 4493SOL    HW213784   2.492   6.936   4.317
 4494SOL     OW13785   7.421   2.670   0.751
 4494SOL    HW113786   7.508   2.643   0.722
 4494SOL    HW213787   7.387   2.722   0.678
 4495SOL     OW13788   7.826   5.074   3.672
 4495SOL    HW113789   7.834   5.025   3.590
 4495SOL    HW213790   7.898   5.042   3.726
 4496SOL     OW13791   2.506   3.029   1.077
 4496SOL    HW113792   2.553   3.100   1.034
 4496SOL    HW213793   2.574   2.965   1.099
 4497SOL     OW13794   1.163   4.381   0.403
 4497SOL    HW113795   1.070   4.360   0.390
 4497SOL    HW213796   1.166   4.477   0.402
 4498SOL     OW13797   3.768   0.566   1.474
 4498SOL    HW113798   3.690   0.610   1.509
 4498SOL    HW213799   3.806   0.521   1.550
 4499SOL     OW13800   1.708   6.072   3.199
 4499SOL    HW113801   1.640   6.027   3.249
 4499SOL    HW213802   1.736   6.008   3.134
 4500SOL     OW13803   6.093   3.487   4.292
 4500SOL    HW113804   6.009   3.442   4.298
 4500SOL    HW213805   6.157   3.417   4.282
 4501SOL     OW13806   3.077   6.279   4.580
 4501SOL    HW113807   3.068   6.279   4.675
 4501SOL    HW213808   3.169   6.301   4.564
 4502SOL     OW13809   0.400   2.890   3.095
 4502SOL    HW113810   0.471   2.953   3.085
 4502SOL    HW213811   0.420   2.821   3.032
 4503SOL     OW13812   6.458   2.307   2.822
 4503SOL    HW113813   6.426   2.313   2.732
 4503SOL    HW213814   6.553   2.304   2.814
 4504SOL     OW13815   1.897   6.499   0.952
 4504SOL    HW113816   1.854   6.571   0.906
 4504SOL    HW213817   1.826   6.439   0.974
 4505SOL     OW13818   6.079   1.670   0.583
 4505SOL    HW113819   6.100   1.676   0.490
 4505SOL    HW213820   6.164   1.662   0.626
 4506SOL     OW13821   7.613   0.651   0.447
 4506SOL    HW113822   7.522   0.677   0.431
 4506SOL    HW213823   7.624   0.661   0.542
 4507SOL     OW13824   7.710   2.396   5.568
 4507SOL    HW113825   7.728   2.313   5.613
 4507SOL    HW213826   7.628   2.380   5.521
 4508SOL     OW13827   1.503   7.378   3.206
 4508SOL    HW113828   1.428   7.389   3.265
 4508SOL    HW213829   1.505   7.458   3.154
 4509SOL     OW13830   5.356   3.910   4.389
 4509SOL    HW113831   5.390   3.905   4.479
 4509SOL    HW213832   5.423   3.867   4.336
 4510SOL     OW13833   7.271   3.799   5.318
 4510SOL    HW113834   7.359   3.828   5.294
 4510SOL    HW213835   7.213   3.851   5.262
 4511SOL     OW13836   7.345   7.438   0.075
 4511SOL    HW113837   7.265   7.474   0.114
 4511SOL    HW213838   7.396   7.515   0.050
 4512SOL     OW13839   0.822   2.744   1.076
 4512SOL    HW113840   0.886   2.750   1.147
 4512SOL    HW213841   0.826   2.829   1.032
 4513SOL     OW13842   6.521   5.277   0.359
 4513SOL    HW113843   6.565   5.334   0.422
 4513SOL    HW213844   6.577   5.279   0.282
 4514SOL     OW13845   5.059   4.967   0.388
 4514SOL    HW113846   5.113   5.034   0.345
 4514SOL    HW213847   4.969   4.991   0.365
 4515SOL     OW13848   1.102   2.117   0.266
 4515SOL    HW113849   1.154   2.114   0.347
 4515SOL    HW213850   1.113   2.207   0.234
 4516SOL     OW13851   1.595   1.964   2.247
 4516SOL    HW113852   1.650   1.982   2.171
 4516SOL    HW213853   1.539   1.892   2.219
 4517SOL     OW13854   4.266   0.417   5.004
 4517SOL    HW113855   4.180   0.443   5.036
 4517SOL    HW213856   4.249   0.379   4.918
 4518SOL     OW13857   4.960   1.606   0.386
 4518SOL    HW113858   4.987   1.514   0.378
 4518SOL    HW213859   4.911   1.609   0.468
 4519SOL     OW13860   0.538   3.999   3.647
 4519SOL    HW113861   0.572   3.913   3.672
 4519SOL    HW213862   0.607   4.061   3.672
 4520SOL     OW13863   3.948   7.599   2.863
 4520SOL    HW113864   3.998   7.569   2.939
 4520SOL    HW213865   3.944   7.694   2.872
 4521SOL     OW13866   6.007   7.429   3.806
 4521SOL    HW113867   6.060   7.404   3.731
 4521SOL    HW213868   6.031   7.520   3.823
 4522SOL     OW13869   1.352   5.374   3.310
 4522SOL    HW113870   1.279   5.432   3.332
 4522SOL    HW213871   1.415   5.388   3.381
 4523SOL     OW13872   6.089   2.799   3.941
 4523SOL    HW113873   6.052   2.887   3.948
 4523SOL    HW213874   6.020   2.747   3.899
 4524SOL     OW13875   0.106   1.865   0.314
 4524SOL    HW113876   0.143   1.941   0.269
 4524SOL    HW213877   0.152   1.790   0.276
 4525SOL     OW13878   7.144   0.905   1.495
 4525SOL    HW113879   7.149   0.998   1.474
 4525SOL    HW213880   7.235   0.879   1.512
 4526SOL     OW13881   0.030   5.476   3.185
 4526SOL    HW113882   0.019   5.474   3.090
 4526SOL    HW213883   0.120   5.447   3.199
 4527SOL     OW13884   4.067   5.403   5.513
 4527SOL    HW113885   4.125   5.327   5.515
 4527SOL    HW213886   4.051   5.424   5.605
 4528SOL     OW13887   5.725   3.581   2.810
 4528SOL    HW113888   5.643   3.533   2.823
 4528SOL    HW213889   5.781   3.553   2.883
 4529SOL     OW13890   4.138   3.081   3.317
 4529SOL    HW113891   4.156   3.122   3.233
 4529SOL    HW213892   4.158   3.149   3.382
 4530SOL     OW13893   5.849   6.252   0.985
 4530SOL    HW113894   5.850   6.214   1.073
 4530SOL    HW213895   5.756   6.256   0.962
 4531SOL     OW13896   7.115   1.858   0.357
 4531SOL    HW113897   7.111   1.950   0.382
 4531SOL    HW213898   7.046   1.816   0.409
 4532SOL     OW13899   6.309   7.367   1.714
 4532SOL    HW113900   6.293   7.356   1.808
 4532SOL    HW213901   6.343   7.282   1.685
 4533SOL     OW13902   5.888   3.330   2.663
 4533SOL    HW113903   5.817   3.282   2.706
 4533SOL    HW213904   5.846   3.408   2.627
 4534SOL     OW13905   0.978   3.353   5.256
 4534SOL    HW113906   0.983   3.379   5.348
 4534SOL    HW213907   1.069   3.335   5.231
 4535SOL     OW13908   7.958   4.088   1.139
 4535SOL    HW113909   7.895   4.106   1.069
 4535SOL    HW213910   7.906   4.090   1.219
 4536SOL     OW13911   0.090   5.518   2.911
 4536SOL    HW113912   0.186   5.521   2.913
 4536SOL    HW213913   0.070   5.476   2.827
 4537SOL     OW13914   0.820   0.117   1.349
 4537SOL    HW113915   0.893   0.055   1.351
 4537SOL    HW213916   0.742   0.062   1.341
 4538SOL     OW13917   2.204   3.672   3.812
 4538SOL    HW113918   2.148   3.749   3.803
 4538SOL    HW213919   2.201   3.630   3.726
 4539SOL     OW13920   2.957   0.246   0.174
 4539SOL    HW113921   2.890   0.250   0.243
 4539SOL    HW213922   3.032   0.292   0.211
 4540SOL     OW13923   7.725   2.573   3.750
 4540SOL    HW113924   7.802   2.587   3.805
 4540SOL    HW213925   7.682   2.496   3.788
 4541SOL     OW13926   0.670   3.907   4.041
 4541SOL    HW113927   0.740   3.957   4.083
 4541SOL    HW213928   0.691   3.815   4.059
 4542SOL     OW13929   7.881   3.996   5.814
 4542SOL    HW113930   3.790   8.134   0.085
 4542SOL    HW213931   3.721   8.027   0.004
 4543SOL     OW13932   6.228   0.026   3.734
 4543SOL    HW113933   6.317   0.039   3.700
 4543SOL    HW213934   6.219   0.091   3.804
 4544SOL     OW13935   6.776   3.597   2.464
 4544SOL    HW113936   6.798   3.685   2.493
 4544SOL    HW213937   6.759   3.606   2.370
 4545SOL     OW13938   4.162   5.716   0.874
 4545SOL    HW113939   4.096   5.712   0.805
 4545SOL    HW213940   4.241   5.746   0.830
 4546SOL     OW13941   2.747   0.976   5.509
 4546SOL    HW113942   2.837   1.010   5.505
 4546SOL    HW213943   2.692   1.054   5.501
 4547SOL     OW13944   7.181   5.342   1.274
 4547SOL    HW113945   7.179   5.438   1.276
 4547SOL    HW213946   7.119   5.315   1.342
 4548SOL     OW13947   3.293   0.672   0.377
 4548SOL    HW113948   3.227   0.630   0.322
 4548SOL    HW213949   3.375   0.628   0.356
 4549SOL     OW13950   3.381   4.069   5.790
 4549SOL    HW113951   3.422   3.993   5.749
 4549SOL    HW213952   7.451   8.149   0.048
 4550SOL     OW13953   3.346   2.668   2.448
 4550SOL    HW113954   3.421   2.638   2.396
 4550SOL    HW213955   3.270   2.654   2.391
 4551SOL     OW13956   4.225   0.182   4.332
 4551SOL    HW113957   4.303   0.131   4.309
 4551SOL    HW213958   4.155   0.117   4.340
 4552SOL     OW13959   3.909   7.453   0.117
 4552SOL    HW113960   3.882   7.363   0.137
 4552SOL    HW213961   3.946   7.448   0.029
 4553SOL     OW13962   6.901   7.374   5.605
 4553SOL    HW113963   6.902   7.311   5.677
 4553SOL    HW213964   6.947   7.330   5.534
 4554SOL     OW13965   2.151   2.338   0.082
 4554SOL    HW113966   2.191   2.417   0.045
 4554SOL    HW213967   2.136   2.281   0.006
 4555SOL     OW13968   1.329   8.175   2.585
 4555SOL    HW113969   1.415   8.209   2.607
 4555SOL    HW213970   1.269   8.220   2.644
 4556SOL     OW13971   5.569   1.779   4.032
 4556SOL    HW113972   5.533   1.815   4.113
 4556SOL    HW213973   5.582   1.686   4.051
 4557SOL     OW13974   7.981   4.992   1.832
 4557SOL    HW113975   7.953   5.026   1.917
 4557SOL    HW213976   7.972   4.897   1.840
 4558SOL     OW13977   2.506   5.760   2.462
 4558SOL    HW113978   2.558   5.836   2.488
 4558SOL    HW213979   2.557   5.684   2.491
 4559SOL     OW13980   3.636   4.354   5.123
 4559SOL    HW113981   3.623   4.447   5.142
 4559SOL    HW213982   3.716   4.351   5.070
 4560SOL     OW13983   6.482   2.455   3.487
 4560SOL    HW113984   6.455   2.477   3.576
 4560SOL    HW213985   6.508   2.363   3.492
 4561SOL     OW13986   2.220   6.241   2.595
 4561SOL    HW113987   2.281   6.261   2.524
 4561SOL    HW213988   2.273   6.244   2.675
 4562SOL     OW13989   2.371   1.974   3.707
 4562SOL    HW113990   2.447   1.947   3.656
 4562SOL    HW213991   2.364   1.908   3.776
 4563SOL     OW13992   6.085   0.283   4.511
 4563SOL    HW113993   5.997   0.258   4.483
 4563SOL    HW213994   6.072   0.326   4.596
 4564SOL     OW13995   5.726   0.951   0.478
 4564SOL    HW113996   5.730   0.857   0.461
 4564SOL    HW213997   5.659   0.960   0.546
 4565SOL     OW13998   7.627   5.581   3.918
 4565SOL    HW113999   7.542   5.545   3.941
 4565SOL    HW214000   7.615   5.616   3.830
 4566SOL     OW14001   4.137   1.039   4.970
 4566SOL    HW114002   4.087   1.031   4.889
 4566SOL    HW214003   4.190   0.959   4.973
 4567SOL     OW14004   2.697   5.807   5.368
 4567SOL    HW114005   2.710   5.712   5.372
 4567SOL    HW214006   2.603   5.818   5.382
 4568SOL     OW14007   0.199   0.282   4.954
 4568SOL    HW114008   0.165   0.211   5.009
 4568SOL    HW214009   0.265   0.240   4.898
 4569SOL     OW14010   4.243   5.728   4.634
 4569SOL    HW114011   4.249   5.633   4.629
 4569SOL    HW214012   4.226   5.746   4.726
 4570SOL     OW14013   6.205   6.321   5.683
 4570SOL    HW114014   6.297   6.294   5.677
 4570SOL    HW214015   6.198   6.394   5.622
 4571SOL     OW14016   5.192   1.409   4.628
 4571SOL    HW114017   5.202   1.443   4.539
 4571SOL    HW214018   5.172   1.486   4.681
 4572SOL     OW14019   1.878   0.396   3.875
 4572SOL    HW114020   1.788   0.366   3.889
 4572SOL    HW214021   1.869   0.488   3.851
 4573SOL     OW14022   2.562   7.160   0.068
 4573SOL    HW114023   2.576   7.237   0.013
 4573SOL    HW214024   2.555   7.087   0.006
 4574SOL     OW14025   3.560   7.133   5.803
 4574SOL    HW114026   3.508   7.127   5.723
 4574SOL    HW214027   3.634   7.189   5.780
 4575SOL     OW14028   7.693   7.358   0.039
 4575SOL    HW114029   7.647   7.432   0.079
 4575SOL    HW214030   7.779   7.358   0.081
 4576SOL     OW14031   0.175   5.850   4.543
 4576SOL    HW114032   0.096   5.863   4.491
 4576SOL    HW214033   0.151   5.781   4.605
 4577SOL     OW14034   2.109   4.441   1.555
 4577SOL    HW114035   2.092   4.520   1.504
 4577SOL    HW214036   2.101   4.369   1.492
 4578SOL     OW14037   4.223   7.873   3.330
 4578SOL    HW114038   4.312   7.856   3.361
 4578SOL    HW214039   4.170   7.876   3.410
 4579SOL     OW14040   1.289   5.186   5.445
 4579SOL    HW114041   1.368   5.154   5.402
 4579SOL    HW214042   1.321   5.244   5.515
 4580SOL     OW14043   4.196   4.224   5.415
 4580SOL    HW114044   4.176   4.149   5.471
 4580SOL    HW214045   4.140   4.294   5.447
 4581SOL     OW14046   3.583   3.495   3.916
 4581SOL    HW114047   3.633   3.558   3.967
 4581SOL    HW214048   3.510   3.546   3.880
 4582SOL     OW14049   1.825   0.979   3.326
 4582SOL    HW114050   1.885   0.907   3.309
 4582SOL    HW214051   1.844   1.044   3.258
 4583SOL     OW14052   1.518   7.243   1.702
 4583SOL    HW114053   1.492   7.152   1.719
 4583SOL    HW214054   1.436   7.292   1.702
 4584SOL     OW14055   0.182   4.367   1.143
 4584SOL    HW114056   0.233   4.367   1.062
 4584SOL    HW214057   0.094   4.342   1.116
 4585SOL     OW14058   3.298   5.951   4.302
 4585SOL    HW114059   3.224   5.947   4.242
 4585SOL    HW214060   3.367   5.996   4.253
 4586SOL     OW14061   8.045   0.507   4.829
 4586SOL    HW114062   7.987   0.447   4.782
 4586SOL    HW214063   8.056   0.467   4.915
 4587SOL     OW14064   6.981   0.254   0.154
 4587SOL    HW114065   7.060   0.207   0.181
 4587SOL    HW214066   6.992   0.341   0.192
 4588SOL     OW14067   0.185   6.187   2.952
 4588SOL    HW114068   0.149   6.124   2.889
 4588SOL    HW214069   0.148   6.271   2.925
 4589SOL     OW14070   3.966   1.466   4.902
 4589SOL    HW114071   4.022   1.405   4.854
 4589SOL    HW214072   4.027   1.525   4.946
 4590SOL     OW14073   6.718   4.117   2.228
 4590SOL    HW114074   6.625   4.109   2.205
 4590SOL    HW214075   6.728   4.207   2.259
 4591SOL     OW14076   7.947   6.374   2.576
 4591SOL    HW114077   7.875   6.398   2.517
 4591SOL    HW214078   8.022   6.425   2.544
 4592SOL     OW14079   5.761   5.050   0.099
 4592SOL    HW114080   5.809   4.985   0.048
 4592SOL    HW214081   5.670   5.040   0.072
 4593SOL     OW14082   3.104   1.339   3.267
 4593SOL    HW114083   3.140   1.425   3.287
 4593SOL    HW214084   3.075   1.304   3.351
 4594SOL     OW14085   0.053   5.754   0.710
 4594SOL    HW114086   8.217   5.684   0.707
 4594SOL    HW214087   0.042   5.800   0.627
 4595SOL     OW14088   1.988   6.098   2.445
 4595SOL    HW114089   2.058   6.157   2.473
 4595SOL    HW214090   2.014   6.013   2.480
 4596SOL     OW14091   6.680   2.578   4.151
 4596SOL    HW114092   6.634   2.565   4.234
 4596SOL    HW214093   6.667   2.671   4.131
 4597SOL     OW14094   5.547   7.715   3.261
 4597SOL    HW114095   5.547   7.650   3.332
 4597SOL    HW214096   5.638   7.744   3.255
 4598SOL     OW14097   3.587   0.998   1.883
 4598SOL    HW114098   3.554   1.071   1.830
 4598SOL    HW214099   3.673   0.979   1.846
 4599SOL     OW14100   1.446   7.999   4.364
 4599SOL    HW114101   1.459   7.958   4.279
 4599SOL    HW214102   1.530   8.040   4.384
 4600SOL     OW14103   3.724   7.694   5.789
 4600SOL    HW114104   3.805   7.687   5.739
 4600SOL    HW214105   3.705   7.604   5.817
 4601SOL     OW14106   4.871   2.094   4.289
 4601SOL    HW114107   4.824   2.177   4.287
 4601SOL    HW214108   4.876   2.067   4.197
 4602SOL     OW14109   6.819   3.882   2.436
 4602SOL    HW114110   6.753   3.931   2.484
 4602SOL    HW214111   6.814   3.916   2.347
 4603SOL     OW14112   6.650   4.548   2.649
 4603SOL    HW114113   6.730   4.537   2.597
 4603SOL    HW214114   6.663   4.490   2.724
 4604SOL     OW14115   1.252   4.439   4.641
 4604SOL    HW114116   1.158   4.436   4.624
 4604SOL    HW214117   1.259   4.442   4.736
 4605SOL     OW14118   5.075   7.067   4.838
 4605SOL    HW114119   5.133   7.011   4.889
 4605SOL    HW214120   5.045   7.133   4.900
 4606SOL     OW14121   7.342   5.530   2.917
 4606SOL    HW114122   7.395   5.609   2.923
 4606SOL    HW214123   7.252   5.562   2.918
 4607SOL     OW14124   1.250   7.569   0.522
 4607SOL    HW114125   1.204   7.589   0.441
 4607SOL    HW214126   1.235   7.645   0.578
 4608SOL     OW14127   2.042   0.699   1.708
 4608SOL    HW114128   2.106   0.766   1.683
 4608SOL    HW214129   2.016   0.659   1.625
 4609SOL     OW14130   1.810   1.540   4.651
 4609SOL    HW114131   1.863   1.564   4.727
 4609SOL    HW214132   1.837   1.601   4.583
 4610SOL     OW14133   6.750   5.808   1.011
 4610SOL    HW114134   6.772   5.885   1.064
 4610SOL    HW214135   6.662   5.783   1.040
 4611SOL     OW14136   2.894   6.699   1.633
 4611SOL    HW114137   2.844   6.688   1.714
 4611SOL    HW214138   2.916   6.610   1.606
 4612SOL     OW14139   8.063   7.208   3.080
 4612SOL    HW114140   8.000   7.264   3.125
 4612SOL    HW214141   8.141   7.263   3.069
 4613SOL     OW14142   7.530   5.548   2.603
 4613SOL    HW114143   7.616   5.525   2.639
 4613SOL    HW214144   7.503   5.471   2.553
 4614SOL     OW14145   7.149   2.185   3.783
 4614SOL    HW114146   7.107   2.101   3.798
 4614SOL    HW214147   7.161   2.189   3.688
 4615SOL     OW14148   0.048   2.855   5.454
 4615SOL    HW114149   0.062   2.762   5.472
 4615SOL    HW214150   0.016   2.857   5.364
 4616SOL     OW14151   1.275   2.646   4.217
 4616SOL    HW114152   1.340   2.596   4.168
 4616SOL    HW214153   1.261   2.725   4.165
 4617SOL     OW14154   2.911   4.762   3.090
 4617SOL    HW114155   2.913   4.847   3.134
 4617SOL    HW214156   2.852   4.709   3.144
 4618SOL     OW14157   6.535   7.817   5.353
 4618SOL    HW114158   6.559   7.904   5.386
 4618SOL    HW214159   6.547   7.759   5.428
 4619SOL     OW14160   1.952   7.671   3.173
 4619SOL    HW114161   2.021   7.613   3.205
 4619SOL    HW214162   1.873   7.617   3.173
 4620SOL     OW14163   4.266   5.223   1.778
 4620SOL    HW114164   4.213   5.293   1.741
 4620SOL    HW214165   4.215   5.144   1.763
 4621SOL     OW14166   6.809   3.121   3.207
 4621SOL    HW114167   6.892   3.169   3.205
 4621SOL    HW214168   6.744   3.183   3.174
 4622SOL     OW14169   1.483   4.944   5.589
 4622SOL    HW114170   1.547   4.988   5.645
 4622SOL    HW214171   1.534   4.913   5.514
 4623SOL     OW14172   7.418   5.601   4.538
 4623SOL    HW114173   7.349   5.667   4.541
 4623SOL    HW214174   7.499   5.650   4.551
 4624SOL     OW14175   0.107   2.807   1.668
 4624SOL    HW114176   0.189   2.783   1.626
 4624SOL    HW214177   0.101   2.902   1.658
 4625SOL     OW14178   0.066   5.248   4.129
 4625SOL    HW114179   0.055   5.188   4.203
 4625SOL    HW214180   8.206   5.266   4.099
 4626SOL     OW14181   6.724   1.857   0.479
 4626SOL    HW114182   6.761   1.860   0.567
 4626SOL    HW214183   6.744   1.943   0.442
 4627SOL     OW14184   1.094   1.968   3.847
 4627SOL    HW114185   1.080   2.053   3.805
 4627SOL    HW214186   1.007   1.941   3.877
 4628SOL     OW14187   0.670   5.354   2.391
 4628SOL    HW114188   0.757   5.368   2.354
 4628SOL    HW214189   0.645   5.439   2.428
 4629SOL     OW14190   6.570   3.725   0.591
 4629SOL    HW114191   6.629   3.771   0.651
 4629SOL    HW214192   6.483   3.734   0.631
 4630SOL     OW14193   2.815   6.071   1.617
 4630SOL    HW114194   2.825   5.976   1.610
 4630SOL    HW214195   2.736   6.084   1.670
 4631SOL     OW14196   2.991   7.189   3.794
 4631SOL    HW114197   2.905   7.228   3.809
 4631SOL    HW214198   3.042   7.211   3.872
 4632SOL     OW14199   4.433   5.264   1.098
 4632SOL    HW114200   4.343   5.248   1.070
 4632SOL    HW214201   4.451   5.195   1.162
 4633SOL     OW14202   4.548   4.450   4.615
 4633SOL    HW114203   4.512   4.372   4.657
 4633SOL    HW214204   4.500   4.458   4.533
 4634SOL     OW14205   3.215   3.986   3.147
 4634SOL    HW114206   3.300   3.979   3.190
 4634SOL    HW214207   3.152   3.976   3.218
 4635SOL     OW14208   6.088   6.657   0.307
 4635SOL    HW114209   5.999   6.635   0.278
 4635SOL    HW214210   6.145   6.603   0.252
 4636SOL     OW14211   5.000   1.238   5.576
 4636SOL    HW114212   5.069   1.254   5.640
 4636SOL    HW214213   4.920   1.271   5.617
 4637SOL     OW14214   7.335   7.314   4.936
 4637SOL    HW114215   7.313   7.312   4.843
 4637SOL    HW214216   7.399   7.244   4.948
 4638SOL     OW14217   3.932   2.133   0.999
 4638SOL    HW114218   3.910   2.152   1.090
 4638SOL    HW214219   3.885   2.200   0.949
 4639SOL     OW14220   2.227   0.629   3.691
 4639SOL    HW114221   2.284   0.617   3.767
 4639SOL    HW214222   2.256   0.563   3.629
 4640SOL     OW14223   4.575   2.741   0.957
 4640SOL    HW114224   4.651   2.748   0.899
 4640SOL    HW214225   4.534   2.658   0.934
 4641SOL     OW14226   3.898   5.896   2.714
 4641SOL    HW114227   3.978   5.912   2.664
 4641SOL    HW214228   3.831   5.946   2.668
 4642SOL     OW14229   0.138   5.751   5.608
 4642SOL    HW114230   0.208   5.752   5.542
 4642SOL    HW214231   0.070   5.808   5.571
 4643SOL     OW14232   6.865   8.101   3.122
 4643SOL    HW114233   6.945   8.062   3.087
 4643SOL    HW214234   6.794   8.056   3.076
 4644SOL     OW14235   5.474   5.472   0.658
 4644SOL    HW114236   5.550   5.414   0.648
 4644SOL    HW214237   5.512   5.558   0.678
 4645SOL     OW14238   7.174   5.188   2.960
 4645SOL    HW114239   7.152   5.278   2.986
 4645SOL    HW214240   7.246   5.198   2.897
 4646SOL     OW14241   4.702   4.825   1.298
 4646SOL    HW114242   4.695   4.868   1.383
 4646SOL    HW214243   4.757   4.749   1.314
 4647SOL     OW14244   7.644   7.424   1.359
 4647SOL    HW114245   7.617   7.406   1.449
 4647SOL    HW214246   7.643   7.519   1.353
 4648SOL     OW14247   5.096   1.172   4.475
 4648SOL    HW114248   5.066   1.096   4.526
 4648SOL    HW214249   5.103   1.243   4.539
 4649SOL     OW14250   8.027   5.610   3.428
 4649SOL    HW114251   8.111   5.568   3.411
 4649SOL    HW214252   7.999   5.643   3.343
 4650SOL     OW14253   2.777   5.546   4.384
 4650SOL    HW114254   2.760   5.453   4.373
 4650SOL    HW214255   2.818   5.573   4.302
 4651SOL     OW14256   7.806   5.463   3.577
 4651SOL    HW114257   7.850   5.531   3.525
 4651SOL    HW214258   7.876   5.403   3.602
 4652SOL     OW14259   0.854   7.772   4.748
 4652SOL    HW114260   0.944   7.742   4.735
 4652SOL    HW214261   0.861   7.836   4.819
 4653SOL     OW14262   3.766   2.708   3.155
 4653SOL    HW114263   3.712   2.709   3.234
 4653SOL    HW214264   3.856   2.719   3.187
 4654SOL     OW14265   1.151   0.656   0.863
 4654SOL    HW114266   1.114   0.596   0.928
 4654SOL    HW214267   1.130   0.615   0.779
 4655SOL     OW14268   7.112   7.399   3.576
 4655SOL    HW114269   7.068   7.346   3.509
 4655SOL    HW214270   7.175   7.340   3.617
 4656SOL     OW14271   0.263   3.810   3.242
 4656SOL    HW114272   0.224   3.806   3.155
 4656SOL    HW214273   0.216   3.881   3.287
 4657SOL     OW14274   0.160   6.170   4.052
 4657SOL    HW114275   0.232   6.153   4.113
 4657SOL    HW214276   0.140   6.263   4.064
 4658SOL     OW14277   0.474   2.979   3.469
 4658SOL    HW114278   0.528   2.978   3.548
 4658SOL    HW214279   0.526   2.933   3.404
 4659SOL     OW14280   0.678   4.215   4.456
 4659SOL    HW114281   0.693   4.126   4.423
 4659SOL    HW214282   0.662   4.203   4.550
 4660SOL     OW14283   0.827   3.408   4.155
 4660SOL    HW114284   0.908   3.357   4.164
 4660SOL    HW214285   0.768   3.371   4.220
 4661SOL     OW14286   3.316   4.800   4.837
 4661SOL    HW114287   3.244   4.738   4.850
 4661SOL    HW214288   3.273   4.883   4.817
 4662SOL     OW14289   4.810   3.892   1.463
 4662SOL    HW114290   4.743   3.958   1.480
 4662SOL    HW214291   4.805   3.875   1.369
 4663SOL     OW14292   1.186   0.429   3.299
 4663SOL    HW114293   1.202   0.523   3.301
 4663SOL    HW214294   1.207   0.399   3.387
 4664SOL     OW14295   1.849   7.411   5.714
 4664SOL    HW114296   1.820   7.392   5.803
 4664SOL    HW214297   1.777   7.460   5.675
 4665SOL     OW14298   2.542   6.388   5.579
 4665SOL    HW114299   2.510   6.462   5.631
 4665SOL    HW214300   2.635   6.382   5.600
 4666SOL     OW14301   6.382   1.538   0.692
 4666SOL    HW114302   6.469   1.539   0.652
 4666SOL    HW214303   6.393   1.584   0.775
 4667SOL     OW14304   7.932   3.894   4.779
 4667SOL    HW114305   7.859   3.936   4.825
 4667SOL    HW214306   7.983   3.852   4.848
 4668SOL     OW14307   2.648   4.655   0.306
 4668SOL    HW114308   2.687   4.594   0.368
 4668SOL    HW214309   2.668   4.619   0.220
 4669SOL     OW14310   6.759   6.318   5.549
 4669SOL    HW114311   6.695   6.389   5.552
 4669SOL    HW214312   6.707   6.239   5.539
 4670SOL     OW14313   1.341   1.390   4.156
 4670SOL    HW114314   1.282   1.459   4.126
 4670SOL    HW214315   1.429   1.428   4.146
 4671SOL     OW14316   7.629   2.618   2.963
 4671SOL    HW114317   7.597   2.529   2.951
 4671SOL    HW214318   7.599   2.643   3.051
 4672SOL     OW14319   5.032   2.693   4.739
 4672SOL    HW114320   5.004   2.649   4.659
 4672SOL    HW214321   4.990   2.779   4.736
 4673SOL     OW14322   2.640   3.990   5.560
 4673SOL    HW114323   2.636   4.074   5.514
 4673SOL    HW214324   2.610   4.009   5.649
 4674SOL     OW14325   2.535   8.064   1.903
 4674SOL    HW114326   2.622   8.029   1.884
 4674SOL    HW214327   2.489   7.992   1.946
 4675SOL     OW14328   3.271   1.557   2.563
 4675SOL    HW114329   3.293   1.482   2.619
 4675SOL    HW214330   3.205   1.523   2.503
 4676SOL     OW14331   7.566   5.817   4.712
 4676SOL    HW114332   7.601   5.906   4.720
 4676SOL    HW214333   7.584   5.776   4.797
 4677SOL     OW14334   7.015   0.877   5.043
 4677SOL    HW114335   7.103   0.847   5.020
 4677SOL    HW214336   7.024   0.912   5.132
 4678SOL     OW14337   0.907   5.778   5.015
 4678SOL    HW114338   0.864   5.693   5.005
 4678SOL    HW214339   0.918   5.788   5.110
 4679SOL     OW14340   6.768   3.010   0.631
 4679SOL    HW114341   6.841   2.963   0.671
 4679SOL    HW214342   6.694   2.994   0.690
 4680SOL     OW14343   3.898   6.720   1.389
 4680SOL    HW114344   3.820   6.676   1.422
 4680SOL    HW214345   3.871   6.811   1.378
 4681SOL     OW14346   5.913   0.909   0.188
 4681SOL    HW114347   6.006   0.888   0.191
 4681SOL    HW214348   5.909   1.004   0.194
 4682SOL     OW14349   6.304   3.211   3.505
 4682SOL    HW114350   6.241   3.191   3.574
 4682SOL    HW214351   6.375   3.148   3.519
 4683SOL     OW14352   6.870   5.882   5.088
 4683SOL    HW114353   6.944   5.888   5.028
 4683SOL    HW214354   6.803   5.834   5.040
 4684SOL     OW14355   1.836   8.046   3.966
 4684SOL    HW114356   1.896   7.994   4.019
 4684SOL    HW214357   1.891   8.113   3.925
 4685SOL     OW14358   7.476   4.311   2.667
 4685SOL    HW114359   7.557   4.334   2.712
 4685SOL    HW214360   7.437   4.395   2.643
 4686SOL     OW14361   8.133   7.502   2.767
 4686SOL    HW114362   8.098   7.423   2.725
 4686SOL    HW214363   8.125   7.485   2.861
 4687SOL     OW14364   7.446   4.765   4.687
 4687SOL    HW114365   7.473   4.771   4.595
 4687SOL    HW214366   7.367   4.711   4.685
 4688SOL     OW14367   7.731   5.052   2.942
 4688SOL    HW114368   7.669   5.073   3.012
 4688SOL    HW214369   7.794   4.993   2.983
 4689SOL     OW14370   7.922   6.488   3.973
 4689SOL    HW114371   7.954   6.401   3.997
 4689SOL    HW214372   7.993   6.526   3.921
 4690SOL     OW14373   1.006   1.531   4.655
 4690SOL    HW114374   0.927   1.575   4.622
 4690SOL    HW214375   1.062   1.521   4.578
 4691SOL     OW14376   0.378   8.069   4.310
 4691SOL    HW114377   0.464   8.028   4.302
 4691SOL    HW214378   0.397   8.158   4.341
 4692SOL     OW14379   1.363   6.946   4.163
 4692SOL    HW114380   1.292   6.892   4.199
 4692SOL    HW214381   1.347   6.947   4.069
 4693SOL     OW14382   0.204   6.725   0.303
 4693SOL    HW114383   0.257   6.691   0.375
 4693SOL    HW214384   0.145   6.789   0.344
 4694SOL     OW14385   5.220   3.687   0.766
 4694SOL    HW114386   5.135   3.730   0.773
 4694SOL    HW214387   5.278   3.740   0.821
 4695SOL     OW14388   1.751   0.263   4.858
 4695SOL    HW114389   1.747   0.196   4.926
 4695SOL    HW214390   1.667   0.257   4.813
 4696SOL     OW14391   4.813   6.182   0.507
 4696SOL    HW114392   4.846   6.095   0.529
 4696SOL    HW214393   4.779   6.216   0.590
 4697SOL     OW14394   6.019   5.558   4.077
 4697SOL    HW114395   5.945   5.618   4.071
 4697SOL    HW214396   6.031   5.524   3.988
 4698SOL     OW14397   6.091   2.280   2.446
 4698SOL    HW114398   6.072   2.282   2.352
 4698SOL    HW214399   6.034   2.347   2.483
 4699SOL     OW14400   3.863   1.210   1.710
 4699SOL    HW114401   3.834   1.266   1.782
 4699SOL    HW214402   3.857   1.121   1.745
 4700SOL     OW14403   7.935   1.665   2.974
 4700SOL    HW114404   7.846   1.634   2.956
 4700SOL    HW214405   7.986   1.585   2.985
 4701SOL     OW14406   3.293   6.137   0.740
 4701SOL    HW114407   3.309   6.045   0.760
 4701SOL    HW214408   3.227   6.164   0.803
 4702SOL     OW14409   4.040   5.218   0.620
 4702SOL    HW114410   4.029   5.263   0.704
 4702SOL    HW214411   4.134   5.201   0.614
 4703SOL     OW14412   7.314   3.287   4.207
 4703SOL    HW114413   7.284   3.217   4.149
 4703SOL    HW214414   7.304   3.367   4.155
 4704SOL     OW14415   4.041   8.181   4.390
 4704SOL    HW114416   3.973   8.204   4.327
 4704SOL    HW214417   4.042   8.085   4.392
 4705SOL     OW14418   3.033   7.087   2.665
 4705SOL    HW114419   2.976   7.078   2.589
 4705SOL    HW214420   2.995   7.160   2.715
 4706SOL     OW14421   2.308   2.097   5.685
 4706SOL    HW114422   2.397   2.076   5.655
 4706SOL    HW214423   2.317   2.111   5.779
 4707SOL     OW14424   7.944   2.353   3.743
 4707SOL    HW114425   7.918   2.283   3.683
 4707SOL    HW214426   7.868   2.365   3.800
 4708SOL     OW14427   6.696   7.810   1.408
 4708SOL    HW114428   6.676   7.729   1.361
 4708SOL    HW214429   6.628   7.817   1.475
 4709SOL     OW14430   0.080   7.575   3.272
 4709SOL    HW114431   0.156   7.632   3.263
 4709SOL    HW214432   0.116   7.486   3.271
 4710SOL     OW14433   3.184   4.637   3.262
 4710SOL    HW114434   3.100   4.620   3.220
 4710SOL    HW214435   3.194   4.566   3.326
 4711SOL     OW14436   2.368   5.753   0.736
 4711SOL    HW114437   2.330   5.807   0.806
 4711SOL    HW214438   2.400   5.675   0.781
 4712SOL     OW14439   7.133   6.015   2.819
 4712SOL    HW114440   7.227   6.021   2.800
 4712SOL    HW214441   7.112   6.097   2.864
 4713SOL     OW14442   0.304   1.976   2.820
 4713SOL    HW114443   0.236   1.969   2.886
 4713SOL    HW214444   0.361   1.901   2.836
 4714SOL     OW14445   3.717   0.960   2.845
 4714SOL    HW114446   3.725   0.960   2.750
 4714SOL    HW214447   3.741   1.049   2.871
 4715SOL     OW14448   7.474   2.906   4.827
 4715SOL    HW114449   7.481   2.852   4.748
 4715SOL    HW214450   7.428   2.850   4.890
 4716SOL     OW14451   4.300   2.423   4.898
 4716SOL    HW114452   4.219   2.417   4.949
 4716SOL    HW214453   4.282   2.374   4.818
 4717SOL     OW14454   6.180   7.378   2.387
 4717SOL    HW114455   6.211   7.444   2.449
 4717SOL    HW214456   6.207   7.295   2.425
 4718SOL     OW14457   1.922   7.899   1.118
 4718SOL    HW114458   1.979   7.964   1.159
 4718SOL    HW214459   1.978   7.854   1.055
 4719SOL     OW14460   6.444   1.502   1.367
 4719SOL    HW114461   6.451   1.411   1.394
 4719SOL    HW214462   6.493   1.550   1.433
 4720SOL     OW14463   2.074   2.364   2.217
 4720SOL    HW114464   2.007   2.386   2.152
 4720SOL    HW214465   2.033   2.296   2.271
 4721SOL     OW14466   5.340   6.313   5.213
 4721SOL    HW114467   5.348   6.406   5.193
 4721SOL    HW214468   5.412   6.272   5.165
 4722SOL     OW14469   7.129   6.632   5.438
 4722SOL    HW114470   7.091   6.548   5.412
 4722SOL    HW214471   7.217   6.610   5.468
 4723SOL     OW14472   5.008   7.465   0.710
 4723SOL    HW114473   5.061   7.544   0.701
 4723SOL    HW214474   5.065   7.394   0.681
 4724SOL     OW14475   7.791   5.728   1.038
 4724SOL    HW114476   7.727   5.748   0.969
 4724SOL    HW214477   7.843   5.808   1.047
 4725SOL     OW14478   3.670   0.868   1.520
 4725SOL    HW114479   3.659   0.945   1.576
 4725SOL    HW214480   3.667   0.794   1.581
 4726SOL     OW14481   5.277   7.662   3.415
 4726SOL    HW114482   5.358   7.625   3.380
 4726SOL    HW214483   5.293   7.670   3.509
 4727SOL     OW14484   2.357   7.573   3.096
 4727SOL    HW114485   2.321   7.585   3.008
 4727SOL    HW214486   2.280   7.557   3.151
 4728SOL     OW14487   5.463   2.205   4.725
 4728SOL    HW114488   5.541   2.157   4.753
 4728SOL    HW214489   5.455   2.185   4.632
 4729SOL     OW14490   7.731   4.202   5.689
 4729SOL    HW114491   7.802   4.146   5.719
 4729SOL    HW214492   7.681   4.148   5.628
 4730SOL     OW14493   5.896   2.713   3.176
 4730SOL    HW114494   5.991   2.719   3.163
 4730SOL    HW214495   5.876   2.619   3.170
 4731SOL     OW14496   2.715   1.459   1.199
 4731SOL    HW114497   2.648   1.439   1.134
 4731SOL    HW214498   2.720   1.555   1.201
 4732SOL     OW14499   3.169   6.393   2.708
 4732SOL    HW114500   3.108   6.334   2.752
 4732SOL    HW214501   3.203   6.449   2.778
 4733SOL     OW14502   1.834   2.089   5.081
 4733SOL    HW114503   1.740   2.104   5.076
 4733SOL    HW214504   1.873   2.176   5.068
 4734SOL     OW14505   7.908   4.512   4.930
 4734SOL    HW114506   7.840   4.448   4.951
 4734SOL    HW214507   7.880   4.549   4.846
 4735SOL     OW14508   0.503   7.708   0.117
 4735SOL    HW114509   0.485   7.801   0.103
 4735SOL    HW214510   0.418   7.665   0.109
 4736SOL     OW14511   2.314   1.250   3.173
 4736SOL    HW114512   2.319   1.168   3.124
 4736SOL    HW214513   2.314   1.318   3.105
 4737SOL     OW14514   6.039   1.784   2.029
 4737SOL    HW114515   6.113   1.775   2.089
 4737SOL    HW214516   5.977   1.717   2.058
 4738SOL     OW14517   5.000   6.272   2.837
 4738SOL    HW114518   4.966   6.303   2.921
 4738SOL    HW214519   4.932   6.294   2.774
 4739SOL     OW14520   7.275   4.593   3.510
 4739SOL    HW114521   7.361   4.550   3.506
 4739SOL    HW214522   7.294   4.686   3.495
 4740SOL     OW14523   7.657   5.153   2.455
 4740SOL    HW114524   7.625   5.121   2.539
 4740SOL    HW214525   7.651   5.077   2.397
 4741SOL     OW14526   0.052   6.157   1.159
 4741SOL    HW114527   0.132   6.149   1.210
 4741SOL    HW214528   0.014   6.069   1.160
 4742SOL     OW14529   4.637   6.524   3.050
 4742SOL    HW114530   4.684   6.473   2.984
 4742SOL    HW214531   4.643   6.614   3.019
 4743SOL     OW14532   4.512   2.672   3.547
 4743SOL    HW114533   4.578   2.730   3.584
 4743SOL    HW214534   4.433   2.689   3.598
 4744SOL     OW14535   7.807   6.346   4.728
 4744SOL    HW114536   7.847   6.422   4.770
 4744SOL    HW214537   7.715   6.369   4.718
 4745SOL     OW14538   1.530   7.304   3.567
 4745SOL    HW114539   1.518   7.227   3.512
 4745SOL    HW214540   1.601   7.280   3.627
 4746SOL     OW14541   6.442   5.027   0.325
 4746SOL    HW114542   6.372   4.992   0.379
 4746SOL    HW214543   6.464   5.111   0.366
 4747SOL     OW14544   5.641   0.691   5.592
 4747SOL    HW114545   5.678   0.775   5.621
 4747SOL    HW214546   5.662   0.686   5.499
 4748SOL     OW14547   0.219   2.077   4.956
 4748SOL    HW114548   0.205   2.006   5.018
 4748SOL    HW214549   0.134   2.088   4.913
 4749SOL     OW14550   6.884   7.833   2.855
 4749SOL    HW114551   6.802   7.879   2.836
 4749SOL    HW214552   6.868   7.788   2.938
 4750SOL     OW14553   5.177   3.784   4.032
 4750SOL    HW114554   5.098   3.731   4.017
 4750SOL    HW214555   5.224   3.738   4.101
 4751SOL     OW14556   3.299   6.627   2.847
 4751SOL    HW114557   3.323   6.551   2.900
 4751SOL    HW214558   3.243   6.679   2.904
 4752SOL     OW14559   2.184   3.048   4.728
 4752SOL    HW114560   2.101   3.010   4.758
 4752SOL    HW214561   2.160   3.102   4.653
 4753SOL     OW14562   2.703   6.745   1.834
 4753SOL    HW114563   2.626   6.735   1.778
 4753SOL    HW214564   2.669   6.782   1.915
 4754SOL     OW14565   5.035   1.683   2.573
 4754SOL    HW114566   4.998   1.771   2.564
 4754SOL    HW214567   5.126   1.692   2.545
 4755SOL     OW14568   7.839   0.821   2.216
 4755SOL    HW114569   7.777   0.772   2.162
 4755SOL    HW214570   7.917   0.766   2.220
 4756SOL     OW14571   5.979   1.324   0.020
 4756SOL    HW114572   6.002   1.389   0.086
 4756SOL    HW214573   1.832   5.490   5.765
 4757SOL     OW14574   0.406   1.281   0.587
 4757SOL    HW114575   0.333   1.322   0.541
 4757SOL    HW214576   0.380   1.189   0.595
 4758SOL     OW14577   1.755   3.708   2.340
 4758SOL    HW114578   1.757   3.696   2.435
 4758SOL    HW214579   1.769   3.620   2.304
 4759SOL     OW14580   4.665   3.559   0.461
 4759SOL    HW114581   4.702   3.573   0.548
 4759SOL    HW214582   4.729   3.503   0.416
 4760SOL     OW14583   3.166   5.048   4.840
 4760SOL    HW114584   3.177   5.107   4.915
 4760SOL    HW214585   3.078   5.013   4.850
 4761SOL     OW14586   4.974   2.267   3.352
 4761SOL    HW114587   5.035   2.255   3.279
 4761SOL    HW214588   5.016   2.334   3.407
 4762SOL     OW14589   6.208   7.584   0.838
 4762SOL    HW114590   6.173   7.520   0.900
 4762SOL    HW214591   6.296   7.604   0.870
 4763SOL     OW14592   0.331   2.766   3.345
 4763SOL    HW114593   0.312   2.846   3.394
 4763SOL    HW214594   0.388   2.795   3.274
 4764SOL     OW14595   2.296   4.863   2.690
 4764SOL    HW114596   2.309   4.946   2.644
 4764SOL    HW214597   2.371   4.810   2.664
 4765SOL     OW14598   2.110   2.071   0.306
 4765SOL    HW114599   2.198   2.109   0.307
 4765SOL    HW214600   2.116   1.995   0.363
 4766SOL     OW14601   1.641   1.656   5.571
 4766SOL    HW114602   1.582   1.582   5.584
 4766SOL    HW214603   1.696   1.631   5.497
 4767SOL     OW14604   5.646   6.654   2.161
 4767SOL    HW114605   5.627   6.616   2.075
 4767SOL    HW214606   5.580   6.722   2.172
 4768SOL     OW14607   7.716   0.841   2.740
 4768SOL    HW114608   7.728   0.746   2.744
 4768SOL    HW214609   7.764   0.868   2.661
 4769SOL     OW14610   5.426   5.632   1.031
 4769SOL    HW114611   5.489   5.573   0.989
 4769SOL    HW214612   5.445   5.718   0.994
 4770SOL     OW14613   2.043   7.358   1.405
 4770SOL    HW114614   2.024   7.427   1.342
 4770SOL    HW214615   2.138   7.345   1.398
 4771SOL     OW14616   6.371   1.421   1.673
 4771SOL    HW114617   6.318   1.385   1.602
 4771SOL    HW214618   6.437   1.475   1.629
 4772SOL     OW14619   0.576   2.107   1.839
 4772SOL    HW114620   0.666   2.079   1.820
 4772SOL    HW214621   0.539   2.129   1.753
 4773SOL     OW14622   0.460   6.512   2.906
 4773SOL    HW114623   0.372   6.542   2.928
 4773SOL    HW214624   0.474   6.543   2.817
 4774SOL     OW14625   3.133   4.314   4.545
 4774SOL    HW114626   3.108   4.405   4.530
 4774SOL    HW214627   3.167   4.284   4.461
 4775SOL     OW14628   2.253   7.037   0.795
 4775SOL    HW114629   2.181   7.065   0.851
 4775SOL    HW214630   2.215   7.030   0.708
 4776SOL     OW14631   4.791   0.151   5.811
 4776SOL    HW114632   4.877   0.112   5.796
 4776SOL    HW214633   4.775   0.205   5.734
 4777SOL     OW14634   1.836   4.971   0.625
 4777SOL    HW114635   1.792   4.887   0.633
 4777SOL    HW214636   1.829   4.994   0.532
 4778SOL     OW14637   6.940   6.492   2.888
 4778SOL    HW114638   6.980   6.564   2.839
 4778SOL    HW214639   6.852   6.523   2.909
 4779SOL     OW14640   6.362   4.159   5.583
 4779SOL    HW114641   6.355   4.113   5.667
 4779SOL    HW214642   6.271   4.179   5.560
 4780SOL     OW14643   0.660   2.018   4.677
 4780SOL    HW114644   0.679   2.084   4.610
 4780SOL    HW214645   0.595   2.060   4.734
 4781SOL     OW14646   5.330   7.584   0.930
 4781SOL    HW114647   5.345   7.584   1.025
 4781SOL    HW214648   5.395   7.646   0.896
 4782SOL     OW14649   0.998   4.807   5.522
 4782SOL    HW114650   0.997   4.900   5.545
 4782SOL    HW214651   0.975   4.805   5.429
 4783SOL     OW14652   0.544   6.692   0.315
 4783SOL    HW114653   0.570   6.610   0.273
 4783SOL    HW214654   0.545   6.757   0.245
 4784SOL     OW14655   5.598   2.385   0.193
 4784SOL    HW114656   5.563   2.471   0.218
 4784SOL    HW214657   5.590   2.332   0.272
 4785SOL     OW14658   1.508   2.080   5.414
 4785SOL    HW114659   1.538   1.990   5.405
 4785SOL    HW214660   1.498   2.111   5.324
 4786SOL     OW14661   6.995   7.380   2.873
 4786SOL    HW114662   7.018   7.320   2.944
 4786SOL    HW214663   7.031   7.464   2.901
 4787SOL     OW14664   6.962   2.745   4.821
 4787SOL    HW114665   6.896   2.676   4.811
 4787SOL    HW214666   7.000   2.755   4.734
 4788SOL     OW14667   8.013   5.132   5.537
 4788SOL    HW114668   8.006   5.199   5.605
 4788SOL    HW214669   7.959   5.060   5.569
 4789SOL     OW14670   4.903   4.740   5.573
 4789SOL    HW114671   4.812   4.749   5.546
 4789SOL    HW214672   4.950   4.803   5.519
 4790SOL     OW14673   8.034   4.175   3.602
 4790SOL    HW114674   8.031   4.079   3.600
 4790SOL    HW214675   8.122   4.196   3.571
 4791SOL     OW14676   4.808   7.368   5.213
 4791SOL    HW114677   4.739   7.321   5.166
 4791SOL    HW214678   4.763   7.415   5.283
 4792SOL     OW14679   4.326   5.845   1.247
 4792SOL    HW114680   4.258   5.779   1.257
 4792SOL    HW214681   4.315   5.902   1.323
 4793SOL     OW14682   8.058   6.674   4.191
 4793SOL    HW114683   8.025   6.634   4.110
 4793SOL    HW214684   8.153   6.666   4.184
 4794SOL     OW14685   7.114   6.383   5.011
 4794SOL    HW114686   7.049   6.453   5.004
 4794SOL    HW214687   7.081   6.314   4.953
 4795SOL     OW14688   3.531   0.602   3.332
 4795SOL    HW114689   3.580   0.680   3.307
 4795SOL    HW214690   3.461   0.635   3.389
 4796SOL     OW14691   6.756   1.838   1.083
 4796SOL    HW114692   6.733   1.858   1.174
 4796SOL    HW214693   6.716   1.909   1.032
 4797SOL     OW14694   1.071   5.781   0.191
 4797SOL    HW114695   0.990   5.730   0.186
 4797SOL    HW214696   1.139   5.720   0.163
 4798SOL     OW14697   5.107   5.441   2.844
 4798SOL    HW114698   5.175   5.478   2.788
 4798SOL    HW214699   5.025   5.463   2.800
 4799SOL     OW14700   6.060   0.252   1.947
 4799SOL    HW114701   6.090   0.206   2.026
 4799SOL    HW214702   5.972   0.282   1.969
 4800SOL     OW14703   0.853   6.485   0.427
 4800SOL    HW114704   0.806   6.525   0.354
 4800SOL    HW214705   0.789   6.482   0.498
 4801SOL     OW14706   2.014   5.833   0.676
 4801SOL    HW114707   1.967   5.894   0.619
 4801SOL    HW214708   2.048   5.766   0.617
 4802SOL     OW14709   5.813   0.926   4.152
 4802SOL    HW114710   5.736   0.974   4.183
 4802SOL    HW214711   5.791   0.900   4.063
 4803SOL     OW14712   8.093   0.431   1.102
 4803SOL    HW114713   8.116   0.342   1.075
 4803SOL    HW214714   8.118   0.435   1.194
 4804SOL     OW14715   7.784   4.693   3.872
 4804SOL    HW114716   7.781   4.694   3.968
 4804SOL    HW214717   7.737   4.613   3.847
 4805SOL     OW14718   2.942   4.257   4.728
 4805SOL    HW114719   2.878   4.232   4.661
 4805SOL    HW214720   3.020   4.283   4.679
 4806SOL     OW14721   5.806   1.303   2.422
 4806SOL    HW114722   5.740   1.291   2.490
 4806SOL    HW214723   5.862   1.373   2.455
 4807SOL     OW14724   1.515   3.713   2.848
 4807SOL    HW114725   1.499   3.779   2.780
 4807SOL    HW214726   1.479   3.632   2.811
 4808SOL     OW14727   0.871   2.136   4.027
 4808SOL    HW114728   0.868   2.195   4.102
 4808SOL    HW214729   0.954   2.156   3.983
 4809SOL     OW14730   4.108   6.866   0.412
 4809SOL    HW114731   4.106   6.955   0.448
 4809SOL    HW214732   4.192   6.860   0.367
 4810SOL     OW14733   5.967   3.516   1.505
 4810SOL    HW114734   5.900   3.457   1.470
 4810SOL    HW214735   5.949   3.520   1.599
 4811SOL     OW14736   3.759   2.892   4.623
 4811SOL    HW114737   3.726   2.977   4.594
 4811SOL    HW214738   3.729   2.884   4.713
 4812SOL     OW14739   1.977   6.365   1.822
 4812SOL    HW114740   1.892   6.365   1.866
 4812SOL    HW214741   1.992   6.273   1.799
 4813SOL     OW14742   3.031   7.276   4.058
 4813SOL    HW114743   3.066   7.201   4.107
 4813SOL    HW214744   3.082   7.351   4.089
 4814SOL     OW14745   4.562   2.934   5.671
 4814SOL    HW114746   4.517   2.884   5.739
 4814SOL    HW214747   4.652   2.941   5.702
 4815SOL     OW14748   3.269   5.941   3.947
 4815SOL    HW114749   3.313   5.914   3.866
 4815SOL    HW214750   3.253   5.859   3.994
 4816SOL     OW14751   5.078   7.421   4.244
 4816SOL    HW114752   5.139   7.480   4.289
 4816SOL    HW214753   4.991   7.452   4.270
 4817SOL     OW14754   5.568   2.231   2.935
 4817SOL    HW114755   5.544   2.203   2.847
 4817SOL    HW214756   5.655   2.194   2.949
 4818SOL     OW14757   2.377   3.199   0.247
 4818SOL    HW114758   2.375   3.143   0.169
 4818SOL    HW214759   2.334   3.280   0.220
 4819SOL     OW14760   1.692   3.018   1.733
 4819SOL    HW114761   1.757   3.053   1.672
 4819SOL    HW214762   1.620   2.989   1.677
 4820SOL     OW14763   0.917   4.825   3.927
 4820SOL    HW114764   0.841   4.791   3.974
 4820SOL    HW214765   0.921   4.917   3.951
 4821SOL     OW14766   7.197   0.112   0.286
 4821SOL    HW114767   7.203   0.040   0.348
 4821SOL    HW214768   7.254   0.180   0.322
 4822SOL     OW14769   2.454   0.095   4.507
 4822SOL    HW114770   2.385   0.152   4.540
 4822SOL    HW214771   2.503   0.149   4.446
 4823SOL     OW14772   5.897   0.009   2.078
 4823SOL    HW114773   5.966   8.173   2.088
 4823SOL    HW214774   5.830   8.212   2.141
 4824SOL     OW14775   3.517   8.129   5.356
 4824SOL    HW114776   3.606   8.144   5.324
 4824SOL    HW214777   3.484   8.055   5.304
 4825SOL     OW14778   6.824   5.248   3.499
 4825SOL    HW114779   6.849   5.340   3.493
 4825SOL    HW214780   6.885   5.210   3.562
 4826SOL     OW14781   6.284   3.802   2.353
 4826SOL    HW114782   6.348   3.745   2.395
 4826SOL    HW214783   6.296   3.887   2.395
 4827SOL     OW14784   0.237   4.717   4.300
 4827SOL    HW114785   0.291   4.735   4.377
 4827SOL    HW214786   0.269   4.633   4.268
 4828SOL     OW14787   3.603   1.596   4.577
 4828SOL    HW114788   3.583   1.594   4.483
 4828SOL    HW214789   3.666   1.525   4.590
 4829SOL     OW14790   5.972   3.835   3.833
 4829SOL    HW114791   6.015   3.751   3.849
 4829SOL    HW214792   5.977   3.881   3.917
 4830SOL     OW14793   6.810   7.513   4.191
 4830SOL    HW114794   6.855   7.597   4.190
 4830SOL    HW214795   6.780   7.501   4.101
 4831SOL     OW14796   5.380   0.357   0.739
 4831SOL    HW114797   5.435   0.299   0.687
 4831SOL    HW214798   5.321   0.298   0.787
 4832SOL     OW14799   3.126   7.190   3.556
 4832SOL    HW114800   3.219   7.171   3.572
 4832SOL    HW214801   3.087   7.194   3.643
 4833SOL     OW14802   1.590   2.545   1.028
 4833SOL    HW114803   1.639   2.607   0.974
 4833SOL    HW214804   1.498   2.563   1.007
 4834SOL     OW14805   7.233   2.846   3.800
 4834SOL    HW114806   7.190   2.863   3.716
 4834SOL    HW214807   7.195   2.764   3.831
 4835SOL     OW14808   8.089   2.826   2.960
 4835SOL    HW114809   8.123   2.851   3.046
 4835SOL    HW214810   7.995   2.843   2.966
 4836SOL     OW14811   3.218   2.605   0.776
 4836SOL    HW114812   3.215   2.525   0.828
 4836SOL    HW214813   3.304   2.642   0.794
 4837SOL     OW14814   2.447   5.479   3.814
 4837SOL    HW114815   2.355   5.458   3.798
 4837SOL    HW214816   2.478   5.409   3.871
 4838SOL     OW14817   5.775   5.608   2.464
 4838SOL    HW114818   5.829   5.582   2.539
 4838SOL    HW214819   5.833   5.662   2.410
 4839SOL     OW14820   2.067   0.459   4.404
 4839SOL    HW114821   1.977   0.469   4.434
 4839SOL    HW214822   2.070   0.371   4.366
 4840SOL     OW14823   4.724   0.356   2.371
 4840SOL    HW114824   4.800   0.409   2.348
 4840SOL    HW214825   4.669   0.414   2.423
 4841SOL     OW14826   6.805   4.097   2.899
 4841SOL    HW114827   6.745   4.094   2.973
 4841SOL    HW214828   6.863   4.170   2.918
 4842SOL     OW14829   2.324   7.439   2.127
 4842SOL    HW114830   2.354   7.522   2.090
 4842SOL    HW214831   2.382   7.374   2.088
 4843SOL     OW14832   5.676   7.548   0.710
 4843SOL    HW114833   5.636   7.471   0.671
 4843SOL    HW214834   5.602   7.606   0.730
 4844SOL     OW14835   7.825   5.208   0.800
 4844SOL    HW114836   7.908   5.205   0.752
 4844SOL    HW214837   7.836   5.147   0.872
 4845SOL     OW14838   1.067   4.721   1.860
 4845SOL    HW114839   1.096   4.730   1.769
 4845SOL    HW214840   1.025   4.805   1.880
 4846SOL     OW14841   0.742   8.159   2.690
 4846SOL    HW114842   0.689   8.084   2.663
 4846SOL    HW214843   0.832   8.128   2.686
 4847SOL     OW14844   4.961   5.696   5.085
 4847SOL    HW114845   4.874   5.663   5.062
 4847SOL    HW214846   5.011   5.692   5.003
 4848SOL     OW14847   5.753   2.892   4.497
 4848SOL    HW114848   5.694   2.865   4.568
 4848SOL    HW214849   5.717   2.975   4.466
 4849SOL     OW14850   4.276   0.519   2.550
 4849SOL    HW114851   4.255   0.514   2.643
 4849SOL    HW214852   4.227   0.595   2.519
 4850SOL     OW14853   5.782   1.588   3.739
 4850SOL    HW114854   5.863   1.586   3.790
 4850SOL    HW214855   5.768   1.498   3.711
 4851SOL     OW14856   6.431   4.905   4.058
 4851SOL    HW114857   6.473   4.966   3.997
 4851SOL    HW214858   6.471   4.924   4.143
 4852SOL     OW14859   5.525   1.667   2.032
 4852SOL    HW114860   5.570   1.592   2.072
 4852SOL    HW214861   5.485   1.632   1.952
 4853SOL     OW14862   1.081   2.425   0.346
 4853SOL    HW114863   1.114   2.390   0.429
 4853SOL    HW214864   1.147   2.488   0.319
 4854SOL     OW14865   6.523   3.469   4.638
 4854SOL    HW114866   6.534   3.521   4.718
 4854SOL    HW214867   6.537   3.532   4.567
 4855SOL     OW14868   3.259   4.869   2.521
 4855SOL    HW114869   3.335   4.838   2.570
 4855SOL    HW214870   3.187   4.864   2.583
 4856SOL     OW14871   4.612   0.731   1.614
 4856SOL    HW114872   4.636   0.646   1.652
 4856SOL    HW214873   4.538   0.711   1.557
 4857SOL     OW14874   3.202   0.669   2.734
 4857SOL    HW114875   3.220   0.580   2.705
 4857SOL    HW214876   3.271   0.687   2.798
 4858SOL     OW14877   1.156   4.432   3.791
 4858SOL    HW114878   1.188   4.372   3.859
 4858SOL    HW214879   1.063   4.443   3.812
 4859SOL     OW14880   1.978   2.604   1.403
 4859SOL    HW114881   1.997   2.686   1.449
 4859SOL    HW214882   1.928   2.631   1.326
 4860SOL     OW14883   2.541   3.403   4.041
 4860SOL    HW114884   2.598   3.336   4.003
 4860SOL    HW214885   2.485   3.431   3.969
 4861SOL     OW14886   2.161   6.916   4.415
 4861SOL    HW114887   2.254   6.897   4.424
 4861SOL    HW214888   2.118   6.856   4.477
 4862SOL     OW14889   0.865   4.068   1.052
 4862SOL    HW114890   0.873   4.133   0.982
 4862SOL    HW214891   0.910   4.107   1.127
 4863SOL     OW14892   7.187   5.753   4.504
 4863SOL    HW114893   7.149   5.758   4.416
 4863SOL    HW214894   7.111   5.755   4.563
 4864SOL     OW14895   7.832   2.185   4.917
 4864SOL    HW114896   7.895   2.117   4.891
 4864SOL    HW214897   7.846   2.196   5.011
 4865SOL     OW14898   2.822   6.072   5.324
 4865SOL    HW114899   2.763   6.112   5.260
 4865SOL    HW214900   2.767   6.009   5.371
 4866SOL     OW14901   4.313   2.748   1.704
 4866SOL    HW114902   4.256   2.800   1.647
 4866SOL    HW214903   4.329   2.804   1.780
 4867SOL     OW14904   2.159   7.011   5.519
 4867SOL    HW114905   2.155   7.082   5.583
 4867SOL    HW214906   2.244   7.022   5.476
 4868SOL     OW14907   4.729   2.768   2.962
 4868SOL    HW114908   4.777   2.779   2.880
 4868SOL    HW214909   4.664   2.701   2.943
 4869SOL     OW14910   0.944   6.333   0.157
 4869SOL    HW114911   0.965   6.261   0.097
 4869SOL    HW214912   0.935   6.291   0.242
 4870SOL     OW14913   2.967   1.745   1.044
 4870SOL    HW114914   3.005   1.781   1.124
 4870SOL    HW214915   3.035   1.758   0.978
 4871SOL     OW14916   6.644   0.068   4.870
 4871SOL    HW114917   6.637   8.206   4.897
 4871SOL    HW214918   6.590   0.115   4.933
 4872SOL     OW14919   5.844   1.040   1.563
 4872SOL    HW114920   5.855   1.131   1.592
 4872SOL    HW214921   5.927   1.018   1.522
 4873SOL     OW14922   0.836   1.390   0.994
 4873SOL    HW114923   0.808   1.333   1.066
 4873SOL    HW214924   0.811   1.342   0.915
 4874SOL     OW14925   6.594   3.671   5.082
 4874SOL    HW114926   6.651   3.745   5.106
 4874SOL    HW214927   6.573   3.629   5.166
 4875SOL     OW14928   1.461   2.319   4.461
 4875SOL    HW114929   1.457   2.260   4.536
 4875SOL    HW214930   1.387   2.293   4.406
 4876SOL     OW14931   7.243   0.128   1.180
 4876SOL    HW114932   7.154   0.158   1.198
 4876SOL    HW214933   7.243   0.106   1.087
 4877SOL     OW14934   6.523   0.793   1.558
 4877SOL    HW114935   6.555   0.865   1.504
 4877SOL    HW214936   6.528   0.826   1.648
 4878SOL     OW14937   7.599   1.750   4.817
 4878SOL    HW114938   7.549   1.705   4.885
 4878SOL    HW214939   7.547   1.828   4.797
 4879SOL     OW14940   6.856   5.505   0.741
 4879SOL    HW114941   6.872   5.542   0.828
 4879SOL    HW214942   6.935   5.526   0.691
 4880SOL     OW14943   3.584   4.702   0.703
 4880SOL    HW114944   3.660   4.655   0.668
 4880SOL    HW214945   3.598   4.703   0.798
 4881SOL     OW14946   1.313   7.634   2.745
 4881SOL    HW114947   1.308   7.675   2.658
 4881SOL    HW214948   1.358   7.551   2.730
 4882SOL     OW14949   2.909   4.086   1.746
 4882SOL    HW114950   2.899   4.005   1.696
 4882SOL    HW214951   2.956   4.145   1.687
 4883SOL     OW14952   6.880   2.379   0.357
 4883SOL    HW114953   6.787   2.398   0.370
 4883SOL    HW214954   6.902   2.425   0.276
 4884SOL     OW14955   2.830   6.526   2.169
 4884SOL    HW114956   2.736   6.541   2.173
 4884SOL    HW214957   2.860   6.579   2.095
 4885SOL     OW14958   8.182   5.439   4.560
 4885SOL    HW114959   0.042   5.408   4.544
 4885SOL    HW214960   8.129   5.396   4.493
 4886SOL     OW14961   5.665   6.925   4.107
 4886SOL    HW114962   5.711   6.843   4.088
 4886SOL    HW214963   5.654   6.967   4.022
 4887SOL     OW14964   0.125   3.007   3.120
 4887SOL    HW114965   0.161   3.068   3.185
 4887SOL    HW214966   0.199   2.952   3.095
 4888SOL     OW14967   2.104   6.496   0.181
 4888SOL    HW114968   2.036   6.478   0.116
 4888SOL    HW214969   2.186   6.478   0.135
 4889SOL     OW14970   7.773   3.828   1.553
 4889SOL    HW114971   7.710   3.888   1.592
 4889SOL    HW214972   7.730   3.743   1.556
 4890SOL     OW14973   8.011   7.124   3.520
 4890SOL    HW114974   7.974   7.079   3.596
 4890SOL    HW214975   7.951   7.104   3.448
 4891SOL     OW14976   3.943   2.217   4.778
 4891SOL    HW114977   3.880   2.286   4.758
 4891SOL    HW214978   3.889   2.138   4.787
 4892SOL     OW14979   7.488   2.053   5.370
 4892SOL    HW114980   7.495   2.147   5.387
 4892SOL    HW214981   7.402   2.029   5.405
 4893SOL     OW14982   4.391   2.887   3.383
 4893SOL    HW114983   4.412   2.861   3.473
 4893SOL    HW214984   4.388   2.983   3.386
 4894SOL     OW14985   3.336   4.816   2.144
 4894SOL    HW114986   3.337   4.727   2.109
 4894SOL    HW214987   3.247   4.828   2.177
 4895SOL     OW14988   6.735   6.211   0.930
 4895SOL    HW114989   6.765   6.156   0.857
 4895SOL    HW214990   6.801   6.281   0.936
 4896SOL     OW14991   4.551   6.653   3.641
 4896SOL    HW114992   4.467   6.669   3.683
 4896SOL    HW214993   4.543   6.566   3.603
 4897SOL     OW14994   3.897   3.656   0.655
 4897SOL    HW114995   3.950   3.608   0.719
 4897SOL    HW214996   3.814   3.609   0.653
 4898SOL     OW14997   7.629   3.322   1.263
 4898SOL    HW114998   7.696   3.274   1.312
 4898SOL    HW214999   7.546   3.286   1.294
 4899SOL     OW15000   0.423   5.962   4.149
 4899SOL    HW115001   0.362   5.985   4.219
 4899SOL    HW215002   0.503   5.934   4.194
 4900SOL     OW15003   7.270   3.079   2.836
 4900SOL    HW115004   7.256   3.033   2.919
 4900SOL    HW215005   7.310   3.162   2.861
 4901SOL     OW15006   3.887   7.331   1.901
 4901SOL    HW115007   3.801   7.290   1.909
 4901SOL    HW215008   3.881   7.410   1.954
 4902SOL     OW15009   0.415   2.370   1.739
 4902SOL    HW115010   0.361   2.304   1.695
 4902SOL    HW215011   0.505   2.343   1.722
 4903SOL     OW15012   3.445   4.409   2.132
 4903SOL    HW115013   3.361   4.401   2.177
 4903SOL    HW215014   3.464   4.321   2.101
 4904SOL     OW15015   7.325   7.554   1.817
 4904SOL    HW115016   7.329   7.458   1.812
 4904SOL    HW215017   7.233   7.573   1.833
 4905SOL     OW15018   1.927   3.482   5.467
 4905SOL    HW115019   1.881   3.398   5.470
 4905SOL    HW215020   2.019   3.459   5.451
 4906SOL     OW15021   4.707   4.198   2.486
 4906SOL    HW115022   4.684   4.106   2.496
 4906SOL    HW215023   4.802   4.198   2.473
 4907SOL     OW15024   5.305   5.388   2.379
 4907SOL    HW115025   5.276   5.300   2.357
 4907SOL    HW215026   5.385   5.375   2.430
 4908SOL     OW15027   7.736   1.289   2.229
 4908SOL    HW115028   7.802   1.227   2.199
 4908SOL    HW215029   7.674   1.236   2.279
 4909SOL     OW15030   6.480   0.836   1.093
 4909SOL    HW115031   6.567   0.808   1.121
 4909SOL    HW215032   6.424   0.816   1.168
 4910SOL     OW15033   7.208   6.811   0.384
 4910SOL    HW115034   7.151   6.768   0.320
 4910SOL    HW215035   7.186   6.904   0.377
 4911SOL     OW15036   5.083   5.153   0.606
 4911SOL    HW115037   5.172   5.187   0.596
 4911SOL    HW215038   5.067   5.105   0.525
 4912SOL     OW15039   7.123   7.579   0.209
 4912SOL    HW115040   7.175   7.617   0.280
 4912SOL    HW215041   7.130   7.642   0.137
 4913SOL     OW15042   2.964   7.177   5.098
 4913SOL    HW115043   3.028   7.236   5.059
 4913SOL    HW215044   2.957   7.104   5.036
 4914SOL     OW15045   4.751   8.077   2.648
 4914SOL    HW115046   4.682   8.137   2.675
 4914SOL    HW215047   4.780   8.035   2.729
 4915SOL     OW15048   7.398   4.126   2.258
 4915SOL    HW115049   7.446   4.202   2.291
 4915SOL    HW215050   7.456   4.088   2.192
 4916SOL     OW15051   5.077   6.713   5.770
 4916SOL    HW115052   5.066   6.777   5.700
 4916SOL    HW215053   5.002   6.654   5.761
 4917SOL     OW15054   5.580   5.293   3.814
 4917SOL    HW115055   5.639   5.352   3.862
 4917SOL    HW215056   5.629   5.212   3.805
 4918SOL     OW15057   0.984   6.356   3.714
 4918SOL    HW115058   0.977   6.275   3.764
 4918SOL    HW215059   0.894   6.389   3.708
 4919SOL     OW15060   0.645   6.424   0.770
 4919SOL    HW115061   0.585   6.349   0.763
 4919SOL    HW215062   0.636   6.469   0.686
 4920SOL     OW15063   6.904   7.622   1.013
 4920SOL    HW115064   6.990   7.626   0.971
 4920SOL    HW215065   6.869   7.536   0.989
 4921SOL     OW15066   7.075   2.249   1.140
 4921SOL    HW115067   7.047   2.253   1.049
 4921SOL    HW215068   7.012   2.304   1.186
 4922SOL     OW15069   7.559   5.146   0.527
 4922SOL    HW115070   7.619   5.218   0.507
 4922SOL    HW215071   7.551   5.147   0.622
 4923SOL     OW15072   5.185   0.665   2.072
 4923SOL    HW115073   5.196   0.695   1.982
 4923SOL    HW215074   5.270   0.629   2.096
 4924SOL     OW15075   8.127   5.704   4.524
 4924SOL    HW115076   8.049   5.739   4.567
 4924SOL    HW215077   8.135   5.615   4.557
 4925SOL     OW15078   6.076   1.471   0.916
 4925SOL    HW115079   6.100   1.561   0.896
 4925SOL    HW215080   6.105   1.457   1.006
 4926SOL     OW15081   0.973   5.827   5.278
 4926SOL    HW115082   0.984   5.919   5.255
 4926SOL    HW215083   1.059   5.799   5.308
 4927SOL     OW15084   2.128   5.851   4.992
 4927SOL    HW115085   2.039   5.877   4.967
 4927SOL    HW215086   2.124   5.756   5.002
 4928SOL     OW15087   1.423   6.705   3.367
 4928SOL    HW115088   1.438   6.687   3.460
 4928SOL    HW215089   1.502   6.751   3.338
 4929SOL     OW15090   2.636   6.934   3.256
 4929SOL    HW115091   2.670   7.009   3.305
 4929SOL    HW215092   2.596   6.878   3.322
 4930SOL     OW15093   0.279   4.666   1.880
 4930SOL    HW115094   0.289   4.573   1.902
 4930SOL    HW215095   0.208   4.668   1.815
 4931SOL     OW15096   5.087   4.521   1.983
 4931SOL    HW115097   5.060   4.583   1.915
 4931SOL    HW215098   5.117   4.444   1.935
 4932SOL     OW15099   3.824   6.889   5.142
 4932SOL    HW115100   3.728   6.891   5.138
 4932SOL    HW215101   3.852   6.968   5.095
 4933SOL     OW15102   1.378   1.469   0.571
 4933SOL    HW115103   1.456   1.517   0.543
 4933SOL    HW215104   1.306   1.530   0.556
 4934SOL     OW15105   5.755   0.040   2.564
 4934SOL    HW115106   5.846   0.021   2.543
 4934SOL    HW215107   5.714   0.058   2.479
 4935SOL     OW15108   7.189   2.958   3.256
 4935SOL    HW115109   7.103   2.951   3.298
 4935SOL    HW215110   7.222   3.044   3.282
 4936SOL     OW15111   0.852   3.826   5.614
 4936SOL    HW115112   0.768   3.860   5.645
 4936SOL    HW215113   0.904   3.904   5.595
 4937SOL     OW15114   6.644   3.219   5.591
 4937SOL    HW115115   6.595   3.243   5.512
 4937SOL    HW215116   6.722   3.173   5.558
 4938SOL     OW15117   6.979   4.366   4.513
 4938SOL    HW115118   7.018   4.380   4.427
 4938SOL    HW215119   6.949   4.453   4.540
 4939SOL     OW15120   0.089   7.378   3.041
 4939SOL    HW115121   0.130   7.345   2.961
 4939SOL    HW215122   0.131   7.329   3.112
 4940SOL     OW15123   7.596   1.068   2.297
 4940SOL    HW115124   7.554   1.074   2.383
 4940SOL    HW215125   7.544   1.003   2.249
 4941SOL     OW15126   5.147   2.112   5.506
 4941SOL    HW115127   5.142   2.202   5.538
 4941SOL    HW215128   5.241   2.092   5.506
 4942SOL     OW15129   7.716   6.893   3.080
 4942SOL    HW115130   7.803   6.886   3.041
 4942SOL    HW215131   7.697   6.987   3.080
 4943SOL     OW15132   3.993   5.901   5.767
 4943SOL    HW115133   4.051   5.961   5.720
 4943SOL    HW215134   8.132   1.796   0.040
 4944SOL     OW15135   3.667   0.273   5.326
 4944SOL    HW115136   3.728   0.347   5.325
 4944SOL    HW215137   3.585   0.310   5.358
 4945SOL     OW15138   7.410   0.847   0.843
 4945SOL    HW115139   7.438   0.934   0.871
 4945SOL    HW215140   7.425   0.791   0.919
 4946SOL     OW15141   5.314   7.752   2.018
 4946SOL    HW115142   5.259   7.729   1.943
 4946SOL    HW215143   5.403   7.754   1.983
 4947SOL     OW15144   2.140   1.122   5.673
 4947SOL    HW115145   2.101   1.055   5.729
 4947SOL    HW215146   2.066   1.158   5.623
 4948SOL     OW15147   7.106   7.120   3.885
 4948SOL    HW115148   7.052   7.041   3.882
 4948SOL    HW215149   7.043   7.192   3.885
 4949SOL     OW15150   4.075   7.846   2.915
 4949SOL    HW115151   4.058   7.893   2.996
 4949SOL    HW215152   4.161   7.878   2.887
 4950SOL     OW15153   7.745   4.358   0.910
 4950SOL    HW115154   7.737   4.432   0.970
 4950SOL    HW215155   7.829   4.371   0.867
 4951SOL     OW15156   3.051   1.372   2.855
 4951SOL    HW115157   3.122   1.366   2.791
 4951SOL    HW215158   3.019   1.282   2.863
 4952SOL     OW15159   5.989   0.283   0.242
 4952SOL    HW115160   6.015   0.374   0.257
 4952SOL    HW215161   6.005   0.239   0.325
 4953SOL     OW15162   3.407   5.602   3.623
 4953SOL    HW115163   3.502   5.594   3.622
 4953SOL    HW215164   3.375   5.512   3.623
 4954SOL     OW15165   2.719   0.800   2.385
 4954SOL    HW115166   2.638   0.842   2.414
 4954SOL    HW215167   2.741   0.740   2.456
 4955SOL     OW15168   6.331   1.946   1.687
 4955SOL    HW115169   6.404   1.977   1.741
 4955SOL    HW215170   6.263   2.012   1.699
 4956SOL     OW15171   1.149   1.186   5.276
 4956SOL    HW115172   1.116   1.113   5.328
 4956SOL    HW215173   1.071   1.221   5.233
 4957SOL     OW15174   4.007   3.280   1.664
 4957SOL    HW115175   3.984   3.351   1.724
 4957SOL    HW215176   4.018   3.323   1.579
 4958SOL     OW15177   3.794   4.534   0.576
 4958SOL    HW115178   3.799   4.533   0.480
 4958SOL    HW215179   3.735   4.462   0.598
 4959SOL     OW15180   3.227   7.065   1.049
 4959SOL    HW115181   3.169   6.989   1.048
 4959SOL    HW215182   3.307   7.034   1.090
 4960SOL     OW15183   3.800   6.269   3.238
 4960SOL    HW115184   3.717   6.280   3.192
 4960SOL    HW215185   3.803   6.341   3.301
 4961SOL     OW15186   2.045   7.983   4.485
 4961SOL    HW115187   2.055   7.890   4.507
 4961SOL    HW215188   2.097   8.029   4.550
 4962SOL     OW15189   2.801   7.417   4.031
 4962SOL    HW115190   2.843   7.341   4.072
 4962SOL    HW215191   2.851   7.432   3.951
 4963SOL     OW15192   2.900   0.245   0.621
 4963SOL    HW115193   2.953   0.277   0.694
 4963SOL    HW215194   2.841   0.318   0.601
 4964SOL     OW15195   5.768   7.596   4.567
 4964SOL    HW115196   5.739   7.507   4.549
 4964SOL    HW215197   5.827   7.587   4.642
 4965SOL     OW15198   7.149   2.470   2.848
 4965SOL    HW115199   7.184   2.559   2.846
 4965SOL    HW215200   7.208   2.423   2.907
 4966SOL     OW15201   5.337   7.577   4.284
 4966SOL    HW115202   5.311   7.667   4.264
 4966SOL    HW215203   5.411   7.559   4.226
 4967SOL     OW15204   1.169   7.497   4.244
 4967SOL    HW115205   1.204   7.433   4.182
 4967SOL    HW215206   1.080   7.466   4.262
 4968SOL     OW15207   6.865   0.964   1.119
 4968SOL    HW115208   6.877   1.058   1.110
 4968SOL    HW215209   6.953   0.927   1.113
 4969SOL     OW15210   0.500   1.971   4.341
 4969SOL    HW115211   0.440   1.987   4.268
 4969SOL    HW215212   0.472   1.886   4.376
 4970SOL     OW15213   6.773   0.579   2.307
 4970SOL    HW115214   6.860   0.538   2.310
 4970SOL    HW215215   6.787   0.668   2.340
 4971SOL     OW15216   1.000   6.738   2.219
 4971SOL    HW115217   0.927   6.682   2.193
 4971SOL    HW215218   0.989   6.818   2.167
 4972SOL     OW15219   5.198   4.923   4.250
 4972SOL    HW115220   5.179   4.889   4.163
 4972SOL    HW215221   5.261   4.994   4.234
 4973SOL     OW15222   4.381   1.336   3.986
 4973SOL    HW115223   4.289   1.317   3.966
 4973SOL    HW215224   4.391   1.312   4.078
 4974SOL     OW15225   7.486   7.951   3.632
 4974SOL    HW115226   7.462   7.931   3.542
 4974SOL    HW215227   7.539   7.877   3.660
 4975SOL     OW15228   6.158   1.026   1.110
 4975SOL    HW115229   6.252   1.046   1.110
 4975SOL    HW215230   6.126   1.058   1.026
 4976SOL     OW15231   5.020   6.534   2.053
 4976SOL    HW115232   5.049   6.618   2.088
 4976SOL    HW215233   5.068   6.469   2.104
 4977SOL     OW15234   7.137   0.931   1.075
 4977SOL    HW115235   7.184   0.850   1.093
 4977SOL    HW215236   7.206   0.995   1.057
 4978SOL     OW15237   5.603   0.479   1.231
 4978SOL    HW115238   5.511   0.459   1.248
 4978SOL    HW215239   5.618   0.562   1.276
 4979SOL     OW15240   3.701   1.922   3.098
 4979SOL    HW115241   3.659   2.004   3.123
 4979SOL    HW215242   3.633   1.856   3.109
 4980SOL     OW15243   4.553   0.257   4.652
 4980SOL    HW115244   4.564   0.179   4.706
 4980SOL    HW215245   4.458   0.270   4.649
 4981SOL     OW15246   0.527   8.011   0.524
 4981SOL    HW115247   0.597   8.040   0.465
 4981SOL    HW215248   0.534   8.069   0.600
 4982SOL     OW15249   3.856   3.257   1.139
 4982SOL    HW115250   3.834   3.282   1.229
 4982SOL    HW215251   3.830   3.333   1.087
 4983SOL     OW15252   7.750   3.682   3.124
 4983SOL    HW115253   7.744   3.712   3.033
 4983SOL    HW215254   7.710   3.753   3.175
 4984SOL     OW15255   6.561   4.163   3.733
 4984SOL    HW115256   6.551   4.083   3.682
 4984SOL    HW215257   6.617   4.219   3.680
 4985SOL     OW15258   4.264   7.537   2.943
 4985SOL    HW115259   4.216   7.591   3.006
 4985SOL    HW215260   4.301   7.599   2.881
 4986SOL     OW15261   2.551   3.159   4.242
 4986SOL    HW115262   2.565   3.247   4.278
 4986SOL    HW215263   2.636   3.116   4.251
 4987SOL     OW15264   7.724   4.196   3.000
 4987SOL    HW115265   7.789   4.132   3.028
 4987SOL    HW215266   7.658   4.145   2.954
 4988SOL     OW15267   4.346   7.929   2.856
 4988SOL    HW115268   4.364   8.023   2.863
 4988SOL    HW215269   4.400   7.889   2.924
 4989SOL     OW15270   1.183   0.454   0.256
 4989SOL    HW115271   1.242   0.450   0.181
 4989SOL    HW215272   1.237   0.487   0.328
 4990SOL     OW15273   2.866   1.511   0.980
 4990SOL    HW115274   2.941   1.451   0.977
 4990SOL    HW215275   2.905   1.598   0.992
 4991SOL     OW15276   7.492   1.398   4.854
 4991SOL    HW115277   7.408   1.392   4.900
 4991SOL    HW215278   7.481   1.343   4.777
 4992SOL     OW15279   7.613   0.522   3.497
 4992SOL    HW115280   7.541   0.562   3.545
 4992SOL    HW215281   7.600   0.428   3.508
 4993SOL     OW15282   3.393   4.391   1.435
 4993SOL    HW115283   3.332   4.464   1.435
 4993SOL    HW215284   3.478   4.431   1.419
 4994SOL     OW15285   8.077   2.631   1.484
 4994SOL    HW115286   8.097   2.553   1.535
 4994SOL    HW215287   8.132   2.623   1.406
 4995SOL     OW15288   4.248   3.801   0.399
 4995SOL    HW115289   4.310   3.775   0.467
 4995SOL    HW215290   4.164   3.809   0.445
 4996SOL     OW15291   2.370   1.609   5.041
 4996SOL    HW115292   2.446   1.622   4.985
 4996SOL    HW215293   2.359   1.514   5.044
 4997SOL     OW15294   5.576   2.514   3.938
 4997SOL    HW115295   5.486   2.497   3.965
 4997SOL    HW215296   5.614   2.566   4.009
 4998SOL     OW15297   0.923   8.192   3.644
 4998SOL    HW115298   0.945   8.099   3.633
 4998SOL    HW215299   1.006   0.009   3.631
 4999SOL     OW15300   3.565   2.301   0.141
 4999SOL    HW115301   3.657   2.280   0.157
 4999SOL    HW215302   3.544   2.258   0.058
 5000SOL     OW15303   7.899   3.247   0.912
 5000SOL    HW115304   7.916   3.320   0.972
 5000SOL    HW215305   7.808   3.223   0.929
 5001SOL     OW15306   7.242   2.711   2.447
 5001SOL    HW115307   7.242   2.797   2.488
 5001SOL    HW215308   7.332   2.699   2.416
 5002SOL     OW15309   2.734   4.370   1.829
 5002SOL    HW115310   2.758   4.458   1.858
 5002SOL    HW215311   2.707   4.381   1.738
 5003SOL     OW15312   5.458   3.656   3.119
 5003SOL    HW115313   5.437   3.736   3.070
 5003SOL    HW215314   5.551   3.665   3.141
 5004SOL     OW15315   0.160   5.065   0.784
 5004SOL    HW115316   0.172   5.122   0.708
 5004SOL    HW215317   0.109   4.991   0.750
 5005SOL     OW15318   0.849   5.617   4.624
 5005SOL    HW115319   0.814   5.566   4.697
 5005SOL    HW215320   0.781   5.613   4.557
 5006SOL     OW15321   0.652   2.043   0.042
 5006SOL    HW115322   0.614   1.957   0.061
 5006SOL    HW215323   0.729   2.048   0.099
 5007SOL     OW15324   1.217   5.711   2.401
 5007SOL    HW115325   1.183   5.785   2.351
 5007SOL    HW215326   1.310   5.730   2.411
 5008SOL     OW15327   5.408   1.439   0.398
 5008SOL    HW115328   5.329   1.465   0.351
 5008SOL    HW215329   5.464   1.516   0.395
 5009SOL     OW15330   7.885   5.645   1.354
 5009SOL    HW115331   7.841   5.722   1.318
 5009SOL    HW215332   7.814   5.586   1.378
 5010SOL     OW15333   5.268   6.536   1.227
 5010SOL    HW115334   5.287   6.517   1.135
 5010SOL    HW215335   5.352   6.562   1.264
 5011SOL     OW15336   4.453   4.019   3.296
 5011SOL    HW115337   4.370   4.059   3.269
 5011SOL    HW215338   4.429   3.931   3.325
 5012SOL     OW15339   2.262   3.450   2.100
 5012SOL    HW115340   2.210   3.376   2.070
 5012SOL    HW215341   2.291   3.493   2.020
 5013SOL     OW15342   3.610   7.391   1.540
 5013SOL    HW115343   3.694   7.361   1.576
 5013SOL    HW215344   3.630   7.474   1.497
 5014SOL     OW15345   6.349   3.285   4.499
 5014SOL    HW115346   6.277   3.328   4.544
 5014SOL    HW215347   6.428   3.322   4.539
 5015SOL     OW15348   6.955   2.892   0.798
 5015SOL    HW115349   6.940   2.804   0.831
 5015SOL    HW215350   6.979   2.943   0.875
 5016SOL     OW15351   7.889   3.290   5.096
 5016SOL    HW115352   7.929   3.320   5.014
 5016SOL    HW215353   7.806   3.250   5.069
 5017SOL     OW15354   0.636   5.821   0.107
 5017SOL    HW115355   0.659   5.747   0.163
 5017SOL    HW215356   0.714   5.836   0.054
 5018SOL     OW15357   8.088   7.361   1.765
 5018SOL    HW115358   8.006   7.379   1.718
 5018SOL    HW215359   8.120   7.279   1.727
 5019SOL     OW15360   2.039   3.318   1.531
 5019SOL    HW115361   2.066   3.275   1.450
 5019SOL    HW215362   2.078   3.405   1.526
 5020SOL     OW15363   7.548   6.513   4.481
 5020SOL    HW115364   7.472   6.561   4.448
 5020SOL    HW215365   7.561   6.443   4.417
 5021SOL     OW15366   7.395   5.997   2.762
 5021SOL    HW115367   7.467   6.009   2.823
 5021SOL    HW215368   7.436   5.961   2.683
 5022SOL     OW15369   2.326   1.991   2.821
 5022SOL    HW115370   2.394   1.987   2.888
 5022SOL    HW215371   2.362   2.047   2.753
 5023SOL     OW15372   3.494   6.362   1.673
 5023SOL    HW115373   3.411   6.409   1.678
 5023SOL    HW215374   3.483   6.301   1.600
 5024SOL     OW15375   7.873   3.604   0.977
 5024SOL    HW115376   7.919   3.525   1.005
 5024SOL    HW215377   7.780   3.584   0.990
 5025SOL     OW15378   7.260   5.091   0.689
 5025SOL    HW115379   7.218   5.033   0.753
 5025SOL    HW215380   7.245   5.049   0.604
 5026SOL     OW15381   6.240   3.786   1.366
 5026SOL    HW115382   6.209   3.759   1.452
 5026SOL    HW215383   6.162   3.784   1.310
 5027SOL     OW15384   0.406   4.476   2.192
 5027SOL    HW115385   0.425   4.553   2.245
 5027SOL    HW215386   0.421   4.402   2.251
 5028SOL     OW15387   2.397   2.865   3.772
 5028SOL    HW115388   2.332   2.794   3.772
 5028SOL    HW215389   2.362   2.929   3.834
 5029SOL     OW15390   5.598   5.798   0.165
 5029SOL    HW115391   5.581   5.712   0.204
 5029SOL    HW215392   5.569   5.789   0.074
 5030SOL     OW15393   0.440   4.304   3.492
 5030SOL    HW115394   0.497   4.258   3.554
 5030SOL    HW215395   0.370   4.340   3.546
 5031SOL     OW15396   5.758   6.609   0.844
 5031SOL    HW115397   5.702   6.604   0.921
 5031SOL    HW215398   5.706   6.656   0.779
 5032SOL     OW15399   3.922   7.422   5.479
 5032SOL    HW115400   3.901   7.489   5.413
 5032SOL    HW215401   3.847   7.362   5.477
 5033SOL     OW15402   3.693   0.562   2.943
 5033SOL    HW115403   3.763   0.503   2.972
 5033SOL    HW215404   3.682   0.624   3.015
 5034SOL     OW15405   2.335   1.239   0.255
 5034SOL    HW115406   2.380   1.231   0.339
 5034SOL    HW215407   2.258   1.183   0.263
 5035SOL     OW15408   3.619   0.775   0.505
 5035SOL    HW115409   3.642   0.758   0.414
 5035SOL    HW215410   3.550   0.712   0.525
 5036SOL     OW15411   2.477   7.848   2.088
 5036SOL    HW115412   2.572   7.845   2.099
 5036SOL    HW215413   2.443   7.854   2.177
 5037SOL     OW15414   2.550   4.814   3.867
 5037SOL    HW115415   2.616   4.795   3.801
 5037SOL    HW215416   2.554   4.740   3.927
 5038SOL     OW15417   6.305   3.196   4.228
 5038SOL    HW115418   6.212   3.176   4.219
 5038SOL    HW215419   6.313   3.229   4.318
 5039SOL     OW15420   8.014   0.697   3.711
 5039SOL    HW115421   7.980   0.609   3.728
 5039SOL    HW215422   8.088   0.706   3.771
 5040SOL     OW15423   4.133   1.291   4.797
 5040SOL    HW115424   4.086   1.208   4.796
 5040SOL    HW215425   4.164   1.302   4.707
 5041SOL     OW15426   5.733   0.026   5.132
 5041SOL    HW115427   5.812   8.201   5.134
 5041SOL    HW215428   5.663   8.196   5.158
 5042SOL     OW15429   3.933   4.418   4.752
 5042SOL    HW115430   3.859   4.393   4.696
 5042SOL    HW215431   4.007   4.368   4.718
 5043SOL     OW15432   6.386   8.128   1.480
 5043SOL    HW115433   6.478   8.100   1.482
 5043SOL    HW215434   6.351   8.087   1.401
 5044SOL     OW15435   4.699   7.506   4.133
 5044SOL    HW115436   4.604   7.517   4.143
 5044SOL    HW215437   4.734   7.515   4.222
 5045SOL     OW15438   7.033   0.557   3.031
 5045SOL    HW115439   7.014   0.463   3.028
 5045SOL    HW215440   7.117   0.566   2.986
 5046SOL     OW15441   0.026   0.931   4.141
 5046SOL    HW115442   0.104   0.984   4.122
 5046SOL    HW215443   0.058   0.841   4.140
 5047SOL     OW15444   0.190   2.974   0.215
 5047SOL    HW115445   0.096   2.979   0.196
 5047SOL    HW215446   0.231   2.960   0.130
 5048SOL     OW15447   6.647   7.246   3.658
 5048SOL    HW115448   6.727   7.214   3.699
 5048SOL    HW215449   6.582   7.178   3.677
 5049SOL     OW15450   7.514   4.220   1.393
 5049SOL    HW115451   7.471   4.279   1.331
 5049SOL    HW215452   7.592   4.189   1.347
 5050SOL     OW15453   7.766   6.011   0.182
 5050SOL    HW115454   7.710   6.074   0.136
 5050SOL    HW215455   7.791   5.948   0.114
 5051SOL     OW15456   7.049   5.778   4.281
 5051SOL    HW115457   7.009   5.857   4.245
 5051SOL    HW215458   7.004   5.706   4.237
 5052SOL     OW15459   3.474   1.155   2.569
 5052SOL    HW115460   3.397   1.210   2.580
 5052SOL    HW215461   3.475   1.099   2.647
 5053SOL     OW15462   0.239   0.246   2.503
 5053SOL    HW115463   0.244   0.218   2.594
 5053SOL    HW215464   0.296   0.185   2.456
 5054SOL     OW15465   5.398   1.522   5.324
 5054SOL    HW115466   5.383   1.458   5.254
 5054SOL    HW215467   5.446   1.473   5.391
 5055SOL     OW15468   1.018   4.388   0.835
 5055SOL    HW115469   0.944   4.416   0.889
 5055SOL    HW215470   1.060   4.470   0.809
 5056SOL     OW15471   3.981   0.905   5.503
 5056SOL    HW115472   3.888   0.886   5.516
 5056SOL    HW215473   4.001   0.974   5.567
 5057SOL     OW15474   4.836   6.559   4.116
 5057SOL    HW115475   4.865   6.633   4.169
 5057SOL    HW215476   4.876   6.574   4.030
 5058SOL     OW15477   0.178   7.179   2.328
 5058SOL    HW115478   0.163   7.264   2.370
 5058SOL    HW215479   0.204   7.201   2.238
 5059SOL     OW15480   6.049   7.956   0.954
 5059SOL    HW115481   5.957   7.967   0.976
 5059SOL    HW215482   6.080   7.888   1.014
 5060SOL     OW15483   7.025   3.881   4.915
 5060SOL    HW115484   6.976   3.951   4.872
 5060SOL    HW215485   7.054   3.825   4.843
 5061SOL     OW15486   8.133   4.981   3.597
 5061SOL    HW115487   8.109   5.035   3.672
 5061SOL    HW215488   8.079   4.903   3.606
 5062SOL     OW15489   1.218   4.190   0.857
 5062SOL    HW115490   1.303   4.230   0.837
 5062SOL    HW215491   1.165   4.262   0.891
 5063SOL     OW15492   8.141   6.672   5.255
 5063SOL    HW115493   8.113   6.638   5.340
 5063SOL    HW215494   8.138   6.767   5.265
 5064SOL     OW15495   4.827   6.799   0.734
 5064SOL    HW115496   4.766   6.837   0.670
 5064SOL    HW215497   4.772   6.776   0.809
 5065SOL     OW15498   0.902   2.958   5.215
 5065SOL    HW115499   0.934   2.948   5.305
 5065SOL    HW215500   0.876   2.870   5.189
 5066SOL     OW15501   1.555   1.037   3.217
 5066SOL    HW115502   1.631   0.991   3.253
 5066SOL    HW215503   1.545   1.114   3.272
 5067SOL     OW15504   8.023   7.821   3.192
 5067SOL    HW115505   7.997   7.843   3.103
 5067SOL    HW215506   8.050   7.904   3.231
 5068SOL     OW15507   0.437   2.181   2.075
 5068SOL    HW115508   0.443   2.273   2.100
 5068SOL    HW215509   0.515   2.166   2.022
 5069SOL     OW15510   5.563   4.062   5.117
 5069SOL    HW115511   5.593   4.055   5.026
 5069SOL    HW215512   5.500   4.134   5.117
 5070SOL     OW15513   6.490   3.856   3.872
 5070SOL    HW115514   6.460   3.847   3.782
 5070SOL    HW215515   6.490   3.767   3.907
 5071SOL     OW15516   7.382   2.267   1.850
 5071SOL    HW115517   7.416   2.356   1.853
 5071SOL    HW215518   7.454   2.215   1.816
 5072SOL     OW15519   0.014   1.675   2.680
 5072SOL    HW115520   8.204   1.727   2.610
 5072SOL    HW215521   8.208   1.587   2.667
 5073SOL     OW15522   3.106   6.385   1.293
 5073SOL    HW115523   3.163   6.402   1.218
 5073SOL    HW215524   3.052   6.464   1.301
 5074SOL     OW15525   7.234   3.970   2.473
 5074SOL    HW115526   7.228   4.000   2.382
 5074SOL    HW215527   7.323   3.936   2.481
 5075SOL     OW15528   6.507   6.032   0.370
 5075SOL    HW115529   6.480   6.097   0.305
 5075SOL    HW215530   6.577   5.983   0.327
 5076SOL     OW15531   4.545   3.221   4.685
 5076SOL    HW115532   4.596   3.230   4.605
 5076SOL    HW215533   4.523   3.128   4.688
 5077SOL     OW15534   2.034   2.202   1.207
 5077SOL    HW115535   1.987   2.203   1.291
 5077SOL    HW215536   2.112   2.150   1.224
 5078SOL     OW15537   5.313   3.154   1.493
 5078SOL    HW115538   5.341   3.131   1.581
 5078SOL    HW215539   5.370   3.103   1.435
 5079SOL     OW15540   7.592   7.835   4.618
 5079SOL    HW115541   7.647   7.910   4.639
 5079SOL    HW215542   7.635   7.793   4.544
 5080SOL     OW15543   3.847   5.008   5.578
 5080SOL    HW115544   3.791   4.998   5.655
 5080SOL    HW215545   3.921   5.061   5.608
 5081SOL     OW15546   3.180   1.407   4.096
 5081SOL    HW115547   3.180   1.440   4.186
 5081SOL    HW215548   3.268   1.427   4.063
 5082SOL     OW15549   2.595   4.871   1.814
 5082SOL    HW115550   2.636   4.857   1.899
 5082SOL    HW215551   2.656   4.833   1.751
 5083SOL     OW15552   0.508   5.672   3.767
 5083SOL    HW115553   0.480   5.582   3.786
 5083SOL    HW215554   0.445   5.703   3.702
 5084SOL     OW15555   7.135   3.547   1.819
 5084SOL    HW115556   7.140   3.615   1.752
 5084SOL    HW215557   7.100   3.592   1.896
 5085SOL     OW15558   3.681   8.081   3.826
 5085SOL    HW115559   3.632   8.106   3.904
 5085SOL    HW215560   3.736   8.157   3.807
 5086SOL     OW15561   5.504   6.697   3.857
 5086SOL    HW115562   5.584   6.669   3.901
 5086SOL    HW215563   5.455   6.745   3.924
 5087SOL     OW15564   8.087   2.903   4.134
 5087SOL    HW115565   8.028   2.897   4.209
 5087SOL    HW215566   8.169   2.863   4.164
 5088SOL     OW15567   1.307   4.268   1.528
 5088SOL    HW115568   1.237   4.228   1.580
 5088SOL    HW215569   1.353   4.194   1.489
 5089SOL     OW15570   5.320   5.753   0.533
 5089SOL    HW115571   5.291   5.743   0.624
 5089SOL    HW215572   5.389   5.819   0.537
 5090SOL     OW15573   6.301   3.213   2.154
 5090SOL    HW115574   6.393   3.197   2.132
 5090SOL    HW215575   6.302   3.226   2.249
 5091SOL     OW15576   7.292   0.786   2.576
 5091SOL    HW115577   7.217   0.727   2.570
 5091SOL    HW215578   7.364   0.730   2.604
 5092SOL     OW15579   2.710   4.606   3.511
 5092SOL    HW115580   2.739   4.668   3.577
 5092SOL    HW215581   2.615   4.599   3.525
 5093SOL     OW15582   4.210   2.763   4.912
 5093SOL    HW115583   4.190   2.830   4.847
 5093SOL    HW215584   4.159   2.687   4.885
 5094SOL     OW15585   1.054   5.943   1.341
 5094SOL    HW115586   1.069   5.976   1.430
 5094SOL    HW215587   0.964   5.970   1.321
 5095SOL     OW15588   7.528   3.196   2.647
 5095SOL    HW115589   7.524   3.279   2.600
 5095SOL    HW215590   7.612   3.199   2.693
 5096SOL     OW15591   2.073   0.999   0.494
 5096SOL    HW115592   2.127   0.927   0.527
 5096SOL    HW215593   2.054   1.052   0.571
 5097SOL     OW15594   6.622   3.142   4.292
 5097SOL    HW115595   6.544   3.186   4.325
 5097SOL    HW215596   6.691   3.208   4.298
 5098SOL     OW15597   4.141   7.330   5.011
 5098SOL    HW115598   4.153   7.389   4.937
 5098SOL    HW215599   4.061   7.361   5.054
 5099SOL     OW15600   2.182   5.716   1.383
 5099SOL    HW115601   2.177   5.755   1.470
 5099SOL    HW215602   2.141   5.630   1.393
 5100SOL     OW15603   5.304   5.005   3.384
 5100SOL    HW115604   5.282   5.093   3.415
 5100SOL    HW215605   5.270   5.003   3.294
 5101SOL     OW15606   2.108   5.460   1.443
 5101SOL    HW115607   2.084   5.484   1.533
 5101SOL    HW215608   2.196   5.424   1.450
 5102SOL     OW15609   5.332   2.341   3.872
 5102SOL    HW115610   5.371   2.280   3.810
 5102SOL    HW215611   5.309   2.418   3.819
 5103SOL     OW15612   4.316   3.350   2.732
 5103SOL    HW115613   4.292   3.437   2.762
 5103SOL    HW215614   4.351   3.306   2.810
 5104SOL     OW15615   2.816   4.890   0.552
 5104SOL    HW115616   2.738   4.934   0.587
 5104SOL    HW215617   2.886   4.915   0.612
 5105SOL     OW15618   7.993   4.232   1.540
 5105SOL    HW115619   8.082   4.197   1.544
 5105SOL    HW215620   7.943   4.165   1.494
 5106SOL     OW15621   1.281   4.336   4.057
 5106SOL    HW115622   1.270   4.289   4.140
 5106SOL    HW215623   1.371   4.316   4.031
 5107SOL     OW15624   6.961   7.885   1.113
 5107SOL    HW115625   7.057   7.880   1.111
 5107SOL    HW215626   6.932   7.795   1.096
 5108SOL     OW15627   5.425   4.300   5.492
 5108SOL    HW115628   5.471   4.269   5.570
 5108SOL    HW215629   5.471   4.258   5.419
 5109SOL     OW15630   6.191   5.843   2.175
 5109SOL    HW115631   6.103   5.874   2.153
 5109SOL    HW215632   6.230   5.821   2.090
 5110SOL     OW15633   3.639   3.920   4.645
 5110SOL    HW115634   3.684   3.985   4.699
 5110SOL    HW215635   3.575   3.970   4.594
 5111SOL     OW15636   4.361   5.923   3.845
 5111SOL    HW115637   4.443   5.966   3.869
 5111SOL    HW215638   4.384   5.868   3.770
 5112SOL     OW15639   1.734   4.772   3.405
 5112SOL    HW115640   1.684   4.781   3.486
 5112SOL    HW215641   1.708   4.847   3.352
 5113SOL     OW15642   7.262   5.106   1.694
 5113SOL    HW115643   7.201   5.052   1.744
 5113SOL    HW215644   7.290   5.050   1.622
 5114SOL     OW15645   5.202   3.568   2.770
 5114SOL    HW115646   5.134   3.601   2.828
 5114SOL    HW215647   5.199   3.627   2.694
 5115SOL     OW15648   5.812   7.387   2.461
 5115SOL    HW115649   5.876   7.317   2.468
 5115SOL    HW215650   5.822   7.419   2.371
 5116SOL     OW15651   2.428   5.897   1.702
 5116SOL    HW115652   2.491   5.879   1.771
 5116SOL    HW215653   2.408   5.811   1.665
 5117SOL     OW15654   6.854   4.799   0.377
 5117SOL    HW115655   6.761   4.776   0.381
 5117SOL    HW215656   6.900   4.720   0.405
 5118SOL     OW15657   5.628   2.853   1.575
 5118SOL    HW115658   5.537   2.824   1.584
 5118SOL    HW215659   5.663   2.800   1.503
 5119SOL     OW15660   1.560   7.599   1.271
 5119SOL    HW115661   1.596   7.525   1.321
 5119SOL    HW215662   1.584   7.580   1.180
 5120SOL     OW15663   3.291   1.545   1.644
 5120SOL    HW115664   3.316   1.546   1.552
 5120SOL    HW215665   3.267   1.454   1.662
 5121SOL     OW15666   5.535   6.978   3.419
 5121SOL    HW115667   5.536   6.943   3.508
 5121SOL    HW215668   5.444   6.967   3.391
 5122SOL     OW15669   6.706   4.465   0.411
 5122SOL    HW115670   6.795   4.499   0.411
 5122SOL    HW215671   6.671   4.489   0.497
 5123SOL     OW15672   4.050   3.207   5.367
 5123SOL    HW115673   3.994   3.174   5.437
 5123SOL    HW215674   4.013   3.292   5.344
 5124SOL     OW15675   2.795   6.527   3.364
 5124SOL    HW115676   2.804   6.445   3.413
 5124SOL    HW215677   2.763   6.590   3.429
 5125SOL     OW15678   3.384   7.670   1.374
 5125SOL    HW115679   3.378   7.583   1.334
 5125SOL    HW215680   3.435   7.722   1.312
 5126SOL     OW15681   1.466   0.615   4.871
 5126SOL    HW115682   1.552   0.574   4.882
 5126SOL    HW215683   1.469   0.692   4.927
 5127SOL     OW15684   6.396   0.521   1.593
 5127SOL    HW115685   6.466   0.584   1.610
 5127SOL    HW215686   6.324   0.548   1.651
 5128SOL     OW15687   0.351   6.563   3.534
 5128SOL    HW115688   0.265   6.604   3.526
 5128SOL    HW215689   0.333   6.470   3.545
 5129SOL     OW15690   3.271   3.682   2.956
 5129SOL    HW115691   3.197   3.712   3.008
 5129SOL    HW215692   3.293   3.596   2.992
 5130SOL     OW15693   7.992   5.372   5.171
 5130SOL    HW115694   8.048   5.431   5.121
 5130SOL    HW215695   7.924   5.345   5.109
 5131SOL     OW15696   1.114   3.256   3.894
 5131SOL    HW115697   1.121   3.224   3.804
 5131SOL    HW215698   1.185   3.212   3.941
 5132SOL     OW15699   0.375   4.964   2.882
 5132SOL    HW115700   0.411   4.977   2.795
 5132SOL    HW215701   0.412   5.035   2.935
 5133SOL     OW15702   6.540   4.828   1.316
 5133SOL    HW115703   6.470   4.889   1.293
 5133SOL    HW215704   6.596   4.825   1.239
 5134SOL     OW15705   3.121   3.456   0.354
 5134SOL    HW115706   3.080   3.423   0.274
 5134SOL    HW215707   3.198   3.401   0.366
 5135SOL     OW15708   5.864   0.451   5.767
 5135SOL    HW115709   5.939   0.477   5.714
 5135SOL    HW215710   1.786   4.507   0.014
 5136SOL     OW15711   7.794   4.172   4.001
 5136SOL    HW115712   7.865   4.218   3.957
 5136SOL    HW215713   7.757   4.237   4.061
 5137SOL     OW15714   6.677   7.256   1.475
 5137SOL    HW115715   6.695   7.263   1.381
 5137SOL    HW215716   6.761   7.233   1.514
 5138SOL     OW15717   3.595   3.440   4.685
 5138SOL    HW115718   3.601   3.359   4.634
 5138SOL    HW215719   3.645   3.504   4.635
 5139SOL     OW15720   1.318   7.158   3.457
 5139SOL    HW115721   1.276   7.138   3.373
 5139SOL    HW215722   1.357   7.075   3.485
 5140SOL     OW15723   2.905   3.977   4.217
 5140SOL    HW115724   2.986   3.973   4.166
 5140SOL    HW215725   2.933   4.003   4.305
 5141SOL     OW15726   3.752   7.963   0.973
 5141SOL    HW115727   3.772   8.046   0.929
 5141SOL    HW215728   3.829   7.946   1.028
 5142SOL     OW15729   2.890   7.149   5.578
 5142SOL    HW115730   2.955   7.138   5.508
 5142SOL    HW215731   2.927   7.216   5.635
 5143SOL     OW15732   4.276   4.564   1.909
 5143SOL    HW115733   4.213   4.533   1.974
 5143SOL    HW215734   4.345   4.605   1.960
 5144SOL     OW15735   1.964   6.177   0.658
 5144SOL    HW115736   1.891   6.204   0.713
 5144SOL    HW215737   1.923   6.132   0.584
 5145SOL     OW15738   4.239   7.184   0.154
 5145SOL    HW115739   4.189   7.123   0.099
 5145SOL    HW215740   4.326   7.186   0.114
 5146SOL     OW15741   0.815   3.956   4.359
 5146SOL    HW115742   0.889   3.908   4.397
 5146SOL    HW215743   0.741   3.896   4.366
 5147SOL     OW15744   3.538   5.091   5.566
 5147SOL    HW115745   3.558   5.161   5.504
 5147SOL    HW215746   3.534   5.012   5.512
 5148SOL     OW15747   8.064   0.453   3.009
 5148SOL    HW115748   8.137   0.447   3.070
 5148SOL    HW215749   7.987   0.468   3.064
 5149SOL     OW15750   5.303   3.167   3.651
 5149SOL    HW115751   5.323   3.225   3.578
 5149SOL    HW215752   5.362   3.092   3.638
 5150SOL     OW15753   4.188   2.974   4.712
 5150SOL    HW115754   4.130   2.969   4.636
 5150SOL    HW215755   4.145   3.035   4.771
 5151SOL     OW15756   5.046   5.411   0.759
 5151SOL    HW115757   5.093   5.476   0.708
 5151SOL    HW215758   5.061   5.329   0.712
 5152SOL     OW15759   2.907   2.381   4.484
 5152SOL    HW115760   2.904   2.315   4.415
 5152SOL    HW215761   2.878   2.462   4.441
 5153SOL     OW15762   5.999   6.177   2.151
 5153SOL    HW115763   5.970   6.093   2.115
 5153SOL    HW215764   6.092   6.182   2.130
 5154SOL     OW15765   3.411   1.725   3.513
 5154SOL    HW115766   3.378   1.807   3.550
 5154SOL    HW215767   3.506   1.731   3.522
 5155SOL     OW15768   1.992   6.397   2.578
 5155SOL    HW115769   1.934   6.344   2.632
 5155SOL    HW215770   2.074   6.348   2.576
 5156SOL     OW15771   7.106   1.571   0.594
 5156SOL    HW115772   7.119   1.487   0.549
 5156SOL    HW215773   7.011   1.585   0.591
 5157SOL     OW15774   1.063   2.579   1.711
 5157SOL    HW115775   1.156   2.603   1.713
 5157SOL    HW215776   1.026   2.623   1.787
 5158SOL     OW15777   2.931   4.797   5.571
 5158SOL    HW115778   2.958   4.775   5.660
 5158SOL    HW215779   2.838   4.820   5.579
 5159SOL     OW15780   3.022   4.368   1.292
 5159SOL    HW115781   3.094   4.359   1.229
 5159SOL    HW215782   2.945   4.386   1.238
 5160SOL     OW15783   4.646   0.064   1.187
 5160SOL    HW115784   4.688   0.040   1.105
 5160SOL    HW215785   4.663   0.158   1.196
 5161SOL     OW15786   4.590   4.014   5.271
 5161SOL    HW115787   4.572   4.108   5.266
 5161SOL    HW215788   4.658   4.000   5.205
 5162SOL     OW15789   0.261   1.819   4.406
 5162SOL    HW115790   0.211   1.856   4.479
 5162SOL    HW215791   0.202   1.825   4.331
 5163SOL     OW15792   5.203   3.384   0.600
 5163SOL    HW115793   5.200   3.477   0.576
 5163SOL    HW215794   5.127   3.371   0.657
 5164SOL     OW15795   5.600   4.264   0.767
 5164SOL    HW115796   5.517   4.310   0.779
 5164SOL    HW215797   5.593   4.225   0.680
 5165SOL     OW15798   5.893   3.412   5.722
 5165SOL    HW115799   5.982   3.447   5.727
 5165SOL    HW215800   5.843   3.481   5.679
 5166SOL     OW15801   6.727   5.304   0.902
 5166SOL    HW115802   6.659   5.280   0.839
 5166SOL    HW215803   6.781   5.369   0.857
 5167SOL     OW15804   2.248   5.964   0.280
 5167SOL    HW115805   2.241   6.059   0.279
 5167SOL    HW215806   2.310   5.945   0.351
 5168SOL     OW15807   7.909   2.771   1.227
 5168SOL    HW115808   7.989   2.745   1.181
 5168SOL    HW215809   7.842   2.711   1.194
 5169SOL     OW15810   6.082   0.863   5.700
 5169SOL    HW115811   6.175   0.846   5.714
 5169SOL    HW215812   6.059   0.809   5.624
 5170SOL     OW15813   4.862   4.983   0.715
 5170SOL    HW115814   4.798   5.048   0.687
 5170SOL    HW215815   4.947   5.019   0.688
 5171SOL     OW15816   3.508   1.394   1.447
 5171SOL    HW115817   3.478   1.485   1.448
 5171SOL    HW215818   3.519   1.374   1.354
 5172SOL     OW15819   6.515   4.493   3.029
 5172SOL    HW115820   6.513   4.583   3.061
 5172SOL    HW215821   6.581   4.493   2.960
 5173SOL     OW15822   8.078   0.989   2.469
 5173SOL    HW115823   8.053   0.911   2.519
 5173SOL    HW215824   8.013   1.055   2.493
 5174SOL     OW15825   5.967   5.546   5.448
 5174SOL    HW115826   6.014   5.526   5.367
 5174SOL    HW215827   5.891   5.597   5.420
 5175SOL     OW15828   5.616   0.173   3.312
 5175SOL    HW115829   5.697   0.213   3.343
 5175SOL    HW215830   5.619   0.083   3.346
 5176SOL     OW15831   5.946   2.181   1.890
 5176SOL    HW115832   5.869   2.216   1.935
 5176SOL    HW215833   6.015   2.245   1.909
 5177SOL     OW15834   1.072   2.053   4.445
 5177SOL    HW115835   1.025   1.970   4.450
 5177SOL    HW215836   1.004   2.120   4.454
 5178SOL     OW15837   3.145   3.340   5.449
 5178SOL    HW115838   3.139   3.431   5.479
 5178SOL    HW215839   3.150   3.289   5.530
 5179SOL     OW15840   3.918   1.114   5.152
 5179SOL    HW115841   3.915   1.201   5.193
 5179SOL    HW215842   4.000   1.114   5.103
 5180SOL     OW15843   3.006   5.205   2.625
 5180SOL    HW115844   3.097   5.189   2.652
 5180SOL    HW215845   2.972   5.118   2.603
 5181SOL     OW15846   6.202   7.800   4.700
 5181SOL    HW115847   6.166   7.882   4.666
 5181SOL    HW215848   6.242   7.824   4.784
 5182SOL     OW15849   5.343   6.363   4.911
 5182SOL    HW115850   5.274   6.399   4.855
 5182SOL    HW215851   5.352   6.272   4.882
 5183SOL     OW15852   3.279   7.886   3.330
 5183SOL    HW115853   3.193   7.874   3.289
 5183SOL    HW215854   3.263   7.873   3.424
 5184SOL     OW15855   6.612   1.566   1.568
 5184SOL    HW115856   6.700   1.542   1.540
 5184SOL    HW215857   6.625   1.610   1.652
 5185SOL     OW15858   1.469   6.105   2.847
 5185SOL    HW115859   1.419   6.185   2.863
 5185SOL    HW215860   1.538   6.132   2.786
 5186SOL     OW15861   4.293   3.610   0.730
 5186SOL    HW115862   4.206   3.649   0.733
 5186SOL    HW215863   4.334   3.648   0.653
 5187SOL     OW15864   3.570   4.868   3.333
 5187SOL    HW115865   3.476   4.872   3.314
 5187SOL    HW215866   3.580   4.790   3.387
 5188SOL     OW15867   3.670   0.656   4.716
 5188SOL    HW115868   3.663   0.620   4.804
 5188SOL    HW215869   3.697   0.747   4.729
 5189SOL     OW15870   4.815   5.256   1.849
 5189SOL    HW115871   4.898   5.291   1.880
 5189SOL    HW215872   4.835   5.219   1.763
 5190SOL     OW15873   2.341   2.340   0.893
 5190SOL    HW115874   2.313   2.251   0.873
 5190SOL    HW215875   2.299   2.361   0.976
 5191SOL     OW15876   7.387   3.872   4.037
 5191SOL    HW115877   7.438   3.791   4.041
 5191SOL    HW215878   7.334   3.863   3.958
 5192SOL     OW15879   2.386   3.741   1.518
 5192SOL    HW115880   2.398   3.826   1.560
 5192SOL    HW215881   2.474   3.716   1.489
 5193SOL     OW15882   4.465   1.755   0.881
 5193SOL    HW115883   4.411   1.720   0.952
 5193SOL    HW215884   4.413   1.740   0.802
 5194SOL     OW15885   2.961   1.775   4.351
 5194SOL    HW115886   2.950   1.693   4.302
 5194SOL    HW215887   2.988   1.839   4.285
 5195SOL     OW15888   2.426   3.489   3.815
 5195SOL    HW115889   2.360   3.548   3.779
 5195SOL    HW215890   2.431   3.417   3.752
 5196SOL     OW15891   6.456   5.442   0.647
 5196SOL    HW115892   6.512   5.507   0.604
 5196SOL    HW215893   6.512   5.365   0.658
 5197SOL     OW15894   7.541   3.758   0.674
 5197SOL    HW115895   7.471   3.752   0.739
 5197SOL    HW215896   7.570   3.849   0.679
 5198SOL     OW15897   7.961   0.325   2.109
 5198SOL    HW115898   7.874   0.300   2.140
 5198SOL    HW215899   8.014   0.245   2.116
 5199SOL     OW15900   5.043   5.025   1.904
 5199SOL    HW115901   4.994   4.945   1.886
 5199SOL    HW215902   5.005   5.058   1.985
 5200SOL     OW15903   3.248   3.926   4.722
 5200SOL    HW115904   3.218   3.921   4.631
 5200SOL    HW215905   3.295   3.844   4.736
 5201SOL     OW15906   7.768   5.568   0.313
 5201SOL    HW115907   7.756   5.595   0.222
 5201SOL    HW215908   7.863   5.558   0.323
 5202SOL     OW15909   5.334   4.391   3.357
 5202SOL    HW115910   5.239   4.393   3.343
 5202SOL    HW215911   5.362   4.308   3.319
 5203SOL     OW15912   1.815   6.668   2.616
 5203SOL    HW115913   1.843   6.580   2.642
 5203SOL    HW215914   1.884   6.726   2.649
 5204SOL     OW15915   5.066   5.548   3.092
 5204SOL    HW115916   5.047   5.514   3.004
 5204SOL    HW215917   4.996   5.513   3.147
 5205SOL     OW15918   1.287   3.379   3.485
 5205SOL    HW115919   1.330   3.387   3.400
 5205SOL    HW215920   1.284   3.469   3.519
 5206SOL     OW15921   3.439   0.971   2.763
 5206SOL    HW115922   3.362   0.957   2.818
 5206SOL    HW215923   3.513   0.948   2.820
 5207SOL     OW15924   2.330   2.880   5.600
 5207SOL    HW115925   2.271   2.954   5.614
 5207SOL    HW215926   2.405   2.918   5.553
 5208SOL     OW15927   0.449   5.393   2.656
 5208SOL    HW115928   0.422   5.312   2.613
 5208SOL    HW215929   0.464   5.455   2.584
 5209SOL     OW15930   3.477   2.407   2.255
 5209SOL    HW115931   3.548   2.469   2.237
 5209SOL    HW215932   3.511   2.322   2.226
 5210SOL     OW15933   5.191   3.695   2.209
 5210SOL    HW115934   5.267   3.667   2.260
 5210SOL    HW215935   5.206   3.661   2.121
 5211SOL     OW15936   7.066   3.345   3.851
 5211SOL    HW115937   7.072   3.251   3.870
 5211SOL    HW215938   7.007   3.379   3.918
 5212SOL     OW15939   0.162   3.804   1.361
 5212SOL    HW115940   0.076   3.829   1.396
 5212SOL    HW215941   0.145   3.785   1.269
 5213SOL     OW15942   7.652   6.785   4.517
 5213SOL    HW115943   7.597   6.711   4.492
 5213SOL    HW215944   7.716   6.793   4.446
 5214SOL     OW15945   2.844   6.701   2.429
 5214SOL    HW115946   2.797   6.619   2.445
 5214SOL    HW215947   2.887   6.721   2.512
 5215SOL     OW15948   1.535   5.735   5.189
 5215SOL    HW115949   1.601   5.768   5.128
 5215SOL    HW215950   1.456   5.723   5.136
 5216SOL     OW15951   2.768   0.029   5.412
 5216SOL    HW115952   2.825   8.217   5.346
 5216SOL    HW215953   2.692   8.200   5.418
 5217SOL     OW15954   3.561   1.441   1.023
 5217SOL    HW115955   3.653   1.445   1.049
 5217SOL    HW215956   3.515   1.493   1.089
 5218SOL     OW15957   5.696   3.087   5.402
 5218SOL    HW115958   5.710   3.181   5.413
 5218SOL    HW215959   5.759   3.061   5.335
 5219SOL     OW15960   7.766   2.921   4.834
 5219SOL    HW115961   7.817   2.853   4.789
 5219SOL    HW215962   7.675   2.902   4.810
 5220SOL     OW15963   1.725   7.763   0.996
 5220SOL    HW115964   1.639   7.802   1.009
 5220SOL    HW215965   1.779   7.800   1.066
 5221SOL     OW15966   3.578   4.888   4.811
 5221SOL    HW115967   3.488   4.863   4.790
 5221SOL    HW215968   3.568   4.962   4.871
 5222SOL     OW15969   7.273   6.479   1.106
 5222SOL    HW115970   7.255   6.536   1.181
 5222SOL    HW215971   7.278   6.391   1.144
 5223SOL     OW15972   5.750   4.523   4.855
 5223SOL    HW115973   5.692   4.479   4.793
 5223SOL    HW215974   5.701   4.600   4.884
 5224SOL     OW15975   3.166   5.654   0.871
 5224SOL    HW115976   3.102   5.693   0.931
 5224SOL    HW215977   3.152   5.699   0.788
 5225SOL     OW15978   0.031   4.821   5.343
 5225SOL    HW115979   8.211   4.757   5.292
 5225SOL    HW215980   8.206   4.900   5.341
 5226SOL     OW15981   1.584   2.852   5.632
 5226SOL    HW115982   1.549   2.764   5.645
 5226SOL    HW215983   1.668   2.838   5.588
 5227SOL     OW15984   0.699   7.766   0.877
 5227SOL    HW115985   0.697   7.860   0.862
 5227SOL    HW215986   0.627   7.749   0.938
 5228SOL     OW15987   2.920   2.597   2.948
 5228SOL    HW115988   2.971   2.670   2.983
 5228SOL    HW215989   2.984   2.544   2.901
 5229SOL     OW15990   3.296   0.528   3.176
 5229SOL    HW115991   3.307   0.437   3.204
 5229SOL    HW215992   3.370   0.575   3.215
 5230SOL     OW15993   6.223   1.203   5.175
 5230SOL    HW115994   6.206   1.210   5.269
 5230SOL    HW215995   6.136   1.207   5.135
 5231SOL     OW15996   4.864   3.158   4.750
 5231SOL    HW115997   4.810   3.100   4.803
 5231SOL    HW215998   4.836   3.141   4.660
 5232SOL     OW15999   4.230   3.107   4.343
 5232SOL    HW116000   4.183   3.056   4.409
 5232SOL    HW216001   4.181   3.093   4.262
 5233SOL     OW16002   1.208   1.903   3.168
 5233SOL    HW116003   1.215   1.956   3.089
 5233SOL    HW216004   1.215   1.966   3.240
 5234SOL     OW16005   6.940   3.882   4.006
 5234SOL    HW116006   6.851   3.907   4.031
 5234SOL    HW216007   6.961   3.809   4.065
 5235SOL     OW16008   3.690   5.821   2.943
 5235SOL    HW116009   3.745   5.850   2.870
 5235SOL    HW216010   3.714   5.879   3.015
 5236SOL     OW16011   2.664   3.789   4.484
 5236SOL    HW116012   2.635   3.841   4.559
 5236SOL    HW216013   2.746   3.750   4.513
 5237SOL     OW16014   2.074   0.689   2.096
 5237SOL    HW116015   2.031   0.610   2.130
 5237SOL    HW216016   2.008   0.730   2.040
 5238SOL     OW16017   4.518   5.823   2.288
 5238SOL    HW116018   4.442   5.831   2.230
 5238SOL    HW216019   4.585   5.782   2.233
 5239SOL     OW16020   6.596   2.769   2.299
 5239SOL    HW116021   6.506   2.736   2.304
 5239SOL    HW216022   6.648   2.692   2.278
 5240SOL     OW16023   6.868   2.591   2.329
 5240SOL    HW116024   6.922   2.565   2.404
 5240SOL    HW216025   6.857   2.685   2.340
 5241SOL     OW16026   4.757   4.771   0.816
 5241SOL    HW116027   4.780   4.682   0.790
 5241SOL    HW216028   4.815   4.827   0.765
 5242SOL     OW16029   8.217   7.290   5.188
 5242SOL    HW116030   8.219   7.362   5.125
 5242SOL    HW216031   0.031   7.218   5.143
 5243SOL     OW16032   1.136   6.815   2.789
 5243SOL    HW116033   1.116   6.906   2.766
 5243SOL    HW216034   1.085   6.763   2.727
 5244SOL     OW16035   7.266   7.429   2.401
 5244SOL    HW116036   7.218   7.476   2.469
 5244SOL    HW216037   7.355   7.422   2.435
 5245SOL     OW16038   3.272   5.410   0.819
 5245SOL    HW116039   3.250   5.500   0.841
 5245SOL    HW216040   3.367   5.411   0.810
 5246SOL     OW16041   0.398   5.597   3.315
 5246SOL    HW116042   0.482   5.554   3.331
 5246SOL    HW216043   0.345   5.530   3.271
 5247SOL     OW16044   0.510   3.975   0.230
 5247SOL    HW116045   0.530   3.924   0.309
 5247SOL    HW216046   0.438   4.033   0.256
 5248SOL     OW16047   7.621   7.663   4.322
 5248SOL    HW116048   7.620   7.571   4.294
 5248SOL    HW216049   7.694   7.668   4.384
 5249SOL     OW16050   7.183   3.211   4.647
 5249SOL    HW116051   7.223   3.133   4.608
 5249SOL    HW216052   7.257   3.269   4.665
 5250SOL     OW16053   6.766   2.418   2.853
 5250SOL    HW116054   6.834   2.482   2.872
 5250SOL    HW216055   6.801   2.366   2.780
 5251SOL     OW16056   1.195   1.871   3.593
 5251SOL    HW116057   1.184   1.854   3.687
 5251SOL    HW216058   1.180   1.786   3.551
 5252SOL     OW16059   3.595   3.381   1.507
 5252SOL    HW116060   3.522   3.321   1.490
 5252SOL    HW216061   3.584   3.407   1.598
 5253SOL     OW16062   5.589   1.042   2.448
 5253SOL    HW116063   5.559   1.124   2.409
 5253SOL    HW216064   5.622   0.991   2.374
 5254SOL     OW16065   7.028   2.330   0.583
 5254SOL    HW116066   6.977   2.328   0.502
 5254SOL    HW216067   6.971   2.374   0.646
 5255SOL     OW16068   4.914   4.420   2.261
 5255SOL    HW116069   4.966   4.354   2.214
 5255SOL    HW216070   4.823   4.392   2.249
 5256SOL     OW16071   7.782   5.064   5.702
 5256SOL    HW116072   7.696   5.061   5.661
 5256SOL    HW216073   7.770   5.118   5.780
 5257SOL     OW16074   7.887   2.227   3.501
 5257SOL    HW116075   7.841   2.145   3.483
 5257SOL    HW216076   7.861   2.286   3.430
 5258SOL     OW16077   7.421   1.332   0.435
 5258SOL    HW116078   7.498   1.373   0.397
 5258SOL    HW216079   7.414   1.248   0.390
 5259SOL     OW16080   0.253   1.309   4.076
 5259SOL    HW116081   0.248   1.394   4.033
 5259SOL    HW216082   0.305   1.325   4.155
 5260SOL     OW16083   0.712   5.640   1.250
 5260SOL    HW116084   0.699   5.547   1.267
 5260SOL    HW216085   0.689   5.683   1.333
 5261SOL     OW16086   0.553   3.879   0.476
 5261SOL    HW116087   0.521   3.919   0.557
 5261SOL    HW216088   0.567   3.787   0.499
 5262SOL     OW16089   3.654   6.257   1.314
 5262SOL    HW116090   3.647   6.346   1.279
 5262SOL    HW216091   3.735   6.223   1.276
 5263SOL     OW16092   2.202   0.785   3.978
 5263SOL    HW116093   2.160   0.801   3.893
 5263SOL    HW216094   2.258   0.861   3.991
 5264SOL     OW16095   5.035   4.690   4.637
 5264SOL    HW116096   5.000   4.776   4.613
 5264SOL    HW216097   5.129   4.705   4.649
 5265SOL     OW16098   3.367   5.047   4.179
 5265SOL    HW116099   3.458   5.021   4.194
 5265SOL    HW216100   3.315   4.979   4.221
 5266SOL     OW16101   5.510   6.752   3.250
 5266SOL    HW116102   5.432   6.698   3.243
 5266SOL    HW216103   5.532   6.752   3.343
 5267SOL     OW16104   5.467   2.659   0.929
 5267SOL    HW116105   5.399   2.610   0.975
 5267SOL    HW216106   5.524   2.591   0.893
 5268SOL     OW16107   0.454   2.172   4.880
 5268SOL    HW116108   0.379   2.119   4.906
 5268SOL    HW216109   0.415   2.248   4.836
 5269SOL     OW16110   0.371   1.431   4.687
 5269SOL    HW116111   0.458   1.391   4.679
 5269SOL    HW216112   0.363   1.487   4.610
 5270SOL     OW16113   3.569   2.676   1.829
 5270SOL    HW116114   3.510   2.640   1.896
 5270SOL    HW216115   3.603   2.756   1.868
 5271SOL     OW16116   6.389   6.233   3.664
 5271SOL    HW116117   6.365   6.309   3.611
 5271SOL    HW216118   6.476   6.253   3.697
 5272SOL     OW16119   0.422   5.367   2.935
 5272SOL    HW116120   0.469   5.283   2.936
 5272SOL    HW216121   0.395   5.378   2.844
 5273SOL     OW16122   6.788   2.578   1.862
 5273SOL    HW116123   6.797   2.495   1.816
 5273SOL    HW216124   6.702   2.573   1.905
 5274SOL     OW16125   4.995   1.157   2.813
 5274SOL    HW116126   5.070   1.104   2.786
 5274SOL    HW216127   4.920   1.098   2.806
 5275SOL     OW16128   2.410   0.593   0.896
 5275SOL    HW116129   2.442   0.504   0.912
 5275SOL    HW216130   2.488   0.643   0.872
 5276SOL     OW16131   3.904   5.611   3.402
 5276SOL    HW116132   3.980   5.656   3.365
 5276SOL    HW216133   3.926   5.518   3.394
 5277SOL     OW16134   1.281   6.530   2.517
 5277SOL    HW116135   1.280   6.562   2.607
 5277SOL    HW216136   1.198   6.483   2.508
 5278SOL     OW16137   5.778   0.916   3.646
 5278SOL    HW116138   5.795   0.854   3.575
 5278SOL    HW216139   5.747   0.995   3.602
 5279SOL     OW16140   0.707   0.698   4.364
 5279SOL    HW116141   0.635   0.717   4.303
 5279SOL    HW216142   0.664   0.682   4.448
 5280SOL     OW16143   5.825   5.390   4.724
 5280SOL    HW116144   5.766   5.455   4.762
 5280SOL    HW216145   5.841   5.421   4.635
 5281SOL     OW16146   2.045   3.817   3.105
 5281SOL    HW116147   2.129   3.857   3.081
 5281SOL    HW216148   2.006   3.879   3.167
 5282SOL     OW16149   0.333   2.080   4.098
 5282SOL    HW116150   0.414   2.120   4.066
 5282SOL    HW216151   0.269   2.152   4.100
 5283SOL     OW16152   6.974   3.967   0.165
 5283SOL    HW116153   6.998   3.910   0.092
 5283SOL    HW216154   7.057   4.006   0.193
 5284SOL     OW16155   4.613   7.056   4.112
 5284SOL    HW116156   4.689   7.019   4.067
 5284SOL    HW216157   4.647   7.083   4.197
 5285SOL     OW16158   0.003   2.828   2.718
 5285SOL    HW116159   8.173   2.845   2.791
 5285SOL    HW216160   0.041   2.742   2.737
 5286SOL     OW16161   6.643   4.828   0.012
 5286SOL    HW116162   6.703   4.891   0.052
 5286SOL    HW216163   2.578   0.676   5.758
 5287SOL     OW16164   0.413   6.019   2.397
 5287SOL    HW116165   0.336   6.074   2.384
 5287SOL    HW216166   0.485   6.069   2.358
 5288SOL     OW16167   0.375   6.408   2.143
 5288SOL    HW116168   0.304   6.408   2.079
 5288SOL    HW216169   0.332   6.417   2.228
 5289SOL     OW16170   1.818   6.145   4.488
 5289SOL    HW116171   1.857   6.059   4.477
 5289SOL    HW216172   1.726   6.127   4.508
 5290SOL     OW16173   3.442   4.232   0.177
 5290SOL    HW116174   3.492   4.179   0.115
 5290SOL    HW216175   3.439   4.319   0.137
 5291SOL     OW16176   3.426   2.610   1.129
 5291SOL    HW116177   3.457   2.535   1.180
 5291SOL    HW216178   3.346   2.637   1.173
 5292SOL     OW16179   5.007   5.276   4.417
 5292SOL    HW116180   5.056   5.338   4.471
 5292SOL    HW216181   4.923   5.267   4.461
 5293SOL     OW16182   6.723   4.148   1.516
 5293SOL    HW116183   6.730   4.131   1.422
 5293SOL    HW216184   6.813   4.142   1.549
 5294SOL     OW16185   7.465   5.247   5.534
 5294SOL    HW116186   7.464   5.238   5.439
 5294SOL    HW216187   7.483   5.159   5.566
 5295SOL     OW16188   7.432   6.022   5.335
 5295SOL    HW116189   7.370   6.006   5.263
 5295SOL    HW216190   7.499   5.955   5.324
 5296SOL     OW16191   0.830   7.918   1.247
 5296SOL    HW116192   0.870   7.887   1.328
 5296SOL    HW216193   0.801   8.007   1.267
 5297SOL     OW16194   5.113   3.954   2.290
 5297SOL    HW116195   5.019   3.962   2.272
 5297SOL    HW216196   5.132   3.860   2.282
 5298SOL     OW16197   4.316   6.535   1.807
 5298SOL    HW116198   4.344   6.525   1.716
 5298SOL    HW216199   4.242   6.475   1.817
 5299SOL     OW16200   6.528   1.662   3.996
 5299SOL    HW116201   6.512   1.751   4.028
 5299SOL    HW216202   6.474   1.655   3.917
 5300SOL     OW16203   3.725   4.530   5.408
 5300SOL    HW116204   3.786   4.592   5.448
 5300SOL    HW216205   3.701   4.570   5.324
 5301SOL     OW16206   1.260   0.631   4.459
 5301SOL    HW116207   1.264   0.686   4.381
 5301SOL    HW216208   1.311   0.678   4.525
 5302SOL     OW16209   1.996   3.581   5.769
 5302SOL    HW116210   1.931   3.511   5.782
 5302SOL    HW216211   6.124   7.733   0.037
 5303SOL     OW16212   4.562   5.208   2.317
 5303SOL    HW116213   4.637   5.194   2.375
 5303SOL    HW216214   4.590   5.278   2.258
 5304SOL     OW16215   7.549   0.819   5.800
 5304SOL    HW116216   7.593   0.835   5.717
 5304SOL    HW216217   3.411   5.021   0.013
 5305SOL     OW16218   7.670   1.052   2.951
 5305SOL    HW116219   7.719   1.011   2.880
 5305SOL    HW216220   7.647   0.980   3.009
 5306SOL     OW16221   5.037   0.736   0.310
 5306SOL    HW116222   4.953   0.703   0.279
 5306SOL    HW216223   5.080   0.770   0.231
 5307SOL     OW16224   6.406   4.374   3.543
 5307SOL    HW116225   6.373   4.284   3.540
 5307SOL    HW216226   6.346   4.419   3.603
 5308SOL     OW16227   0.763   6.545   0.197
 5308SOL    HW116228   0.784   6.604   0.125
 5308SOL    HW216229   0.809   6.464   0.177
 5309SOL     OW16230   3.155   6.061   3.257
 5309SOL    HW116231   3.250   6.062   3.268
 5309SOL    HW216232   3.125   5.987   3.310
 5310SOL     OW16233   0.231   3.763   0.217
 5310SOL    HW116234   0.210   3.787   0.127
 5310SOL    HW216235   0.325   3.744   0.216
 5311SOL     OW16236   5.307   0.097   4.837
 5311SOL    HW116237   5.374   0.035   4.866
 5311SOL    HW216238   5.226   0.063   4.874
 5312SOL     OW16239   1.185   5.362   2.058
 5312SOL    HW116240   1.195   5.437   2.116
 5312SOL    HW216241   1.273   5.344   2.026
 5313SOL     OW16242   2.153   6.543   0.904
 5313SOL    HW116243   2.169   6.465   0.850
 5313SOL    HW216244   2.079   6.518   0.960
 5314SOL     OW16245   4.518   2.615   5.289
 5314SOL    HW116246   4.506   2.545   5.225
 5314SOL    HW216247   4.499   2.695   5.240
 5315SOL     OW16248   4.435   1.296   4.949
 5315SOL    HW116249   4.377   1.254   5.012
 5315SOL    HW216250   4.376   1.344   4.890
 5316SOL     OW16251   1.473   6.001   0.740
 5316SOL    HW116252   1.385   5.993   0.776
 5316SOL    HW216253   1.478   5.931   0.675
 5317SOL     OW16254   4.672   3.705   5.537
 5317SOL    HW116255   4.611   3.766   5.579
 5317SOL    HW216256   4.751   3.756   5.522
 5318SOL     OW16257   5.035   4.214   2.133
 5318SOL    HW116258   4.983   4.200   2.054
 5318SOL    HW216259   5.087   4.134   2.142
 5319SOL     OW16260   0.731   7.739   2.406
 5319SOL    HW116261   0.732   7.707   2.496
 5319SOL    HW216262   0.742   7.660   2.353
 5320SOL     OW16263   3.979   4.625   5.112
 5320SOL    HW116264   3.960   4.544   5.064
 5320SOL    HW216265   3.903   4.681   5.095
 5321SOL     OW16266   4.576   3.543   4.077
 5321SOL    HW116267   4.629   3.600   4.021
 5321SOL    HW216268   4.611   3.557   4.165
 5322SOL     OW16269   3.395   6.808   0.181
 5322SOL    HW116270   3.487   6.797   0.206
 5322SOL    HW216271   3.393   6.792   0.087
 5323SOL     OW16272   1.363   5.076   0.198
 5323SOL    HW116273   1.381   5.165   0.168
 5323SOL    HW216274   1.410   5.069   0.281
 5324SOL     OW16275   2.633   0.268   5.246
 5324SOL    HW116276   2.644   0.271   5.151
 5324SOL    HW216277   2.679   0.189   5.274
 5325SOL     OW16278   2.669   0.827   4.704
 5325SOL    HW116279   2.610   0.848   4.776
 5325SOL    HW216280   2.699   0.912   4.671
 5326SOL     OW16281   6.136   3.111   0.720
 5326SOL    HW116282   6.133   3.206   0.727
 5326SOL    HW216283   6.229   3.090   0.717
 5327SOL     OW16284   7.443   0.580   1.561
 5327SOL    HW116285   7.486   0.556   1.479
 5327SOL    HW216286   7.511   0.568   1.628
 5328SOL     OW16287   5.816   4.371   5.690
 5328SOL    HW116288   5.870   4.343   5.616
 5328SOL    HW216289   5.733   4.326   5.677
 5329SOL     OW16290   2.128   5.531   4.434
 5329SOL    HW116291   2.127   5.436   4.427
 5329SOL    HW216292   2.086   5.549   4.518
 5330SOL     OW16293   5.184   6.669   4.357
 5330SOL    HW116294   5.231   6.611   4.296
 5330SOL    HW216295   5.253   6.721   4.398
 5331SOL     OW16296   2.882   4.916   0.980
 5331SOL    HW116297   2.868   5.005   0.949
 5331SOL    HW216298   2.941   4.925   1.054
 5332SOL     OW16299   4.319   8.201   3.905
 5332SOL    HW116300   4.308   8.187   3.999
 5332SOL    HW216301   4.243   0.025   3.880
 5333SOL     OW16302   5.978   7.057   5.048
 5333SOL    HW116303   6.033   7.135   5.049
 5333SOL    HW216304   6.039   6.985   5.029
 5334SOL     OW16305   6.051   3.184   1.309
 5334SOL    HW116306   6.053   3.202   1.403
 5334SOL    HW216307   5.961   3.205   1.282
 5335SOL     OW16308   1.900   2.622   3.294
 5335SOL    HW116309   1.968   2.638   3.228
 5335SOL    HW216310   1.948   2.593   3.371
 5336SOL     OW16311   1.471   7.936   1.215
 5336SOL    HW116312   1.479   8.025   1.181
 5336SOL    HW216313   1.546   7.926   1.274
 5337SOL     OW16314   8.148   2.317   3.926
 5337SOL    HW116315   8.068   2.329   3.875
 5337SOL    HW216316   8.163   2.222   3.925
 5338SOL     OW16317   8.011   4.249   5.205
 5338SOL    HW116318   7.972   4.293   5.281
 5338SOL    HW216319   8.104   4.244   5.226
 5339SOL     OW16320   4.395   5.978   5.801
 5339SOL    HW116321   4.454   6.022   5.739
 5339SOL    HW216322   4.310   6.019   5.787
 5340SOL     OW16323   7.785   4.009   0.530
 5340SOL    HW116324   7.703   3.984   0.572
 5340SOL    HW216325   7.853   3.970   0.584
 5341SOL     OW16326   5.045   1.912   1.653
 5341SOL    HW116327   4.996   1.830   1.659
 5341SOL    HW216328   5.131   1.891   1.689
 5342SOL     OW16329   5.489   5.335   4.635
 5342SOL    HW116330   5.561   5.337   4.698
 5342SOL    HW216331   5.420   5.387   4.676
 5343SOL     OW16332   2.964   0.420   2.682
 5343SOL    HW116333   3.053   0.449   2.663
 5343SOL    HW216334   2.919   0.422   2.597
 5344SOL     OW16335   6.098   2.467   4.012
 5344SOL    HW116336   6.027   2.438   4.070
 5344SOL    HW216337   6.061   2.543   3.966
 5345SOL     OW16338   0.554   2.614   1.652
 5345SOL    HW116339   0.542   2.593   1.745
 5345SOL    HW216340   0.469   2.647   1.624
 5346SOL     OW16341   7.052   7.599   0.562
 5346SOL    HW116342   7.114   7.633   0.626
 5346SOL    HW216343   7.080   7.638   0.479
 5347SOL     OW16344   5.026   3.154   1.537
 5347SOL    HW116345   5.006   3.073   1.583
 5347SOL    HW216346   5.120   3.166   1.550
 5348SOL     OW16347   7.789   3.372   3.611
 5348SOL    HW116348   7.763   3.346   3.522
 5348SOL    HW216349   7.752   3.304   3.667
 5349SOL     OW16350   1.728   4.434   1.727
 5349SOL    HW116351   1.775   4.409   1.807
 5349SOL    HW216352   1.640   4.457   1.758
 5350SOL     OW16353   8.099   3.359   1.753
 5350SOL    HW116354   8.088   3.438   1.807
 5350SOL    HW216355   8.029   3.364   1.688
 5351SOL     OW16356   0.659   0.403   5.202
 5351SOL    HW116357   0.739   0.454   5.213
 5351SOL    HW216358   0.603   0.458   5.147
 5352SOL     OW16359   0.216   1.055   4.003
 5352SOL    HW116360   0.234   1.144   4.033
 5352SOL    HW216361   0.290   1.033   3.946
 5353SOL     OW16362   4.984   4.736   0.996
 5353SOL    HW116363   4.918   4.773   0.938
 5353SOL    HW216364   5.023   4.812   1.039
 5354SOL     OW16365   7.353   0.554   3.608
 5354SOL    HW116366   7.297   0.551   3.531
 5354SOL    HW216367   7.327   0.479   3.661
 5355SOL     OW16368   3.140   7.872   2.227
 5355SOL    HW116369   3.176   7.922   2.300
 5355SOL    HW216370   3.206   7.805   2.209
 5356SOL     OW16371   4.061   7.867   5.641
 5356SOL    HW116372   4.020   7.781   5.645
 5356SOL    HW216373   3.994   7.927   5.673
 5357SOL     OW16374   1.171   2.309   2.473
 5357SOL    HW116375   1.210   2.248   2.410
 5357SOL    HW216376   1.109   2.360   2.421
 5358SOL     OW16377   2.300   1.848   4.756
 5358SOL    HW116378   2.387   1.887   4.762
 5358SOL    HW216379   2.274   1.859   4.665
 5359SOL     OW16380   2.648   1.362   2.396
 5359SOL    HW116381   2.615   1.286   2.348
 5359SOL    HW216382   2.586   1.432   2.375
 5360SOL     OW16383   5.278   0.055   4.480
 5360SOL    HW116384   5.327   0.028   4.558
 5360SOL    HW216385   5.339   0.112   4.433
 5361SOL     OW16386   3.163   3.362   4.326
 5361SOL    HW116387   3.213   3.343   4.246
 5361SOL    HW216388   3.121   3.446   4.308
 5362SOL     OW16389   4.279   6.249   0.122
 5362SOL    HW116390   4.213   6.275   0.058
 5362SOL    HW216391   4.357   6.299   0.098
 5363SOL     OW16392   1.752   1.987   2.764
 5363SOL    HW116393   1.839   2.022   2.783
 5363SOL    HW216394   1.736   2.012   2.673
 5364SOL     OW16395   3.892   2.343   1.544
 5364SOL    HW116396   3.863   2.418   1.595
 5364SOL    HW216397   3.969   2.311   1.591
 5365SOL     OW16398   5.536   6.535   4.850
 5365SOL    HW116399   5.469   6.472   4.875
 5365SOL    HW216400   5.602   6.528   4.918
 5366SOL     OW16401   8.079   4.694   0.324
 5366SOL    HW116402   8.147   4.690   0.391
 5366SOL    HW216403   8.093   4.778   0.281
 5367SOL     OW16404   0.501   3.724   0.119
 5367SOL    HW116405   0.584   3.678   0.107
 5367SOL    HW216406   0.527   3.812   0.147
 5368SOL     OW16407   3.183   6.580   5.091
 5368SOL    HW116408   3.239   6.513   5.130
 5368SOL    HW216409   3.214   6.587   5.001
 5369SOL     OW16410   0.170   3.302   5.753
 5369SOL    HW116411   0.235   3.232   5.758
 5369SOL    HW216412   0.087   3.257   5.735
 5370SOL     OW16413   3.060   3.941   3.988
 5370SOL    HW116414   3.150   3.951   4.020
 5370SOL    HW216415   3.070   3.912   3.897
 5371SOL     OW16416   3.660   7.307   5.490
 5371SOL    HW116417   3.706   7.225   5.507
 5371SOL    HW216418   3.571   7.281   5.468
 5372SOL     OW16419   6.199   2.171   0.676
 5372SOL    HW116420   6.152   2.212   0.604
 5372SOL    HW216421   6.131   2.131   0.730
 5373SOL     OW16422   3.095   3.487   3.539
 5373SOL    HW116423   3.046   3.569   3.542
 5373SOL    HW216424   3.028   3.419   3.539
 5374SOL     OW16425   3.271   0.116   0.388
 5374SOL    HW116426   3.286   0.102   0.481
 5374SOL    HW216427   3.194   0.063   0.368
 5375SOL     OW16428   2.068   1.036   2.756
 5375SOL    HW116429   2.081   1.131   2.755
 5375SOL    HW216430   2.012   1.020   2.832
 5376SOL     OW16431   5.184   7.365   1.044
 5376SOL    HW116432   5.153   7.276   1.027
 5376SOL    HW216433   5.240   7.386   0.969
 5377SOL     OW16434   6.757   3.278   4.898
 5377SOL    HW116435   6.757   3.183   4.912
 5377SOL    HW216436   6.796   3.290   4.812
 5378SOL     OW16437   7.694   1.300   1.918
 5378SOL    HW116438   7.645   1.368   1.872
 5378SOL    HW216439   7.707   1.335   2.006
 5379SOL     OW16440   7.242   1.389   0.892
 5379SOL    HW116441   7.326   1.398   0.847
 5379SOL    HW216442   7.252   1.441   0.972
 5380SOL     OW16443   1.702   3.752   2.607
 5380SOL    HW116444   1.624   3.807   2.613
 5380SOL    HW216445   1.728   3.737   2.698
 5381SOL     OW16446   0.648   5.550   4.437
 5381SOL    HW116447   0.565   5.590   4.412
 5381SOL    HW216448   0.628   5.457   4.444
 5382SOL     OW16449   3.355   3.222   3.849
 5382SOL    HW116450   3.357   3.301   3.795
 5382SOL    HW216451   3.312   3.156   3.794
 5383SOL     OW16452   1.511   1.710   3.071
 5383SOL    HW116453   1.493   1.617   3.088
 5383SOL    HW216454   1.512   1.750   3.158
 5384SOL     OW16455   6.839   3.667   2.738
 5384SOL    HW116456   6.883   3.725   2.800
 5384SOL    HW216457   6.906   3.644   2.674
 5385SOL     OW16458   3.283   5.304   4.175
 5385SOL    HW116459   3.317   5.215   4.180
 5385SOL    HW216460   3.361   5.358   4.160
 5386SOL     OW16461   7.674   7.727   0.141
 5386SOL    HW116462   7.764   7.695   0.141
 5386SOL    HW216463   7.682   7.822   0.129
 5387SOL     OW16464   4.062   5.178   4.891
 5387SOL    HW116465   4.021   5.145   4.811
 5387SOL    HW216466   4.008   5.143   4.962
 5388SOL     OW16467   6.070   5.216   1.480
 5388SOL    HW116468   6.121   5.165   1.542
 5388SOL    HW216469   6.010   5.153   1.440
 5389SOL     OW16470   2.366   0.991   1.105
 5389SOL    HW116471   2.323   0.914   1.142
 5389SOL    HW216472   2.295   1.054   1.093
 5390SOL     OW16473   6.288   1.828   5.435
 5390SOL    HW116474   6.318   1.742   5.406
 5390SOL    HW216475   6.292   1.823   5.531
 5391SOL     OW16476   3.411   5.147   5.184
 5391SOL    HW116477   3.446   5.126   5.271
 5391SOL    HW216478   3.485   5.135   5.125
 5392SOL     OW16479   5.035   3.440   2.389
 5392SOL    HW116480   4.967   3.404   2.446
 5392SOL    HW216481   4.993   3.449   2.303
 5393SOL     OW16482   6.431   3.016   4.580
 5393SOL    HW116483   6.379   2.944   4.545
 5393SOL    HW216484   6.366   3.077   4.616
 5394SOL     OW16485   2.546   6.791   3.470
 5394SOL    HW116486   2.563   6.861   3.533
 5394SOL    HW216487   2.473   6.742   3.507
 5395SOL     OW16488   7.975   7.277   5.748
 5395SOL    HW116489   7.974   7.223   5.669
 5395SOL    HW216490   7.926   7.356   5.724
 5396SOL     OW16491   2.522   8.103   5.460
 5396SOL    HW116492   2.452   8.076   5.519
 5396SOL    HW216493   2.494   8.072   5.374
 5397SOL     OW16494   6.501   7.467   3.163
 5397SOL    HW116495   6.548   7.385   3.179
 5397SOL    HW216496   6.436   7.471   3.233
 5398SOL     OW16497   4.675   0.770   2.586
 5398SOL    HW116498   4.644   0.688   2.547
 5398SOL    HW216499   4.762   0.782   2.549
 5399SOL     OW16500   7.057   3.238   4.924
 5399SOL    HW116501   7.083   3.251   4.833
 5399SOL    HW216502   7.018   3.151   4.926
 5400SOL     OW16503   3.819   3.757   3.787
 5400SOL    HW116504   3.859   3.738   3.702
 5400SOL    HW216505   3.827   3.852   3.796
 5401SOL     OW16506   8.206   6.157   3.242
 5401SOL    HW116507   0.017   6.187   3.324
 5401SOL    HW216508   8.181   6.238   3.197
 5402SOL     OW16509   7.283   5.144   2.313
 5402SOL    HW116510   7.203   5.196   2.317
 5402SOL    HW216511   7.279   5.088   2.390
 5403SOL     OW16512   5.445   1.370   5.042
 5403SOL    HW116513   5.409   1.431   4.977
 5403SOL    HW216514   5.387   1.294   5.038
 5404SOL     OW16515   7.438   5.619   0.139
 5404SOL    HW116516   7.381   5.696   0.135
 5404SOL    HW216517   7.478   5.623   0.226
 5405SOL     OW16518   2.439   7.880   2.347
 5405SOL    HW116519   2.404   7.931   2.420
 5405SOL    HW216520   2.522   7.846   2.379
 5406SOL     OW16521   6.061   1.383   2.031
 5406SOL    HW116522   6.078   1.319   2.100
 5406SOL    HW216523   5.995   1.442   2.069
 5407SOL     OW16524   8.066   1.430   5.817
 5407SOL    HW116525   3.945   5.632   0.036
 5407SOL    HW216526   8.050   1.443   5.723
 5408SOL     OW16527   0.780   5.060   0.284
 5408SOL    HW116528   0.698   5.105   0.263
 5408SOL    HW216529   0.758   5.005   0.359
 5409SOL     OW16530   1.742   7.382   1.729
 5409SOL    HW116531   1.656   7.340   1.722
 5409SOL    HW216532   1.754   7.397   1.823
 5410SOL     OW16533   6.213   0.864   3.688
 5410SOL    HW116534   6.293   0.905   3.655
 5410SOL    HW216535   6.214   0.776   3.650
 5411SOL     OW16536   5.194   5.246   5.423
 5411SOL    HW116537   5.169   5.173   5.366
 5411SOL    HW216538   5.112   5.291   5.441
 5412SOL     OW16539   1.865   6.034   0.447
 5412SOL    HW116540   1.781   6.080   0.443
 5412SOL    HW216541   1.911   6.062   0.368
 5413SOL     OW16542   6.952   3.024   1.096
 5413SOL    HW116543   6.861   3.050   1.110
 5413SOL    HW216544   6.957   2.935   1.131
 5414SOL     OW16545   3.925   4.135   0.771
 5414SOL    HW116546   3.924   4.198   0.843
 5414SOL    HW216547   3.932   4.049   0.813
 5415SOL     OW16548   1.047   2.441   3.909
 5415SOL    HW116549   1.092   2.373   3.959
 5415SOL    HW216550   0.958   2.442   3.944
 5416SOL     OW16551   6.136   6.630   3.839
 5416SOL    HW116552   6.231   6.619   3.834
 5416SOL    HW216553   6.122   6.724   3.832
 5417SOL     OW16554   6.660   1.868   5.615
 5417SOL    HW116555   6.596   1.919   5.565
 5417SOL    HW216556   6.658   1.908   5.702
 5418SOL     OW16557   7.527   3.825   1.090
 5418SOL    HW116558   7.438   3.813   1.058
 5418SOL    HW216559   7.564   3.737   1.093
 5419SOL     OW16560   7.068   3.792   0.794
 5419SOL    HW116561   7.089   3.840   0.714
 5419SOL    HW216562   7.001   3.845   0.837
 5420SOL     OW16563   1.864   1.459   0.345
 5420SOL    HW116564   1.939   1.402   0.329
 5420SOL    HW216565   1.862   1.518   0.269
 5421SOL     OW16566   4.749   6.235   0.763
 5421SOL    HW116567   4.822   6.265   0.817
 5421SOL    HW216568   4.686   6.199   0.825
 5422SOL     OW16569   3.403   0.101   5.227
 5422SOL    HW116570   3.473   0.098   5.162
 5422SOL    HW216571   3.431   0.041   5.296
 5423SOL     OW16572   6.955   4.951   3.165
 5423SOL    HW116573   6.943   5.045   3.175
 5423SOL    HW216574   7.047   4.940   3.141
 5424SOL     OW16575   3.027   4.851   0.752
 5424SOL    HW116576   3.102   4.847   0.812
 5424SOL    HW216577   2.951   4.838   0.808
 5425SOL     OW16578   3.317   6.421   4.510
 5425SOL    HW116579   3.312   6.476   4.432
 5425SOL    HW216580   3.329   6.332   4.476
 5426SOL     OW16581   2.837   6.755   5.115
 5426SOL    HW116582   2.786   6.821   5.162
 5426SOL    HW216583   2.795   6.748   5.030
 5427SOL     OW16584   1.739   1.839   0.217
 5427SOL    HW116585   1.821   1.838   0.167
 5427SOL    HW216586   1.762   1.803   0.302
 5428SOL     OW16587   6.934   4.762   3.371
 5428SOL    HW116588   6.928   4.848   3.329
 5428SOL    HW216589   6.932   4.699   3.299
 5429SOL     OW16590   0.054   2.538   4.039
 5429SOL    HW116591   0.069   2.585   3.957
 5429SOL    HW216592   0.014   2.455   4.012
 5430SOL     OW16593   6.977   6.833   4.723
 5430SOL    HW116594   6.900   6.864   4.770
 5430SOL    HW216595   6.942   6.798   4.641
 5431SOL     OW16596   2.571   1.038   3.129
 5431SOL    HW116597   2.629   1.097   3.080
 5431SOL    HW216598   2.572   1.072   3.218
 5432SOL     OW16599   4.738   0.677   2.294
 5432SOL    HW116600   4.820   0.726   2.299
 5432SOL    HW216601   4.685   0.726   2.231
 5433SOL     OW16602   2.596   3.310   2.505
 5433SOL    HW116603   2.562   3.360   2.431
 5433SOL    HW216604   2.652   3.243   2.466
 5434SOL     OW16605   6.574   5.904   4.676
 5434SOL    HW116606   6.567   5.962   4.601
 5434SOL    HW216607   6.485   5.871   4.690
 5435SOL     OW16608   3.668   1.813   2.056
 5435SOL    HW116609   3.744   1.872   2.061
 5435SOL    HW216610   3.701   1.735   2.011
 5436SOL     OW16611   0.050   6.419   2.054
 5436SOL    HW116612   8.204   6.394   2.108
 5436SOL    HW216613   0.085   6.497   2.097
 5437SOL     OW16614   2.901   5.400   3.050
 5437SOL    HW116615   2.807   5.388   3.061
 5437SOL    HW216616   2.933   5.314   3.023
 5438SOL     OW16617   4.373   5.565   4.028
 5438SOL    HW116618   4.338   5.625   4.094
 5438SOL    HW216619   4.426   5.620   3.971
 5439SOL     OW16620   2.611   2.083   1.023
 5439SOL    HW116621   2.545   2.140   1.063
 5439SOL    HW216622   2.586   2.077   0.931
 5440SOL     OW16623   2.218   4.141   2.688
 5440SOL    HW116624   2.297   4.127   2.636
 5440SOL    HW216625   2.249   4.180   2.770
 5441SOL     OW16626   0.490   2.543   0.633
 5441SOL    HW116627   0.460   2.521   0.545
 5441SOL    HW216628   0.411   2.540   0.687
 5442SOL     OW16629   0.769   4.704   2.198
 5442SOL    HW116630   0.853   4.709   2.244
 5442SOL    HW216631   0.752   4.794   2.169
 5443SOL     OW16632   2.359   4.878   1.448
 5443SOL    HW116633   2.301   4.949   1.476
 5443SOL    HW216634   2.441   4.921   1.425
 5444SOL     OW16635   1.521   7.311   5.527
 5444SOL    HW116636   1.560   7.224   5.522
 5444SOL    HW216637   1.577   7.366   5.471
 5445SOL     OW16638   0.011   1.518   0.056
 5445SOL    HW116639   8.213   1.426   0.062
 5445SOL    HW216640   8.177   1.565   0.111
 5446SOL     OW16641   6.657   4.905   3.154
 5446SOL    HW116642   6.609   4.882   3.233
 5446SOL    HW216643   6.747   4.878   3.172
 5447SOL     OW16644   5.842   1.536   4.921
 5447SOL    HW116645   5.800   1.518   5.005
 5447SOL    HW216646   5.776   1.512   4.856
 5448SOL     OW16647   8.160   2.398   5.627
 5448SOL    HW116648   0.020   2.364   5.620
 5448SOL    HW216649   8.104   2.325   5.601
 5449SOL     OW16650   4.388   6.995   5.254
 5449SOL    HW116651   4.337   7.074   5.234
 5449SOL    HW216652   4.336   6.949   5.320
 5450SOL     OW16653   6.772   5.510   3.106
 5450SOL    HW116654   6.792   5.449   3.178
 5450SOL    HW216655   6.684   5.542   3.125
 5451SOL     OW16656   7.537   2.323   0.998
 5451SOL    HW116657   7.625   2.291   1.019
 5451SOL    HW216658   7.483   2.296   1.073
 5452SOL     OW16659   0.762   0.947   4.488
 5452SOL    HW116660   0.762   0.886   4.415
 5452SOL    HW216661   0.834   1.007   4.469
 5453SOL     OW16662   1.037   2.914   3.756
 5453SOL    HW116663   1.107   2.976   3.737
 5453SOL    HW216664   0.971   2.932   3.689
 5454SOL     OW16665   2.845   5.498   4.989
 5454SOL    HW116666   2.867   5.464   4.902
 5454SOL    HW216667   2.849   5.593   4.980
 5455SOL     OW16668   1.383   0.002   2.318
 5455SOL    HW116669   1.357   8.203   2.406
 5455SOL    HW216670   1.344   8.167   2.259
 5456SOL     OW16671   0.109   1.386   2.967
 5456SOL    HW116672   0.128   1.441   3.043
 5456SOL    HW216673   0.142   1.299   2.991
 5457SOL     OW16674   0.739   2.234   3.308
 5457SOL    HW116675   0.772   2.317   3.341
 5457SOL    HW216676   0.801   2.169   3.340
 5458SOL     OW16677   3.024   7.396   4.403
 5458SOL    HW116678   3.067   7.312   4.418
 5458SOL    HW216679   2.931   7.377   4.412
 5459SOL     OW16680   8.150   5.935   0.542
 5459SOL    HW116681   8.131   6.015   0.493
 5459SOL    HW216682   8.099   5.943   0.622
 5460SOL     OW16683   2.365   4.615   0.314
 5460SOL    HW116684   2.376   4.632   0.408
 5460SOL    HW216685   2.453   4.624   0.277
 5461SOL     OW16686   5.605   7.453   2.958
 5461SOL    HW116687   5.646   7.370   2.933
 5461SOL    HW216688   5.523   7.428   3.000
 5462SOL     OW16689   6.057   3.753   5.606
 5462SOL    HW116690   6.050   3.758   5.511
 5462SOL    HW216691   6.150   3.765   5.624
 5463SOL     OW16692   8.106   7.031   2.872
 5463SOL    HW116693   8.015   7.003   2.864
 5463SOL    HW216694   8.105   7.099   2.939
 5464SOL     OW16695   1.163   2.627   5.634
 5464SOL    HW116696   1.240   2.655   5.684
 5464SOL    HW216697   1.094   2.616   5.700
 5465SOL     OW16698   7.137   0.711   0.433
 5465SOL    HW116699   7.173   0.675   0.514
 5465SOL    HW216700   7.059   0.659   0.416
 5466SOL     OW16701   0.542   1.691   0.381
 5466SOL    HW116702   0.476   1.633   0.418
 5466SOL    HW216703   0.492   1.759   0.336
 5467SOL     OW16704   6.886   1.420   3.984
 5467SOL    HW116705   6.807   1.444   3.936
 5467SOL    HW216706   6.887   1.324   3.984
 5468SOL     OW16707   5.917   8.006   5.787
 5468SOL    HW116708   1.732   3.917   0.028
 5468SOL    HW216709   5.892   7.919   5.757
 5469SOL     OW16710   6.856   7.031   4.175
 5469SOL    HW116711   6.803   6.989   4.242
 5469SOL    HW216712   6.890   7.110   4.217
 5470SOL     OW16713   3.817   7.388   3.555
 5470SOL    HW116714   3.799   7.478   3.528
 5470SOL    HW216715   3.805   7.388   3.650
 5471SOL     OW16716   3.915   0.761   2.865
 5471SOL    HW116717   3.838   0.815   2.883
 5471SOL    HW216718   3.923   0.761   2.770
 5472SOL     OW16719   6.350   5.463   5.099
 5472SOL    HW116720   6.317   5.429   5.182
 5472SOL    HW216721   6.438   5.495   5.119
 5473SOL     OW16722   6.739   4.597   0.904
 5473SOL    HW116723   6.829   4.622   0.883
 5473SOL    HW216724   6.748   4.519   0.958
 5474SOL     OW16725   5.582   5.310   4.923
 5474SOL    HW116726   5.491   5.336   4.907
 5474SOL    HW216727   5.603   5.348   5.008
 5475SOL     OW16728   5.156   3.566   1.697
 5475SOL    HW116729   5.203   3.516   1.630
 5475SOL    HW216730   5.143   3.504   1.769
 5476SOL     OW16731   1.042   8.098   4.660
 5476SOL    HW116732   1.064   8.157   4.732
 5476SOL    HW216733   1.127   8.063   4.632
 5477SOL     OW16734   2.301   0.697   1.923
 5477SOL    HW116735   2.275   0.620   1.872
 5477SOL    HW216736   2.226   0.715   1.979
 5478SOL     OW16737   4.386   7.027   3.955
 5478SOL    HW116738   4.470   7.029   4.002
 5478SOL    HW216739   4.359   6.935   3.958
 5479SOL     OW16740   2.542   1.505   5.328
 5479SOL    HW116741   2.531   1.412   5.346
 5479SOL    HW216742   2.595   1.508   5.249
 5480SOL     OW16743   6.803   4.705   5.105
 5480SOL    HW116744   6.763   4.788   5.078
 5480SOL    HW216745   6.741   4.668   5.168
 5481SOL     OW16746   6.138   0.883   0.373
 5481SOL    HW116747   6.228   0.869   0.404
 5481SOL    HW216748   6.096   0.934   0.442
 5482SOL     OW16749   4.258   8.187   4.817
 5482SOL    HW116750   4.190   8.173   4.883
 5482SOL    HW216751   4.339   8.196   4.868
 5483SOL     OW16752   4.587   6.254   2.210
 5483SOL    HW116753   4.627   6.328   2.255
 5483SOL    HW216754   4.532   6.294   2.142
 5484SOL     OW16755   4.906   2.957   0.816
 5484SOL    HW116756   4.970   2.895   0.852
 5484SOL    HW216757   4.838   2.901   0.777
 5485SOL     OW16758   2.964   5.397   5.217
 5485SOL    HW116759   2.954   5.441   5.132
 5485SOL    HW216760   3.012   5.460   5.271
 5486SOL     OW16761   7.377   7.468   5.348
 5486SOL    HW116762   7.332   7.522   5.283
 5486SOL    HW216763   7.438   7.414   5.297
 5487SOL     OW16764   1.577   6.008   5.804
 5487SOL    HW116765   1.583   6.085   5.747
 5487SOL    HW216766   5.622   1.915   0.047
 5488SOL     OW16767   8.019   5.953   3.174
 5488SOL    HW116768   8.047   5.926   3.087
 5488SOL    HW216769   8.091   6.006   3.207
 5489SOL     OW16770   7.319   3.668   0.822
 5489SOL    HW116771   7.230   3.683   0.790
 5489SOL    HW216772   7.315   3.686   0.916
 5490SOL     OW16773   7.442   2.571   3.577
 5490SOL    HW116774   7.354   2.534   3.587
 5490SOL    HW216775   7.427   2.661   3.548
 5491SOL     OW16776   0.227   6.473   2.382
 5491SOL    HW116777   0.192   6.433   2.462
 5491SOL    HW216778   0.177   6.554   2.371
 5492SOL     OW16779   2.066   2.365   3.999
 5492SOL    HW116780   2.039   2.455   4.019
 5492SOL    HW216781   2.103   2.370   3.911
 5493SOL     OW16782   1.827   5.370   3.580
 5493SOL    HW116783   1.812   5.301   3.515
 5493SOL    HW216784   1.808   5.451   3.533
 5494SOL     OW16785   6.800   4.159   3.402
 5494SOL    HW116786   6.846   4.093   3.454
 5494SOL    HW216787   6.760   4.217   3.467
 5495SOL     OW16788   1.853   1.398   1.245
 5495SOL    HW116789   1.866   1.443   1.161
 5495SOL    HW216790   1.939   1.401   1.287
 5496SOL     OW16791   4.934   0.546   5.714
 5496SOL    HW116792   4.994   0.475   5.691
 5496SOL    HW216793   4.847   0.509   5.701
 5497SOL     OW16794   0.137   0.521   3.118
 5497SOL    HW116795   0.161   0.577   3.044
 5497SOL    HW216796   0.204   0.453   3.120
 5498SOL     OW16797   1.293   0.250   1.507
 5498SOL    HW116798   1.329   0.328   1.464
 5498SOL    HW216799   1.204   0.275   1.533
 5499SOL     OW16800   0.930   5.961   5.660
 5499SOL    HW116801   0.865   5.990   5.595
 5499SOL    HW216802   0.890   5.981   5.745
 5500SOL     OW16803   8.101   5.209   0.951
 5500SOL    HW116804   8.125   5.173   0.866
 5500SOL    HW216805   8.161   5.168   1.013
 5501SOL     OW16806   4.020   0.696   5.040
 5501SOL    HW116807   4.085   0.760   5.012
 5501SOL    HW216808   4.021   0.702   5.136
 5502SOL     OW16809   1.250   2.241   4.330
 5502SOL    HW116810   1.170   2.290   4.309
 5502SOL    HW216811   1.243   2.161   4.278
 5503SOL     OW16812   1.903   4.360   0.069
 5503SOL    HW116813   1.988   4.324   0.043
 5503SOL    HW216814   1.886   4.321   0.155
 5504SOL     OW16815   1.607   7.036   1.451
 5504SOL    HW116816   1.541   7.050   1.383
 5504SOL    HW216817   1.664   6.967   1.416
 5505SOL     OW16818   4.325   6.210   3.187
 5505SOL    HW116819   4.324   6.233   3.094
 5505SOL    HW216820   4.234   6.189   3.207
 5506SOL     OW16821   2.882   0.016   1.791
 5506SOL    HW116822   2.864   0.094   1.844
 5506SOL    HW216823   2.822   8.179   1.826
 5507SOL     OW16824   0.192   5.663   4.764
 5507SOL    HW116825   0.156   5.586   4.809
 5507SOL    HW216826   0.258   5.628   4.705
 5508SOL     OW16827   5.239   6.701   0.304
 5508SOL    HW116828   5.187   6.633   0.261
 5508SOL    HW216829   5.288   6.655   0.372
 5509SOL     OW16830   4.543   2.698   3.989
 5509SOL    HW116831   4.485   2.773   3.983
 5509SOL    HW216832   4.534   2.667   4.079
 5510SOL     OW16833   5.064   3.545   1.307
 5510SOL    HW116834   5.016   3.485   1.251
 5510SOL    HW216835   5.080   3.622   1.252
 5511SOL     OW16836   0.317   6.432   1.164
 5511SOL    HW116837   0.352   6.343   1.164
 5511SOL    HW216838   0.378   6.482   1.109
 5512SOL     OW16839   0.634   3.542   2.393
 5512SOL    HW116840   0.644   3.449   2.374
 5512SOL    HW216841   0.608   3.545   2.485
 5513SOL     OW16842   5.677   8.075   3.310
 5513SOL    HW116843   5.656   8.017   3.237
 5513SOL    HW216844   5.772   8.066   3.321
 5514SOL     OW16845   0.704   4.137   0.511
 5514SOL    HW116846   0.757   4.081   0.568
 5514SOL    HW216847   0.623   4.151   0.560
 5515SOL     OW16848   5.706   6.885   0.816
 5515SOL    HW116849   5.699   6.957   0.753
 5515SOL    HW216850   5.799   6.880   0.837
 5516SOL     OW16851   2.187   8.165   4.635
 5516SOL    HW116852   2.281   8.148   4.637
 5516SOL    HW216853   2.180   0.028   4.612
 5517SOL     OW16854   4.500   0.953   4.036
 5517SOL    HW116855   4.564   0.910   3.979
 5517SOL    HW216856   4.415   0.935   3.995
 5518SOL     OW16857   7.025   1.541   1.743
 5518SOL    HW116858   6.990   1.629   1.759
 5518SOL    HW216859   7.076   1.550   1.662
 5519SOL     OW16860   3.057   5.927   0.159
 5519SOL    HW116861   2.993   5.871   0.114
 5519SOL    HW216862   3.103   5.868   0.219
 5520SOL     OW16863   1.512   7.602   3.642
 5520SOL    HW116864   1.502   7.512   3.611
 5520SOL    HW216865   1.574   7.642   3.581
 5521SOL     OW16866   2.549   4.478   0.621
 5521SOL    HW116867   2.524   4.399   0.670
 5521SOL    HW216868   2.466   4.522   0.603
 5522SOL     OW16869   7.009   0.390   1.421
 5522SOL    HW116870   7.052   0.472   1.446
 5522SOL    HW216871   6.944   0.375   1.489
 5523SOL     OW16872   0.644   3.617   3.571
 5523SOL    HW116873   0.667   3.662   3.652
 5523SOL    HW216874   0.597   3.539   3.600
 5524SOL     OW16875   0.632   6.590   1.645
 5524SOL    HW116876   0.608   6.538   1.568
 5524SOL    HW216877   0.611   6.680   1.620
 5525SOL     OW16878   1.681   6.612   2.936
 5525SOL    HW116879   1.600   6.576   2.973
 5525SOL    HW216880   1.701   6.556   2.861
 5526SOL     OW16881   6.258   0.364   5.140
 5526SOL    HW116882   6.271   0.269   5.147
 5526SOL    HW216883   6.311   0.390   5.065
 5527SOL     OW16884   3.440   1.638   1.164
 5527SOL    HW116885   3.465   1.730   1.156
 5527SOL    HW216886   3.424   1.625   1.257
 5528SOL     OW16887   3.728   7.829   4.509
 5528SOL    HW116888   3.728   7.853   4.602
 5528SOL    HW216889   3.727   7.733   4.510
 5529SOL     OW16890   7.040   3.408   1.378
 5529SOL    HW116891   7.062   3.326   1.334
 5529SOL    HW216892   6.954   3.392   1.417
 5530SOL     OW16893   2.584   7.306   1.294
 5530SOL    HW116894   2.539   7.246   1.354
 5530SOL    HW216895   2.608   7.251   1.219
 5531SOL     OW16896   5.865   3.799   1.471
 5531SOL    HW116897   5.914   3.864   1.522
 5531SOL    HW216898   5.913   3.717   1.483
 5532SOL     OW16899   4.214   5.784   0.374
 5532SOL    HW116900   4.289   5.730   0.349
 5532SOL    HW216901   4.218   5.859   0.314
 5533SOL     OW16902   3.302   6.728   3.493
 5533SOL    HW116903   3.259   6.797   3.442
 5533SOL    HW216904   3.245   6.652   3.483
 5534SOL     OW16905   7.711   3.566   1.588
 5534SOL    HW116906   7.638   3.516   1.552
 5534SOL    HW216907   7.775   3.499   1.614
 5535SOL     OW16908   3.399   1.990   1.393
 5535SOL    HW116909   3.341   1.916   1.411
 5535SOL    HW216910   3.377   2.055   1.459
 5536SOL     OW16911   3.773   2.997   5.265
 5536SOL    HW116912   3.819   2.945   5.331
 5536SOL    HW216913   3.750   3.078   5.310
 5537SOL     OW16914   2.290   0.515   4.783
 5537SOL    HW116915   2.297   0.421   4.801
 5537SOL    HW216916   2.378   0.541   4.756
 5538SOL     OW16917   3.006   5.162   5.526
 5538SOL    HW116918   2.923   5.204   5.549
 5538SOL    HW216919   3.073   5.225   5.553
 5539SOL     OW16920   3.692   3.469   0.676
 5539SOL    HW116921   3.769   3.447   0.729
 5539SOL    HW216922   3.652   3.385   0.656
 5540SOL     OW16923   7.195   7.660   0.959
 5540SOL    HW116924   7.195   7.756   0.956
 5540SOL    HW216925   7.221   7.634   0.871
 5541SOL     OW16926   4.980   6.490   3.272
 5541SOL    HW116927   4.930   6.477   3.353
 5541SOL    HW216928   4.933   6.438   3.207
 5542SOL     OW16929   2.660   2.969   5.655
 5542SOL    HW116930   2.608   3.017   5.591
 5542SOL    HW216931   2.729   3.030   5.681
 5543SOL     OW16932   7.159   0.512   3.401
 5543SOL    HW116933   7.097   0.567   3.354
 5543SOL    HW216934   7.148   0.425   3.362
 5544SOL     OW16935   4.720   2.360   3.393
 5544SOL    HW116936   4.716   2.418   3.317
 5544SOL    HW216937   4.808   2.322   3.389
 5545SOL     OW16938   3.817   0.740   0.000
 5545SOL    HW116939   3.778   0.732   0.087
 5545SOL    HW216940   7.872   4.913   5.771
 5546SOL     OW16941   4.812   0.837   4.645
 5546SOL    HW116942   4.882   0.901   4.631
 5546SOL    HW216943   4.826   0.804   4.734
 5547SOL     OW16944   1.733   3.149   3.770
 5547SOL    HW116945   1.718   3.075   3.712
 5547SOL    HW216946   1.827   3.148   3.787
 5548SOL     OW16947   3.373   7.289   3.293
 5548SOL    HW116948   3.323   7.300   3.374
 5548SOL    HW216949   3.462   7.314   3.317
 5549SOL     OW16950   0.927   5.270   1.129
 5549SOL    HW116951   0.920   5.312   1.043
 5549SOL    HW216952   0.988   5.197   1.115
 5550SOL     OW16953   4.182   0.495   5.438
 5550SOL    HW116954   4.250   0.462   5.497
 5550SOL    HW216955   4.230   0.525   5.361
 5551SOL     OW16956   8.111   1.316   0.947
 5551SOL    HW116957   8.135   1.391   1.001
 5551SOL    HW216958   8.101   1.244   1.009
 5552SOL     OW16959   3.069   7.716   0.918
 5552SOL    HW116960   3.099   7.654   0.984
 5552SOL    HW216961   3.135   7.712   0.849
 5553SOL     OW16962   4.240   4.520   4.999
 5553SOL    HW116963   4.269   4.611   5.006
 5553SOL    HW216964   4.145   4.524   5.013
 5554SOL     OW16965   4.984   2.072   1.010
 5554SOL    HW116966   5.061   2.078   0.953
 5554SOL    HW216967   4.915   2.119   0.963
 5555SOL     OW16968   8.065   6.262   4.052
 5555SOL    HW116969   8.076   6.209   4.131
 5555SOL    HW216970   8.128   6.227   3.990
 5556SOL     OW16971   7.716   1.210   3.814
 5556SOL    HW116972   7.806   1.191   3.841
 5556SOL    HW216973   7.670   1.226   3.896
 5557SOL     OW16974   6.565   3.357   0.492
 5557SOL    HW116975   6.631   3.327   0.555
 5557SOL    HW216976   6.486   3.370   0.545
 5558SOL     OW16977   0.100   4.728   4.720
 5558SOL    HW116978   0.134   4.702   4.806
 5558SOL    HW216979   0.064   4.648   4.683
 5559SOL     OW16980   6.499   5.707   1.092
 5559SOL    HW116981   6.545   5.655   1.158
 5559SOL    HW216982   6.449   5.642   1.042
 5560SOL     OW16983   4.793   2.366   0.906
 5560SOL    HW116984   4.756   2.279   0.920
 5560SOL    HW216985   4.808   2.370   0.812
 5561SOL     OW16986   0.061   5.166   4.823
 5561SOL    HW116987   0.016   5.085   4.845
 5561SOL    HW216988   0.021   5.195   4.741
 5562SOL     OW16989   3.284   1.434   0.530
 5562SOL    HW116990   3.356   1.375   0.552
 5562SOL    HW216991   3.306   1.467   0.443
 5563SOL     OW16992   7.364   2.524   4.128
 5563SOL    HW116993   7.299   2.552   4.193
 5563SOL    HW216994   7.321   2.454   4.079
 5564SOL     OW16995   0.055   2.339   3.459
 5564SOL    HW116996   8.228   2.414   3.476
 5564SOL    HW216997   8.224   2.265   3.453
 5565SOL     OW16998   6.004   8.017   2.205
 5565SOL    HW116999   6.018   7.968   2.286
 5565SOL    HW217000   6.091   8.021   2.165
 5566SOL     OW17001   0.550   5.295   4.492
 5566SOL    HW117002   0.504   5.234   4.434
 5566SOL    HW217003   0.566   5.245   4.572
 5567SOL     OW17004   4.192   3.340   2.443
 5567SOL    HW117005   4.139   3.261   2.455
 5567SOL    HW217006   4.218   3.365   2.532
 5568SOL     OW17007   7.638   0.770   0.695
 5568SOL    HW117008   7.581   0.815   0.758
 5568SOL    HW217009   7.671   0.840   0.639
 5569SOL     OW17010   7.192   4.838   0.558
 5569SOL    HW117011   7.218   4.771   0.622
 5569SOL    HW217012   7.243   4.817   0.480
 5570SOL     OW17013   6.982   4.113   1.571
 5570SOL    HW117014   6.979   4.019   1.587
 5570SOL    HW217015   7.028   4.149   1.647
 5571SOL     OW17016   0.514   6.955   4.002
 5571SOL    HW117017   0.533   6.971   4.094
 5571SOL    HW217018   0.580   7.006   3.954
 5572SOL     OW17019   6.194   2.571   0.978
 5572SOL    HW117020   6.257   2.525   0.923
 5572SOL    HW217021   6.228   2.561   1.067
 5573SOL     OW17022   2.604   6.107   5.786
 5573SOL    HW117023   2.546   6.047   5.739
 5573SOL    HW217024   2.621   6.178   5.724
 5574SOL     OW17025   7.783   4.564   1.375
 5574SOL    HW117026   7.868   4.521   1.365
 5574SOL    HW217027   7.791   4.615   1.455
 5575SOL     OW17028   1.979   5.046   2.266
 5575SOL    HW117029   2.048   4.990   2.301
 5575SOL    HW217030   1.916   5.054   2.338
 5576SOL     OW17031   6.170   4.009   4.218
 5576SOL    HW117032   6.255   4.050   4.236
 5576SOL    HW217033   6.186   3.952   4.143
 5577SOL     OW17034   3.746   0.813   3.158
 5577SOL    HW117035   3.817   0.840   3.100
 5577SOL    HW217036   3.766   0.854   3.242
 5578SOL     OW17037   3.791   6.551   5.526
 5578SOL    HW117038   3.767   6.553   5.619
 5578SOL    HW217039   3.710   6.526   5.481
 5579SOL     OW17040   4.942   1.306   4.255
 5579SOL    HW117041   4.973   1.245   4.323
 5579SOL    HW217042   5.005   1.296   4.184
 5580SOL     OW17043   3.915   2.859   5.468
 5580SOL    HW117044   3.935   2.886   5.558
 5580SOL    HW217045   3.966   2.779   5.456
 5581SOL     OW17046   7.845   3.253   4.399
 5581SOL    HW117047   7.854   3.205   4.317
 5581SOL    HW217048   7.901   3.330   4.388
 5582SOL     OW17049   4.330   6.468   1.533
 5582SOL    HW117050   4.261   6.499   1.474
 5582SOL    HW217051   4.399   6.436   1.474
 5583SOL     OW17052   1.279   7.646   5.251
 5583SOL    HW117053   1.218   7.636   5.178
 5583SOL    HW217054   1.243   7.590   5.320
 5584SOL     OW17055   1.160   3.026   3.410
 5584SOL    HW117056   1.187   2.941   3.445
 5584SOL    HW217057   1.238   3.060   3.367
 5585SOL     OW17058   7.180   1.156   1.249
 5585SOL    HW117059   7.131   1.183   1.171
 5585SOL    HW217060   7.115   1.112   1.304
 5586SOL     OW17061   3.601   5.734   1.177
 5586SOL    HW117062   3.570   5.824   1.164
 5586SOL    HW217063   3.641   5.710   1.094
 5587SOL     OW17064   1.612   2.444   3.400
 5587SOL    HW117065   1.695   2.492   3.400
 5587SOL    HW217066   1.626   2.372   3.461
 5588SOL     OW17067   4.826   6.376   0.993
 5588SOL    HW117068   4.862   6.419   1.071
 5588SOL    HW217069   4.734   6.362   1.014
 5589SOL     OW17070   0.744   3.218   5.184
 5589SOL    HW117071   0.824   3.267   5.205
 5589SOL    HW217072   0.774   3.129   5.168
 5590SOL     OW17073   2.006   2.698   1.711
 5590SOL    HW117074   1.927   2.730   1.754
 5590SOL    HW217075   2.074   2.762   1.734
 5591SOL     OW17076   1.546   6.850   2.889
 5591SOL    HW117077   1.517   6.848   2.980
 5591SOL    HW217078   1.622   6.792   2.887
 5592SOL     OW17079   4.813   2.380   2.621
 5592SOL    HW117080   4.803   2.349   2.531
 5592SOL    HW217081   4.902   2.355   2.645
 5593SOL     OW17082   0.187   2.620   0.480
 5593SOL    HW117083   0.253   2.648   0.416
 5593SOL    HW217084   0.104   2.626   0.433
 5594SOL     OW17085   5.705   2.660   5.586
 5594SOL    HW117086   5.764   2.661   5.511
 5594SOL    HW217087   5.634   2.719   5.561
 5595SOL     OW17088   6.431   6.125   5.689
 5595SOL    HW117089   6.443   6.184   5.615
 5595SOL    HW217090   6.479   6.166   5.761
 5596SOL     OW17091   5.094   6.536   0.880
 5596SOL    HW117092   5.067   6.464   0.937
 5596SOL    HW217093   5.188   6.521   0.866
 5597SOL     OW17094   3.228   2.817   0.247
 5597SOL    HW117095   3.243   2.798   0.339
 5597SOL    HW217096   3.149   2.871   0.247
 5598SOL     OW17097   0.097   4.208   3.578
 5598SOL    HW117098   0.086   4.205   3.673
 5598SOL    HW217099   0.155   4.135   3.558
 5599SOL     OW17100   5.020   6.631   4.960
 5599SOL    HW117101   4.978   6.570   5.020
 5599SOL    HW217102   4.948   6.684   4.925
 5600SOL     OW17103   3.559   7.591   5.477
 5600SOL    HW117104   3.539   7.605   5.570
 5600SOL    HW217105   3.633   7.531   5.477
 5601SOL     OW17106   6.764   1.160   2.030
 5601SOL    HW117107   6.741   1.179   1.939
 5601SOL    HW217108   6.680   1.153   2.075
 5602SOL     OW17109   0.395   1.243   1.804
 5602SOL    HW117110   0.326   1.300   1.839
 5602SOL    HW217111   0.457   1.303   1.762
 5603SOL     OW17112   7.673   7.678   2.022
 5603SOL    HW117113   7.671   7.752   2.083
 5603SOL    HW217114   7.766   7.656   2.014
 5604SOL     OW17115   5.808   2.276   1.626
 5604SOL    HW117116   5.866   2.244   1.695
 5604SOL    HW217117   5.845   2.361   1.601
 5605SOL     OW17118   6.752   0.435   4.700
 5605SOL    HW117119   6.744   0.477   4.786
 5605SOL    HW217120   6.832   0.472   4.663
 5606SOL     OW17121   6.177   8.052   5.385
 5606SOL    HW117122   6.230   8.129   5.405
 5606SOL    HW217123   6.198   8.032   5.294
 5607SOL     OW17124   3.950   4.118   1.592
 5607SOL    HW117125   3.908   4.114   1.678
 5607SOL    HW217126   4.005   4.040   1.588
 5608SOL     OW17127   3.465   1.982   3.367
 5608SOL    HW117128   3.417   1.948   3.291
 5608SOL    HW217129   3.405   1.968   3.441
 5609SOL     OW17130   8.163   6.624   3.164
 5609SOL    HW117131   8.220   6.588   3.232
 5609SOL    HW217132   8.153   6.552   3.101
 5610SOL     OW17133   2.023   4.873   2.715
 5610SOL    HW117134   2.118   4.878   2.704
 5610SOL    HW217135   1.998   4.793   2.668
 5611SOL     OW17136   7.395   7.623   3.385
 5611SOL    HW117137   7.461   7.572   3.339
 5611SOL    HW217138   7.351   7.559   3.441
 5612SOL     OW17139   4.281   4.578   3.041
 5612SOL    HW117140   4.262   4.660   2.995
 5612SOL    HW217141   4.364   4.548   3.004
 5613SOL     OW17142   2.749   0.332   2.845
 5613SOL    HW117143   2.809   0.339   2.770
 5613SOL    HW217144   2.738   0.422   2.876
 5614SOL     OW17145   8.085   1.866   2.473
 5614SOL    HW117146   8.055   1.956   2.485
 5614SOL    HW217147   8.180   1.873   2.465
 5615SOL     OW17148   4.001   0.907   2.073
 5615SOL    HW117149   3.963   0.822   2.094
 5615SOL    HW217150   3.965   0.929   1.987
 5616SOL     OW17151   2.095   5.471   3.571
 5616SOL    HW117152   2.011   5.426   3.580
 5616SOL    HW217153   2.085   5.550   3.625
 5617SOL     OW17154   8.009   0.083   3.334
 5617SOL    HW117155   8.030   0.176   3.336
 5617SOL    HW217156   7.958   0.071   3.254
 5618SOL     OW17157   5.473   8.148   1.886
 5618SOL    HW117158   5.464   8.064   1.841
 5618SOL    HW217159   5.565   8.172   1.875
 5619SOL     OW17160   1.241   6.014   2.610
 5619SOL    HW117161   1.212   5.933   2.652
 5619SOL    HW217162   1.242   6.078   2.681
 5620SOL     OW17163   6.587   0.525   3.180
 5620SOL    HW117164   6.618   0.611   3.152
 5620SOL    HW217165   6.665   0.470   3.179
 5621SOL     OW17166   6.387   3.858   5.365
 5621SOL    HW117167   6.455   3.910   5.408
 5621SOL    HW217168   6.370   3.786   5.426
 5622SOL     OW17169   2.865   0.666   1.262
 5622SOL    HW117170   2.911   0.598   1.311
 5622SOL    HW217171   2.836   0.728   1.329
 5623SOL     OW17172   7.213   4.687   2.427
 5623SOL    HW117173   7.123   4.686   2.394
 5623SOL    HW217174   7.267   4.669   2.350
 5624SOL     OW17175   3.239   0.927   2.950
 5624SOL    HW117176   3.227   0.985   3.025
 5624SOL    HW217177   3.184   0.851   2.969
 5625SOL     OW17178   0.061   4.296   2.810
 5625SOL    HW117179   0.081   4.379   2.854
 5625SOL    HW217180   0.143   4.247   2.812
 5626SOL     OW17181   7.663   5.603   2.114
 5626SOL    HW117182   7.671   5.646   2.029
 5626SOL    HW217183   7.682   5.511   2.097
 5627SOL     OW17184   2.676   6.411   3.157
 5627SOL    HW117185   2.714   6.488   3.201
 5627SOL    HW217186   2.693   6.339   3.217
 5628SOL     OW17187   7.771   5.351   2.332
 5628SOL    HW117188   7.701   5.416   2.326
 5628SOL    HW217189   7.730   5.276   2.374
 5629SOL     OW17190   3.117   6.588   3.921
 5629SOL    HW117191   3.190   6.643   3.949
 5629SOL    HW217192   3.039   6.641   3.936
 5630SOL     OW17193   3.194   2.636   3.143
 5630SOL    HW117194   3.282   2.624   3.106
 5630SOL    HW217195   3.193   2.582   3.222
 5631SOL     OW17196   6.974   0.428   2.712
 5631SOL    HW117197   6.995   0.388   2.796
 5631SOL    HW217198   6.915   0.366   2.669
 5632SOL     OW17199   3.882   2.792   1.466
 5632SOL    HW117200   3.809   2.853   1.475
 5632SOL    HW217201   3.871   2.753   1.379
 5633SOL     OW17202   6.939   3.092   3.675
 5633SOL    HW117203   6.875   3.057   3.737
 5633SOL    HW217204   6.911   3.182   3.660
 5634SOL     OW17205   1.735   3.704   3.604
 5634SOL    HW117206   1.691   3.785   3.630
 5634SOL    HW217207   1.684   3.635   3.647
 5635SOL     OW17208   2.072   6.179   4.947
 5635SOL    HW117209   2.051   6.251   4.888
 5635SOL    HW217210   2.119   6.116   4.892
 5636SOL     OW17211   7.272   4.616   0.697
 5636SOL    HW117212   7.331   4.585   0.628
 5636SOL    HW217213   7.292   4.560   0.772
 5637SOL     OW17214   3.102   7.974   1.368
 5637SOL    HW117215   3.063   8.034   1.431
 5637SOL    HW217216   3.108   7.891   1.415
 5638SOL     OW17217   2.685   0.670   5.564
 5638SOL    HW117218   2.712   0.755   5.530
 5638SOL    HW217219   2.714   0.607   5.498
 5639SOL     OW17220   0.764   5.550   4.888
 5639SOL    HW117221   0.852   5.513   4.898
 5639SOL    HW217222   0.708   5.494   4.942
 5640SOL     OW17223   4.903   3.329   3.537
 5640SOL    HW117224   4.826   3.314   3.591
 5640SOL    HW217225   4.949   3.245   3.536
 5641SOL     OW17226   1.556   7.221   0.912
 5641SOL    HW117227   1.582   7.135   0.879
 5641SOL    HW217228   1.465   7.231   0.885
 5642SOL     OW17229   6.509   0.882   4.204
 5642SOL    HW117230   6.436   0.920   4.253
 5642SOL    HW217231   6.471   0.857   4.120
 5643SOL     OW17232   8.056   3.033   5.020
 5643SOL    HW117233   7.962   3.047   5.011
 5643SOL    HW217234   8.085   3.103   5.078
 5644SOL     OW17235   6.984   0.720   2.762
 5644SOL    HW117236   6.902   0.690   2.802
 5644SOL    HW217237   7.045   0.648   2.776
 5645SOL     OW17238   5.062   1.390   3.078
 5645SOL    HW117239   5.109   1.314   3.044
 5645SOL    HW217240   5.023   1.431   3.001
 5646SOL     OW17241   2.380   7.653   1.913
 5646SOL    HW117242   2.407   7.724   1.971
 5646SOL    HW217243   2.287   7.670   1.896
 5647SOL     OW17244   4.962   3.237   4.071
 5647SOL    HW117245   5.036   3.234   4.010
 5647SOL    HW217246   4.887   3.206   4.020
 5648SOL     OW17247   3.418   5.010   1.109
 5648SOL    HW117248   3.334   5.034   1.149
 5648SOL    HW217249   3.455   5.093   1.079
 5649SOL     OW17250   6.650   7.911   1.903
 5649SOL    HW117251   6.714   7.982   1.904
 5649SOL    HW217252   6.693   7.839   1.949
 5650SOL     OW17253   2.042   7.191   3.729
 5650SOL    HW117254   2.107   7.122   3.745
 5650SOL    HW217255   2.063   7.258   3.794
 5651SOL     OW17256   2.855   6.220   1.283
 5651SOL    HW117257   2.814   6.265   1.210
 5651SOL    HW217258   2.902   6.289   1.331
 5652SOL     OW17259   0.854   4.918   2.602
 5652SOL    HW117260   0.832   4.827   2.580
 5652SOL    HW217261   0.781   4.969   2.568
 5653SOL     OW17262   2.783   2.180   1.398
 5653SOL    HW117263   2.758   2.089   1.383
 5653SOL    HW217264   2.821   2.180   1.486
 5654SOL     OW17265   6.837   7.597   0.122
 5654SOL    HW117266   6.822   7.620   0.214
 5654SOL    HW217267   6.932   7.588   0.115
 5655SOL     OW17268   6.889   1.482   2.787
 5655SOL    HW117269   6.807   1.505   2.742
 5655SOL    HW217270   6.883   1.388   2.801
 5656SOL     OW17271   4.982   2.713   5.141
 5656SOL    HW117272   5.054   2.776   5.142
 5656SOL    HW217273   4.919   2.748   5.204
 5657SOL     OW17274   8.032   4.922   2.729
 5657SOL    HW117275   7.951   4.924   2.678
 5657SOL    HW217276   8.041   5.011   2.764
 5658SOL     OW17277   4.935   3.422   1.545
 5658SOL    HW117278   4.955   3.329   1.532
 5658SOL    HW217279   5.000   3.468   1.491
 5659SOL     OW17280   4.488   6.340   4.835
 5659SOL    HW117281   4.474   6.275   4.904
 5659SOL    HW217282   4.479   6.424   4.879
 5660SOL     OW17283   2.748   1.690   1.743
 5660SOL    HW117284   2.757   1.673   1.649
 5660SOL    HW217285   2.668   1.643   1.768
 5661SOL     OW17286   3.298   0.587   0.083
 5661SOL    HW117287   3.349   0.587   0.002
 5661SOL    HW217288   3.325   0.507   0.129
 5662SOL     OW17289   5.925   6.315   1.775
 5662SOL    HW117290   5.969   6.231   1.763
 5662SOL    HW217291   5.993   6.373   1.810
 5663SOL     OW17292   4.670   5.939   4.570
 5663SOL    HW117293   4.669   6.029   4.603
 5663SOL    HW217294   4.663   5.885   4.649
 5664SOL     OW17295   2.664   2.137   3.922
 5664SOL    HW117296   2.605   2.191   3.975
 5664SOL    HW217297   2.670   2.184   3.839
 5665SOL     OW17298   0.013   4.953   1.468
 5665SOL    HW117299   0.053   5.033   1.503
 5665SOL    HW217300   0.044   4.884   1.526
 5666SOL     OW17301   0.422   1.499   0.755
 5666SOL    HW117302   0.377   1.451   0.686
 5666SOL    HW217303   0.447   1.582   0.715
 5667SOL     OW17304   0.618   4.529   1.779
 5667SOL    HW117305   0.657   4.503   1.862
 5667SOL    HW217306   0.550   4.463   1.763
 5668SOL     OW17307   1.847   4.007   1.103
 5668SOL    HW117308   1.797   4.018   1.184
 5668SOL    HW217309   1.785   4.027   1.033
 5669SOL     OW17310   2.366   3.707   5.225
 5669SOL    HW117311   2.370   3.612   5.233
 5669SOL    HW217312   2.272   3.727   5.225
 5670SOL     OW17313   3.914   7.912   3.949
 5670SOL    HW117314   3.843   7.965   3.912
 5670SOL    HW217315   3.929   7.950   4.036
 5671SOL     OW17316   6.141   7.312   5.330
 5671SOL    HW117317   6.095   7.334   5.411
 5671SOL    HW217318   6.133   7.217   5.322
 5672SOL     OW17319   8.005   7.607   5.083
 5672SOL    HW117320   7.917   7.640   5.101
 5672SOL    HW217321   8.054   7.625   5.163
 5673SOL     OW17322   3.106   1.187   1.395
 5673SOL    HW117323   3.120   1.092   1.401
 5673SOL    HW217324   3.060   1.209   1.476
 5674SOL     OW17325   2.053   6.514   5.211
 5674SOL    HW117326   2.042   6.604   5.180
 5674SOL    HW217327   2.120   6.520   5.279
 5675SOL     OW17328   5.732   4.566   1.417
 5675SOL    HW117329   5.727   4.644   1.472
 5675SOL    HW217330   5.802   4.514   1.457
 5676SOL     OW17331   6.414   4.327   5.303
 5676SOL    HW117332   6.403   4.245   5.350
 5676SOL    HW217333   6.349   4.386   5.342
 5677SOL     OW17334   5.246   4.041   3.078
 5677SOL    HW117335   5.206   4.085   3.003
 5677SOL    HW217336   5.316   3.988   3.040
 5678SOL     OW17337   3.724   0.595   2.633
 5678SOL    HW117338   3.707   0.597   2.727
 5678SOL    HW217339   3.791   0.661   2.619
 5679SOL     OW17340   2.568   0.545   4.672
 5679SOL    HW117341   2.630   0.591   4.615
 5679SOL    HW217342   2.541   0.469   4.621
 5680SOL     OW17343   1.313   6.212   0.297
 5680SOL    HW117344   1.219   6.195   0.292
 5680SOL    HW217345   1.331   6.218   0.391
 5681SOL     OW17346   1.555   6.654   2.112
 5681SOL    HW117347   1.546   6.729   2.171
 5681SOL    HW217348   1.502   6.585   2.152
 5682SOL     OW17349   1.822   1.667   4.306
 5682SOL    HW117350   1.803   1.734   4.241
 5682SOL    HW217351   1.737   1.647   4.346
 5683SOL     OW17352   5.271   2.468   4.479
 5683SOL    HW117353   5.315   2.398   4.430
 5683SOL    HW217354   5.195   2.490   4.426
 5684SOL     OW17355   3.320   6.599   1.693
 5684SOL    HW117356   3.292   6.689   1.674
 5684SOL    HW217357   3.270   6.545   1.632
 5685SOL     OW17358   5.392   7.975   2.624
 5685SOL    HW117359   5.431   7.954   2.539
 5685SOL    HW217360   5.438   8.053   2.653
 5686SOL     OW17361   3.711   5.969   5.411
 5686SOL    HW117362   3.650   6.042   5.411
 5686SOL    HW217363   3.671   5.904   5.353
 5687SOL     OW17364   7.634   8.217   3.059
 5687SOL    HW117365   7.624   8.125   3.033
 5687SOL    HW217366   7.610   8.219   3.152
 5688SOL     OW17367   1.914   7.968   2.999
 5688SOL    HW117368   1.953   7.881   3.005
 5688SOL    HW217369   1.825   7.953   2.968
 5689SOL     OW17370   5.351   7.688   1.620
 5689SOL    HW117371   5.325   7.603   1.655
 5689SOL    HW217372   5.407   7.726   1.687
 5690SOL     OW17373   2.233   0.983   4.998
 5690SOL    HW117374   2.198   0.894   4.999
 5690SOL    HW217375   2.206   1.019   4.914
 5691SOL     OW17376   2.037   0.989   1.234
 5691SOL    HW117377   2.000   0.915   1.283
 5691SOL    HW217378   2.106   1.023   1.290
 5692SOL     OW17379   6.959   4.343   3.276
 5692SOL    HW117380   7.021   4.326   3.347
 5692SOL    HW217381   6.891   4.277   3.286
 5693SOL     OW17382   7.673   2.520   3.433
 5693SOL    HW117383   7.597   2.522   3.491
 5693SOL    HW217384   7.748   2.537   3.490
 5694SOL     OW17385   0.182   8.190   1.883
 5694SOL    HW117386   0.212   8.162   1.969
 5694SOL    HW217387   0.169   8.109   1.834
 5695SOL     OW17388   6.105   3.885   4.921
 5695SOL    HW117389   6.060   3.808   4.887
 5695SOL    HW217390   6.169   3.850   4.983
 5696SOL     OW17391   1.340   5.459   1.139
 5696SOL    HW117392   1.407   5.400   1.174
 5696SOL    HW217393   1.267   5.401   1.115
 5697SOL     OW17394   0.029   3.874   0.865
 5697SOL    HW117395   8.191   3.904   0.804
 5697SOL    HW217396   0.012   3.780   0.876
 5698SOL     OW17397   5.849   7.050   2.011
 5698SOL    HW117398   5.777   6.995   1.981
 5698SOL    HW217399   5.887   7.085   1.931
 5699SOL     OW17400   4.030   4.276   2.644
 5699SOL    HW117401   3.983   4.257   2.562
 5699SOL    HW217402   3.975   4.238   2.712
 5700SOL     OW17403   0.251   5.557   4.032
 5700SOL    HW117404   0.246   5.482   4.092
 5700SOL    HW217405   0.220   5.631   4.084
 5701SOL     OW17406   2.018   4.687   4.640
 5701SOL    HW117407   1.944   4.705   4.698
 5701SOL    HW217408   1.981   4.692   4.552
 5702SOL     OW17409   3.555   6.454   5.150
 5702SOL    HW117410   3.529   6.515   5.081
 5702SOL    HW217411   3.644   6.481   5.173
 5703SOL     OW17412   3.819   5.504   4.162
 5703SOL    HW117413   3.799   5.492   4.069
 5703SOL    HW217414   3.783   5.426   4.205
 5704SOL     OW17415   0.424   0.452   4.337
 5704SOL    HW117416   0.377   0.430   4.257
 5704SOL    HW217417   0.357   0.450   4.406
 5705SOL     OW17418   5.650   3.230   3.181
 5705SOL    HW117419   5.575   3.188   3.223
 5705SOL    HW217420   5.725   3.176   3.207
 5706SOL     OW17421   5.077   4.174   0.416
 5706SOL    HW117422   4.988   4.165   0.449
 5706SOL    HW217423   5.092   4.269   0.415
 5707SOL     OW17424   6.415   5.691   0.042
 5707SOL    HW117425   6.472   5.764   0.018
 5707SOL    HW217426   6.439   5.671   0.133
 5708SOL     OW17427   4.775   4.562   4.787
 5708SOL    HW117428   4.714   4.579   4.715
 5708SOL    HW217429   4.854   4.529   4.744
 5709SOL     OW17430   5.558   4.703   4.982
 5709SOL    HW117431   5.547   4.794   4.953
 5709SOL    HW217432   5.483   4.657   4.945
 5710SOL     OW17433   6.079   6.346   0.433
 5710SOL    HW117434   6.046   6.432   0.458
 5710SOL    HW217435   6.124   6.360   0.350
 5711SOL     OW17436   7.774   1.966   2.221
 5711SOL    HW117437   7.721   2.026   2.168
 5711SOL    HW217438   7.715   1.936   2.290
 5712SOL     OW17439   5.634   0.651   0.447
 5712SOL    HW117440   5.592   0.568   0.424
 5712SOL    HW217441   5.647   0.646   0.542
 5713SOL     OW17442   2.811   4.778   1.617
 5713SOL    HW117443   2.766   4.714   1.562
 5713SOL    HW217444   2.784   4.863   1.583
 5714SOL     OW17445   2.230   3.027   2.086
 5714SOL    HW117446   2.253   3.070   2.168
 5714SOL    HW217447   2.313   3.016   2.040
 5715SOL     OW17448   1.955   0.694   0.593
 5715SOL    HW117449   2.048   0.699   0.573
 5715SOL    HW217450   1.951   0.655   0.680
 5716SOL     OW17451   6.566   7.400   2.073
 5716SOL    HW117452   6.599   7.352   1.997
 5716SOL    HW217453   6.472   7.385   2.072
 5717SOL     OW17454   0.274   1.525   3.875
 5717SOL    HW117455   0.288   1.596   3.812
 5717SOL    HW217456   0.360   1.485   3.885
 5718SOL     OW17457   7.258   7.971   1.726
 5718SOL    HW117458   7.205   7.908   1.677
 5718SOL    HW217459   7.346   7.933   1.727
 5719SOL     OW17460   5.567   2.731   0.323
 5719SOL    HW117461   5.472   2.722   0.323
 5719SOL    HW217462   5.585   2.799   0.258
 5720SOL     OW17463   1.566   3.204   0.579
 5720SOL    HW117464   1.489   3.236   0.533
 5720SOL    HW217465   1.607   3.283   0.615
 5721SOL     OW17466   2.671   3.445   0.033
 5721SOL    HW117467   2.594   3.421   0.084
 5721SOL    HW217468   6.760   7.543   5.761
 5722SOL     OW17469   0.315   3.892   4.989
 5722SOL    HW117470   0.401   3.868   4.954
 5722SOL    HW217471   0.314   3.988   4.988
 5723SOL     OW17472   6.989   0.388   5.489
 5723SOL    HW117473   6.970   0.298   5.516
 5723SOL    HW217474   7.053   0.379   5.418
 5724SOL     OW17475   0.608   6.864   2.825
 5724SOL    HW117476   0.651   6.820   2.898
 5724SOL    HW217477   0.680   6.888   2.766
 5725SOL     OW17478   1.478   1.889   4.083
 5725SOL    HW117479   1.562   1.844   4.077
 5725SOL    HW217480   1.483   1.959   4.018
 5726SOL     OW17481   0.131   4.671   3.462
 5726SOL    HW117482   0.066   4.618   3.509
 5726SOL    HW217483   0.095   4.679   3.374
 5727SOL     OW17484   1.469   4.189   2.707
 5727SOL    HW117485   1.378   4.193   2.737
 5727SOL    HW217486   1.475   4.257   2.639
 5728SOL     OW17487   4.985   3.290   2.638
 5728SOL    HW117488   5.067   3.251   2.609
 5728SOL    HW217489   5.011   3.350   2.708
 5729SOL     OW17490   2.016   2.078   2.407
 5729SOL    HW117491   2.009   2.087   2.502
 5729SOL    HW217492   2.101   2.116   2.386
 5730SOL     OW17493   5.257   8.133   3.128
 5730SOL    HW117494   5.251   8.137   3.033
 5730SOL    HW217495   5.202   8.206   3.158
 5731SOL     OW17496   2.392   2.404   3.624
 5731SOL    HW117497   2.430   2.492   3.621
 5731SOL    HW217498   2.467   2.345   3.619
 5732SOL     OW17499   6.012   1.933   4.365
 5732SOL    HW117500   5.951   1.996   4.405
 5732SOL    HW217501   5.975   1.915   4.279
 5733SOL     OW17502   0.168   4.191   0.079
 5733SOL    HW117503   0.099   4.251   0.051
 5733SOL    HW217504   0.249   4.229   0.044
 5734SOL     OW17505   3.941   6.294   2.950
 5734SOL    HW117506   3.978   6.342   3.025
 5734SOL    HW217507   3.949   6.202   2.974
 5735SOL     OW17508   6.920   3.497   0.750
 5735SOL    HW117509   6.983   3.569   0.746
 5735SOL    HW217510   6.869   3.505   0.670
 5736SOL     OW17511   0.364   2.572   5.437
 5736SOL    HW117512   0.405   2.486   5.427
 5736SOL    HW217513   0.270   2.554   5.442
 5737SOL     OW17514   2.853   5.758   5.732
 5737SOL    HW117515   2.777   5.803   5.770
 5737SOL    HW217516   2.927   5.786   5.786
 5738SOL     OW17517   1.021   0.322   5.568
 5738SOL    HW117518   0.956   0.389   5.588
 5738SOL    HW217519   0.983   0.273   5.495
 5739SOL     OW17520   0.672   5.780   3.568
 5739SOL    HW117521   0.600   5.820   3.617
 5739SOL    HW217522   0.692   5.700   3.617
 5740SOL     OW17523   5.738   5.642   3.639
 5740SOL    HW117524   5.706   5.691   3.715
 5740SOL    HW217525   5.732   5.550   3.666
 5741SOL     OW17526   8.197   2.049   3.845
 5741SOL    HW117527   8.121   1.991   3.853
 5741SOL    HW217528   0.035   2.009   3.900
 5742SOL     OW17529   5.299   2.490   2.486
 5742SOL    HW117530   5.342   2.496   2.401
 5742SOL    HW217531   5.244   2.412   2.480
 5743SOL     OW17532   5.539   4.198   0.515
 5743SOL    HW117533   5.479   4.269   0.494
 5743SOL    HW217534   5.556   4.156   0.431
 5744SOL     OW17535   3.406   3.806   0.079
 5744SOL    HW117536   7.472   7.934   5.817
 5744SOL    HW217537   3.339   3.786   0.144
 5745SOL     OW17538   0.716   4.340   2.929
 5745SOL    HW117539   0.775   4.316   3.001
 5745SOL    HW217540   0.641   4.281   2.938
 5746SOL     OW17541   6.402   6.274   1.337
 5746SOL    HW117542   6.446   6.355   1.365
 5746SOL    HW217543   6.433   6.208   1.399
 5747SOL     OW17544   4.582   4.864   3.561
 5747SOL    HW117545   4.618   4.886   3.475
 5747SOL    HW217546   4.593   4.944   3.612
 5748SOL     OW17547   6.973   5.024   5.333
 5748SOL    HW117548   6.890   4.982   5.308
 5748SOL    HW217549   6.985   5.094   5.268
 5749SOL     OW17550   5.003   7.498   5.070
 5749SOL    HW117551   4.924   7.472   5.117
 5749SOL    HW217552   5.072   7.495   5.136
 5750SOL     OW17553   3.750   7.957   3.329
 5750SOL    HW117554   3.792   7.935   3.412
 5750SOL    HW217555   3.665   7.994   3.354
 5751SOL     OW17556   0.828   6.583   1.324
 5751SOL    HW117557   0.742   6.587   1.283
 5751SOL    HW217558   0.832   6.662   1.379
 5752SOL     OW17559   2.348   0.283   5.222
 5752SOL    HW117560   2.443   0.292   5.228
 5752SOL    HW217561   2.332   0.189   5.226
 5753SOL     OW17562   6.383   5.329   1.076
 5753SOL    HW117563   6.470   5.292   1.090
 5753SOL    HW217564   6.337   5.316   1.159
 5754SOL     OW17565   6.726   4.406   1.102
 5754SOL    HW117566   6.657   4.366   1.155
 5754SOL    HW217567   6.794   4.430   1.165
 5755SOL     OW17568   0.087   2.630   2.169
 5755SOL    HW117569   0.041   2.682   2.235
 5755SOL    HW217570   0.094   2.688   2.093
 5756SOL     OW17571   5.948   3.938   0.075
 5756SOL    HW117572   5.917   3.990   0.149
 5756SOL    HW217573   5.896   3.969   0.001
 5757SOL     OW17574   2.245   2.405   2.012
 5757SOL    HW117575   2.223   2.399   1.919
 5757SOL    HW217576   2.162   2.388   2.057
 5758SOL     OW17577   7.198   2.567   1.727
 5758SOL    HW117578   7.254   2.585   1.652
 5758SOL    HW217579   7.151   2.487   1.703
 5759SOL     OW17580   7.212   1.536   5.684
 5759SOL    HW117581   7.206   1.592   5.607
 5759SOL    HW217582   7.272   1.583   5.743
 5760SOL     OW17583   7.610   6.603   5.081
 5760SOL    HW117584   7.544   6.535   5.094
 5760SOL    HW217585   7.678   6.582   5.145
 5761SOL     OW17586   3.469   8.195   1.800
 5761SOL    HW117587   3.399   8.187   1.736
 5761SOL    HW217588   3.479   0.060   1.813
 5762SOL     OW17589   8.031   0.759   2.630
 5762SOL    HW117590   8.086   0.694   2.586
 5762SOL    HW217591   8.065   0.763   2.719
 5763SOL     OW17592   7.200   1.788   4.321
 5763SOL    HW117593   7.222   1.722   4.255
 5763SOL    HW217594   7.108   1.771   4.342
 5764SOL     OW17595   4.829   5.427   2.755
 5764SOL    HW117596   4.818   5.433   2.660
 5764SOL    HW217597   4.845   5.517   2.783
 5765SOL     OW17598   1.940   2.351   1.548
 5765SOL    HW117599   1.976   2.268   1.516
 5765SOL    HW217600   1.964   2.415   1.481
 5766SOL     OW17601   0.842   7.692   0.647
 5766SOL    HW117602   0.926   7.732   0.669
 5766SOL    HW217603   0.787   7.707   0.724
 5767SOL     OW17604   2.553   1.624   3.138
 5767SOL    HW117605   2.458   1.616   3.144
 5767SOL    HW217606   2.572   1.612   3.045
 5768SOL     OW17607   2.307   4.440   4.886
 5768SOL    HW117608   2.270   4.526   4.905
 5768SOL    HW217609   2.375   4.428   4.953
 5769SOL     OW17610   5.035   6.997   4.556
 5769SOL    HW117611   5.048   7.067   4.619
 5769SOL    HW217612   5.074   6.920   4.598
 5770SOL     OW17613   2.592   2.758   4.022
 5770SOL    HW117614   2.540   2.810   4.083
 5770SOL    HW217615   2.611   2.818   3.950
 5771SOL     OW17616   6.689   6.361   0.407
 5771SOL    HW117617   6.599   6.369   0.439
 5771SOL    HW217618   6.680   6.337   0.315
 5772SOL     OW17619   2.550   3.099   3.954
 5772SOL    HW117620   2.547   3.077   4.047
 5772SOL    HW217621   2.633   3.145   3.943
 5773SOL     OW17622   0.050   7.359   5.761
 5773SOL    HW117623   0.069   7.370   5.668
 5773SOL    HW217624   8.184   7.360   5.767
 5774SOL     OW17625   7.822   6.950   5.165
 5774SOL    HW117626   7.730   6.923   5.167
 5774SOL    HW217627   7.866   6.888   5.223
 5775SOL     OW17628   3.320   6.972   4.826
 5775SOL    HW117629   3.229   7.001   4.827
 5775SOL    HW217630   3.366   7.035   4.881
 5776SOL     OW17631   0.113   2.122   0.979
 5776SOL    HW117632   0.197   2.123   1.024
 5776SOL    HW217633   0.060   2.188   1.024
 5777SOL     OW17634   3.022   6.910   1.752
 5777SOL    HW117635   2.977   6.854   1.689
 5777SOL    HW217636   2.961   6.983   1.766
 5778SOL     OW17637   5.910   2.509   0.990
 5778SOL    HW117638   5.923   2.498   1.084
 5778SOL    HW217639   5.992   2.548   0.959
 5779SOL     OW17640   6.201   5.172   2.930
 5779SOL    HW117641   6.121   5.211   2.965
 5779SOL    HW217642   6.174   5.087   2.895
 5780SOL     OW17643   0.952   0.974   4.770
 5780SOL    HW117644   0.971   0.885   4.740
 5780SOL    HW217645   0.919   1.019   4.692
 5781SOL     OW17646   0.954   6.372   1.211
 5781SOL    HW117647   0.919   6.287   1.238
 5781SOL    HW217648   0.895   6.436   1.251
 5782SOL     OW17649   1.190   2.924   0.049
 5782SOL    HW117650   1.179   2.988   0.119
 5782SOL    HW217651   1.180   2.839   0.092
 5783SOL     OW17652   8.198   7.736   4.927
 5783SOL    HW117653   8.133   7.719   4.995
 5783SOL    HW217654   8.154   7.712   4.845
 5784SOL     OW17655   2.241   7.149   0.499
 5784SOL    HW117656   2.311   7.169   0.437
 5784SOL    HW217657   2.194   7.075   0.460
 5785SOL     OW17658   8.168   5.144   5.325
 5785SOL    HW117659   8.145   5.117   5.414
 5785SOL    HW217660   8.084   5.150   5.280
 5786SOL     OW17661   6.765   6.564   4.590
 5786SOL    HW117662   6.802   6.610   4.514
 5786SOL    HW217663   6.828   6.494   4.608
 5787SOL     OW17664   0.464   3.236   2.658
 5787SOL    HW117665   0.492   3.194   2.739
 5787SOL    HW217666   0.468   3.330   2.677
 5788SOL     OW17667   4.080   3.260   2.023
 5788SOL    HW117668   4.025   3.277   1.947
 5788SOL    HW217669   4.035   3.304   2.095
 5789SOL     OW17670   2.627   1.922   5.328
 5789SOL    HW117671   2.537   1.894   5.312
 5789SOL    HW217672   2.625   1.963   5.414
 5790SOL     OW17673   0.369   1.015   2.476
 5790SOL    HW117674   0.371   1.092   2.419
 5790SOL    HW217675   0.460   0.987   2.481
 5791SOL     OW17676   0.657   1.978   2.979
 5791SOL    HW117677   0.626   2.031   2.906
 5791SOL    HW217678   0.688   1.897   2.938
 5792SOL     OW17679   2.404   5.631   4.504
 5792SOL    HW117680   2.456   5.585   4.570
 5792SOL    HW217681   2.371   5.562   4.447
 5793SOL     OW17682   7.933   3.575   0.473
 5793SOL    HW117683   7.927   3.653   0.528
 5793SOL    HW217684   7.902   3.604   0.387
 5794SOL     OW17685   7.151   6.895   4.456
 5794SOL    HW117686   7.227   6.919   4.403
 5794SOL    HW217687   7.187   6.877   4.543
 5795SOL     OW17688   1.598   1.724   2.096
 5795SOL    HW117689   1.593   1.740   2.002
 5795SOL    HW217690   1.654   1.647   2.105
 5796SOL     OW17691   1.009   7.037   3.049
 5796SOL    HW117692   1.013   7.032   2.953
 5796SOL    HW217693   0.979   6.951   3.077
 5797SOL     OW17694   5.374   5.004   5.553
 5797SOL    HW117695   5.446   5.033   5.497
 5797SOL    HW217696   5.333   4.933   5.504
 5798SOL     OW17697   6.236   4.900   3.824
 5798SOL    HW117698   6.268   4.945   3.746
 5798SOL    HW217699   6.315   4.884   3.876
 5799SOL     OW17700   1.975   5.576   4.166
 5799SOL    HW117701   1.947   5.624   4.244
 5799SOL    HW217702   2.065   5.550   4.185
 5800SOL     OW17703   2.191   7.357   4.700
 5800SOL    HW117704   2.099   7.383   4.696
 5800SOL    HW217705   2.207   7.312   4.617
 5801SOL     OW17706   3.641   6.909   3.177
 5801SOL    HW117707   3.555   6.867   3.184
 5801SOL    HW217708   3.670   6.921   3.267
 5802SOL     OW17709   1.108   0.831   1.080
 5802SOL    HW117710   1.092   0.827   0.986
 5802SOL    HW217711   1.063   0.911   1.109
 5803SOL     OW17712   7.701   6.609   3.213
 5803SOL    HW117713   7.665   6.577   3.296
 5803SOL    HW217714   7.658   6.693   3.199
 5804SOL     OW17715   7.903   4.232   1.827
 5804SOL    HW117716   7.972   4.194   1.881
 5804SOL    HW217717   7.921   4.199   1.739
 5805SOL     OW17718   1.394   3.905   3.016
 5805SOL    HW117719   1.470   3.921   3.072
 5805SOL    HW217720   1.417   3.827   2.966
 5806SOL     OW17721   7.918   1.658   5.369
 5806SOL    HW117722   7.983   1.688   5.305
 5806SOL    HW217723   7.835   1.663   5.322
 5807SOL     OW17724   0.406   3.492   4.736
 5807SOL    HW117725   0.389   3.443   4.816
 5807SOL    HW217726   0.381   3.582   4.756
 5808SOL     OW17727   1.522   7.642   3.118
 5808SOL    HW117728   1.572   7.669   3.041
 5808SOL    HW217729   1.525   7.718   3.176
 5809SOL     OW17730   3.867   5.446   1.793
 5809SOL    HW117731   3.899   5.496   1.868
 5809SOL    HW217732   3.833   5.365   1.831
 5810SOL     OW17733   6.163   1.522   5.611
 5810SOL    HW117734   6.236   1.559   5.661
 5810SOL    HW217735   6.102   1.595   5.599
 5811SOL     OW17736   6.544   5.981   1.986
 5811SOL    HW117737   6.524   5.901   2.034
 5811SOL    HW217738   6.514   5.963   1.897
 5812SOL     OW17739   7.185   7.604   1.383
 5812SOL    HW117740   7.108   7.655   1.410
 5812SOL    HW217741   7.258   7.648   1.426
 5813SOL     OW17742   0.953   7.393   3.703
 5813SOL    HW117743   0.954   7.485   3.731
 5813SOL    HW217744   0.979   7.344   3.781
 5814SOL     OW17745   6.633   5.217   0.619
 5814SOL    HW117746   6.592   5.133   0.640
 5814SOL    HW217747   6.695   5.196   0.549
 5815SOL     OW17748   3.260   7.049   0.228
 5815SOL    HW117749   3.317   7.123   0.248
 5815SOL    HW217750   3.320   6.978   0.207
 5816SOL     OW17751   2.685   6.035   4.179
 5816SOL    HW117752   2.710   6.082   4.258
 5816SOL    HW217753   2.666   5.946   4.209
 5817SOL     OW17754   3.405   5.538   0.365
 5817SOL    HW117755   3.426   5.586   0.445
 5817SOL    HW217756   3.408   5.446   0.391
 5818SOL     OW17757   6.686   3.148   1.021
 5818SOL    HW117758   6.602   3.151   1.067
 5818SOL    HW217759   6.728   3.231   1.042
 5819SOL     OW17760   0.024   0.239   5.234
 5819SOL    HW117761   0.055   0.328   5.249
 5819SOL    HW217762   0.060   0.188   5.307
 5820SOL     OW17763   4.869   5.377   4.669
 5820SOL    HW117764   4.799   5.318   4.695
 5820SOL    HW217765   4.843   5.462   4.704
 5821SOL     OW17766   4.851   2.868   1.404
 5821SOL    HW117767   4.929   2.903   1.447
 5821SOL    HW217768   4.882   2.789   1.360
 5822SOL     OW17769   7.523   6.529   2.286
 5822SOL    HW117770   7.506   6.620   2.311
 5822SOL    HW217771   7.438   6.495   2.259
 5823SOL     OW17772   3.695   2.213   5.262
 5823SOL    HW117773   3.682   2.302   5.295
 5823SOL    HW217774   3.788   2.196   5.276
 5824SOL     OW17775   2.311   3.128   0.507
 5824SOL    HW117776   2.334   3.152   0.417
 5824SOL    HW217777   2.254   3.052   0.497
 5825SOL     OW17778   6.698   3.881   0.767
 5825SOL    HW117779   6.616   3.929   0.757
 5825SOL    HW217780   6.766   3.945   0.744
 5826SOL     OW17781   1.003   3.113   1.352
 5826SOL    HW117782   0.997   3.022   1.323
 5826SOL    HW217783   0.998   3.164   1.271
 5827SOL     OW17784   3.583   0.455   3.592
 5827SOL    HW117785   3.634   0.513   3.649
 5827SOL    HW217786   3.522   0.513   3.547
 5828SOL     OW17787   7.358   4.058   1.575
 5828SOL    HW117788   7.282   4.113   1.594
 5828SOL    HW217789   7.418   4.116   1.528
 5829SOL     OW17790   5.578   7.479   4.755
 5829SOL    HW117791   5.504   7.422   4.775
 5829SOL    HW217792   5.571   7.497   4.661
 5830SOL     OW17793   5.792   3.911   0.809
 5830SOL    HW117794   5.713   3.883   0.855
 5830SOL    HW217795   5.854   3.932   0.879
 5831SOL     OW17796   5.727   5.657   5.293
 5831SOL    HW117797   5.798   5.678   5.232
 5831SOL    HW217798   5.679   5.739   5.304
 5832SOL     OW17799   0.139   2.268   4.148
 5832SOL    HW117800   0.078   2.342   4.147
 5832SOL    HW217801   0.113   2.217   4.225
 5833SOL     OW17802   7.684   0.203   5.357
 5833SOL    HW117803   7.675   0.266   5.285
 5833SOL    HW217804   7.627   0.237   5.426
 5834SOL     OW17805   1.577   3.466   3.700
 5834SOL    HW117806   1.597   3.504   3.786
 5834SOL    HW217807   1.481   3.468   3.695
 5835SOL     OW17808   6.941   5.588   1.436
 5835SOL    HW117809   6.918   5.517   1.495
 5835SOL    HW217810   6.894   5.568   1.355
 5836SOL     OW17811   2.476   5.545   1.930
 5836SOL    HW117812   2.568   5.527   1.913
 5836SOL    HW217813   2.477   5.617   1.994
 5837SOL     OW17814   5.234   8.186   3.454
 5837SOL    HW117815   5.171   8.208   3.385
 5837SOL    HW217816   5.237   0.035   3.509
 5838SOL     OW17817   6.807   2.001   1.645
 5838SOL    HW117818   6.820   2.060   1.571
 5838SOL    HW217819   6.866   2.034   1.713
 5839SOL     OW17820   8.221   6.839   2.619
 5839SOL    HW117821   8.199   6.748   2.598
 5839SOL    HW217822   8.221   6.884   2.535
 5840SOL     OW17823   3.090   4.420   1.821
 5840SOL    HW117824   3.034   4.397   1.747
 5840SOL    HW217825   3.151   4.347   1.829
 5841SOL     OW17826   7.288   6.764   1.008
 5841SOL    HW117827   7.328   6.849   0.988
 5841SOL    HW217828   7.318   6.745   1.097
 5842SOL     OW17829   1.356   5.427   1.547
 5842SOL    HW117830   1.370   5.510   1.593
 5842SOL    HW217831   1.262   5.411   1.552
 5843SOL     OW17832   3.025   4.411   2.554
 5843SOL    HW117833   3.012   4.337   2.613
 5843SOL    HW217834   3.070   4.373   2.478
 5844SOL     OW17835   7.164   7.532   2.635
 5844SOL    HW117836   7.093   7.592   2.612
 5844SOL    HW217837   7.162   7.528   2.731
 5845SOL     OW17838   4.741   6.815   4.923
 5845SOL    HW117839   4.791   6.862   4.990
 5845SOL    HW217840   4.651   6.813   4.956
 5846SOL     OW17841   5.658   8.041   3.909
 5846SOL    HW117842   5.684   8.030   4.001
 5846SOL    HW217843   5.629   8.132   3.903
 5847SOL     OW17844   7.500   1.424   2.118
 5847SOL    HW117845   7.411   1.432   2.083
 5847SOL    HW217846   7.495   1.463   2.205
 5848SOL     OW17847   3.673   2.029   0.657
 5848SOL    HW117848   3.755   2.030   0.608
 5848SOL    HW217849   3.695   2.067   0.742
 5849SOL     OW17850   6.426   0.159   5.072
 5849SOL    HW117851   6.405   0.078   5.119
 5849SOL    HW217852   6.461   0.217   5.139
 5850SOL     OW17853   8.038   1.430   5.545
 5850SOL    HW117854   8.082   1.427   5.460
 5850SOL    HW217855   7.952   1.468   5.527
 5851SOL     OW17856   6.605   7.773   2.619
 5851SOL    HW117857   6.579   7.849   2.671
 5851SOL    HW217858   6.662   7.809   2.551
 5852SOL     OW17859   1.246   3.587   1.903
 5852SOL    HW117860   1.298   3.655   1.861
 5852SOL    HW217861   1.180   3.564   1.838
 5853SOL     OW17862   4.721   3.567   2.437
 5853SOL    HW117863   4.663   3.506   2.482
 5853SOL    HW217864   4.720   3.539   2.346
 5854SOL     OW17865   1.100   5.146   4.843
 5854SOL    HW117866   1.064   5.081   4.783
 5854SOL    HW217867   1.189   5.162   4.811
 5855SOL     OW17868   7.563   3.947   4.343
 5855SOL    HW117869   7.631   3.955   4.277
 5855SOL    HW217870   7.583   3.865   4.388
 5856SOL     OW17871   2.246   3.638   0.801
 5856SOL    HW117872   2.230   3.674   0.888
 5856SOL    HW217873   2.167   3.589   0.780
 5857SOL     OW17874   7.662   0.681   4.511
 5857SOL    HW117875   7.717   0.710   4.438
 5857SOL    HW217876   7.621   0.761   4.543
 5858SOL     OW17877   0.463   0.202   5.233
 5858SOL    HW117878   0.548   0.245   5.239
 5858SOL    HW217879   0.408   0.248   5.296
 5859SOL     OW17880   5.696   2.192   0.593
 5859SOL    HW117881   5.601   2.181   0.583
 5859SOL    HW217882   5.722   2.124   0.656
 5860SOL     OW17883   3.585   5.122   3.478
 5860SOL    HW117884   3.572   5.207   3.435
 5860SOL    HW217885   3.608   5.062   3.407
 5861SOL     OW17886   1.999   4.615   4.060
 5861SOL    HW117887   1.907   4.603   4.036
 5861SOL    HW217888   2.023   4.699   4.021
 5862SOL     OW17889   7.074   5.568   3.891
 5862SOL    HW117890   7.029   5.649   3.868
 5862SOL    HW217891   7.148   5.564   3.831
 5863SOL     OW17892   0.378   3.023   4.504
 5863SOL    HW117893   0.317   3.090   4.473
 5863SOL    HW217894   0.328   2.941   4.500
 5864SOL     OW17895   7.636   6.792   2.805
 5864SOL    HW117896   7.563   6.788   2.867
 5864SOL    HW217897   7.629   6.711   2.754
 5865SOL     OW17898   6.199   5.768   0.901
 5865SOL    HW117899   6.268   5.702   0.896
 5865SOL    HW217900   6.152   5.749   0.982
 5866SOL     OW17901   5.295   6.836   2.653
 5866SOL    HW117902   5.260   6.925   2.658
 5866SOL    HW217903   5.288   6.803   2.743
 5867SOL     OW17904   6.345   0.517   1.190
 5867SOL    HW117905   6.389   0.602   1.197
 5867SOL    HW217906   6.303   0.504   1.275
 5868SOL     OW17907   1.106   0.055   0.338
 5868SOL    HW117908   1.116   0.056   0.243
 5868SOL    HW217909   1.166   8.216   0.368
 5869SOL     OW17910   3.142   2.494   1.342
 5869SOL    HW117911   3.062   2.466   1.386
 5869SOL    HW217912   3.165   2.420   1.285
 5870SOL     OW17913   2.151   0.018   5.268
 5870SOL    HW117914   2.168   8.154   5.280
 5870SOL    HW217915   2.149   0.054   5.357
 5871SOL     OW17916   6.667   5.873   0.173
 5871SOL    HW117917   6.650   5.781   0.192
 5871SOL    HW217918   6.622   5.889   0.090
 5872SOL     OW17919   0.591   3.253   5.408
 5872SOL    HW117920   0.634   3.247   5.323
 5872SOL    HW217921   0.556   3.342   5.411
 5873SOL     OW17922   0.497   7.965   3.152
 5873SOL    HW117923   0.558   7.895   3.175
 5873SOL    HW217924   0.497   8.023   3.228
 5874SOL     OW17925   0.372   7.215   5.416
 5874SOL    HW117926   0.400   7.281   5.480
 5874SOL    HW217927   0.452   7.189   5.371
 5875SOL     OW17928   6.693   6.518   3.091
 5875SOL    HW117929   6.701   6.609   3.063
 5875SOL    HW217930   6.605   6.512   3.129
 5876SOL     OW17931   5.076   6.694   4.009
 5876SOL    HW117932   5.134   6.629   4.048
 5876SOL    HW217933   5.105   6.777   4.047
 5877SOL     OW17934   5.665   6.237   3.074
 5877SOL    HW117935   5.603   6.170   3.102
 5877SOL    HW217936   5.723   6.193   3.012
 5878SOL     OW17937   6.078   0.419   5.603
 5878SOL    HW117938   6.122   0.450   5.524
 5878SOL    HW217939   6.095   0.325   5.605
 5879SOL     OW17940   5.060   6.100   1.260
 5879SOL    HW117941   5.002   6.115   1.186
 5879SOL    HW217942   5.001   6.093   1.335
 5880SOL     OW17943   4.494   6.177   5.094
 5880SOL    HW117944   4.562   6.243   5.106
 5880SOL    HW217945   4.530   6.098   5.134
 5881SOL     OW17946   7.980   3.816   5.058
 5881SOL    HW117947   8.036   3.755   5.107
 5881SOL    HW217948   7.895   3.771   5.053
 5882SOL     OW17949   3.902   4.904   2.077
 5882SOL    HW117950   3.865   4.992   2.070
 5882SOL    HW217951   3.994   4.918   2.101
 5883SOL     OW17952   1.982   2.967   0.485
 5883SOL    HW117953   1.991   2.999   0.395
 5883SOL    HW217954   1.928   3.033   0.528
 5884SOL     OW17955   0.675   3.753   0.718
 5884SOL    HW117956   0.728   3.673   0.718
 5884SOL    HW217957   0.589   3.725   0.686
 5885SOL     OW17958   4.600   8.118   1.388
 5885SOL    HW117959   4.633   8.035   1.353
 5885SOL    HW217960   4.598   8.177   1.312
 5886SOL     OW17961   2.464   1.310   0.837
 5886SOL    HW117962   2.396   1.373   0.811
 5886SOL    HW217963   2.526   1.361   0.888
 5887SOL     OW17964   4.022   3.442   2.941
 5887SOL    HW117965   4.003   3.366   2.996
 5887SOL    HW217966   4.068   3.406   2.865
 5888SOL     OW17967   3.382   0.069   0.633
 5888SOL    HW117968   3.337   0.047   0.715
 5888SOL    HW217969   3.452   0.129   0.660
 5889SOL     OW17970   4.541   3.027   5.260
 5889SOL    HW117971   4.625   3.039   5.215
 5889SOL    HW217972   4.482   2.996   5.191
 5890SOL     OW17973   1.855   7.830   0.042
 5890SOL    HW117974   5.977   3.726   5.766
 5890SOL    HW217975   1.927   7.882   0.078
 5891SOL     OW17976   3.327   0.361   0.760
 5891SOL    HW117977   3.339   0.447   0.720
 5891SOL    HW217978   3.405   0.311   0.735
 5892SOL     OW17979   7.629   4.338   1.632
 5892SOL    HW117980   7.613   4.303   1.544
 5892SOL    HW217981   7.714   4.381   1.626
 5893SOL     OW17982   8.131   6.699   5.663
 5893SOL    HW117983   8.150   6.792   5.648
 5893SOL    HW217984   8.066   6.677   5.596
 5894SOL     OW17985   3.359   1.039   3.405
 5894SOL    HW117986   3.354   1.045   3.310
 5894SOL    HW217987   3.427   0.973   3.421
 5895SOL     OW17988   2.062   2.617   2.975
 5895SOL    HW117989   2.085   2.708   2.995
 5895SOL    HW217990   2.135   2.585   2.921
 5896SOL     OW17991   6.647   6.115   2.312
 5896SOL    HW117992   6.705   6.097   2.238
 5896SOL    HW217993   6.698   6.090   2.389
 5897SOL     OW17994   0.576   4.253   1.091
 5897SOL    HW117995   0.504   4.302   1.051
 5897SOL    HW217996   0.534   4.195   1.154
 5898SOL     OW17997   7.341   0.339   3.145
 5898SOL    HW117998   7.310   0.328   3.235
 5898SOL    HW217999   7.422   0.390   3.153
 5899SOL     OW18000   0.195   3.399   2.573
 5899SOL    HW118001   0.119   3.411   2.631
 5899SOL    HW218002   0.263   3.363   2.630
 5900SOL     OW18003   2.401   6.287   2.804
 5900SOL    HW118004   2.481   6.265   2.852
 5900SOL    HW218005   2.430   6.348   2.736
 5901SOL     OW18006   0.831   5.680   1.836
 5901SOL    HW118007   0.861   5.762   1.875
 5901SOL    HW218008   0.911   5.629   1.823
 5902SOL     OW18009   4.933   7.009   5.690
 5902SOL    HW118010   4.928   7.090   5.639
 5902SOL    HW218011   4.973   7.035   5.773
 5903SOL     OW18012   6.456   0.831   2.263
 5903SOL    HW118013   6.433   0.739   2.252
 5903SOL    HW218014   6.404   0.860   2.338
 5904SOL     OW18015   7.642   0.387   2.440
 5904SOL    HW118016   7.661   0.295   2.461
 5904SOL    HW218017   7.722   0.434   2.463
 5905SOL     OW18018   1.552   7.138   4.148
 5905SOL    HW118019   1.502   7.218   4.167
 5905SOL    HW218020   1.488   7.067   4.157
 5906SOL     OW18021   3.947   1.953   5.747
 5906SOL    HW118022   3.922   2.013   5.817
 5906SOL    HW218023   3.870   1.950   5.690
 5907SOL     OW18024   5.675   2.346   5.361
 5907SOL    HW118025   5.588   2.385   5.363
 5907SOL    HW218026   5.711   2.370   5.276
 5908SOL     OW18027   5.472   7.384   3.672
 5908SOL    HW118028   5.436   7.358   3.757
 5908SOL    HW218029   5.567   7.373   3.682
 5909SOL     OW18030   3.615   3.480   5.340
 5909SOL    HW118031   3.565   3.498   5.420
 5909SOL    HW218032   3.577   3.539   5.275
 5910SOL     OW18033   4.658   3.926   0.667
 5910SOL    HW118034   4.693   3.999   0.719
 5910SOL    HW218035   4.649   3.854   0.730
 5911SOL     OW18036   5.879   8.037   3.688
 5911SOL    HW118037   5.829   8.042   3.769
 5911SOL    HW218038   5.872   7.945   3.661
 5912SOL     OW18039   6.658   3.230   1.301
 5912SOL    HW118040   6.670   3.299   1.235
 5912SOL    HW218041   6.564   3.215   1.304
 5913SOL     OW18042   5.850   6.594   0.178
 5913SOL    HW118043   5.822   6.568   0.266
 5913SOL    HW218044   5.812   6.681   0.166
 5914SOL     OW18045   0.221   5.208   0.474
 5914SOL    HW118046   0.232   5.236   0.383
 5914SOL    HW218047   0.309   5.180   0.501
 5915SOL     OW18048   5.115   5.954   2.732
 5915SOL    HW118049   5.116   5.923   2.641
 5915SOL    HW218050   5.173   6.030   2.733
 5916SOL     OW18051   7.518   7.354   4.488
 5916SOL    HW118052   7.566   7.387   4.412
 5916SOL    HW218053   7.426   7.361   4.463
 5917SOL     OW18054   2.894   2.091   3.004
 5917SOL    HW118055   2.859   2.167   3.050
 5917SOL    HW218056   2.963   2.058   3.061
 5918SOL     OW18057   4.634   6.638   1.607
 5918SOL    HW118058   4.574   6.689   1.552
 5918SOL    HW218059   4.687   6.704   1.652
 5919SOL     OW18060   7.627   2.130   1.893
 5919SOL    HW118061   7.722   2.127   1.902
 5919SOL    HW218062   7.596   2.164   1.977
 5920SOL     OW18063   6.681   8.166   4.162
 5920SOL    HW118064   6.650   8.134   4.247
 5920SOL    HW218065   6.776   8.169   4.170
 5921SOL     OW18066   2.947   2.708   0.127
 5921SOL    HW118067   2.938   2.718   0.032
 5921SOL    HW218068   2.997   2.627   0.137
 5922SOL     OW18069   3.295   3.122   1.906
 5922SOL    HW118070   3.226   3.090   1.847
 5922SOL    HW218071   3.259   3.109   1.994
 5923SOL     OW18072   0.239   1.620   4.840
 5923SOL    HW118073   0.269   1.566   4.767
 5923SOL    HW218074   0.305   1.605   4.908
 5924SOL     OW18075   8.098   2.513   3.538
 5924SOL    HW118076   8.053   2.589   3.501
 5924SOL    HW218077   8.028   2.460   3.577
 5925SOL     OW18078   2.903   6.130   3.656
 5925SOL    HW118079   2.813   6.134   3.689
 5925SOL    HW218080   2.935   6.220   3.661
 5926SOL     OW18081   8.205   0.378   1.452
 5926SOL    HW118082   0.038   0.438   1.410
 5926SOL    HW218083   8.195   0.306   1.390
 5927SOL     OW18084   7.048   2.340   3.371
 5927SOL    HW118085   7.034   2.421   3.420
 5927SOL    HW218086   6.982   2.343   3.301
 5928SOL     OW18087   0.082   6.723   3.973
 5928SOL    HW118088   0.034   6.803   3.995
 5928SOL    HW218089   0.170   6.754   3.952
 5929SOL     OW18090   6.428   6.356   1.009
 5929SOL    HW118091   6.345   6.318   0.979
 5929SOL    HW218092   6.484   6.355   0.932
 5930SOL     OW18093   1.827   3.350   5.806
 5930SOL    HW118094   5.990   7.428   0.061
 5930SOL    HW218095   1.839   3.287   5.735
 5931SOL     OW18096   1.490   2.388   4.899
 5931SOL    HW118097   1.523   2.431   4.978
 5931SOL    HW218098   1.399   2.418   4.892
 5932SOL     OW18099   1.344   3.801   1.165
 5932SOL    HW118100   1.262   3.786   1.212
 5932SOL    HW218101   1.343   3.894   1.143
 5933SOL     OW18102   7.335   1.156   1.711
 5933SOL    HW118103   7.321   1.159   1.806
 5933SOL    HW218104   7.430   1.161   1.700
 5934SOL     OW18105   1.483   0.968   2.349
 5934SOL    HW118106   1.537   0.941   2.275
 5934SOL    HW218107   1.516   1.055   2.372
 5935SOL     OW18108   5.265   1.061   2.590
 5935SOL    HW118109   5.264   1.032   2.681
 5935SOL    HW218110   5.358   1.061   2.566
 5936SOL     OW18111   5.725   5.418   4.258
 5936SOL    HW118112   5.715   5.513   4.257
 5936SOL    HW218113   5.816   5.404   4.285
 5937SOL     OW18114   6.712   4.091   3.149
 5937SOL    HW118115   6.635   4.035   3.157
 5937SOL    HW218116   6.726   4.125   3.237
 5938SOL     OW18117   7.434   3.545   5.118
 5938SOL    HW118118   7.389   3.559   5.201
 5938SOL    HW218119   7.373   3.578   5.052
 5939SOL     OW18120   2.714   3.328   1.355
 5939SOL    HW118121   2.785   3.345   1.293
 5939SOL    HW218122   2.676   3.245   1.325
 5940SOL     OW18123   3.338   6.349   3.715
 5940SOL    HW118124   3.268   6.300   3.757
 5940SOL    HW218125   3.398   6.371   3.786
 5941SOL     OW18126   1.610   5.504   3.037
 5941SOL    HW118127   1.574   5.426   2.995
 5941SOL    HW218128   1.693   5.475   3.076
 5942SOL     OW18129   5.136   5.260   1.148
 5942SOL    HW118130   5.160   5.240   1.238
 5942SOL    HW218131   5.213   5.237   1.097
 5943SOL     OW18132   3.303   2.991   4.182
 5943SOL    HW118133   3.325   3.071   4.134
 5943SOL    HW218134   3.243   3.020   4.251
 5944SOL     OW18135   6.097   2.538   1.403
 5944SOL    HW118136   6.140   2.476   1.462
 5944SOL    HW218137   6.158   2.611   1.396
 5945SOL     OW18138   2.507   4.459   5.111
 5945SOL    HW118139   2.563   4.530   5.143
 5945SOL    HW218140   2.524   4.387   5.171
 5946SOL     OW18141   0.620   1.213   5.443
 5946SOL    HW118142   0.601   1.121   5.460
 5946SOL    HW218143   0.700   1.230   5.493
 5947SOL     OW18144   1.577   2.798   2.768
 5947SOL    HW118145   1.540   2.870   2.717
 5947SOL    HW218146   1.543   2.810   2.856
 5948SOL     OW18147   4.591   3.394   2.630
 5948SOL    HW118148   4.502   3.404   2.664
 5948SOL    HW218149   4.647   3.410   2.706
 5949SOL     OW18150   6.084   1.196   3.431
 5949SOL    HW118151   6.049   1.107   3.431
 5949SOL    HW218152   6.079   1.224   3.340
 5950SOL     OW18153   2.569   3.442   4.878
 5950SOL    HW118154   2.636   3.468   4.941
 5950SOL    HW218155   2.547   3.523   4.831
 5951SOL     OW18156   6.478   4.492   2.406
 5951SOL    HW118157   6.524   4.539   2.337
 5951SOL    HW218158   6.541   4.487   2.478
 5952SOL     OW18159   0.714   1.106   0.332
 5952SOL    HW118160   0.777   1.135   0.266
 5952SOL    HW218161   0.684   1.187   0.373
 5953SOL     OW18162   4.526   1.872   1.265
 5953SOL    HW118163   4.578   1.815   1.322
 5953SOL    HW218164   4.489   1.937   1.324
 5954SOL     OW18165   0.433   2.334   1.041
 5954SOL    HW118166   0.419   2.244   1.070
 5954SOL    HW218167   0.476   2.376   1.115
 5955SOL     OW18168   5.330   6.485   3.833
 5955SOL    HW118169   5.397   6.417   3.826
 5955SOL    HW218170   5.378   6.562   3.863
 5956SOL     OW18171   6.387   1.925   4.423
 5956SOL    HW118172   6.406   1.959   4.336
 5956SOL    HW218173   6.391   2.002   4.480
 5957SOL     OW18174   1.162   2.067   2.041
 5957SOL    HW118175   1.253   2.078   2.015
 5957SOL    HW218176   1.112   2.090   1.963
 5958SOL     OW18177   6.638   0.919   5.246
 5958SOL    HW118178   6.550   0.948   5.269
 5958SOL    HW218179   6.625   0.842   5.190
 5959SOL     OW18180   6.419   3.570   1.293
 5959SOL    HW118181   6.364   3.648   1.302
 5959SOL    HW218182   6.500   3.602   1.253
 5960SOL     OW18183   3.211   7.624   2.556
 5960SOL    HW118184   3.202   7.564   2.630
 5960SOL    HW218185   3.134   7.606   2.501
 5961SOL     OW18186   5.146   6.136   4.940
 5961SOL    HW118187   5.111   6.160   5.026
 5961SOL    HW218188   5.160   6.219   4.895
 5962SOL     OW18189   2.775   4.993   2.776
 5962SOL    HW118190   2.685   4.989   2.808
 5962SOL    HW218191   2.768   5.029   2.688
 5963SOL     OW18192   4.528   2.334   5.550
 5963SOL    HW118193   4.617   2.323   5.517
 5963SOL    HW218194   4.497   2.245   5.567
 5964SOL     OW18195   4.542   0.522   2.467
 5964SOL    HW118196   4.557   0.576   2.390
 5964SOL    HW218197   4.450   0.537   2.490
 5965SOL     OW18198   6.603   4.788   3.708
 5965SOL    HW118199   6.533   4.853   3.704
 5965SOL    HW218200   6.676   4.833   3.750
 5966SOL     OW18201   0.871   5.824   1.099
 5966SOL    HW118202   0.827   5.858   1.021
 5966SOL    HW218203   0.811   5.757   1.132
 5967SOL     OW18204   2.272   3.519   5.679
 5967SOL    HW118205   2.187   3.562   5.684
 5967SOL    HW218206   2.304   3.518   5.769
 5968SOL     OW18207   0.504   4.430   1.508
 5968SOL    HW118208   0.475   4.367   1.574
 5968SOL    HW218209   0.590   4.459   1.539
 5969SOL     OW18210   2.678   6.003   5.043
 5969SOL    HW118211   2.597   5.992   4.993
 5969SOL    HW218212   2.649   6.017   5.133
 5970SOL     OW18213   4.332   5.245   4.639
 5970SOL    HW118214   4.375   5.314   4.588
 5970SOL    HW218215   4.364   5.259   4.728
 5971SOL     OW18216   0.505   2.391   0.376
 5971SOL    HW118217   0.506   2.410   0.282
 5971SOL    HW218218   0.515   2.296   0.382
 5972SOL     OW18219   6.756   8.222   2.673
 5972SOL    HW118220   6.806   8.154   2.628
 5972SOL    HW218221   6.814   0.024   2.742
 5973SOL     OW18222   0.853   7.111   5.748
 5973SOL    HW118223   0.788   7.133   5.815
 5973SOL    HW218224   0.904   7.040   5.786
 5974SOL     OW18225   7.192   2.592   4.567
 5974SOL    HW118226   7.262   2.562   4.625
 5974SOL    HW218227   7.131   2.519   4.563
 5975SOL     OW18228   2.849   1.548   2.721
 5975SOL    HW118229   2.843   1.611   2.649
 5975SOL    HW218230   2.933   1.504   2.708
 5976SOL     OW18231   2.044   2.634   4.022
 5976SOL    HW118232   2.080   2.674   4.101
 5976SOL    HW218233   1.951   2.654   4.025
 5977SOL     OW18234   5.864   4.563   1.858
 5977SOL    HW118235   5.791   4.602   1.810
 5977SOL    HW218236   5.822   4.508   1.925
 5978SOL     OW18237   1.771   0.766   1.044
 5978SOL    HW118238   1.684   0.733   1.067
 5978SOL    HW218239   1.754   0.845   0.993
 5979SOL     OW18240   7.879   0.709   3.086
 5979SOL    HW118241   7.796   0.733   3.045
 5979SOL    HW218242   7.856   0.687   3.176
 5980SOL     OW18243   1.623   1.855   4.804
 5980SOL    HW118244   1.617   1.798   4.727
 5980SOL    HW218245   1.623   1.944   4.768
 5981SOL     OW18246   7.686   3.508   2.397
 5981SOL    HW118247   7.777   3.532   2.378
 5981SOL    HW218248   7.691   3.415   2.420
 5982SOL     OW18249   1.071   7.442   3.162
 5982SOL    HW118250   0.996   7.462   3.218
 5982SOL    HW218251   1.095   7.526   3.124
 5983SOL     OW18252   0.080   0.736   4.400
 5983SOL    HW118253   0.066   0.830   4.387
 5983SOL    HW218254   8.222   0.698   4.394
 5984SOL     OW18255   1.120   7.149   1.328
 5984SOL    HW118256   1.151   7.067   1.366
 5984SOL    HW218257   1.069   7.190   1.398
 5985SOL     OW18258   5.282   4.939   3.837
 5985SOL    HW118259   5.191   4.962   3.855
 5985SOL    HW218260   5.300   4.865   3.895
 5986SOL     OW18261   2.532   2.712   3.136
 5986SOL    HW118262   2.553   2.779   3.071
 5986SOL    HW218263   2.617   2.678   3.164
 5987SOL     OW18264   5.100   2.819   5.787
 5987SOL    HW118265   5.049   2.743   5.814
 5987SOL    HW218266   5.078   2.832   5.695
 5988SOL     OW18267   8.027   5.269   4.064
 5988SOL    HW118268   8.018   5.360   4.036
 5988SOL    HW218269   7.951   5.254   4.120
 5989SOL     OW18270   0.855   7.354   5.574
 5989SOL    HW118271   0.844   7.425   5.637
 5989SOL    HW218272   0.846   7.274   5.626
 5990SOL     OW18273   7.237   6.482   0.332
 5990SOL    HW118274   7.195   6.450   0.412
 5990SOL    HW218275   7.182   6.555   0.304
 5991SOL     OW18276   0.829   8.153   3.242
 5991SOL    HW118277   0.893   8.207   3.195
 5991SOL    HW218278   0.853   8.063   3.220
 5992SOL     OW18279   4.945   5.171   1.577
 5992SOL    HW118280   4.911   5.243   1.524
 5992SOL    HW218281   5.028   5.148   1.536
 5993SOL     OW18282   4.552   1.271   4.482
 5993SOL    HW118283   4.467   1.314   4.472
 5993SOL    HW218284   4.597   1.285   4.399
 5994SOL     OW18285   8.157   0.849   2.219
 5994SOL    HW118286   8.165   0.893   2.303
 5994SOL    HW218287   8.197   0.763   2.233
 5995SOL     OW18288   5.992   1.195   5.009
 5995SOL    HW118289   5.913   1.150   5.040
 5995SOL    HW218290   5.975   1.211   4.916
 5996SOL     OW18291   8.182   6.152   3.826
 5996SOL    HW118292   8.104   6.111   3.790
 5996SOL    HW218293   0.024   6.091   3.807
 5997SOL     OW18294   6.892   5.122   4.411
 5997SOL    HW118295   6.818   5.179   4.434
 5997SOL    HW218296   6.960   5.182   4.382
 5998SOL     OW18297   2.300   1.784   0.377
 5998SOL    HW118298   2.378   1.814   0.331
 5998SOL    HW218299   2.325   1.785   0.469
 5999SOL     OW18300   6.870   1.562   1.469
 5999SOL    HW118301   6.940   1.617   1.435
 5999SOL    HW218302   6.869   1.485   1.412
 6000SOL     OW18303   6.676   5.317   4.458
 6000SOL    HW118304   6.699   5.406   4.483
 6000SOL    HW218305   6.630   5.281   4.534
 6001SOL     OW18306   2.771   7.907   1.590
 6001SOL    HW118307   2.779   7.812   1.584
 6001SOL    HW218308   2.708   7.930   1.521
 6002SOL     OW18309   2.172   0.479   5.172
 6002SOL    HW118310   2.206   0.557   5.215
 6002SOL    HW218311   2.228   0.408   5.203
 6003SOL     OW18312   5.976   0.651   5.392
 6003SOL    HW118313   5.922   0.587   5.345
 6003SOL    HW218314   5.913   0.708   5.435
 6004SOL     OW18315   1.968   5.719   5.309
 6004SOL    HW118316   2.060   5.746   5.309
 6004SOL    HW218317   1.927   5.776   5.244
 6005SOL     OW18318   4.741   1.758   2.367
 6005SOL    HW118319   4.746   1.718   2.280
 6005SOL    HW218320   4.648   1.775   2.380
 6006SOL     OW18321   5.887   1.379   5.358
 6006SOL    HW118322   5.869   1.394   5.265
 6006SOL    HW218323   5.977   1.411   5.370
 6007SOL     OW18324   5.910   6.700   2.677
 6007SOL    HW118325   5.883   6.758   2.606
 6007SOL    HW218326   5.968   6.753   2.731
 6008SOL     OW18327   2.599   1.459   3.377
 6008SOL    HW118328   2.523   1.480   3.431
 6008SOL    HW218329   2.574   1.487   3.289
 6009SOL     OW18330   4.898   5.479   4.005
 6009SOL    HW118331   4.832   5.437   4.060
 6009SOL    HW218332   4.981   5.459   4.048
 6010SOL     OW18333   3.701   1.112   1.188
 6010SOL    HW118334   3.713   1.151   1.101
 6010SOL    HW218335   3.788   1.115   1.227
 6011SOL     OW18336   2.348   6.763   2.664
 6011SOL    HW118337   2.316   6.785   2.576
 6011SOL    HW218338   2.271   6.730   2.710
 6012SOL     OW18339   2.326   4.816   4.125
 6012SOL    HW118340   2.281   4.863   4.055
 6012SOL    HW218341   2.343   4.729   4.088
 6013SOL     OW18342   5.122   7.031   5.457
 6013SOL    HW118343   5.050   7.090   5.480
 6013SOL    HW218344   5.197   7.063   5.507
 6014SOL     OW18345   0.998   3.979   1.879
 6014SOL    HW118346   0.925   3.998   1.820
 6014SOL    HW218347   0.957   3.969   1.965
 6015SOL     OW18348   7.073   6.026   3.909
 6015SOL    HW118349   7.157   5.980   3.914
 6015SOL    HW218350   7.066   6.054   3.818
 6016SOL     OW18351   0.104   6.871   2.864
 6016SOL    HW118352   0.058   6.853   2.782
 6016SOL    HW218353   0.060   6.948   2.900
 6017SOL     OW18354   5.577   4.166   5.706
 6017SOL    HW118355   5.625   4.090   5.673
 6017SOL    HW218356   5.556   4.143   5.797
 6018SOL     OW18357   8.217   0.678   4.725
 6018SOL    HW118358   8.145   0.626   4.761
 6018SOL    HW218359   0.066   0.647   4.771
 6019SOL     OW18360   7.866   0.066   3.847
 6019SOL    HW118361   7.941   0.014   3.818
 6019SOL    HW218362   7.826   0.099   3.766
 6020SOL     OW18363   7.134   5.997   2.454
 6020SOL    HW118364   7.089   6.016   2.372
 6020SOL    HW218365   7.177   6.079   2.478
 6021SOL     OW18366   2.850   3.156   5.339
 6021SOL    HW118367   2.859   3.072   5.293
 6021SOL    HW218368   2.931   3.203   5.318
 6022SOL     OW18369   5.764   6.813   4.830
 6022SOL    HW118370   5.739   6.905   4.821
 6022SOL    HW218371   5.859   6.814   4.842
 6023SOL     OW18372   1.757   5.502   5.105
 6023SOL    HW118373   1.757   5.507   5.201
 6023SOL    HW218374   1.675   5.545   5.079
 6024SOL     OW18375   6.286   4.547   0.078
 6024SOL    HW118376   6.251   4.464   0.112
 6024SOL    HW218377   6.355   4.571   0.140
 6025SOL     OW18378   5.637   3.481   1.697
 6025SOL    HW118379   5.667   3.405   1.746
 6025SOL    HW218380   5.649   3.457   1.605
 6026SOL     OW18381   0.211   5.455   1.910
 6026SOL    HW118382   0.176   5.537   1.944
 6026SOL    HW218383   0.159   5.387   1.954
 6027SOL     OW18384   3.937   5.607   0.738
 6027SOL    HW118385   3.851   5.574   0.712
 6027SOL    HW218386   3.997   5.574   0.671
 6028SOL     OW18387   7.156   2.508   3.628
 6028SOL    HW118388   7.148   2.542   3.717
 6028SOL    HW218389   7.072   2.530   3.587
 6029SOL     OW18390   4.876   4.811   3.580
 6029SOL    HW118391   4.838   4.870   3.515
 6029SOL    HW218392   4.845   4.845   3.664
 6030SOL     OW18393   7.498   3.216   0.645
 6030SOL    HW118394   7.415   3.226   0.599
 6030SOL    HW218395   7.493   3.278   0.717
 6031SOL     OW18396   3.761   1.385   4.638
 6031SOL    HW118397   3.832   1.328   4.610
 6031SOL    HW218398   3.696   1.326   4.675
 6032SOL     OW18399   5.821   0.471   1.540
 6032SOL    HW118400   5.779   0.426   1.614
 6032SOL    HW218401   5.868   0.544   1.580
 6033SOL     OW18402   5.805   1.436   0.878
 6033SOL    HW118403   5.894   1.452   0.910
 6033SOL    HW218404   5.804   1.473   0.790
 6034SOL     OW18405   3.387   6.790   3.146
 6034SOL    HW118406   3.346   6.870   3.180
 6034SOL    HW218407   3.314   6.730   3.133
 6035SOL     OW18408   5.169   7.511   1.769
 6035SOL    HW118409   5.081   7.475   1.777
 6035SOL    HW218410   5.181   7.562   1.849
 6036SOL     OW18411   0.311   7.583   1.584
 6036SOL    HW118412   0.383   7.579   1.521
 6036SOL    HW218413   0.323   7.506   1.639
 6037SOL     OW18414   5.845   2.694   5.331
 6037SOL    HW118415   5.929   2.660   5.300
 6037SOL    HW218416   5.862   2.786   5.350
 6038SOL     OW18417   1.729   7.019   1.701
 6038SOL    HW118418   1.688   7.004   1.616
 6038SOL    HW218419   1.819   7.045   1.681
 6039SOL     OW18420   6.472   5.712   2.556
 6039SOL    HW118421   6.395   5.723   2.500
 6039SOL    HW218422   6.537   5.672   2.499
 6040SOL     OW18423   4.531   4.103   1.153
 6040SOL    HW118424   4.625   4.089   1.163
 6040SOL    HW218425   4.492   4.016   1.163
 6041SOL     OW18426   1.441   4.569   3.170
 6041SOL    HW118427   1.350   4.591   3.189
 6041SOL    HW218428   1.492   4.625   3.229
 6042SOL     OW18429   5.771   2.329   3.883
 6042SOL    HW118430   5.789   2.320   3.977
 6042SOL    HW218431   5.725   2.413   3.875
 6043SOL     OW18432   4.456   0.351   3.535
 6043SOL    HW118433   4.492   0.337   3.623
 6043SOL    HW218434   4.402   0.430   3.543
 6044SOL     OW18435   6.288   0.495   5.795
 6044SOL    HW118436   2.157   4.625   0.069
 6044SOL    HW218437   6.210   0.450   5.764
 6045SOL     OW18438   0.503   5.930   3.887
 6045SOL    HW118439   0.492   5.907   3.979
 6045SOL    HW218440   0.527   5.848   3.844
 6046SOL     OW18441   6.429   6.653   5.305
 6046SOL    HW118442   6.462   6.694   5.225
 6046SOL    HW218443   6.507   6.614   5.345
 6047SOL     OW18444   3.442   5.315   1.044
 6047SOL    HW118445   3.391   5.389   1.077
 6047SOL    HW218446   3.438   5.324   0.949
 6048SOL     OW18447   1.613   1.203   0.739
 6048SOL    HW118448   1.524   1.218   0.707
 6048SOL    HW218449   1.667   1.203   0.660
 6049SOL     OW18450   1.238   4.007   5.398
 6049SOL    HW118451   1.317   4.040   5.355
 6049SOL    HW218452   1.177   3.989   5.326
 6050SOL     OW18453   5.627   2.969   0.486
 6050SOL    HW118454   5.625   2.943   0.578
 6050SOL    HW218455   5.591   2.894   0.439
 6051SOL     OW18456   0.041   2.887   1.124
 6051SOL    HW118457   0.126   2.919   1.094
 6051SOL    HW218458   0.015   2.949   1.192
 6052SOL     OW18459   5.664   1.752   4.556
 6052SOL    HW118460   5.616   1.786   4.632
 6052SOL    HW218461   5.756   1.759   4.581
 6053SOL     OW18462   2.087   4.075   0.961
 6053SOL    HW118463   2.108   4.164   0.990
 6053SOL    HW218464   2.007   4.053   1.008
 6054SOL     OW18465   7.562   2.140   4.877
 6054SOL    HW118466   7.653   2.141   4.906
 6054SOL    HW218467   7.511   2.157   4.956
 6055SOL     OW18468   2.934   0.622   3.655
 6055SOL    HW118469   2.930   0.589   3.565
 6055SOL    HW218470   2.893   0.553   3.708
 6056SOL     OW18471   1.417   1.685   3.741
 6056SOL    HW118472   1.502   1.714   3.708
 6056SOL    HW218473   1.376   1.642   3.666
 6057SOL     OW18474   7.296   2.837   1.251
 6057SOL    HW118475   7.232   2.881   1.307
 6057SOL    HW218476   7.315   2.755   1.296
 6058SOL     OW18477   6.755   0.080   0.149
 6058SOL    HW118478   6.777   8.220   0.123
 6058SOL    HW218479   6.839   0.127   0.146
 6059SOL     OW18480   5.937   0.799   4.860
 6059SOL    HW118481   5.994   0.754   4.797
 6059SOL    HW218482   5.998   0.841   4.921
 6060SOL     OW18483   3.817   0.292   3.560
 6060SOL    HW118484   3.727   0.304   3.590
 6060SOL    HW218485   3.811   0.290   3.465
 6061SOL     OW18486   3.029   4.559   4.535
 6061SOL    HW118487   2.983   4.538   4.616
 6061SOL    HW218488   3.093   4.625   4.560
 6062SOL     OW18489   5.867   4.605   0.537
 6062SOL    HW118490   5.796   4.564   0.586
 6062SOL    HW218491   5.864   4.697   0.562
 6063SOL     OW18492   8.097   2.945   1.686
 6063SOL    HW118493   8.163   2.894   1.639
 6063SOL    HW218494   8.013   2.916   1.649
 6064SOL     OW18495   1.785   0.465   5.302
 6064SOL    HW118496   1.830   0.385   5.274
 6064SOL    HW218497   1.797   0.527   5.230
 6065SOL     OW18498   3.117   1.374   0.951
 6065SOL    HW118499   3.195   1.343   0.997
 6065SOL    HW218500   3.107   1.313   0.878
 6066SOL     OW18501   5.137   4.364   5.740
 6066SOL    HW118502   5.192   4.415   5.680
 6066SOL    HW218503   5.048   4.381   5.710
 6067SOL     OW18504   6.385   1.089   3.031
 6067SOL    HW118505   6.369   1.181   3.008
 6067SOL    HW218506   6.442   1.093   3.108
 6068SOL     OW18507   4.444   5.719   3.661
 6068SOL    HW118508   4.470   5.772   3.586
 6068SOL    HW218509   4.355   5.690   3.641
 6069SOL     OW18510   4.765   1.365   3.125
 6069SOL    HW118511   4.713   1.351   3.046
 6069SOL    HW218512   4.812   1.447   3.109
 6070SOL     OW18513   7.715   1.486   2.972
 6070SOL    HW118514   7.661   1.480   3.051
 6070SOL    HW218515   7.659   1.531   2.908
 6071SOL     OW18516   4.004   2.726   3.309
 6071SOL    HW118517   3.999   2.680   3.393
 6071SOL    HW218518   4.074   2.681   3.262
 6072SOL     OW18519   5.109   6.592   5.401
 6072SOL    HW118520   5.205   6.587   5.400
 6072SOL    HW218521   5.083   6.536   5.474
 6073SOL     OW18522   1.962   7.599   0.925
 6073SOL    HW118523   1.880   7.632   0.961
 6073SOL    HW218524   1.938   7.517   0.881
 6074SOL     OW18525   7.354   7.094   4.357
 6074SOL    HW118526   7.417   7.098   4.429
 6074SOL    HW218527   7.288   7.160   4.379
 6075SOL     OW18528   7.911   7.361   0.205
 6075SOL    HW118529   7.839   7.355   0.267
 6075SOL    HW218530   7.928   7.455   0.196
 6076SOL     OW18531   4.414   2.972   1.162
 6076SOL    HW118532   4.377   2.884   1.171
 6076SOL    HW218533   4.346   3.023   1.119
 6077SOL     OW18534   1.285   3.545   1.397
 6077SOL    HW118535   1.348   3.589   1.454
 6077SOL    HW218536   1.214   3.608   1.388
 6078SOL     OW18537   5.508   6.047   3.181
 6078SOL    HW118538   5.428   6.089   3.149
 6078SOL    HW218539   5.491   6.031   3.274
 6079SOL     OW18540   3.445   7.954   3.764
 6079SOL    HW118541   3.517   8.016   3.768
 6079SOL    HW218542   3.487   7.869   3.751
 6080SOL     OW18543   2.917   1.189   2.071
 6080SOL    HW118544   2.871   1.269   2.095
 6080SOL    HW218545   2.855   1.142   2.015
 6081SOL     OW18546   4.587   7.376   0.753
 6081SOL    HW118547   4.661   7.409   0.702
 6081SOL    HW218548   4.514   7.376   0.692
 6082SOL     OW18549   1.737   6.701   4.769
 6082SOL    HW118550   1.809   6.668   4.715
 6082SOL    HW218551   1.771   6.782   4.807
 6083SOL     OW18552   4.299   7.690   5.231
 6083SOL    HW118553   4.385   7.732   5.232
 6083SOL    HW218554   4.284   7.664   5.322
 6084SOL     OW18555   3.914   7.958   0.643
 6084SOL    HW118556   4.001   7.919   0.635
 6084SOL    HW218557   3.863   7.894   0.693
 6085SOL     OW18558   4.439   1.192   2.280
 6085SOL    HW118559   4.375   1.125   2.255
 6085SOL    HW218560   4.491   1.151   2.349
 6086SOL     OW18561   4.154   5.176   1.081
 6086SOL    HW118562   4.149   5.082   1.062
 6086SOL    HW218563   4.071   5.196   1.125
 6087SOL     OW18564   7.051   3.997   1.117
 6087SOL    HW118565   7.027   4.072   1.063
 6087SOL    HW218566   7.109   4.034   1.184
 6088SOL     OW18567   1.912   3.764   2.855
 6088SOL    HW118568   1.917   3.854   2.822
 6088SOL    HW218569   1.943   3.770   2.945
 6089SOL     OW18570   5.839   3.491   0.790
 6089SOL    HW118571   5.851   3.409   0.742
 6089SOL    HW218572   5.831   3.558   0.722
 6090SOL     OW18573   4.089   8.182   2.127
 6090SOL    HW118574   4.174   8.149   2.097
 6090SOL    HW218575   4.041   8.103   2.152
 6091SOL     OW18576   6.612   2.423   1.189
 6091SOL    HW118577   6.556   2.348   1.168
 6091SOL    HW218578   6.575   2.496   1.140
 6092SOL     OW18579   8.140   2.298   2.860
 6092SOL    HW118580   8.157   2.257   2.775
 6092SOL    HW218581   8.057   2.344   2.848
 6093SOL     OW18582   7.315   1.403   3.851
 6093SOL    HW118583   7.268   1.450   3.920
 6093SOL    HW218584   7.355   1.472   3.798
 6094SOL     OW18585   7.502   3.502   2.593
 6094SOL    HW118586   7.413   3.530   2.571
 6094SOL    HW218587   7.552   3.516   2.513
 6095SOL     OW18588   5.444   2.386   1.958
 6095SOL    HW118589   5.409   2.306   1.997
 6095SOL    HW218590   5.419   2.381   1.866
 6096SOL     OW18591   0.230   0.038   5.307
 6096SOL    HW118592   0.291   0.054   5.235
 6096SOL    HW218593   0.281   0.055   5.386
 6097SOL     OW18594   2.684   4.673   1.395
 6097SOL    HW118595   2.685   4.712   1.308
 6097SOL    HW218596   2.621   4.601   1.388
 6098SOL     OW18597   0.292   2.347   5.035
 6098SOL    HW118598   0.260   2.261   5.007
 6098SOL    HW218599   0.295   2.399   4.955
 6099SOL     OW18600   6.044   2.648   1.848
 6099SOL    HW118601   6.059   2.734   1.808
 6099SOL    HW218602   5.991   2.667   1.926
 6100SOL     OW18603   1.851   2.424   5.563
 6100SOL    HW118604   1.852   2.469   5.648
 6100SOL    HW218605   1.760   2.397   5.551
 6101SOL     OW18606   1.622   6.365   4.254
 6101SOL    HW118607   1.687   6.428   4.223
 6101SOL    HW218608   1.611   6.386   4.347
 6102SOL     OW18609   5.820   3.069   1.174
 6102SOL    HW118610   5.881   3.042   1.106
 6102SOL    HW218611   5.737   3.030   1.148
 6103SOL     OW18612   4.424   4.706   2.389
 6103SOL    HW118613   4.395   4.797   2.400
 6103SOL    HW218614   4.478   4.689   2.466
 6104SOL     OW18615   7.349   7.245   3.709
 6104SOL    HW118616   7.339   7.191   3.788
 6104SOL    HW218617   7.404   7.318   3.737
 6105SOL     OW18618   7.436   5.334   1.377
 6105SOL    HW118619   7.405   5.326   1.467
 6105SOL    HW218620   7.358   5.321   1.323
 6106SOL     OW18621   6.957   2.326   5.612
 6106SOL    HW118622   6.902   2.254   5.642
 6106SOL    HW218623   6.934   2.336   5.520
 6107SOL     OW18624   3.501   7.554   1.922
 6107SOL    HW118625   3.562   7.519   1.987
 6107SOL    HW218626   3.454   7.477   1.890
 6108SOL     OW18627   5.916   1.424   3.115
 6108SOL    HW118628   5.933   1.501   3.060
 6108SOL    HW218629   5.888   1.460   3.199
 6109SOL     OW18630   4.819   4.005   4.488
 6109SOL    HW118631   4.841   4.059   4.564
 6109SOL    HW218632   4.889   4.022   4.425
 6110SOL     OW18633   6.924   4.912   1.066
 6110SOL    HW118634   6.914   4.997   1.110
 6110SOL    HW218635   6.842   4.900   1.019
 6111SOL     OW18636   0.635   4.407   5.280
 6111SOL    HW118637   0.617   4.490   5.235
 6111SOL    HW218638   0.680   4.433   5.360
 6112SOL     OW18639   3.739   8.186   1.341
 6112SOL    HW118640   3.749   8.229   1.426
 6112SOL    HW218641   3.718   0.028   1.281
 6113SOL     OW18642   5.376   0.296   2.872
 6113SOL    HW118643   5.396   0.220   2.817
 6113SOL    HW218644   5.454   0.308   2.926
 6114SOL     OW18645   3.385   0.535   4.522
 6114SOL    HW118646   3.314   0.526   4.586
 6114SOL    HW218647   3.447   0.466   4.544
 6115SOL     OW18648   7.442   4.738   3.284
 6115SOL    HW118649   7.422   4.789   3.362
 6115SOL    HW218650   7.534   4.715   3.293
 6116SOL     OW18651   7.298   1.569   4.070
 6116SOL    HW118652   7.293   1.645   4.012
 6116SOL    HW218653   7.391   1.547   4.072
 6117SOL     OW18654   1.305   2.771   4.451
 6117SOL    HW118655   1.363   2.846   4.435
 6117SOL    HW218656   1.306   2.722   4.369
 6118SOL     OW18657   2.646   1.984   3.399
 6118SOL    HW118658   2.670   1.973   3.491
 6118SOL    HW218659   2.701   1.921   3.353
 6119SOL     OW18660   3.995   2.318   3.457
 6119SOL    HW118661   3.992   2.360   3.543
 6119SOL    HW218662   4.072   2.356   3.414
 6120SOL     OW18663   3.375   1.906   4.160
 6120SOL    HW118664   3.376   1.981   4.219
 6120SOL    HW218665   3.324   1.936   4.084
 6121SOL     OW18666   8.229   4.503   3.788
 6121SOL    HW118667   8.173   4.547   3.852
 6121SOL    HW218668   0.018   4.417   3.827
 6122SOL     OW18669   5.377   2.497   0.550
 6122SOL    HW118670   5.392   2.408   0.518
 6122SOL    HW218671   5.459   2.520   0.594
 6123SOL     OW18672   0.808   7.673   2.035
 6123SOL    HW118673   0.759   7.754   2.048
 6123SOL    HW218674   0.799   7.654   1.942
 6124SOL     OW18675   5.251   6.742   3.675
 6124SOL    HW118676   5.297   6.825   3.689
 6124SOL    HW218677   5.261   6.695   3.758
 6125SOL     OW18678   5.312   7.011   3.721
 6125SOL    HW118679   5.240   7.073   3.733
 6125SOL    HW218680   5.335   6.983   3.810
 6126SOL     OW18681   7.673   5.992   2.146
 6126SOL    HW118682   7.751   6.018   2.194
 6126SOL    HW218683   7.603   5.993   2.211
 6127SOL     OW18684   6.795   3.591   4.610
 6127SOL    HW118685   6.819   3.510   4.564
 6127SOL    HW218686   6.744   3.562   4.685
 6128SOL     OW18687   4.839   7.909   2.866
 6128SOL    HW118688   4.833   7.893   2.960
 6128SOL    HW218689   4.932   7.901   2.847
 6129SOL     OW18690   0.869   4.645   1.044
 6129SOL    HW118691   0.839   4.558   1.018
 6129SOL    HW218692   0.815   4.668   1.119
 6130SOL     OW18693   4.207   6.815   4.956
 6130SOL    HW118694   4.160   6.783   5.033
 6130SOL    HW218695   4.299   6.818   4.984
 6131SOL     OW18696   0.231   4.162   2.408
 6131SOL    HW118697   0.234   4.083   2.462
 6131SOL    HW218698   0.322   4.177   2.381
 6132SOL     OW18699   5.280   1.403   0.020
 6132SOL    HW118700   1.118   5.575   5.779
 6132SOL    HW218701   5.288   1.453   0.101
 6133SOL     OW18702   7.462   2.640   4.700
 6133SOL    HW118703   7.444   2.563   4.754
 6133SOL    HW218704   7.526   2.609   4.636
 6134SOL     OW18705   0.006   7.311   4.825
 6134SOL    HW118706   0.046   7.256   4.892
 6134SOL    HW218707   8.159   7.349   4.868
 6135SOL     OW18708   0.066   3.497   1.042
 6135SOL    HW118709   0.104   3.563   1.099
 6135SOL    HW218710   0.032   3.547   0.967
 6136SOL     OW18711   0.323   4.237   2.747
 6136SOL    HW118712   0.376   4.313   2.723
 6136SOL    HW218713   0.358   4.209   2.831
 6137SOL     OW18714   3.342   2.281   5.480
 6137SOL    HW118715   3.336   2.198   5.433
 6137SOL    HW218716   3.395   2.261   5.557
 6138SOL     OW18717   5.449   0.885   0.496
 6138SOL    HW118718   5.372   0.830   0.480
 6138SOL    HW218719   5.523   0.833   0.464
 6139SOL     OW18720   1.515   0.795   5.501
 6139SOL    HW118721   1.544   0.704   5.491
 6139SOL    HW218722   1.569   0.830   5.572
 6140SOL     OW18723   0.979   6.559   0.888
 6140SOL    HW118724   0.953   6.598   0.971
 6140SOL    HW218725   1.064   6.598   0.869
 6141SOL     OW18726   1.994   8.132   2.530
 6141SOL    HW118727   2.001   8.221   2.496
 6141SOL    HW218728   2.041   8.135   2.613
 6142SOL     OW18729   4.366   0.886   2.258
 6142SOL    HW118730   4.327   0.914   2.175
 6142SOL    HW218731   4.420   0.810   2.234
 6143SOL     OW18732   3.210   0.323   1.640
 6143SOL    HW118733   3.148   0.257   1.610
 6143SOL    HW218734   3.243   0.363   1.559
 6144SOL     OW18735   4.129   4.022   4.483
 6144SOL    HW118736   4.120   4.012   4.578
 6144SOL    HW218737   4.168   3.939   4.454
 6145SOL     OW18738   5.203   0.944   2.847
 6145SOL    HW118739   5.218   0.928   2.940
 6145SOL    HW218740   5.218   0.859   2.805
 6146SOL     OW18741   0.331   3.751   5.625
 6146SOL    HW118742   0.329   3.713   5.537
 6146SOL    HW218743   0.264   3.703   5.674
 6147SOL     OW18744   4.173   4.338   4.629
 6147SOL    HW118745   4.200   4.429   4.643
 6147SOL    HW218746   4.216   4.313   4.547
 6148SOL     OW18747   0.843   5.363   1.360
 6148SOL    HW118748   0.750   5.375   1.340
 6148SOL    HW218749   0.880   5.324   1.281
 6149SOL     OW18750   4.531   1.076   4.813
 6149SOL    HW118751   4.505   1.044   4.726
 6149SOL    HW218752   4.474   1.151   4.829
 6150SOL     OW18753   4.793   3.406   2.820
 6150SOL    HW118754   4.741   3.377   2.895
 6150SOL    HW218755   4.849   3.331   2.800
 6151SOL     OW18756   4.471   7.030   0.377
 6151SOL    HW118757   4.432   7.112   0.406
 6151SOL    HW218758   4.486   7.042   0.283
 6152SOL     OW18759   1.721   5.333   2.813
 6152SOL    HW118760   1.775   5.277   2.758
 6152SOL    HW218761   1.649   5.276   2.841
 6153SOL     OW18762   6.069   0.587   1.701
 6153SOL    HW118763   5.994   0.580   1.760
 6153SOL    HW218764   6.141   0.547   1.749
 6154SOL     OW18765   2.113   0.015   3.391
 6154SOL    HW118766   2.136   8.219   3.480
 6154SOL    HW218767   2.039   8.187   3.368
 6155SOL     OW18768   7.770   0.881   2.466
 6155SOL    HW118769   7.677   0.899   2.454
 6155SOL    HW218770   7.804   0.874   2.377
 6156SOL     OW18771   6.459   5.378   3.259
 6156SOL    HW118772   6.382   5.418   3.219
 6156SOL    HW218773   6.465   5.291   3.219
 6157SOL     OW18774   5.968   8.063   3.300
 6157SOL    HW118775   6.050   8.031   3.262
 6157SOL    HW218776   5.995   8.107   3.381
 6158SOL     OW18777   0.676   4.162   3.303
 6158SOL    HW118778   0.634   4.248   3.296
 6158SOL    HW218779   0.626   4.107   3.243
 6159SOL     OW18780   6.232   7.695   2.841
 6159SOL    HW118781   6.136   7.698   2.837
 6159SOL    HW218782   6.251   7.622   2.900
 6160SOL     OW18783   2.746   2.461   0.055
 6160SOL    HW118784   6.905   6.629   5.808
 6160SOL    HW218785   2.787   2.375   0.047
 6161SOL     OW18786   6.398   6.295   4.119
 6161SOL    HW118787   6.337   6.287   4.046
 6161SOL    HW218788   6.355   6.354   4.180
 6162SOL     OW18789   5.335   4.982   3.105
 6162SOL    HW118790   5.262   5.035   3.074
 6162SOL    HW218791   5.409   5.043   3.108
 6163SOL     OW18792   1.900   7.621   4.797
 6163SOL    HW118793   1.804   7.624   4.795
 6163SOL    HW218794   1.921   7.557   4.865
 6164SOL     OW18795   0.896   6.056   4.389
 6164SOL    HW118796   0.900   6.091   4.478
 6164SOL    HW218797   0.810   6.013   4.384
 6165SOL     OW18798   3.542   0.148   3.356
 6165SOL    HW118799   3.621   0.153   3.303
 6165SOL    HW218800   3.572   0.112   3.440
 6166SOL     OW18801   3.896   7.092   3.517
 6166SOL    HW118802   3.853   7.174   3.541
 6166SOL    HW218803   3.946   7.067   3.595
 6167SOL     OW18804   0.769   0.617   0.030
 6167SOL    HW118805   4.887   4.755   5.756
 6167SOL    HW218806   0.857   0.636   0.063
 6168SOL     OW18807   2.994   1.960   2.255
 6168SOL    HW118808   3.058   1.939   2.187
 6168SOL    HW218809   3.030   1.922   2.335
 6169SOL     OW18810   5.714   7.902   2.976
 6169SOL    HW118811   5.710   7.829   2.915
 6169SOL    HW218812   5.623   7.915   3.004
 6170SOL     OW18813   0.008   7.287   1.149
 6170SOL    HW118814   8.151   7.245   1.148
 6170SOL    HW218815   0.043   7.269   1.236
 6171SOL     OW18816   0.198   5.435   3.507
 6171SOL    HW118817   0.160   5.522   3.492
 6171SOL    HW218818   0.124   5.375   3.497
 6172SOL     OW18819   1.787   4.656   3.707
 6172SOL    HW118820   1.872   4.689   3.678
 6172SOL    HW218821   1.765   4.710   3.783
 6173SOL     OW18822   1.181   5.335   4.616
 6173SOL    HW118823   1.109   5.298   4.565
 6173SOL    HW218824   1.172   5.296   4.703
 6174SOL     OW18825   2.226   3.159   0.936
 6174SOL    HW118826   2.226   3.067   0.910
 6174SOL    HW218827   2.149   3.167   0.993
 6175SOL     OW18828   3.418   7.117   2.799
 6175SOL    HW118829   3.455   7.029   2.803
 6175SOL    HW218830   3.479   7.171   2.849
 6176SOL     OW18831   3.158   4.486   3.901
 6176SOL    HW118832   3.076   4.522   3.867
 6176SOL    HW218833   3.204   4.562   3.938
 6177SOL     OW18834   7.180   0.528   2.545
 6177SOL    HW118835   7.116   0.533   2.616
 6177SOL    HW218836   7.129   0.501   2.468
 6178SOL     OW18837   6.866   1.363   0.418
 6178SOL    HW118838   6.958   1.338   0.425
 6178SOL    HW218839   6.849   1.366   0.324
 6179SOL     OW18840   4.878   6.446   1.814
 6179SOL    HW118841   4.896   6.518   1.874
 6179SOL    HW218842   4.797   6.407   1.847
 6180SOL     OW18843   4.928   2.500   4.975
 6180SOL    HW118844   4.937   2.535   4.886
 6180SOL    HW218845   4.942   2.575   5.032
 6181SOL     OW18846   4.000   4.250   2.286
 6181SOL    HW118847   4.085   4.226   2.249
 6181SOL    HW218848   3.976   4.175   2.341
 6182SOL     OW18849   7.963   3.152   0.313
 6182SOL    HW118850   7.880   3.159   0.360
 6182SOL    HW218851   8.001   3.240   0.318
 6183SOL     OW18852   3.713   6.210   4.058
 6183SOL    HW118853   3.706   6.265   4.136
 6183SOL    HW218854   3.630   6.162   4.054
 6184SOL     OW18855   1.990   7.170   5.351
 6184SOL    HW118856   1.944   7.148   5.432
 6184SOL    HW218857   2.045   7.245   5.374
 6185SOL     OW18858   6.908   4.578   3.164
 6185SOL    HW118859   7.000   4.592   3.143
 6185SOL    HW218860   6.906   4.495   3.212
 6186SOL     OW18861   5.184   5.997   1.545
 6186SOL    HW118862   5.095   6.029   1.560
 6186SOL    HW218863   5.224   6.062   1.487
 6187SOL     OW18864   5.840   6.142   5.207
 6187SOL    HW118865   5.912   6.180   5.157
 6187SOL    HW218866   5.883   6.086   5.272
 6188SOL     OW18867   2.369   0.507   5.429
 6188SOL    HW118868   2.463   0.512   5.411
 6188SOL    HW218869   2.336   0.440   5.368
 6189SOL     OW18870   3.185   0.294   2.474
 6189SOL    HW118871   3.202   0.342   2.555
 6189SOL    HW218872   3.206   0.203   2.495
 6190SOL     OW18873   2.711   3.616   1.529
 6190SOL    HW118874   2.719   3.647   1.439
 6190SOL    HW218875   2.741   3.525   1.526
 6191SOL     OW18876   7.782   4.483   1.976
 6191SOL    HW118877   7.782   4.487   1.880
 6191SOL    HW218878   7.858   4.430   1.998
 6192SOL     OW18879   5.426   2.449   5.333
 6192SOL    HW118880   5.371   2.488   5.402
 6192SOL    HW218881   5.365   2.428   5.263
 6193SOL     OW18882   0.121   6.409   2.796
 6193SOL    HW118883   0.156   6.490   2.832
 6193SOL    HW218884   0.067   6.437   2.722
 6194SOL     OW18885   1.978   6.825   1.722
 6194SOL    HW118886   1.964   6.905   1.773
 6194SOL    HW218887   2.072   6.808   1.729
 6195SOL     OW18888   7.057   2.949   2.241
 6195SOL    HW118889   7.062   3.003   2.162
 6195SOL    HW218890   7.134   2.893   2.238
 6196SOL     OW18891   2.923   2.508   3.416
 6196SOL    HW118892   2.867   2.511   3.494
 6196SOL    HW218893   3.003   2.554   3.443
 6197SOL     OW18894   3.976   5.413   3.663
 6197SOL    HW118895   3.912   5.360   3.712
 6197SOL    HW218896   3.952   5.401   3.571
 6198SOL     OW18897   8.042   1.981   1.462
 6198SOL    HW118898   7.995   2.008   1.383
 6198SOL    HW218899   7.974   1.976   1.530
 6199SOL     OW18900   7.035   0.565   1.091
 6199SOL    HW118901   7.105   0.630   1.096
 6199SOL    HW218902   7.060   0.498   1.155
 6200SOL     OW18903   7.320   1.123   0.914
 6200SOL    HW118904   7.238   1.172   0.924
 6200SOL    HW218905   7.388   1.190   0.914
 6201SOL     OW18906   7.264   7.084   5.252
 6201SOL    HW118907   7.228   7.127   5.175
 6201SOL    HW218908   7.195   7.024   5.280
 6202SOL     OW18909   3.524   4.874   2.319
 6202SOL    HW118910   3.541   4.964   2.290
 6202SOL    HW218911   3.449   4.846   2.267
 6203SOL     OW18912   5.641   5.527   3.361
 6203SOL    HW118913   5.628   5.608   3.312
 6203SOL    HW218914   5.729   5.499   3.337
 6204SOL     OW18915   6.427   5.938   3.219
 6204SOL    HW118916   6.517   5.951   3.249
 6204SOL    HW218917   6.393   5.870   3.277
 6205SOL     OW18918   2.428   0.486   4.187
 6205SOL    HW118919   2.432   0.464   4.280
 6205SOL    HW218920   2.506   0.539   4.172
 6206SOL     OW18921   1.613   6.740   4.310
 6206SOL    HW118922   1.519   6.756   4.298
 6206SOL    HW218923   1.641   6.698   4.229
 6207SOL     OW18924   3.623   1.059   3.636
 6207SOL    HW118925   3.542   1.085   3.680
 6207SOL    HW218926   3.683   1.132   3.650
 6208SOL     OW18927   7.590   1.544   1.748
 6208SOL    HW118928   7.563   1.559   1.657
 6208SOL    HW218929   7.681   1.573   1.751
 6209SOL     OW18930   4.379   0.257   4.117
 6209SOL    HW118931   4.294   0.219   4.137
 6209SOL    HW218932   4.374   0.346   4.153
 6210SOL     OW18933   1.713   5.320   4.834
 6210SOL    HW118934   1.791   5.372   4.817
 6210SOL    HW218935   1.648   5.383   4.865
 6211SOL     OW18936   0.609   1.908   1.440
 6211SOL    HW118937   0.603   1.996   1.402
 6211SOL    HW218938   0.699   1.880   1.422
 6212SOL     OW18939   4.878   7.399   1.730
 6212SOL    HW118940   4.822   7.444   1.666
 6212SOL    HW218941   4.890   7.311   1.694
 6213SOL     OW18942   5.530   4.778   1.173
 6213SOL    HW118943   5.553   4.686   1.161
 6213SOL    HW218944   5.530   4.790   1.268
 6214SOL     OW18945   7.159   1.866   5.040
 6214SOL    HW118946   7.151   1.957   5.067
 6214SOL    HW218947   7.168   1.870   4.945
 6215SOL     OW18948   3.631   6.090   0.273
 6215SOL    HW118949   3.607   6.100   0.365
 6215SOL    HW218950   3.671   6.003   0.268
 6216SOL     OW18951   1.782   8.179   2.269
 6216SOL    HW118952   1.713   8.112   2.268
 6216SOL    HW218953   1.852   8.141   2.322
 6217SOL     OW18954   6.380   0.552   0.119
 6217SOL    HW118955   6.465   0.570   0.080
 6217SOL    HW218956   6.399   0.489   0.189
 6218SOL     OW18957   3.148   6.446   5.504
 6218SOL    HW118958   3.073   6.386   5.497
 6218SOL    HW218959   3.218   6.403   5.455
 6219SOL     OW18960   1.238   0.364   3.562
 6219SOL    HW118961   1.326   0.383   3.596
 6219SOL    HW218962   1.187   0.442   3.583
 6220SOL     OW18963   2.148   4.346   5.197
 6220SOL    HW118964   2.184   4.406   5.262
 6220SOL    HW218965   2.160   4.259   5.235
 6221SOL     OW18966   7.825   4.773   4.504
 6221SOL    HW118967   7.875   4.810   4.431
 6221SOL    HW218968   7.735   4.770   4.472
 6222SOL     OW18969   5.097   7.743   4.952
 6222SOL    HW118970   5.076   7.657   4.987
 6222SOL    HW218971   5.159   7.780   5.015
 6223SOL     OW18972   0.010   3.154   1.854
 6223SOL    HW118973   8.214   3.243   1.831
 6223SOL    HW218974   8.179   3.098   1.805
 6224SOL     OW18975   6.327   8.032   2.626
 6224SOL    HW118976   6.411   7.994   2.654
 6224SOL    HW218977   6.281   8.050   2.708
 6225SOL     OW18978   7.100   0.587   5.694
 6225SOL    HW118979   7.073   0.542   5.614
 6225SOL    HW218980   7.108   0.679   5.668
 6226SOL     OW18981   0.750   3.659   1.648
 6226SOL    HW118982   0.829   3.612   1.623
 6226SOL    HW218983   0.721   3.617   1.729
 6227SOL     OW18984   2.470   2.202   2.548
 6227SOL    HW118985   2.401   2.175   2.487
 6227SOL    HW218986   2.491   2.292   2.522
 6228SOL     OW18987   5.730   2.587   0.021
 6228SOL    HW118988   5.638   2.612   0.022
 6228SOL    HW218989   5.732   2.501   0.062
 6229SOL     OW18990   4.686   1.771   4.065
 6229SOL    HW118991   4.713   1.717   3.991
 6229SOL    HW218992   4.702   1.861   4.037
 6230SOL     OW18993   6.058   4.466   4.633
 6230SOL    HW118994   6.036   4.545   4.682
 6230SOL    HW218995   6.152   4.453   4.649
 6231SOL     OW18996   4.222   6.940   3.260
 6231SOL    HW118997   4.235   6.926   3.354
 6231SOL    HW218998   4.219   7.035   3.250
 6232SOL     OW18999   4.176   3.990   2.534
 6232SOL    HW119000   4.104   3.928   2.547
 6232SOL    HW219001   4.192   4.026   2.621
 6233SOL     OW19002   0.306   7.846   4.089
 6233SOL    HW119003   0.261   7.886   4.163
 6233SOL    HW219004   0.397   7.875   4.098
 6234SOL     OW19005   5.379   1.945   3.901
 6234SOL    HW119006   5.465   1.910   3.924
 6234SOL    HW219007   5.334   1.955   3.985
 6235SOL     OW19008   5.186   4.256   0.092
 6235SOL    HW119009   5.174   4.167   0.059
 6235SOL    HW219010   5.231   4.245   0.176
 6236SOL     OW19011   6.896   2.317   3.912
 6236SOL    HW119012   6.826   2.318   3.847
 6236SOL    HW219013   6.960   2.255   3.878
 6237SOL     OW19014   1.417   7.809   4.151
 6237SOL    HW119015   1.434   7.800   4.057
 6237SOL    HW219016   1.488   7.760   4.193
 6238SOL     OW19017   3.485   2.315   4.110
 6238SOL    HW119018   3.510   2.244   4.051
 6238SOL    HW219019   3.520   2.394   4.068
 6239SOL     OW19020   0.224   7.792   3.844
 6239SOL    HW119021   0.244   7.772   3.935
 6239SOL    HW219022   0.258   7.880   3.831
 6240SOL     OW19023   4.752   4.498   4.329
 6240SOL    HW119024   4.784   4.587   4.345
 6240SOL    HW219025   4.667   4.510   4.287
 6241SOL     OW19026   6.907   0.814   2.471
 6241SOL    HW119027   6.935   0.802   2.562
 6241SOL    HW219028   6.847   0.889   2.474
 6242SOL     OW19029   1.296   8.006   4.594
 6242SOL    HW119030   1.342   7.953   4.529
 6242SOL    HW219031   1.339   8.092   4.589
 6243SOL     OW19032   2.230   3.190   4.267
 6243SOL    HW119033   2.189   3.171   4.352
 6243SOL    HW219034   2.322   3.168   4.279
 6244SOL     OW19035   4.939   7.188   5.055
 6244SOL    HW119036   4.926   7.256   5.121
 6244SOL    HW219037   4.872   7.122   5.075
 6245SOL     OW19038   5.183   7.868   3.212
 6245SOL    HW119039   5.233   7.823   3.280
 6245SOL    HW219040   5.231   7.949   3.197
 6246SOL     OW19041   5.509   2.148   4.059
 6246SOL    HW119042   5.483   2.210   3.992
 6246SOL    HW219043   5.432   2.140   4.116
 6247SOL     OW19044   4.351   3.841   5.304
 6247SOL    HW119045   4.435   3.887   5.303
 6247SOL    HW219046   4.369   3.761   5.354
 6248SOL     OW19047   1.372   3.398   0.470
 6248SOL    HW119048   1.403   3.483   0.502
 6248SOL    HW219049   1.365   3.409   0.375
 6249SOL     OW19050   2.968   7.979   3.512
 6249SOL    HW119051   2.996   8.060   3.470
 6249SOL    HW219052   2.874   7.990   3.526
 6250SOL     OW19053   2.148   6.604   1.947
 6250SOL    HW119054   2.195   6.657   1.883
 6250SOL    HW219055   2.129   6.522   1.901
 6251SOL     OW19056   1.418   1.960   0.809
 6251SOL    HW119057   1.357   1.912   0.754
 6251SOL    HW219058   1.479   2.001   0.747
 6252SOL     OW19059   6.384   5.547   0.882
 6252SOL    HW119060   6.378   5.478   0.948
 6252SOL    HW219061   6.402   5.501   0.800
 6253SOL     OW19062   4.805   3.561   1.747
 6253SOL    HW119063   4.846   3.620   1.810
 6253SOL    HW219064   4.875   3.539   1.686
 6254SOL     OW19065   3.832   0.076   3.733
 6254SOL    HW119066   3.829   0.149   3.672
 6254SOL    HW219067   3.925   0.063   3.751
 6255SOL     OW19068   3.387   4.145   4.727
 6255SOL    HW119069   3.330   4.069   4.742
 6255SOL    HW219070   3.327   4.217   4.707
 6256SOL     OW19071   2.306   5.253   0.665
 6256SOL    HW119072   2.270   5.179   0.615
 6256SOL    HW219073   2.242   5.323   0.653
 6257SOL     OW19074   6.699   5.769   5.277
 6257SOL    HW119075   6.705   5.788   5.370
 6257SOL    HW219076   6.774   5.813   5.238
 6258SOL     OW19077   1.153   0.031   3.332
 6258SOL    HW119078   1.109   8.210   3.400
 6258SOL    HW219079   1.243   0.039   3.363
 6259SOL     OW19080   5.945   4.312   0.782
 6259SOL    HW119081   5.852   4.300   0.765
 6259SOL    HW219082   5.984   4.321   0.695
 6260SOL     OW19083   3.406   4.843   0.532
 6260SOL    HW119084   3.483   4.804   0.573
 6260SOL    HW219085   3.364   4.770   0.486
 6261SOL     OW19086   1.267   1.319   3.848
 6261SOL    HW119087   1.272   1.402   3.896
 6261SOL    HW219088   1.299   1.340   3.760
 6262SOL     OW19089   0.621   8.101   1.335
 6262SOL    HW119090   0.541   8.139   1.299
 6262SOL    HW219091   0.595   8.067   1.421
 6263SOL     OW19092   3.250   7.908   4.172
 6263SOL    HW119093   3.311   7.885   4.242
 6263SOL    HW219094   3.165   7.877   4.203
 6264SOL     OW19095   5.973   0.180   4.964
 6264SOL    HW119096   6.008   0.260   5.003
 6264SOL    HW219097   5.888   0.168   5.007
 6265SOL     OW19098   5.835   5.898   4.280
 6265SOL    HW119099   5.879   5.980   4.259
 6265SOL    HW219100   5.872   5.835   4.218
 6266SOL     OW19101   2.044   7.771   3.858
 6266SOL    HW119102   2.089   7.855   3.860
 6266SOL    HW219103   2.105   7.710   3.898
 6267SOL     OW19104   4.440   6.033   0.000
 6267SOL    HW119105   4.391   6.082   0.066
 6267SOL    HW219106   4.521   6.008   0.044
 6268SOL     OW19107   2.553   6.682   4.361
 6268SOL    HW119108   2.511   6.629   4.429
 6268SOL    HW219109   2.495   6.757   4.350
 6269SOL     OW19110   3.297   5.132   3.511
 6269SOL    HW119111   3.257   5.047   3.530
 6269SOL    HW219112   3.390   5.113   3.501
 6270SOL     OW19113   1.877   0.042   3.722
 6270SOL    HW119114   1.822   8.217   3.666
 6270SOL    HW219115   1.824   0.059   3.800
 6271SOL     OW19116   4.299   7.799   0.317
 6271SOL    HW119117   4.301   7.717   0.267
 6271SOL    HW219118   4.261   7.775   0.401
 6272SOL     OW19119   6.696   4.776   5.412
 6272SOL    HW119120   6.638   4.714   5.457
 6272SOL    HW219121   6.678   4.860   5.454
 6273SOL     OW19122   6.616   4.783   3.432
 6273SOL    HW119123   6.662   4.714   3.384
 6273SOL    HW219124   6.642   4.770   3.523
 6274SOL     OW19125   1.436   2.741   3.533
 6274SOL    HW119126   1.371   2.689   3.487
 6274SOL    HW219127   1.457   2.812   3.473
 6275SOL     OW19128   4.561   1.972   1.004
 6275SOL    HW119129   4.518   1.913   0.942
 6275SOL    HW219130   4.531   1.944   1.090
 6276SOL     OW19131   6.692   2.684   4.807
 6276SOL    HW119132   6.640   2.661   4.884
 6276SOL    HW219133   6.692   2.780   4.806
 6277SOL     OW19134   1.053   2.830   4.527
 6277SOL    HW119135   1.042   2.885   4.604
 6277SOL    HW219136   1.148   2.818   4.519
 6278SOL     OW19137   5.358   0.739   5.503
 6278SOL    HW119138   5.266   0.764   5.515
 6278SOL    HW219139   5.403   0.776   5.579
 6279SOL     OW19140   1.211   1.623   2.824
 6279SOL    HW119141   1.214   1.532   2.793
 6279SOL    HW219142   1.296   1.637   2.865
 6280SOL     OW19143   1.959   7.463   4.448
 6280SOL    HW119144   1.893   7.450   4.517
 6280SOL    HW219145   2.001   7.377   4.439
 6281SOL     OW19146   3.629   4.994   1.368
 6281SOL    HW119147   3.569   5.003   1.294
 6281SOL    HW219148   3.691   4.927   1.340
 6282SOL     OW19149   0.343   4.272   5.331
 6282SOL    HW119150   0.427   4.227   5.341
 6282SOL    HW219151   0.333   4.322   5.412
 6283SOL     OW19152   4.039   5.879   2.279
 6283SOL    HW119153   4.042   5.795   2.325
 6283SOL    HW219154   3.966   5.871   2.218
 6284SOL     OW19155   3.613   6.949   0.299
 6284SOL    HW119156   3.643   6.879   0.357
 6284SOL    HW219157   3.568   7.010   0.357
 6285SOL     OW19158   8.138   6.575   3.787
 6285SOL    HW119159   8.177   6.649   3.833
 6285SOL    HW219160   8.100   6.613   3.708
 6286SOL     OW19161   6.509   5.136   2.366
 6286SOL    HW119162   6.423   5.178   2.369
 6286SOL    HW219163   6.558   5.188   2.302
 6287SOL     OW19164   0.616   2.380   3.835
 6287SOL    HW119165   0.539   2.436   3.842
 6287SOL    HW219166   0.627   2.366   3.741
 6288SOL     OW19167   1.481   5.861   4.008
 6288SOL    HW119168   1.435   5.945   4.012
 6288SOL    HW219169   1.574   5.884   4.014
 6289SOL     OW19170   7.887   1.911   3.880
 6289SOL    HW119171   7.798   1.947   3.884
 6289SOL    HW219172   7.885   1.848   3.808
 6290SOL     OW19173   0.785   5.006   5.318
 6290SOL    HW119174   0.790   4.910   5.319
 6290SOL    HW219175   0.868   5.034   5.279
 6291SOL     OW19176   0.891   5.026   0.571
 6291SOL    HW119177   0.939   5.102   0.537
 6291SOL    HW219178   0.907   5.028   0.665
 6292SOL     OW19179   4.601   5.363   1.484
 6292SOL    HW119180   4.573   5.305   1.555
 6292SOL    HW219181   4.643   5.305   1.420
 6293SOL     OW19182   3.144   7.514   4.185
 6293SOL    HW119183   3.129   7.480   4.273
 6293SOL    HW219184   3.075   7.579   4.172
 6294SOL     OW19185   3.656   0.459   5.621
 6294SOL    HW119186   3.571   0.477   5.581
 6294SOL    HW219187   3.644   0.480   5.714
 6295SOL     OW19188   2.692   3.207   4.702
 6295SOL    HW119189   2.607   3.250   4.703
 6295SOL    HW219190   2.694   3.155   4.782
 6296SOL     OW19191   4.827   2.324   5.549
 6296SOL    HW119192   4.859   2.293   5.464
 6296SOL    HW219193   4.895   2.384   5.580
 6297SOL     OW19194   5.686   4.532   0.808
 6297SOL    HW119195   5.687   4.487   0.892
 6297SOL    HW219196   5.596   4.521   0.776
 6298SOL     OW19197   4.021   6.410   1.351
 6298SOL    HW119198   3.988   6.336   1.402
 6298SOL    HW219199   4.052   6.472   1.417
 6299SOL     OW19200   5.279   1.769   5.410
 6299SOL    HW119201   5.304   1.681   5.382
 6299SOL    HW219202   5.322   1.781   5.494
 6300SOL     OW19203   2.092   3.847   4.335
 6300SOL    HW119204   2.164   3.908   4.318
 6300SOL    HW219205   2.133   3.773   4.379
 6301SOL     OW19206   7.813   1.670   4.981
 6301SOL    HW119207   7.768   1.693   4.900
 6301SOL    HW219208   7.742   1.658   5.045
 6302SOL     OW19209   3.815   7.722   1.302
 6302SOL    HW119210   3.751   7.708   1.371
 6302SOL    HW219211   3.846   7.634   1.279
 6303SOL     OW19212   2.613   2.233   4.738
 6303SOL    HW119213   2.655   2.163   4.688
 6303SOL    HW219214   2.665   2.239   4.818
 6304SOL     OW19215   1.643   2.974   2.208
 6304SOL    HW119216   1.664   3.067   2.198
 6304SOL    HW219217   1.702   2.943   2.277
 6305SOL     OW19218   2.779   2.598   3.186
 6305SOL    HW119219   2.833   2.565   3.258
 6305SOL    HW219220   2.835   2.591   3.109
 6306SOL     OW19221   1.606   2.387   2.938
 6306SOL    HW119222   1.684   2.380   2.883
 6306SOL    HW219223   1.542   2.433   2.884
 6307SOL     OW19224   4.433   1.672   2.527
 6307SOL    HW119225   4.451   1.725   2.450
 6307SOL    HW219226   4.444   1.582   2.497
 6308SOL     OW19227   1.950   4.718   3.205
 6308SOL    HW119228   2.017   4.684   3.264
 6308SOL    HW219229   1.897   4.775   3.260
 6309SOL     OW19230   2.033   6.933   3.221
 6309SOL    HW119231   2.099   6.865   3.210
 6309SOL    HW219232   1.972   6.920   3.148
 6310SOL     OW19233   2.645   5.820   4.371
 6310SOL    HW119234   2.693   5.741   4.398
 6310SOL    HW219235   2.603   5.851   4.451
 6311SOL     OW19236   1.084   5.194   3.257
 6311SOL    HW119237   1.055   5.261   3.195
 6311SOL    HW219238   1.085   5.239   3.342
 6312SOL     OW19239   3.023   1.936   3.583
 6312SOL    HW119240   3.024   1.893   3.497
 6312SOL    HW219241   3.000   2.027   3.564
 6313SOL     OW19242   7.393   1.838   3.385
 6313SOL    HW119243   7.298   1.844   3.398
 6313SOL    HW219244   7.430   1.849   3.472
 6314SOL     OW19245   1.971   5.574   3.158
 6314SOL    HW119246   2.047   5.523   3.129
 6314SOL    HW219247   1.906   5.508   3.184
 6315SOL     OW19248   4.917   4.686   4.060
 6315SOL    HW119249   4.884   4.723   4.142
 6315SOL    HW219250   4.966   4.757   4.020
 6316SOL     OW19251   4.506   4.211   0.873
 6316SOL    HW119252   4.474   4.183   0.959
 6316SOL    HW219253   4.443   4.174   0.811
 6317SOL     OW19254   7.632   0.110   1.548
 6317SOL    HW119255   7.558   0.157   1.509
 6317SOL    HW219256   7.592   0.050   1.610
 6318SOL     OW19257   5.617   7.000   5.556
 6318SOL    HW119258   5.613   7.016   5.462
 6318SOL    HW219259   5.616   6.905   5.564
 6319SOL     OW19260   0.871   0.156   5.066
 6319SOL    HW119261   0.895   0.185   5.154
 6319SOL    HW219262   0.799   0.214   5.041
 6320SOL     OW19263   2.385   3.931   4.587
 6320SOL    HW119264   2.433   3.965   4.663
 6320SOL    HW219265   2.312   3.992   4.576
 6321SOL     OW19266   1.785   2.994   3.362
 6321SOL    HW119267   1.797   2.922   3.300
 6321SOL    HW219268   1.737   2.955   3.435
 6322SOL     OW19269   3.307   0.271   5.736
 6322SOL    HW119270   3.232   0.288   5.680
 6322SOL    HW219271   3.347   0.192   5.699
 6323SOL     OW19272   3.314   8.082   1.584
 6323SOL    HW119273   3.300   7.988   1.596
 6323SOL    HW219274   3.346   8.091   1.494
 6324SOL     OW19275   1.355   7.213   0.232
 6324SOL    HW119276   1.305   7.255   0.162
 6324SOL    HW219277   1.437   7.263   0.236
 6325SOL     OW19278   6.741   8.178   0.426
 6325SOL    HW119279   6.812   8.180   0.362
 6325SOL    HW219280   6.694   0.031   0.412
 6326SOL     OW19281   7.005   3.155   2.898
 6326SOL    HW119282   6.985   3.233   2.949
 6326SOL    HW219283   7.089   3.175   2.856
 6327SOL     OW19284   5.907   5.470   0.212
 6327SOL    HW119285   5.934   5.527   0.284
 6327SOL    HW219286   5.872   5.530   0.146
 6328SOL     OW19287   1.525   5.405   3.794
 6328SOL    HW119288   1.483   5.479   3.838
 6328SOL    HW219289   1.609   5.395   3.838
 6329SOL     OW19290   6.763   4.571   2.928
 6329SOL    HW119291   6.790   4.643   2.871
 6329SOL    HW219292   6.809   4.587   3.010
 6330SOL     OW19293   1.143   5.030   4.583
 6330SOL    HW119294   1.192   5.032   4.501
 6330SOL    HW219295   1.148   4.939   4.612
 6331SOL     OW19296   6.677   4.720   2.384
 6331SOL    HW119297   6.648   4.796   2.434
 6331SOL    HW219298   6.651   4.739   2.294
 6332SOL     OW19299   0.422   7.291   1.267
 6332SOL    HW119300   0.517   7.287   1.262
 6332SOL    HW219301   0.398   7.366   1.213
 6333SOL     OW19302   4.457   1.191   3.764
 6333SOL    HW119303   4.408   1.123   3.810
 6333SOL    HW219304   4.457   1.265   3.824
 6334SOL     OW19305   7.670   1.688   5.230
 6334SOL    HW119306   7.582   1.651   5.236
 6334SOL    HW219307   7.657   1.773   5.187
 6335SOL     OW19308   0.872   1.857   3.917
 6335SOL    HW119309   0.783   1.858   3.883
 6335SOL    HW219310   0.868   1.908   3.998
 6336SOL     OW19311   3.524   5.200   0.775
 6336SOL    HW119312   3.581   5.127   0.798
 6336SOL    HW219313   3.441   5.159   0.751
 6337SOL     OW19314   6.893   1.420   4.553
 6337SOL    HW119315   6.907   1.326   4.544
 6337SOL    HW219316   6.814   1.427   4.606
 6338SOL     OW19317   0.090   7.393   0.226
 6338SOL    HW119318   0.056   7.309   0.197
 6338SOL    HW219319   0.181   7.375   0.249
 6339SOL     OW19320   4.388   2.471   3.440
 6339SOL    HW119321   4.310   2.487   3.386
 6339SOL    HW219322   4.438   2.553   3.435
 6340SOL     OW19323   6.101   3.470   1.781
 6340SOL    HW119324   6.014   3.445   1.811
 6340SOL    HW219325   6.118   3.554   1.823
 6341SOL     OW19326   8.186   8.027   2.091
 6341SOL    HW119327   0.036   7.990   2.052
 6341SOL    HW219328   8.217   8.075   2.168
 6342SOL     OW19329   0.494   4.504   1.244
 6342SOL    HW119330   0.513   4.476   1.333
 6342SOL    HW219331   0.424   4.446   1.214
 6343SOL     OW19332   5.245   3.971   3.569
 6343SOL    HW119333   5.303   3.896   3.583
 6343SOL    HW219334   5.282   4.017   3.494
 6344SOL     OW19335   0.919   5.325   2.312
 6344SOL    HW119336   0.929   5.343   2.218
 6344SOL    HW219337   0.937   5.231   2.320
 6345SOL     OW19338   1.171   2.708   3.839
 6345SOL    HW119339   1.107   2.774   3.814
 6345SOL    HW219340   1.119   2.633   3.867
 6346SOL     OW19341   2.167   7.550   3.304
 6346SOL    HW119342   2.226   7.601   3.359
 6346SOL    HW219343   2.143   7.475   3.358
 6347SOL     OW19344   1.128   3.907   3.352
 6347SOL    HW119345   1.119   3.876   3.262
 6347SOL    HW219346   1.043   3.946   3.373
 6348SOL     OW19347   4.794   3.568   1.049
 6348SOL    HW119348   4.739   3.546   0.973
 6348SOL    HW219349   4.866   3.506   1.045
 6349SOL     OW19350   3.585   6.024   1.152
 6349SOL    HW119351   3.621   6.084   1.217
 6349SOL    HW219352   3.619   6.055   1.068
 6350SOL     OW19353   0.361   3.942   1.487
 6350SOL    HW119354   0.324   3.883   1.421
 6350SOL    HW219355   0.310   3.924   1.566
 6351SOL     OW19356   6.113   7.023   5.360
 6351SOL    HW119357   6.030   6.976   5.354
 6351SOL    HW219358   6.175   6.968   5.312
 6352SOL     OW19359   6.150   7.949   5.126
 6352SOL    HW119360   6.206   7.871   5.121
 6352SOL    HW219361   6.132   7.971   5.035
 6353SOL     OW19362   7.038   6.218   4.104
 6353SOL    HW119363   7.074   6.176   4.026
 6353SOL    HW219364   6.992   6.295   4.071
 6354SOL     OW19365   7.254   4.643   3.927
 6354SOL    HW119366   7.173   4.661   3.976
 6354SOL    HW219367   7.319   4.700   3.967
 6355SOL     OW19368   4.264   0.125   3.492
 6355SOL    HW119369   4.336   0.173   3.533
 6355SOL    HW219370   4.218   0.191   3.440
 6356SOL     OW19371   4.417   0.476   0.021
 6356SOL    HW119372   0.389   4.587   5.800
 6356SOL    HW219373   0.256   4.658   5.790
 6357SOL     OW19374   3.035   1.959   5.350
 6357SOL    HW119375   3.103   2.026   5.341
 6357SOL    HW219376   3.049   1.923   5.438
 6358SOL     OW19377   8.049   3.396   4.885
 6358SOL    HW119378   8.086   3.438   4.808
 6358SOL    HW219379   8.124   3.379   4.942
 6359SOL     OW19380   3.257   2.008   4.566
 6359SOL    HW119381   3.296   2.088   4.601
 6359SOL    HW219382   3.219   2.034   4.482
 6360SOL     OW19383   5.065   1.222   4.011
 6360SOL    HW119384   5.032   1.229   3.922
 6360SOL    HW219385   5.054   1.130   4.034
 6361SOL     OW19386   4.046   7.749   1.048
 6361SOL    HW119387   4.018   7.683   1.111
 6361SOL    HW219388   4.014   7.716   0.964
 6362SOL     OW19389   3.779   3.909   2.280
 6362SOL    HW119390   3.739   3.828   2.312
 6362SOL    HW219391   3.861   3.880   2.239
 6363SOL     OW19392   7.850   0.625   1.214
 6363SOL    HW119393   7.866   0.687   1.143
 6363SOL    HW219394   7.907   0.654   1.285
 6364SOL     OW19395   7.824   7.944   3.643
 6364SOL    HW119396   7.849   7.854   3.664
 6364SOL    HW219397   7.907   7.987   3.622
 6365SOL     OW19398   7.496   6.412   5.300
 6365SOL    HW119399   7.545   6.373   5.372
 6365SOL    HW219400   7.435   6.344   5.273
 6366SOL     OW19401   5.178   5.402   2.126
 6366SOL    HW119402   5.189   5.426   2.218
 6366SOL    HW219403   5.167   5.485   2.080
 6367SOL     OW19404   7.779   5.663   4.181
 6367SOL    HW119405   7.733   5.655   4.097
 6367SOL    HW219406   7.841   5.734   4.167
 6368SOL     OW19407   4.618   4.787   0.398
 6368SOL    HW119408   4.569   4.801   0.317
 6368SOL    HW219409   4.597   4.697   0.424
 6369SOL     OW19410   2.846   3.073   1.799
 6369SOL    HW119411   2.853   3.071   1.704
 6369SOL    HW219412   2.788   3.146   1.818
 6370SOL     OW19413   0.920   3.343   5.560
 6370SOL    HW119414   0.872   3.260   5.562
 6370SOL    HW219415   0.868   3.402   5.615
 6371SOL     OW19416   1.076   1.557   5.784
 6371SOL    HW119417   1.155   1.610   5.793
 6371SOL    HW219418   5.215   5.587   0.002
 6372SOL     OW19419   1.306   7.824   1.580
 6372SOL    HW119420   1.313   7.785   1.493
 6372SOL    HW219421   1.393   7.813   1.618
 6373SOL     OW19422   3.431   2.709   3.441
 6373SOL    HW119423   3.465   2.632   3.396
 6373SOL    HW219424   3.458   2.783   3.386
 6374SOL     OW19425   2.998   1.482   0.223
 6374SOL    HW119426   3.070   1.421   0.207
 6374SOL    HW219427   2.972   1.465   0.314
 6375SOL     OW19428   4.909   4.756   0.186
 6375SOL    HW119429   5.001   4.781   0.177
 6375SOL    HW219430   4.912   4.664   0.212
 6376SOL     OW19431   6.292   4.715   1.148
 6376SOL    HW119432   6.251   4.777   1.208
 6376SOL    HW219433   6.323   4.769   1.075
 6377SOL     OW19434   3.077   5.793   3.376
 6377SOL    HW119435   3.009   5.843   3.421
 6377SOL    HW219436   3.065   5.703   3.406
 6378SOL     OW19437   6.451   7.658   4.070
 6378SOL    HW119438   6.513   7.731   4.071
 6378SOL    HW219439   6.417   7.655   4.159
 6379SOL     OW19440   1.504   3.290   5.551
 6379SOL    HW119441   1.416   3.303   5.587
 6379SOL    HW219442   1.542   3.378   5.550
 6380SOL     OW19443   1.483   6.964   3.563
 6380SOL    HW119444   1.536   6.972   3.484
 6380SOL    HW219445   1.545   6.941   3.632
 6381SOL     OW19446   7.704   4.679   0.037
 6381SOL    HW119447   7.644   4.744   0.002
 6381SOL    HW219448   7.756   4.727   0.102
 6382SOL     OW19449   4.127   5.480   3.017
 6382SOL    HW119450   4.164   5.549   3.073
 6382SOL    HW219451   4.203   5.441   2.973
 6383SOL     OW19452   4.322   0.614   3.867
 6383SOL    HW119453   4.297   0.566   3.946
 6383SOL    HW219454   4.294   0.704   3.884
 6384SOL     OW19455   6.611   5.329   5.299
 6384SOL    HW119456   6.553   5.378   5.357
 6384SOL    HW219457   6.698   5.339   5.338
 6385SOL     OW19458   3.608   0.786   3.587
 6385SOL    HW119459   3.608   0.882   3.592
 6385SOL    HW219460   3.547   0.758   3.655
 6386SOL     OW19461   7.601   6.193   5.471
 6386SOL    HW119462   7.585   6.164   5.561
 6386SOL    HW219463   7.536   6.147   5.418
 6387SOL     OW19464   7.009   2.592   5.736
 6387SOL    HW119465   7.104   2.605   5.742
 6387SOL    HW219466   7.000   2.509   5.689
 6388SOL     OW19467   7.306   6.595   3.368
 6388SOL    HW119468   7.323   6.610   3.461
 6388SOL    HW219469   7.386   6.624   3.324
 6389SOL     OW19470   2.413   1.011   4.589
 6389SOL    HW119471   2.405   0.984   4.497
 6389SOL    HW219472   2.343   1.075   4.602
 6390SOL     OW19473   7.159   5.368   3.528
 6390SOL    HW119474   7.213   5.430   3.577
 6390SOL    HW219475   7.100   5.331   3.593
 6391SOL     OW19476   7.190   1.040   4.092
 6391SOL    HW119477   7.284   1.036   4.108
 6391SOL    HW219478   7.167   0.953   4.060
 6392SOL     OW19479   0.920   4.285   0.363
 6392SOL    HW119480   0.931   4.240   0.447
 6392SOL    HW219481   0.836   4.330   0.370
 6393SOL     OW19482   7.211   0.279   5.358
 6393SOL    HW119483   7.217   0.251   5.449
 6393SOL    HW219484   7.261   0.213   5.310
 6394SOL     OW19485   5.983   5.010   3.954
 6394SOL    HW119486   6.008   5.032   4.044
 6394SOL    HW219487   6.066   4.988   3.911
 6395SOL     OW19488   1.234   7.060   5.625
 6395SOL    HW119489   1.220   7.155   5.620
 6395SOL    HW219490   1.162   7.022   5.575
 6396SOL     OW19491   3.617   2.366   0.996
 6396SOL    HW119492   3.641   2.456   0.973
 6396SOL    HW219493   3.680   2.312   0.948
 6397SOL     OW19494   6.797   7.419   4.965
 6397SOL    HW119495   6.746   7.468   4.900
 6397SOL    HW219496   6.740   7.347   4.991
 6398SOL     OW19497   7.449   6.799   0.091
 6398SOL    HW119498   7.462   6.890   0.063
 6398SOL    HW219499   7.433   6.806   0.185
 6399SOL     OW19500   4.818   7.163   1.263
 6399SOL    HW119501   4.906   7.154   1.298
 6399SOL    HW219502   4.795   7.254   1.280
 6400SOL     OW19503   2.794   0.644   2.885
 6400SOL    HW119504   2.755   0.679   2.965
 6400SOL    HW219505   2.856   0.711   2.857
 6401SOL     OW19506   6.491   7.388   2.350
 6401SOL    HW119507   6.447   7.468   2.380
 6401SOL    HW219508   6.527   7.412   2.264
 6402SOL     OW19509   3.713   6.021   1.560
 6402SOL    HW119510   3.623   5.989   1.570
 6402SOL    HW219511   3.704   6.116   1.550
 6403SOL     OW19512   1.558   4.164   0.929
 6403SOL    HW119513   1.598   4.236   0.979
 6403SOL    HW219514   1.520   4.107   0.996
 6404SOL     OW19515   2.432   2.194   0.044
 6404SOL    HW119516   2.472   2.277   0.019
 6404SOL    HW219517   2.404   2.208   0.135
 6405SOL     OW19518   7.813   1.608   0.428
 6405SOL    HW119519   7.742   1.672   0.422
 6405SOL    HW219520   7.863   1.634   0.505
 6406SOL     OW19521   1.965   3.754   5.526
 6406SOL    HW119522   1.954   3.661   5.547
 6406SOL    HW219523   1.941   3.800   5.606
 6407SOL     OW19524   0.642   2.745   0.507
 6407SOL    HW119525   0.614   2.758   0.416
 6407SOL    HW219526   0.574   2.689   0.545
 6408SOL     OW19527   0.149   1.292   4.490
 6408SOL    HW119528   0.133   1.296   4.584
 6408SOL    HW219529   0.082   1.233   4.456
 6409SOL     OW19530   1.943   1.723   3.086
 6409SOL    HW119531   1.854   1.756   3.096
 6409SOL    HW219532   1.998   1.800   3.096
 6410SOL     OW19533   6.068   0.797   2.466
 6410SOL    HW119534   6.070   0.771   2.558
 6410SOL    HW219535   6.122   0.876   2.462
 6411SOL     OW19536   5.309   4.741   0.988
 6411SOL    HW119537   5.249   4.812   1.009
 6411SOL    HW219538   5.366   4.734   1.065
 6412SOL     OW19539   6.013   6.323   1.455
 6412SOL    HW119540   6.046   6.388   1.517
 6412SOL    HW219541   6.027   6.239   1.499
 6413SOL     OW19542   1.207   0.335   3.033
 6413SOL    HW119543   1.171   0.357   3.119
 6413SOL    HW219544   1.230   0.242   3.039
 6414SOL     OW19545   2.128   1.511   0.701
 6414SOL    HW119546   2.162   1.490   0.614
 6414SOL    HW219547   2.065   1.442   0.720
 6415SOL     OW19548   3.126   2.191   1.479
 6415SOL    HW119549   3.202   2.236   1.516
 6415SOL    HW219550   3.118   2.110   1.530
 6416SOL     OW19551   0.016   0.324   2.369
 6416SOL    HW119552   8.187   0.354   2.439
 6416SOL    HW219553   0.101   0.313   2.412
 6417SOL     OW19554   2.077   1.193   0.321
 6417SOL    HW119555   2.067   1.128   0.390
 6417SOL    HW219556   2.064   1.144   0.240
 6418SOL     OW19557   1.038   7.068   3.342
 6418SOL    HW119558   1.058   7.076   3.249
 6418SOL    HW219559   1.080   6.986   3.368
 6419SOL     OW19560   3.107   6.884   4.531
 6419SOL    HW119561   3.160   6.856   4.456
 6419SOL    HW219562   3.124   6.818   4.598
 6420SOL     OW19563   7.002   4.526   2.168
 6420SOL    HW119564   7.075   4.475   2.132
 6420SOL    HW219565   6.989   4.596   2.104
 6421SOL     OW19566   3.753   5.446   5.203
 6421SOL    HW119567   3.782   5.497   5.127
 6421SOL    HW219568   3.819   5.378   5.213
 6422SOL     OW19569   4.708   1.148   1.711
 6422SOL    HW119570   4.704   1.057   1.680
 6422SOL    HW219571   4.684   1.143   1.803
 6423SOL     OW19572   2.386   5.802   5.429
 6423SOL    HW119573   2.322   5.816   5.359
 6423SOL    HW219574   2.354   5.725   5.476
 6424SOL     OW19575   6.875   0.259   0.655
 6424SOL    HW119576   6.818   0.313   0.710
 6424SOL    HW219577   6.839   0.269   0.567
 6425SOL     OW19578   4.238   7.267   3.992
 6425SOL    HW119579   4.178   7.250   4.064
 6425SOL    HW219580   4.274   7.181   3.970
 6426SOL     OW19581   3.534   0.364   3.172
 6426SOL    HW119582   3.562   0.299   3.237
 6426SOL    HW219583   3.572   0.446   3.202
 6427SOL     OW19584   7.938   4.174   0.383
 6427SOL    HW119585   7.923   4.254   0.434
 6427SOL    HW219586   7.912   4.103   0.441
 6428SOL     OW19587   0.444   4.998   0.103
 6428SOL    HW119588   0.481   5.025   0.019
 6428SOL    HW219589   0.431   4.904   0.094
 6429SOL     OW19590   3.339   3.668   2.501
 6429SOL    HW119591   3.430   3.683   2.528
 6429SOL    HW219592   3.345   3.638   2.410
 6430SOL     OW19593   0.660   1.635   3.421
 6430SOL    HW119594   0.642   1.553   3.466
 6430SOL    HW219595   0.754   1.648   3.432
 6431SOL     OW19596   0.081   2.596   3.721
 6431SOL    HW119597   0.159   2.584   3.668
 6431SOL    HW219598   0.010   2.560   3.668
 6432SOL     OW19599   2.557   2.840   4.868
 6432SOL    HW119600   2.505   2.787   4.808
 6432SOL    HW219601   2.539   2.803   4.954
 6433SOL     OW19602   4.881   7.793   3.147
 6433SOL    HW119603   4.963   7.776   3.194
 6433SOL    HW219604   4.839   7.863   3.196
 6434SOL     OW19605   6.113   1.368   5.815
 6434SOL    HW119606   2.067   5.421   0.021
 6434SOL    HW219607   6.145   1.409   5.734
 6435SOL     OW19608   0.079   5.662   3.442
 6435SOL    HW119609   0.085   5.743   3.493
 6435SOL    HW219610   0.090   5.689   3.351
 6436SOL     OW19611   6.286   7.709   5.228
 6436SOL    HW119612   6.308   7.619   5.251
 6436SOL    HW219613   6.361   7.761   5.258
 6437SOL     OW19614   0.305   4.100   3.802
 6437SOL    HW119615   0.358   4.023   3.782
 6437SOL    HW219616   0.369   4.171   3.811
 6438SOL     OW19617   4.694   1.312   2.541
 6438SOL    HW119618   4.744   1.389   2.566
 6438SOL    HW219619   4.720   1.295   2.450
 6439SOL     OW19620   1.309   3.475   2.795
 6439SOL    HW119621   1.316   3.536   2.722
 6439SOL    HW219622   1.398   3.442   2.808
 6440SOL     OW19623   7.418   6.980   1.546
 6440SOL    HW119624   7.489   6.954   1.488
 6440SOL    HW219625   7.459   7.041   1.608
 6441SOL     OW19626   3.454   2.755   0.881
 6441SOL    HW119627   3.431   2.747   0.974
 6441SOL    HW219628   3.542   2.717   0.875
 6442SOL     OW19629   7.994   5.546   1.692
 6442SOL    HW119630   8.013   5.523   1.783
 6442SOL    HW219631   7.983   5.641   1.694
 6443SOL     OW19632   4.323   5.837   0.629
 6443SOL    HW119633   4.274   5.812   0.551
 6443SOL    HW219634   4.412   5.805   0.612
 6444SOL     OW19635   1.965   0.678   3.798
 6444SOL    HW119636   2.020   0.656   3.723
 6444SOL    HW219637   1.897   0.734   3.761
 6445SOL     OW19638   2.992   5.051   1.819
 6445SOL    HW119639   3.040   5.121   1.774
 6445SOL    HW219640   2.909   5.045   1.771
 6446SOL     OW19641   7.653   0.159   1.071
 6446SOL    HW119642   7.558   0.170   1.071
 6446SOL    HW219643   7.688   0.246   1.091
 6447SOL     OW19644   3.191   7.756   1.567
 6447SOL    HW119645   3.144   7.674   1.582
 6447SOL    HW219646   3.256   7.735   1.500
 6448SOL     OW19647   8.148   4.870   3.327
 6448SOL    HW119648   8.125   4.926   3.401
 6448SOL    HW219649   8.222   4.914   3.286
 6449SOL     OW19650   0.204   4.599   0.201
 6449SOL    HW119651   0.279   4.575   0.146
 6449SOL    HW219652   0.142   4.641   0.141
 6450SOL     OW19653   3.805   6.687   4.950
 6450SOL    HW119654   3.873   6.623   4.968
 6450SOL    HW219655   3.811   6.750   5.022
 6451SOL     OW19656   4.031   7.941   0.335
 6451SOL    HW119657   4.074   7.880   0.395
 6451SOL    HW219658   3.937   7.926   0.349
 6452SOL     OW19659   0.650   1.348   0.450
 6452SOL    HW119660   0.604   1.359   0.366
 6452SOL    HW219661   0.580   1.329   0.513
 6453SOL     OW19662   6.631   7.346   5.507
 6453SOL    HW119663   6.576   7.300   5.570
 6453SOL    HW219664   6.679   7.277   5.462
 6454SOL     OW19665   3.286   5.749   2.104
 6454SOL    HW119666   3.299   5.838   2.136
 6454SOL    HW219667   3.286   5.695   2.183
 6455SOL     OW19668   4.960   3.016   0.478
 6455SOL    HW119669   5.006   2.951   0.531
 6455SOL    HW219670   5.024   3.086   0.465
 6456SOL     OW19671   7.917   2.512   0.020
 6456SOL    HW119672   8.008   2.484   0.019
 6456SOL    HW219673   7.875   2.456   0.086
 6457SOL     OW19674   5.192   7.274   3.399
 6457SOL    HW119675   5.140   7.209   3.447
 6457SOL    HW219676   5.140   7.354   3.403
 6458SOL     OW19677   1.777   0.081   5.061
 6458SOL    HW119678   1.851   0.121   5.107
 6458SOL    HW219679   1.714   0.061   5.130
 6459SOL     OW19680   5.993   4.217   3.269
 6459SOL    HW119681   5.981   4.285   3.335
 6459SOL    HW219682   5.917   4.224   3.212
 6460SOL     OW19683   7.807   7.706   1.708
 6460SOL    HW119684   7.738   7.769   1.728
 6460SOL    HW219685   7.857   7.698   1.789
 6461SOL     OW19686   4.433   6.946   3.017
 6461SOL    HW119687   4.493   7.018   2.998
 6461SOL    HW219688   4.400   6.965   3.105
 6462SOL     OW19689   5.517   5.400   2.121
 6462SOL    HW119690   5.546   5.334   2.184
 6462SOL    HW219691   5.432   5.429   2.154
 6463SOL     OW19692   5.512   0.458   2.559
 6463SOL    HW119693   5.470   0.483   2.477
 6463SOL    HW219694   5.511   0.362   2.558
 6464SOL     OW19695   7.465   3.503   3.247
 6464SOL    HW119696   7.394   3.503   3.311
 6464SOL    HW219697   7.430   3.551   3.172
 6465SOL     OW19698   0.869   6.464   5.670
 6465SOL    HW119699   0.885   6.379   5.629
 6465SOL    HW219700   0.775   6.480   5.658
 6466SOL     OW19701   0.844   2.869   2.388
 6466SOL    HW119702   0.788   2.927   2.336
 6466SOL    HW219703   0.896   2.822   2.323
 6467SOL     OW19704   4.291   5.018   1.540
 6467SOL    HW119705   4.246   4.942   1.503
 6467SOL    HW219706   4.350   4.981   1.605
 6468SOL     OW19707   2.296   7.226   3.177
 6468SOL    HW119708   2.303   7.225   3.082
 6468SOL    HW219709   2.238   7.300   3.195
 6469SOL     OW19710   0.844   5.607   3.706
 6469SOL    HW119711   0.796   5.559   3.773
 6469SOL    HW219712   0.930   5.565   3.703
 6470SOL     OW19713   0.875   0.947   2.166
 6470SOL    HW119714   0.863   1.011   2.096
 6470SOL    HW219715   0.819   0.979   2.237
 6471SOL     OW19716   3.511   3.294   1.855
 6471SOL    HW119717   3.576   3.246   1.906
 6471SOL    HW219718   3.437   3.234   1.849
 6472SOL     OW19719   5.549   1.049   1.569
 6472SOL    HW119720   5.530   0.966   1.612
 6472SOL    HW219721   5.634   1.035   1.528
 6473SOL     OW19722   0.741   0.143   2.913
 6473SOL    HW119723   0.803   0.215   2.922
 6473SOL    HW219724   0.772   0.095   2.836
 6474SOL     OW19725   3.059   5.812   2.320
 6474SOL    HW119726   2.979   5.827   2.371
 6474SOL    HW219727   3.047   5.724   2.283
 6475SOL     OW19728   4.845   3.961   0.242
 6475SOL    HW119729   4.845   3.913   0.325
 6475SOL    HW219730   4.830   4.052   0.267
 6476SOL     OW19731   0.410   4.849   4.939
 6476SOL    HW119732   0.419   4.940   4.910
 6476SOL    HW219733   0.353   4.854   5.016
 6477SOL     OW19734   0.704   2.312   4.224
 6477SOL    HW119735   0.729   2.367   4.150
 6477SOL    HW219736   0.611   2.295   4.211
 6478SOL     OW19737   7.239   8.103   0.911
 6478SOL    HW119738   7.221   8.106   0.817
 6478SOL    HW219739   7.333   8.120   0.919
 6479SOL     OW19740   3.655   5.905   4.593
 6479SOL    HW119741   3.673   5.856   4.513
 6479SOL    HW219742   3.660   5.997   4.566
 6480SOL     OW19743   2.035   7.588   1.925
 6480SOL    HW119744   1.951   7.610   1.885
 6480SOL    HW219745   2.091   7.564   1.851
 6481SOL     OW19746   5.771   1.095   1.049
 6481SOL    HW119747   5.776   1.101   1.144
 6481SOL    HW219748   5.809   1.010   1.028
 6482SOL     OW19749   1.926   2.640   2.718
 6482SOL    HW119750   1.946   2.640   2.812
 6482SOL    HW219751   1.939   2.731   2.690
 6483SOL     OW19752   7.004   5.202   1.084
 6483SOL    HW119753   6.985   5.206   0.990
 6483SOL    HW219754   7.092   5.238   1.092
 6484SOL     OW19755   5.074   5.961   5.720
 6484SOL    HW119756   4.991   5.982   5.678
 6484SOL    HW219757   5.065   5.995   5.809
 6485SOL     OW19758   2.310   2.789   3.293
 6485SOL    HW119759   2.388   2.736   3.276
 6485SOL    HW219760   2.279   2.814   3.206
 6486SOL     OW19761   7.877   1.472   4.493
 6486SOL    HW119762   7.807   1.494   4.554
 6486SOL    HW219763   7.943   1.540   4.508
 6487SOL     OW19764   8.147   2.399   4.461
 6487SOL    HW119765   8.128   2.493   4.463
 6487SOL    HW219766   8.110   2.369   4.378
 6488SOL     OW19767   2.485   7.990   5.184
 6488SOL    HW119768   2.415   7.956   5.128
 6488SOL    HW219769   2.538   7.913   5.205
 6489SOL     OW19770   1.154   0.614   5.285
 6489SOL    HW119771   1.245   0.584   5.280
 6489SOL    HW219772   1.146   0.678   5.214
 6490SOL     OW19773   0.205   1.133   1.276
 6490SOL    HW119774   0.204   1.209   1.334
 6490SOL    HW219775   0.253   1.066   1.325
 6491SOL     OW19776   4.312   6.697   5.626
 6491SOL    HW119777   4.337   6.654   5.544
 6491SOL    HW219778   4.394   6.705   5.675
 6492SOL     OW19779   3.896   3.049   3.111
 6492SOL    HW119780   3.842   3.037   3.189
 6492SOL    HW219781   3.923   3.141   3.114
 6493SOL     OW19782   1.977   7.133   2.524
 6493SOL    HW119783   2.024   7.072   2.467
 6493SOL    HW219784   2.000   7.106   2.613
 6494SOL     OW19785   1.079   1.126   1.154
 6494SOL    HW119786   1.028   1.143   1.233
 6494SOL    HW219787   1.161   1.174   1.167
 6495SOL     OW19788   3.273   0.969   4.409
 6495SOL    HW119789   3.279   0.890   4.355
 6495SOL    HW219790   3.194   1.013   4.378
 6496SOL     OW19791   2.785   7.964   1.846
 6496SOL    HW119792   2.770   7.941   1.754
 6496SOL    HW219793   2.880   7.963   1.856
 6497SOL     OW19794   4.906   4.347   0.869
 6497SOL    HW119795   4.880   4.364   0.779
 6497SOL    HW219796   4.988   4.396   0.880
 6498SOL     OW19797   2.546   3.648   2.431
 6498SOL    HW119798   2.488   3.723   2.422
 6498SOL    HW219799   2.634   3.686   2.432
 6499SOL     OW19800   0.663   3.270   2.426
 6499SOL    HW119801   0.611   3.257   2.505
 6499SOL    HW219802   0.644   3.194   2.372
 6500SOL     OW19803   6.054   2.328   4.619
 6500SOL    HW119804   6.114   2.355   4.549
 6500SOL    HW219805   6.111   2.308   4.693
 6501SOL     OW19806   1.913   1.903   5.522
 6501SOL    HW119807   1.848   1.966   5.554
 6501SOL    HW219808   1.991   1.956   5.504
 6502SOL     OW19809   0.119   4.040   5.600
 6502SOL    HW119810   0.164   4.070   5.679
 6502SOL    HW219811   0.189   4.009   5.542
 6503SOL     OW19812   5.680   0.989   0.054
 6503SOL    HW119813   5.608   0.927   0.062
 6503SOL    HW219814   5.752   0.948   0.102
 6504SOL     OW19815   7.245   1.375   4.930
 6504SOL    HW119816   7.206   1.330   5.005
 6504SOL    HW219817   7.199   1.459   4.926
 6505SOL     OW19818   7.619   6.608   1.179
 6505SOL    HW119819   7.661   6.545   1.120
 6505SOL    HW219820   7.674   6.686   1.174
 6506SOL     OW19821   3.073   7.140   5.364
 6506SOL    HW119822   3.154   7.112   5.321
 6506SOL    HW219823   3.013   7.160   5.292
 6507SOL     OW19824   3.181   4.860   4.274
 6507SOL    HW119825   3.120   4.787   4.262
 6507SOL    HW219826   3.241   4.830   4.342
 6508SOL     OW19827   2.530   3.536   3.471
 6508SOL    HW119828   2.578   3.454   3.475
 6508SOL    HW219829   2.576   3.588   3.405
 6509SOL     OW19830   6.330   1.123   0.511
 6509SOL    HW119831   6.299   1.080   0.591
 6509SOL    HW219832   6.413   1.079   0.491
 6510SOL     OW19833   4.081   3.786   4.032
 6510SOL    HW119834   4.110   3.755   3.946
 6510SOL    HW219835   4.028   3.715   4.067
 6511SOL     OW19836   0.985   5.258   4.227
 6511SOL    HW119837   0.952   5.347   4.218
 6511SOL    HW219838   0.967   5.235   4.318
 6512SOL     OW19839   3.741   4.733   2.220
 6512SOL    HW119840   3.801   4.767   2.154
 6512SOL    HW219841   3.670   4.797   2.224
 6513SOL     OW19842   3.769   7.865   3.599
 6513SOL    HW119843   3.757   7.777   3.635
 6513SOL    HW219844   3.817   7.912   3.667
 6514SOL     OW19845   7.460   4.141   4.084
 6514SOL    HW119846   7.469   4.046   4.090
 6514SOL    HW219847   7.367   4.155   4.065
 6515SOL     OW19848   5.167   2.334   5.709
 6515SOL    HW119849   5.114   2.304   5.783
 6515SOL    HW219850   5.218   2.407   5.744
 6516SOL     OW19851   0.282   0.280   3.073
 6516SOL    HW119852   0.313   0.352   3.018
 6516SOL    HW219853   0.320   0.201   3.034
 6517SOL     OW19854   3.248   5.238   4.445
 6517SOL    HW119855   3.261   5.248   4.351
 6517SOL    HW219856   3.230   5.326   4.477
 6518SOL     OW19857   1.519   0.450   3.624
 6518SOL    HW119858   1.582   0.522   3.624
 6518SOL    HW219859   1.473   0.457   3.708
 6519SOL     OW19860   0.043   4.434   3.094
 6519SOL    HW119861   8.192   4.416   3.045
 6519SOL    HW219862   0.022   4.411   3.184
 6520SOL     OW19863   7.145   2.546   1.114
 6520SOL    HW119864   7.223   2.540   1.059
 6520SOL    HW219865   7.084   2.483   1.077
 6521SOL     OW19866   0.923   4.519   3.226
 6521SOL    HW119867   0.849   4.571   3.258
 6521SOL    HW219868   0.967   4.488   3.305
 6522SOL     OW19869   8.225   1.138   4.757
 6522SOL    HW119870   0.054   1.160   4.830
 6522SOL    HW219871   0.030   1.056   4.722
 6523SOL     OW19872   5.221   6.491   4.141
 6523SOL    HW119873   5.138   6.444   4.144
 6523SOL    HW219874   5.285   6.426   4.113
 6524SOL     OW19875   4.690   5.036   5.267
 6524SOL    HW119876   4.630   5.075   5.204
 6524SOL    HW219877   4.729   5.110   5.313
 6525SOL     OW19878   4.469   5.281   3.975
 6525SOL    HW119879   4.463   5.347   4.045
 6525SOL    HW219880   4.405   5.309   3.910
 6526SOL     OW19881   3.610   8.191   0.462
 6526SOL    HW119882   3.560   8.153   0.389
 6526SOL    HW219883   3.545   0.011   0.512
 6527SOL     OW19884   0.640   0.623   3.426
 6527SOL    HW119885   0.568   0.636   3.365
 6527SOL    HW219886   0.642   0.529   3.442
 6528SOL     OW19887   3.157   3.071   4.401
 6528SOL    HW119888   3.233   3.044   4.453
 6528SOL    HW219889   3.164   3.166   4.396
 6529SOL     OW19890   0.916   4.612   2.969
 6529SOL    HW119891   0.821   4.599   2.964
 6529SOL    HW219892   0.933   4.625   3.062
 6530SOL     OW19893   4.322   0.964   0.191
 6530SOL    HW119894   4.303   0.984   0.099
 6530SOL    HW219895   4.325   1.049   0.234
 6531SOL     OW19896   2.370   2.063   1.365
 6531SOL    HW119897   2.337   2.129   1.426
 6531SOL    HW219898   2.434   2.013   1.416
 6532SOL     OW19899   4.794   6.250   2.466
 6532SOL    HW119900   4.806   6.299   2.384
 6532SOL    HW219901   4.699   6.237   2.472
 6533SOL     OW19902   4.239   4.865   1.159
 6533SOL    HW119903   4.175   4.808   1.117
 6533SOL    HW219904   4.187   4.920   1.218
 6534SOL     OW19905   7.683   6.455   4.067
 6534SOL    HW119906   7.677   6.413   4.153
 6534SOL    HW219907   7.777   6.454   4.047
 6535SOL     OW19908   0.247   1.041   0.866
 6535SOL    HW119909   0.274   1.127   0.899
 6535SOL    HW219910   0.264   1.046   0.772
 6536SOL     OW19911   0.237   6.179   4.675
 6536SOL    HW119912   0.166   6.226   4.632
 6536SOL    HW219913   0.286   6.246   4.722
 6537SOL     OW19914   6.244   3.492   4.890
 6537SOL    HW119915   6.321   3.452   4.931
 6537SOL    HW219916   6.267   3.585   4.882
 6538SOL     OW19917   1.274   8.044   2.140
 6538SOL    HW119918   1.214   8.075   2.072
 6538SOL    HW219919   1.265   7.949   2.139
 6539SOL     OW19920   3.114   4.444   3.001
 6539SOL    HW119921   3.198   4.490   2.999
 6539SOL    HW219922   3.137   4.351   2.996
 6540SOL     OW19923   6.688   5.789   4.915
 6540SOL    HW119924   6.650   5.859   4.862
 6540SOL    HW219925   6.677   5.710   4.862
 6541SOL     OW19926   4.480   1.902   2.822
 6541SOL    HW119927   4.473   1.834   2.755
 6541SOL    HW219928   4.438   1.864   2.899
 6542SOL     OW19929   4.668   2.693   1.829
 6542SOL    HW119930   4.723   2.632   1.780
 6542SOL    HW219931   4.709   2.698   1.915
 6543SOL     OW19932   6.515   8.075   2.089
 6543SOL    HW119933   6.559   8.014   2.030
 6543SOL    HW219934   6.542   8.161   2.058
 6544SOL     OW19935   7.719   3.480   4.568
 6544SOL    HW119936   7.673   3.396   4.563
 6544SOL    HW219937   7.812   3.456   4.565
 6545SOL     OW19938   3.459   0.041   1.078
 6545SOL    HW119939   3.538   0.092   1.061
 6545SOL    HW219940   3.459   0.027   1.173
 6546SOL     OW19941   1.399   6.184   4.638
 6546SOL    HW119942   1.424   6.151   4.552
 6546SOL    HW219943   1.457   6.139   4.699
 6547SOL     OW19944   3.852   8.044   5.685
 6547SOL    HW119945   3.869   8.112   5.620
 6547SOL    HW219946   3.838   8.092   5.767
 6548SOL     OW19947   1.695   5.188   3.412
 6548SOL    HW119948   1.631   5.219   3.476
 6548SOL    HW219949   1.730   5.107   3.450
 6549SOL     OW19950   8.060   3.427   4.365
 6549SOL    HW119951   8.043   3.492   4.433
 6549SOL    HW219952   8.155   3.427   4.355
 6550SOL     OW19953   4.464   1.839   2.290
 6550SOL    HW119954   4.515   1.901   2.238
 6550SOL    HW219955   4.406   1.796   2.227
 6551SOL     OW19956   5.978   0.637   1.263
 6551SOL    HW119957   5.933   0.558   1.234
 6551SOL    HW219958   6.006   0.680   1.182
 6552SOL     OW19959   5.208   3.142   5.442
 6552SOL    HW119960   5.173   3.200   5.509
 6552SOL    HW219961   5.229   3.061   5.489
 6553SOL     OW19962   2.129   5.234   2.849
 6553SOL    HW119963   2.071   5.310   2.847
 6553SOL    HW219964   2.173   5.236   2.764
 6554SOL     OW19965   4.239   1.140   1.110
 6554SOL    HW119966   4.223   1.175   1.198
 6554SOL    HW219967   4.326   1.172   1.086
 6555SOL     OW19968   2.051   1.974   5.782
 6555SOL    HW119969   2.108   2.050   5.769
 6555SOL    HW219970   2.105   1.899   5.756
 6556SOL     OW19971   2.062   1.914   5.198
 6556SOL    HW119972   2.106   1.943   5.278
 6556SOL    HW219973   2.007   1.988   5.172
 6557SOL     OW19974   3.705   4.309   2.527
 6557SOL    HW119975   3.722   4.396   2.492
 6557SOL    HW219976   3.764   4.252   2.479
 6558SOL     OW19977   3.095   3.372   1.651
 6558SOL    HW119978   3.062   3.369   1.561
 6558SOL    HW219979   3.033   3.318   1.701
 6559SOL     OW19980   7.713   2.900   2.106
 6559SOL    HW119981   7.697   2.928   2.016
 6559SOL    HW219982   7.704   2.805   2.104
 6560SOL     OW19983   7.684   7.418   3.715
 6560SOL    HW119984   7.767   7.415   3.763
 6560SOL    HW219985   7.619   7.441   3.781
 6561SOL     OW19986   1.615   2.450   5.125
 6561SOL    HW119987   1.687   2.451   5.188
 6561SOL    HW219988   1.592   2.542   5.114
 6562SOL     OW19989   1.300   1.784   0.608
 6562SOL    HW119990   1.276   1.864   0.561
 6562SOL    HW219991   1.228   1.770   0.670
 6563SOL     OW19992   2.884   4.058   4.477
 6563SOL    HW119993   2.863   4.149   4.454
 6563SOL    HW219994   2.812   4.031   4.534
 6564SOL     OW19995   1.917   0.620   0.872
 6564SOL    HW119996   1.871   0.674   0.936
 6564SOL    HW219997   1.915   0.532   0.909
 6565SOL     OW19998   5.741   4.769   3.546
 6565SOL    HW119999   5.739   4.701   3.613
 6565SOL    HW220000   5.765   4.849   3.594
 6566SOL     OW20001   3.695   7.667   1.531
 6566SOL    HW120002   3.609   7.692   1.565
 6566SOL    HW220003   3.750   7.658   1.609
 6567SOL     OW20004   7.256   1.043   2.428
 6567SOL    HW120005   7.259   0.952   2.398
 6567SOL    HW220006   7.210   1.040   2.512
 6568SOL     OW20007   4.904   7.977   3.546
 6568SOL    HW120008   4.957   8.028   3.485
 6568SOL    HW220009   4.831   8.034   3.568
 6569SOL     OW20010   6.218   0.388   0.981
 6569SOL    HW120011   6.273   0.409   0.906
 6569SOL    HW220012   6.253   0.441   1.052
 6570SOL     OW20013   5.864   0.018   0.981
 6570SOL    HW120014   5.788   0.015   1.039
 6570SOL    HW220015   5.938   8.227   1.038
 6571SOL     OW20016   4.442   5.498   4.771
 6571SOL    HW120017   4.424   5.576   4.823
 6571SOL    HW220018   4.400   5.427   4.820
 6572SOL     OW20019   4.180   4.619   4.360
 6572SOL    HW120020   4.204   4.708   4.334
 6572SOL    HW220021   4.101   4.630   4.414
 6573SOL     OW20022   3.409   3.842   0.477
 6573SOL    HW120023   3.373   3.813   0.561
 6573SOL    HW220024   3.338   3.829   0.415
 6574SOL     OW20025   3.599   1.251   2.099
 6574SOL    HW120026   3.533   1.300   2.051
 6574SOL    HW220027   3.580   1.269   2.191
 6575SOL     OW20028   0.338   4.442   5.109
 6575SOL    HW120029   0.420   4.491   5.106
 6575SOL    HW220030   0.343   4.391   5.190
 6576SOL     OW20031   7.506   4.439   2.076
 6576SOL    HW120032   7.546   4.525   2.089
 6576SOL    HW220033   7.574   4.386   2.035
 6577SOL     OW20034   5.076   4.979   1.355
 6577SOL    HW120035   5.160   5.019   1.377
 6577SOL    HW220036   5.053   5.015   1.269
 6578SOL     OW20037   5.696   4.202   4.570
 6578SOL    HW120038   5.699   4.246   4.485
 6578SOL    HW220039   5.786   4.206   4.602
 6579SOL     OW20040   4.419   7.380   1.895
 6579SOL    HW120041   4.348   7.444   1.885
 6579SOL    HW220042   4.401   7.337   1.978
 6580SOL     OW20043   4.259   6.296   0.884
 6580SOL    HW120044   4.266   6.257   0.971
 6580SOL    HW220045   4.275   6.223   0.824
 6581SOL     OW20046   2.506   1.839   2.031
 6581SOL    HW120047   2.572   1.881   2.086
 6581SOL    HW220048   2.435   1.903   2.026
 6582SOL     OW20049   0.592   0.745   1.253
 6582SOL    HW120050   0.514   0.799   1.268
 6582SOL    HW220051   0.588   0.721   1.160
 6583SOL     OW20052   3.982   0.494   3.526
 6583SOL    HW120053   3.957   0.586   3.521
 6583SOL    HW220054   3.899   0.447   3.534
 6584SOL     OW20055   4.996   1.129   2.482
 6584SOL    HW120056   4.998   1.216   2.443
 6584SOL    HW220057   5.087   1.110   2.504
 6585SOL     OW20058   6.611   7.625   5.568
 6585SOL    HW120059   6.619   7.532   5.547
 6585SOL    HW220060   6.520   7.636   5.595
 6586SOL     OW20061   2.511   3.763   2.066
 6586SOL    HW120062   2.471   3.709   1.998
 6586SOL    HW220063   2.490   3.853   2.040
 6587SOL     OW20064   7.565   7.263   2.473
 6587SOL    HW120065   7.620   7.322   2.422
 6587SOL    HW220066   7.612   7.251   2.555
 6588SOL     OW20067   3.313   1.423   2.177
 6588SOL    HW120068   3.367   1.378   2.242
 6588SOL    HW220069   3.227   1.381   2.183
 6589SOL     OW20070   1.035   7.360   3.454
 6589SOL    HW120071   1.084   7.278   3.443
 6589SOL    HW220072   1.027   7.371   3.549
 6590SOL     OW20073   1.534   4.902   5.001
 6590SOL    HW120074   1.481   4.918   5.079
 6590SOL    HW220075   1.591   4.979   4.995
 6591SOL     OW20076   0.579   1.889   1.073
 6591SOL    HW120077   0.628   1.807   1.073
 6591SOL    HW220078   0.642   1.955   1.043
 6592SOL     OW20079   7.593   2.346   4.690
 6592SOL    HW120080   7.561   2.272   4.742
 6592SOL    HW220081   7.579   2.319   4.599
 6593SOL     OW20082   4.191   4.294   3.072
 6593SOL    HW120083   4.283   4.269   3.065
 6593SOL    HW220084   4.193   4.389   3.087
 6594SOL     OW20085   1.719   2.705   1.718
 6594SOL    HW120086   1.657   2.734   1.785
 6594SOL    HW220087   1.672   2.716   1.635
 6595SOL     OW20088   0.989   7.699   2.814
 6595SOL    HW120089   1.024   7.678   2.727
 6595SOL    HW220090   1.063   7.688   2.873
 6596SOL     OW20091   1.010   6.301   3.474
 6596SOL    HW120092   1.020   6.341   3.560
 6596SOL    HW220093   1.085   6.241   3.467
 6597SOL     OW20094   2.833   8.051   4.393
 6597SOL    HW120095   2.918   8.064   4.351
 6597SOL    HW220096   2.847   7.979   4.454
 6598SOL     OW20097   6.480   0.152   1.337
 6598SOL    HW120098   6.426   0.084   1.377
 6598SOL    HW220099   6.436   0.171   1.254
 6599SOL     OW20100   6.003   6.868   0.926
 6599SOL    HW120101   6.048   6.860   1.010
 6599SOL    HW220102   5.980   6.778   0.902
 6600SOL     OW20103   0.604   4.630   4.338
 6600SOL    HW120104   0.581   4.545   4.302
 6600SOL    HW220105   0.646   4.610   4.422
 6601SOL     OW20106   7.874   7.702   5.428
 6601SOL    HW120107   7.880   7.777   5.487
 6601SOL    HW220108   7.960   7.697   5.386
 6602SOL     OW20109   1.708   4.537   3.985
 6602SOL    HW120110   1.630   4.593   3.987
 6602SOL    HW220111   1.684   4.464   3.927
 6603SOL     OW20112   0.937   0.336   2.895
 6603SOL    HW120113   1.031   0.353   2.890
 6603SOL    HW220114   0.905   0.351   2.806
 6604SOL     OW20115   0.562   1.728   2.136
 6604SOL    HW120116   0.608   1.714   2.053
 6604SOL    HW220117   0.628   1.767   2.193
 6605SOL     OW20118   0.327   3.148   0.367
 6605SOL    HW120119   0.294   3.237   0.375
 6605SOL    HW220120   0.253   3.097   0.334
 6606SOL     OW20121   2.253   7.687   2.515
 6606SOL    HW120122   2.158   7.678   2.507
 6606SOL    HW220123   2.268   7.781   2.528
 6607SOL     OW20124   8.034   7.132   0.922
 6607SOL    HW120125   8.016   7.045   0.958
 6607SOL    HW220126   7.958   7.185   0.947
 6608SOL     OW20127   3.307   1.097   0.034
 6608SOL    HW120128   3.344   1.011   0.056
 6608SOL    HW220129   7.400   5.205   5.760
 6609SOL     OW20130   4.415   2.138   3.776
 6609SOL    HW120131   4.352   2.202   3.743
 6609SOL    HW220132   4.399   2.135   3.870
 6610SOL     OW20133   3.716   2.842   2.487
 6610SOL    HW120134   3.684   2.857   2.576
 6610SOL    HW220135   3.745   2.928   2.457
 6611SOL     OW20136   3.588   2.846   4.894
 6611SOL    HW120137   3.617   2.937   4.904
 6611SOL    HW220138   3.611   2.804   4.977
 6612SOL     OW20139   2.027   4.156   2.303
 6612SOL    HW120140   2.009   4.250   2.298
 6612SOL    HW220141   2.005   4.132   2.393
 6613SOL     OW20142   4.699   6.003   5.252
 6613SOL    HW120143   4.765   5.937   5.271
 6613SOL    HW220144   4.742   6.086   5.273
 6614SOL     OW20145   1.875   6.509   4.972
 6614SOL    HW120146   1.922   6.479   5.049
 6614SOL    HW220147   1.848   6.429   4.927
 6615SOL     OW20148   5.297   5.239   3.527
 6615SOL    HW120149   5.268   5.279   3.609
 6615SOL    HW220150   5.391   5.254   3.524
 6616SOL     OW20151   2.793   2.026   4.627
 6616SOL    HW120152   2.806   2.086   4.553
 6616SOL    HW220153   2.738   1.956   4.592
 6617SOL     OW20154   4.029   3.108   2.493
 6617SOL    HW120155   4.097   3.042   2.482
 6617SOL    HW220156   3.948   3.063   2.470
 6618SOL     OW20157   4.636   6.989   2.653
 6618SOL    HW120158   4.591   7.046   2.715
 6618SOL    HW220159   4.721   7.031   2.640
 6619SOL     OW20160   6.967   2.108   3.497
 6619SOL    HW120161   6.988   2.194   3.461
 6619SOL    HW220162   6.898   2.125   3.562
 6620SOL     OW20163   2.837   5.032   3.226
 6620SOL    HW120164   2.846   5.084   3.146
 6620SOL    HW220165   2.743   5.015   3.233
 6621SOL     OW20166   0.142   3.763   0.560
 6621SOL    HW120167   0.074   3.831   0.565
 6621SOL    HW220168   0.148   3.742   0.467
 6622SOL     OW20169   8.087   4.537   5.613
 6622SOL    HW120170   8.175   4.516   5.644
 6622SOL    HW220171   8.029   4.512   5.685
 6623SOL     OW20172   4.993   5.873   2.956
 6623SOL    HW120173   5.054   5.820   3.007
 6623SOL    HW220174   5.043   5.900   2.879
 6624SOL     OW20175   4.383   1.191   1.637
 6624SOL    HW120176   4.441   1.153   1.704
 6624SOL    HW220177   4.295   1.162   1.662
 6625SOL     OW20178   6.430   2.919   0.436
 6625SOL    HW120179   6.342   2.888   0.417
 6625SOL    HW220180   6.484   2.882   0.366
 6626SOL     OW20181   1.846   2.327   2.760
 6626SOL    HW120182   1.935   2.347   2.730
 6626SOL    HW220183   1.793   2.330   2.681
 6627SOL     OW20184   4.740   5.229   0.644
 6627SOL    HW120185   4.765   5.320   0.630
 6627SOL    HW220186   4.688   5.230   0.724
 6628SOL     OW20187   7.064   7.390   5.329
 6628SOL    HW120188   7.155   7.417   5.336
 6628SOL    HW220189   7.051   7.373   5.236
 6629SOL     OW20190   6.015   3.603   0.017
 6629SOL    HW120191   6.068   3.583   0.094
 6629SOL    HW220192   5.958   3.527   0.006
 6630SOL     OW20193   3.397   4.422   4.823
 6630SOL    HW120194   3.455   4.450   4.752
 6630SOL    HW220195   3.456   4.392   4.892
 6631SOL     OW20196   5.194   0.633   4.797
 6631SOL    HW120197   5.100   0.625   4.782
 6631SOL    HW220198   5.203   0.644   4.892
 6632SOL     OW20199   3.029   4.546   2.109
 6632SOL    HW120200   2.961   4.495   2.153
 6632SOL    HW220201   3.027   4.515   2.018
 6633SOL     OW20202   1.604   0.343   3.999
 6633SOL    HW120203   1.522   0.381   3.968
 6633SOL    HW220204   1.596   0.344   4.094
 6634SOL     OW20205   7.764   2.813   0.150
 6634SOL    HW120206   7.730   2.891   0.106
 6634SOL    HW220207   7.859   2.819   0.140
 6635SOL     OW20208   5.339   2.848   1.589
 6635SOL    HW120209   5.301   2.762   1.608
 6635SOL    HW220210   5.270   2.894   1.541
 6636SOL     OW20211   1.406   1.320   1.693
 6636SOL    HW120212   1.436   1.367   1.771
 6636SOL    HW220213   1.486   1.289   1.651
 6637SOL     OW20214   5.000   1.720   3.965
 6637SOL    HW120215   4.919   1.681   3.931
 6637SOL    HW220216   5.020   1.791   3.904
 6638SOL     OW20217   0.446   6.323   5.663
 6638SOL    HW120218   0.484   6.407   5.687
 6638SOL    HW220219   0.487   6.301   5.579
 6639SOL     OW20220   5.404   3.608   4.124
 6639SOL    HW120221   5.487   3.654   4.116
 6639SOL    HW220222   5.397   3.557   4.043
 6640SOL     OW20223   2.000   6.230   1.548
 6640SOL    HW120224   1.945   6.216   1.471
 6640SOL    HW220225   1.939   6.227   1.622
 6641SOL     OW20226   4.419   3.362   1.624
 6641SOL    HW120227   4.367   3.369   1.704
 6641SOL    HW220228   4.382   3.286   1.579
 6642SOL     OW20229   0.344   5.733   3.568
 6642SOL    HW120230   0.293   5.671   3.620
 6642SOL    HW220231   0.343   5.697   3.479
 6643SOL     OW20232   2.457   1.553   2.357
 6643SOL    HW120233   2.422   1.571   2.444
 6643SOL    HW220234   2.390   1.584   2.297
 6644SOL     OW20235   2.562   6.940   1.988
 6644SOL    HW120236   2.472   6.971   1.993
 6644SOL    HW220237   2.601   6.966   2.071
 6645SOL     OW20238   0.836   3.861   2.939
 6645SOL    HW120239   0.740   3.857   2.934
 6645SOL    HW220240   0.864   3.861   2.848
 6646SOL     OW20241   5.630   3.200   5.790
 6646SOL    HW120242   5.565   3.133   5.770
 6646SOL    HW220243   1.583   7.268   0.020
 6647SOL     OW20244   4.931   0.605   3.510
 6647SOL    HW120245   4.957   0.633   3.598
 6647SOL    HW220246   4.870   0.673   3.481
 6648SOL     OW20247   8.108   6.147   0.398
 6648SOL    HW120248   8.193   6.190   0.391
 6648SOL    HW220249   8.045   6.215   0.374
 6649SOL     OW20250   5.629   6.544   2.429
 6649SOL    HW120251   5.639   6.584   2.342
 6649SOL    HW220252   5.593   6.614   2.483
 6650SOL     OW20253   6.185   1.904   3.278
 6650SOL    HW120254   6.246   1.849   3.229
 6650SOL    HW220255   6.100   1.863   3.264
 6651SOL     OW20256   3.062   5.243   4.659
 6651SOL    HW120257   3.084   5.177   4.725
 6651SOL    HW220258   3.083   5.202   4.575
 6652SOL     OW20259   7.322   6.321   3.086
 6652SOL    HW120260   7.315   6.391   3.021
 6652SOL    HW220261   7.365   6.249   3.040
 6653SOL     OW20262   0.931   1.063   2.616
 6653SOL    HW120263   0.909   1.069   2.523
 6653SOL    HW220264   0.870   1.122   2.660
 6654SOL     OW20265   0.909   0.237   4.711
 6654SOL    HW120266   0.938   0.184   4.785
 6654SOL    HW220267   0.815   0.246   4.724
 6655SOL     OW20268   0.642   8.107   3.711
 6655SOL    HW120269   0.699   8.174   3.674
 6655SOL    HW220270   0.670   8.026   3.669
 6656SOL     OW20271   5.236   0.594   5.801
 6656SOL    HW120272   1.204   4.724   0.027
 6656SOL    HW220273   1.083   4.633   0.026
 6657SOL     OW20274   7.095   6.018   0.005
 6657SOL    HW120275   3.005   1.978   5.769
 6657SOL    HW220276   7.073   6.057   0.090
 6658SOL     OW20277   5.447   7.993   1.452
 6658SOL    HW120278   5.522   7.942   1.483
 6658SOL    HW220279   5.404   8.025   1.531
 6659SOL     OW20280   0.540   4.587   5.688
 6659SOL    HW120281   0.608   4.654   5.697
 6659SOL    HW220282   0.566   4.519   5.750
 6660SOL     OW20283   0.333   0.373   5.412
 6660SOL    HW120284   0.367   0.454   5.449
 6660SOL    HW220285   0.291   0.400   5.330
 6661SOL     OW20286   2.631   4.887   5.795
 6661SOL    HW120287   2.580   4.817   5.754
 6661SOL    HW220288   2.663   4.939   5.722
 6662SOL     OW20289   0.149   1.738   1.191
 6662SOL    HW120290   0.242   1.723   1.207
 6662SOL    HW220291   0.114   1.763   1.277
 6663SOL     OW20292   0.009   1.467   4.817
 6663SOL    HW120293   0.090   1.510   4.846
 6663SOL    HW220294   0.034   1.375   4.804
 6664SOL     OW20295   0.873   8.046   3.919
 6664SOL    HW120296   0.827   8.107   3.862
 6664SOL    HW220297   0.954   8.026   3.872
 6665SOL     OW20298   6.572   7.007   1.433
 6665SOL    HW120299   6.611   6.951   1.500
 6665SOL    HW220300   6.616   7.091   1.444
 6666SOL     OW20301   7.842   7.023   2.166
 6666SOL    HW120302   7.821   7.004   2.257
 6666SOL    HW220303   7.758   7.014   2.120
 6667SOL     OW20304   7.063   2.166   2.158
 6667SOL    HW120305   7.015   2.249   2.161
 6667SOL    HW220306   7.077   2.143   2.250
 6668SOL     OW20307   7.393   3.347   3.848
 6668SOL    HW120308   7.312   3.296   3.851
 6668SOL    HW220309   7.397   3.382   3.759
 6669SOL     OW20310   0.346   5.159   1.738
 6669SOL    HW120311   0.308   5.074   1.761
 6669SOL    HW220312   0.327   5.215   1.814
 6670SOL     OW20313   1.637   1.595   2.676
 6670SOL    HW120314   1.655   1.673   2.623
 6670SOL    HW220315   1.698   1.602   2.750
 6671SOL     OW20316   0.098   1.297   5.782
 6671SOL    HW120317   0.003   1.295   5.792
 6671SOL    HW220318   0.112   1.301   5.687
 6672SOL     OW20319   3.820   2.563   2.068
 6672SOL    HW120320   3.897   2.578   2.014
 6672SOL    HW220321   3.793   2.650   2.097
 6673SOL     OW20322   1.384   6.226   4.239
 6673SOL    HW120323   1.447   6.298   4.245
 6673SOL    HW220324   1.325   6.252   4.169
 6674SOL     OW20325   5.535   0.913   1.886
 6674SOL    HW120326   5.544   0.859   1.808
 6674SOL    HW220327   5.594   0.874   1.950
 6675SOL     OW20328   3.036   2.755   5.401
 6675SOL    HW120329   2.979   2.713   5.465
 6675SOL    HW220330   3.104   2.797   5.454
 6676SOL     OW20331   5.683   3.437   4.029
 6676SOL    HW120332   5.671   3.531   4.040
 6676SOL    HW220333   5.678   3.423   3.934
 6677SOL     OW20334   0.030   7.645   0.878
 6677SOL    HW120335   0.006   7.612   0.964
 6677SOL    HW220336   0.083   7.576   0.839
 6678SOL     OW20337   6.387   1.315   3.562
 6678SOL    HW120338   6.451   1.244   3.572
 6678SOL    HW220339   6.307   1.280   3.602
 6679SOL     OW20340   0.809   1.833   4.265
 6679SOL    HW120341   0.723   1.812   4.229
 6679SOL    HW220342   0.803   1.926   4.287
 6680SOL     OW20343   0.321   5.647   2.975
 6680SOL    HW120344   0.369   5.567   2.996
 6680SOL    HW220345   0.389   5.711   2.954
 6681SOL     OW20346   3.641   0.248   1.418
 6681SOL    HW120347   3.736   0.242   1.404
 6681SOL    HW220348   3.615   0.326   1.369
 6682SOL     OW20349   1.719   7.897   4.626
 6682SOL    HW120350   1.633   7.867   4.596
 6682SOL    HW220351   1.739   7.973   4.571
 6683SOL     OW20352   1.176   6.820   3.074
 6683SOL    HW120353   1.094   6.808   3.122
 6683SOL    HW220354   1.151   6.813   2.982
 6684SOL     OW20355   7.906   1.402   4.837
 6684SOL    HW120356   7.932   1.318   4.798
 6684SOL    HW220357   7.823   1.383   4.882
 6685SOL     OW20358   3.254   2.418   5.197
 6685SOL    HW120359   3.282   2.384   5.282
 6685SOL    HW220360   3.194   2.352   5.163
 6686SOL     OW20361   5.604   5.679   4.115
 6686SOL    HW120362   5.522   5.725   4.131
 6686SOL    HW220363   5.578   5.589   4.094
 6687SOL     OW20364   7.593   0.840   3.103
 6687SOL    HW120365   7.600   0.752   3.141
 6687SOL    HW220366   7.578   0.897   3.178
 6688SOL     OW20367   1.012   0.956   5.423
 6688SOL    HW120368   1.026   0.874   5.471
 6688SOL    HW220369   0.948   1.004   5.476
 6689SOL     OW20370   0.055   0.752   0.600
 6689SOL    HW120371   0.097   0.731   0.516
 6689SOL    HW220372   0.041   0.847   0.597
 6690SOL     OW20373   7.041   1.580   5.117
 6690SOL    HW120374   6.990   1.656   5.145
 6690SOL    HW220375   7.077   1.606   5.032
 6691SOL     OW20376   1.865   1.815   1.484
 6691SOL    HW120377   1.823   1.747   1.431
 6691SOL    HW220378   1.953   1.782   1.500
 6692SOL     OW20379   3.717   2.751   3.433
 6692SOL    HW120380   3.705   2.656   3.433
 6692SOL    HW220381   3.812   2.764   3.435
 6693SOL     OW20382   6.341   1.182   5.743
 6693SOL    HW120383   6.331   1.097   5.786
 6693SOL    HW220384   6.429   1.180   5.706
 6694SOL     OW20385   7.677   7.524   4.006
 6694SOL    HW120386   7.726   7.605   3.994
 6694SOL    HW220387   7.739   7.455   3.982
 6695SOL     OW20388   2.885   5.229   3.436
 6695SOL    HW120389   2.926   5.304   3.393
 6695SOL    HW220390   2.875   5.164   3.366
 6696SOL     OW20391   4.120   5.105   4.141
 6696SOL    HW120392   4.207   5.067   4.148
 6696SOL    HW220393   4.134   5.187   4.093
 6697SOL     OW20394   2.608   7.937   5.700
 6697SOL    HW120395   2.619   8.023   5.740
 6697SOL    HW220396   2.651   7.877   5.760
 6698SOL     OW20397   7.539   0.546   3.242
 6698SOL    HW120398   7.596   0.553   3.318
 6698SOL    HW220399   7.460   0.595   3.266
 6699SOL     OW20400   5.638   2.476   3.018
 6699SOL    HW120401   5.631   2.557   2.967
 6699SOL    HW220402   5.574   2.417   2.978
 6700SOL     OW20403   3.227   4.446   5.173
 6700SOL    HW120404   3.211   4.454   5.079
 6700SOL    HW220405   3.151   4.487   5.214
 6701SOL     OW20406   1.196   6.240   5.771
 6701SOL    HW120407   1.287   6.270   5.763
 6701SOL    HW220408   1.167   6.229   5.681
 6702SOL     OW20409   6.751   3.086   3.888
 6702SOL    HW120410   6.774   3.012   3.944
 6702SOL    HW220411   6.657   3.099   3.902
 6703SOL     OW20412   3.366   1.965   0.751
 6703SOL    HW120413   3.324   2.001   0.673
 6703SOL    HW220414   3.460   1.975   0.735
 6704SOL     OW20415   2.725   7.300   4.996
 6704SOL    HW120416   2.775   7.220   5.014
 6704SOL    HW220417   2.647   7.293   5.050
 6705SOL     OW20418   1.713   0.110   3.931
 6705SOL    HW120419   1.667   0.190   3.907
 6705SOL    HW220420   1.678   0.086   4.017
 6706SOL     OW20421   4.685   2.702   4.997
 6706SOL    HW120422   4.695   2.796   4.983
 6706SOL    HW220423   4.769   2.674   5.034
 6707SOL     OW20424   4.206   6.894   2.818
 6707SOL    HW120425   4.278   6.953   2.794
 6707SOL    HW220426   4.134   6.919   2.760
 6708SOL     OW20427   3.654   5.587   5.514
 6708SOL    HW120428   3.708   5.571   5.592
 6708SOL    HW220429   3.707   5.647   5.460
 6709SOL     OW20430   5.638   7.807   0.307
 6709SOL    HW120431   5.551   7.789   0.272
 6709SOL    HW220432   5.665   7.724   0.346
 6710SOL     OW20433   4.725   3.346   2.181
 6710SOL    HW120434   4.770   3.362   2.098
 6710SOL    HW220435   4.789   3.299   2.234
 6711SOL     OW20436   5.495   0.457   4.282
 6711SOL    HW120437   5.468   0.548   4.292
 6711SOL    HW220438   5.533   0.452   4.194
 6712SOL     OW20439   8.059   3.753   2.861
 6712SOL    HW120440   7.998   3.816   2.899
 6712SOL    HW220441   8.099   3.800   2.788
 6713SOL     OW20442   0.284   2.455   1.410
 6713SOL    HW120443   0.224   2.384   1.433
 6713SOL    HW220444   0.234   2.535   1.428
 6714SOL     OW20445   6.129   4.547   1.736
 6714SOL    HW120446   6.046   4.571   1.776
 6714SOL    HW220447   6.160   4.473   1.788
 6715SOL     OW20448   4.850   5.732   5.567
 6715SOL    HW120449   4.842   5.767   5.478
 6715SOL    HW220450   4.835   5.638   5.557
 6716SOL     OW20451   6.399   1.799   5.153
 6716SOL    HW120452   6.357   1.750   5.082
 6716SOL    HW220453   6.378   1.750   5.232
 6717SOL     OW20454   3.688   2.757   5.654
 6717SOL    HW120455   3.772   2.712   5.645
 6717SOL    HW220456   3.674   2.800   5.569
 6718SOL     OW20457   0.104   6.772   4.565
 6718SOL    HW120458   0.047   6.705   4.604
 6718SOL    HW220459   0.066   6.787   4.478
 6719SOL     OW20460   1.071   6.252   2.149
 6719SOL    HW120461   1.072   6.162   2.182
 6719SOL    HW220462   1.071   6.307   2.228
 6720SOL     OW20463   6.069   0.604   4.418
 6720SOL    HW120464   6.088   0.512   4.439
 6720SOL    HW220465   6.001   0.629   4.481
 6721SOL     OW20466   0.825   7.981   1.856
 6721SOL    HW120467   0.767   8.010   1.927
 6721SOL    HW220468   0.801   7.890   1.841
 6722SOL     OW20469   7.815   2.381   3.237
 6722SOL    HW120470   7.900   2.421   3.255
 6722SOL    HW220471   7.754   2.429   3.292
 6723SOL     OW20472   0.232   3.949   5.350
 6723SOL    HW120473   0.291   4.011   5.307
 6723SOL    HW220474   0.277   3.865   5.344
 6724SOL     OW20475   6.234   0.565   3.585
 6724SOL    HW120476   6.258   0.472   3.589
 6724SOL    HW220477   6.247   0.590   3.494
 6725SOL     OW20478   2.625   1.549   1.513
 6725SOL    HW120479   2.537   1.513   1.521
 6725SOL    HW220480   2.679   1.475   1.487
 6726SOL     OW20481   4.560   3.556   2.178
 6726SOL    HW120482   4.595   3.469   2.159
 6726SOL    HW220483   4.560   3.600   2.093
 6727SOL     OW20484   0.826   2.895   3.570
 6727SOL    HW120485   0.771   2.819   3.551
 6727SOL    HW220486   0.771   2.951   3.625
 6728SOL     OW20487   3.075   1.409   2.401
 6728SOL    HW120488   2.999   1.467   2.394
 6728SOL    HW220489   3.041   1.322   2.379
 6729SOL     OW20490   1.256   6.530   3.993
 6729SOL    HW120491   1.212   6.457   4.037
 6729SOL    HW220492   1.266   6.501   3.902
 6730SOL     OW20493   2.684   5.418   0.406
 6730SOL    HW120494   2.744   5.436   0.333
 6730SOL    HW220495   2.638   5.338   0.380
 6731SOL     OW20496   6.358   7.260   3.447
 6731SOL    HW120497   6.394   7.172   3.439
 6731SOL    HW220498   6.433   7.318   3.432
 6732SOL     OW20499   5.119   4.193   4.480
 6732SOL    HW120500   5.053   4.260   4.495
 6732SOL    HW220501   5.200   4.242   4.465
 6733SOL     OW20502   3.919   4.472   2.428
 6733SOL    HW120503   3.933   4.396   2.371
 6733SOL    HW220504   3.995   4.528   2.413
 6734SOL     OW20505   2.048   4.291   0.314
 6734SOL    HW120506   2.143   4.294   0.301
 6734SOL    HW220507   2.037   4.300   0.409
 6735SOL     OW20508   5.154   3.796   1.833
 6735SOL    HW120509   5.239   3.793   1.877
 6735SOL    HW220510   5.152   3.717   1.779
 6736SOL     OW20511   5.589   0.040   2.326
 6736SOL    HW120512   5.624   8.192   2.282
 6736SOL    HW220513   5.649   0.110   2.302
 6737SOL     OW20514   5.883   5.753   5.077
 6737SOL    HW120515   5.935   5.688   5.030
 6737SOL    HW220516   5.861   5.818   5.010
 6738SOL     OW20517   2.105   2.393   1.759
 6738SOL    HW120518   2.046   2.359   1.691
 6738SOL    HW220519   2.096   2.488   1.754
 6739SOL     OW20520   6.440   7.985   0.184
 6739SOL    HW120521   6.490   7.940   0.252
 6739SOL    HW220522   6.433   8.075   0.215
 6740SOL     OW20523   0.931   1.322   1.894
 6740SOL    HW120524   0.942   1.417   1.900
 6740SOL    HW220525   0.848   1.304   1.938
 6741SOL     OW20526   1.369   4.258   2.437
 6741SOL    HW120527   1.301   4.221   2.380
 6741SOL    HW220528   1.385   4.345   2.401
 6742SOL     OW20529   8.035   3.819   1.118
 6742SOL    HW120530   8.026   3.914   1.115
 6742SOL    HW220531   7.967   3.787   1.058
 6743SOL     OW20532   3.914   5.359   1.447
 6743SOL    HW120533   3.926   5.445   1.406
 6743SOL    HW220534   3.827   5.364   1.487
 6744SOL     OW20535   3.287   4.997   4.584
 6744SOL    HW120536   3.277   5.031   4.673
 6744SOL    HW220537   3.264   5.070   4.527
 6745SOL     OW20538   8.069   3.604   4.046
 6745SOL    HW120539   7.995   3.603   4.107
 6745SOL    HW220540   8.066   3.690   4.005
 6746SOL     OW20541   6.222   3.809   5.145
 6746SOL    HW120542   6.174   3.747   5.200
 6746SOL    HW220543   6.282   3.853   5.205
 6747SOL     OW20544   7.348   4.080   4.431
 6747SOL    HW120545   7.290   4.060   4.358
 6747SOL    HW220546   7.426   4.026   4.416
 6748SOL     OW20547   3.755   3.095   2.392
 6748SOL    HW120548   3.702   3.137   2.460
 6748SOL    HW220549   3.732   3.141   2.311
 6749SOL     OW20550   4.219   7.576   1.846
 6749SOL    HW120551   4.241   7.669   1.849
 6749SOL    HW220552   4.141   7.571   1.791
 6750SOL     OW20553   2.470   2.282   4.046
 6750SOL    HW120554   2.435   2.371   4.041
 6750SOL    HW220555   2.447   2.252   4.134
 6751SOL     OW20556   3.498   3.402   2.920
 6751SOL    HW120557   3.581   3.414   2.966
 6751SOL    HW220558   3.431   3.420   2.986
 6752SOL     OW20559   3.887   3.178   5.605
 6752SOL    HW120560   3.911   3.101   5.657
 6752SOL    HW220561   3.888   3.251   5.667
 6753SOL     OW20562   5.894   7.305   0.425
 6753SOL    HW120563   5.824   7.250   0.389
 6753SOL    HW220564   5.955   7.316   0.353
 6754SOL     OW20565   4.343   6.349   3.957
 6754SOL    HW120566   4.327   6.404   3.881
 6754SOL    HW220567   4.368   6.410   4.026
 6755SOL     OW20568   1.052   3.268   4.184
 6755SOL    HW120569   1.076   3.271   4.092
 6755SOL    HW220570   1.112   3.205   4.223
 6756SOL     OW20571   2.398   1.589   2.663
 6756SOL    HW120572   2.407   1.496   2.686
 6756SOL    HW220573   2.358   1.629   2.740
 6757SOL     OW20574   4.613   4.086   1.514
 6757SOL    HW120575   4.616   4.172   1.557
 6757SOL    HW220576   4.523   4.079   1.482
 6758SOL     OW20577   5.009   1.641   2.226
 6758SOL    HW120578   4.999   1.645   2.321
 6758SOL    HW220579   5.031   1.550   2.208
 6759SOL     OW20580   1.618   6.316   4.958
 6759SOL    HW120581   1.595   6.398   5.001
 6759SOL    HW220582   1.626   6.339   4.865
 6760SOL     OW20583   1.775   4.623   5.123
 6760SOL    HW120584   1.811   4.704   5.159
 6760SOL    HW220585   1.852   4.572   5.097
 6761SOL     OW20586   1.391   0.495   3.854
 6761SOL    HW120587   1.304   0.473   3.886
 6761SOL    HW220588   1.393   0.591   3.854
 6762SOL     OW20589   3.876   2.619   0.336
 6762SOL    HW120590   3.905   2.708   0.354
 6762SOL    HW220591   3.809   2.629   0.268
 6763SOL     OW20592   2.380   3.408   0.534
 6763SOL    HW120593   2.327   3.362   0.469
 6763SOL    HW220594   2.386   3.347   0.608
 6764SOL     OW20595   1.823   1.829   5.804
 6764SOL    HW120596   1.903   1.880   5.794
 6764SOL    HW220597   1.799   1.805   5.715
 6765SOL     OW20598   5.868   2.165   5.473
 6765SOL    HW120599   5.943   2.208   5.514
 6765SOL    HW220600   5.822   2.236   5.428
 6766SOL     OW20601   1.334   3.739   0.487
 6766SOL    HW120602   1.418   3.755   0.530
 6766SOL    HW220603   1.281   3.816   0.509
 6767SOL     OW20604   4.229   2.856   3.134
 6767SOL    HW120605   4.308   2.863   3.187
 6767SOL    HW220606   4.161   2.899   3.186
 6768SOL     OW20607   0.452   4.855   3.558
 6768SOL    HW120608   0.505   4.909   3.617
 6768SOL    HW220609   0.365   4.894   3.563
 6769SOL     OW20610   7.655   7.662   0.935
 6769SOL    HW120611   7.733   7.714   0.955
 6769SOL    HW220612   7.658   7.590   0.998
 6770SOL     OW20613   5.305   5.203   3.857
 6770SOL    HW120614   5.317   5.112   3.830
 6770SOL    HW220615   5.383   5.248   3.825
 6771SOL     OW20616   2.455   5.135   0.883
 6771SOL    HW120617   2.413   5.176   0.807
 6771SOL    HW220618   2.399   5.159   0.957
 6772SOL     OW20619   3.335   4.846   3.164
 6772SOL    HW120620   3.270   4.784   3.197
 6772SOL    HW220621   3.380   4.798   3.095
 6773SOL     OW20622   7.560   2.316   0.522
 6773SOL    HW120623   7.546   2.222   0.516
 6773SOL    HW220624   7.478   2.351   0.556
 6774SOL     OW20625   6.916   4.000   3.610
 6774SOL    HW120626   6.889   4.051   3.686
 6774SOL    HW220627   6.868   3.918   3.617
 6775SOL     OW20628   2.776   4.333   4.464
 6775SOL    HW120629   2.736   4.334   4.377
 6775SOL    HW220630   2.805   4.423   4.478
 6776SOL     OW20631   6.421   4.056   2.205
 6776SOL    HW120632   6.363   3.982   2.222
 6776SOL    HW220633   6.417   4.108   2.285
 6777SOL     OW20634   6.394   7.461   4.535
 6777SOL    HW120635   6.411   7.489   4.445
 6777SOL    HW220636   6.386   7.366   4.529
 6778SOL     OW20637   6.934   3.970   1.869
 6778SOL    HW120638   6.922   4.058   1.904
 6778SOL    HW220639   6.845   3.936   1.861
 6779SOL     OW20640   4.062   7.543   3.657
 6779SOL    HW120641   4.031   7.455   3.681
 6779SOL    HW220642   4.059   7.592   3.739
 6780SOL     OW20643   0.462   0.980   0.195
 6780SOL    HW120644   0.519   1.014   0.265
 6780SOL    HW220645   0.507   1.004   0.114
 6781SOL     OW20646   2.515   6.621   0.537
 6781SOL    HW120647   2.514   6.552   0.603
 6781SOL    HW220648   2.466   6.584   0.464
 6782SOL     OW20649   1.562   3.351   2.869
 6782SOL    HW120650   1.551   3.394   2.954
 6782SOL    HW220651   1.656   3.333   2.864
 6783SOL     OW20652   6.000   2.011   0.773
 6783SOL    HW120653   5.921   1.990   0.722
 6783SOL    HW220654   5.968   2.061   0.848
 6784SOL     OW20655   3.494   2.945   0.575
 6784SOL    HW120656   3.519   2.864   0.619
 6784SOL    HW220657   3.577   2.983   0.546
 6785SOL     OW20658   1.484   7.959   1.811
 6785SOL    HW120659   1.486   8.045   1.769
 6785SOL    HW220660   1.492   7.978   1.905
 6786SOL     OW20661   3.352   4.411   2.717
 6786SOL    HW120662   3.286   4.454   2.662
 6786SOL    HW220663   3.308   4.334   2.752
 6787SOL     OW20664   5.587   7.358   1.160
 6787SOL    HW120665   5.669   7.391   1.198
 6787SOL    HW220666   5.613   7.322   1.075
 6788SOL     OW20667   6.236   2.879   2.839
 6788SOL    HW120668   6.205   2.935   2.768
 6788SOL    HW220669   6.330   2.871   2.823
 6789SOL     OW20670   4.573   1.488   5.651
 6789SOL    HW120671   4.526   1.405   5.658
 6789SOL    HW220672   4.530   1.545   5.715
 6790SOL     OW20673   7.471   0.408   1.034
 6790SOL    HW120674   7.494   0.491   0.993
 6790SOL    HW220675   7.419   0.433   1.111
 6791SOL     OW20676   4.714   5.410   5.772
 6791SOL    HW120677   4.690   5.325   5.736
 6791SOL    HW220678   4.763   5.453   5.702
 6792SOL     OW20679   5.332   0.776   0.969
 6792SOL    HW120680   5.412   0.768   1.022
 6792SOL    HW220681   5.337   0.703   0.907
 6793SOL     OW20682   3.900   0.186   1.448
 6793SOL    HW120683   3.854   0.162   1.529
 6793SOL    HW220684   3.979   0.132   1.449
 6794SOL     OW20685   7.669   7.517   4.921
 6794SOL    HW120686   7.718   7.588   4.879
 6794SOL    HW220687   7.589   7.558   4.953
 6795SOL     OW20688   6.838   8.081   0.669
 6795SOL    HW120689   6.863   8.173   0.666
 6795SOL    HW220690   6.787   8.067   0.589
 6796SOL     OW20691   0.335   0.088   0.640
 6796SOL    HW120692   0.351   0.086   0.546
 6796SOL    HW220693   0.280   0.012   0.657
 6797SOL     OW20694   8.112   5.209   1.561
 6797SOL    HW120695   8.029   5.162   1.568
 6797SOL    HW220696   8.147   5.211   1.650
 6798SOL     OW20697   7.970   4.744   0.903
 6798SOL    HW120698   7.928   4.679   0.846
 6798SOL    HW220699   8.054   4.762   0.860
 6799SOL     OW20700   4.823   4.483   0.381
 6799SOL    HW120701   4.747   4.541   0.375
 6799SOL    HW220702   4.802   4.409   0.324
 6800SOL     OW20703   1.648   6.613   0.249
 6800SOL    HW120704   1.567   6.563   0.261
 6800SOL    HW220705   1.656   6.623   0.154
 6801SOL     OW20706   4.698   6.086   4.297
 6801SOL    HW120707   4.615   6.070   4.252
 6801SOL    HW220708   4.690   6.041   4.381
 6802SOL     OW20709   4.938   0.569   4.686
 6802SOL    HW120710   4.981   0.485   4.703
 6802SOL    HW220711   4.890   0.588   4.766
 6803SOL     OW20712   5.999   0.723   4.182
 6803SOL    HW120713   5.924   0.783   4.179
 6803SOL    HW220714   6.007   0.699   4.274
 6804SOL     OW20715   1.801   0.855   4.938
 6804SOL    HW120716   1.798   0.948   4.917
 6804SOL    HW220717   1.799   0.811   4.853
 6805SOL     OW20718   4.460   3.234   4.374
 6805SOL    HW120719   4.387   3.173   4.374
 6805SOL    HW220720   4.465   3.266   4.284
 6806SOL     OW20721   5.390   1.134   3.649
 6806SOL    HW120722   5.462   1.141   3.711
 6806SOL    HW220723   5.413   1.195   3.579
 6807SOL     OW20724   2.193   0.700   0.224
 6807SOL    HW120725   2.247   0.625   0.199
 6807SOL    HW220726   2.255   0.763   0.262
 6808SOL     OW20727   5.825   5.367   1.997
 6808SOL    HW120728   5.748   5.410   1.960
 6808SOL    HW220729   5.789   5.305   2.060
 6809SOL     OW20730   1.831   0.727   5.181
 6809SOL    HW120731   1.769   0.770   5.240
 6809SOL    HW220732   1.817   0.770   5.097
 6810SOL     OW20733   1.801   6.234   1.332
 6810SOL    HW120734   1.789   6.142   1.309
 6810SOL    HW220735   1.712   6.270   1.334
 6811SOL     OW20736   2.873   1.704   3.021
 6811SOL    HW120737   2.908   1.746   3.100
 6811SOL    HW220738   2.890   1.611   3.034
 6812SOL     OW20739   7.004   3.841   1.639
 6812SOL    HW120740   6.987   3.865   1.730
 6812SOL    HW220741   7.099   3.834   1.634
 6813SOL     OW20742   7.450   3.779   2.787
 6813SOL    HW120743   7.361   3.760   2.758
 6813SOL    HW220744   7.500   3.791   2.706
 6814SOL     OW20745   5.650   4.277   3.413
 6814SOL    HW120746   5.639   4.184   3.435
 6814SOL    HW220747   5.662   4.320   3.497
 6815SOL     OW20748   4.939   6.906   3.428
 6815SOL    HW120749   4.950   6.997   3.454
 6815SOL    HW220750   4.858   6.878   3.470
 6816SOL     OW20751   0.249   3.729   1.651
 6816SOL    HW120752   0.165   3.704   1.690
 6816SOL    HW220753   0.293   3.779   1.720
 6817SOL     OW20754   1.436   2.751   3.839
 6817SOL    HW120755   1.345   2.728   3.819
 6817SOL    HW220756   1.487   2.714   3.767
 6818SOL     OW20757   4.153   4.206   5.149
 6818SOL    HW120758   4.178   4.232   5.238
 6818SOL    HW220759   4.148   4.111   5.152
 6819SOL     OW20760   3.851   2.046   2.872
 6819SOL    HW120761   3.940   2.048   2.908
 6819SOL    HW220762   3.796   2.024   2.947
 6820SOL     OW20763   7.914   5.476   4.316
 6820SOL    HW120764   7.870   5.546   4.267
 6820SOL    HW220765   8.007   5.486   4.295
 6821SOL     OW20766   6.639   5.000   4.590
 6821SOL    HW120767   6.692   4.921   4.599
 6821SOL    HW220768   6.597   5.011   4.675
 6822SOL     OW20769   0.239   5.214   2.546
 6822SOL    HW120770   0.172   5.145   2.546
 6822SOL    HW220771   0.231   5.256   2.460
 6823SOL     OW20772   7.995   1.335   3.471
 6823SOL    HW120773   8.079   1.290   3.466
 6823SOL    HW220774   7.931   1.265   3.481
 6824SOL     OW20775   0.504   0.550   5.022
 6824SOL    HW120776   0.496   0.537   4.927
 6824SOL    HW220777   0.513   0.645   5.033
 6825SOL     OW20778   5.249   7.938   4.522
 6825SOL    HW120779   5.169   7.907   4.480
 6825SOL    HW220780   5.275   7.867   4.581
 6826SOL     OW20781   1.902   0.894   3.600
 6826SOL    HW120782   1.996   0.885   3.585
 6826SOL    HW220783   1.864   0.897   3.512
 6827SOL     OW20784   0.433   4.702   1.057
 6827SOL    HW120785   0.428   4.664   1.144
 6827SOL    HW220786   0.496   4.648   1.010
 6828SOL     OW20787   1.623   0.471   2.044
 6828SOL    HW120788   1.631   0.376   2.032
 6828SOL    HW220789   1.546   0.481   2.100
 6829SOL     OW20790   2.630   4.593   2.046
 6829SOL    HW120791   2.709   4.641   2.022
 6829SOL    HW220792   2.593   4.642   2.119
 6830SOL     OW20793   2.691   1.113   1.128
 6830SOL    HW120794   2.669   1.110   1.035
 6830SOL    HW220795   2.780   1.148   1.131
 6831SOL     OW20796   0.832   4.739   5.293
 6831SOL    HW120797   0.879   4.727   5.210
 6831SOL    HW220798   0.817   4.650   5.325
 6832SOL     OW20799   0.841   2.139   2.517
 6832SOL    HW120800   0.774   2.198   2.483
 6832SOL    HW220801   0.894   2.116   2.441
 6833SOL     OW20802   1.673   3.220   3.259
 6833SOL    HW120803   1.655   3.253   3.347
 6833SOL    HW220804   1.718   3.137   3.274
 6834SOL     OW20805   7.742   3.799   1.920
 6834SOL    HW120806   7.785   3.725   1.962
 6834SOL    HW220807   7.654   3.767   1.899
 6835SOL     OW20808   4.642   6.195   4.644
 6835SOL    HW120809   4.651   6.226   4.554
 6835SOL    HW220810   4.592   6.263   4.688
 6836SOL     OW20811   1.192   4.655   3.193
 6836SOL    HW120812   1.128   4.715   3.231
 6836SOL    HW220813   1.146   4.571   3.190
 6837SOL     OW20814   3.277   4.134   5.379
 6837SOL    HW120815   3.261   4.217   5.423
 6837SOL    HW220816   3.369   4.114   5.399
 6838SOL     OW20817   4.773   3.654   3.230
 6838SOL    HW120818   4.815   3.572   3.254
 6838SOL    HW220819   4.681   3.631   3.218
 6839SOL     OW20820   7.834   6.116   3.476
 6839SOL    HW120821   7.752   6.144   3.516
 6839SOL    HW220822   7.808   6.075   3.393
 6840SOL     OW20823   1.473   5.539   4.621
 6840SOL    HW120824   1.424   5.461   4.596
 6840SOL    HW220825   1.406   5.607   4.633
 6841SOL     OW20826   5.427   5.146   5.129
 6841SOL    HW120827   5.519   5.120   5.130
 6841SOL    HW220828   5.426   5.233   5.168
 6842SOL     OW20829   5.463   1.859   3.059
 6842SOL    HW120830   5.395   1.792   3.060
 6842SOL    HW220831   5.506   1.848   2.974
 6843SOL     OW20832   5.464   2.164   5.489
 6843SOL    HW120833   5.526   2.236   5.476
 6843SOL    HW220834   5.510   2.086   5.458
 6844SOL     OW20835   2.593   4.029   3.314
 6844SOL    HW120836   2.558   4.015   3.226
 6844SOL    HW220837   2.568   4.119   3.335
 6845SOL     OW20838   0.530   3.843   5.221
 6845SOL    HW120839   0.578   3.790   5.285
 6845SOL    HW220840   0.449   3.794   5.205
 6846SOL     OW20841   3.676   1.591   1.903
 6846SOL    HW120842   3.590   1.549   1.911
 6846SOL    HW220843   3.693   1.594   1.809
 6847SOL     OW20844   7.828   0.445   5.659
 6847SOL    HW120845   7.831   0.501   5.737
 6847SOL    HW220846   7.738   0.454   5.626
 6848SOL     OW20847   4.665   4.997   1.863
 6848SOL    HW120848   4.728   5.059   1.899
 6848SOL    HW220849   4.705   4.911   1.879
 6849SOL     OW20850   4.243   3.507   0.018
 6849SOL    HW120851   4.247   3.411   0.022
 6849SOL    HW220852   4.192   3.532   0.095
 6850SOL     OW20853   2.858   3.201   5.635
 6850SOL    HW120854   2.842   3.190   5.541
 6850SOL    HW220855   2.952   3.184   5.645
 6851SOL     OW20856   6.018   8.219   2.461
 6851SOL    HW120857   6.047   8.128   2.457
 6851SOL    HW220858   6.071   0.029   2.530
 6852SOL     OW20859   5.777   6.496   2.807
 6852SOL    HW120860   5.682   6.492   2.793
 6852SOL    HW220861   5.807   6.569   2.752
 6853SOL     OW20862   7.781   7.775   3.972
 6853SOL    HW120863   7.743   7.859   3.945
 6853SOL    HW220864   7.871   7.797   3.998
 6854SOL     OW20865   0.100   4.969   2.876
 6854SOL    HW120866   0.061   4.889   2.911
 6854SOL    HW220867   0.192   4.964   2.901
 6855SOL     OW20868   7.418   0.204   0.856
 6855SOL    HW120869   7.342   0.223   0.802
 6855SOL    HW220870   7.429   0.282   0.910
 6856SOL     OW20871   1.901   5.035   4.584
 6856SOL    HW120872   1.861   5.122   4.577
 6856SOL    HW220873   1.834   4.981   4.626
 6857SOL     OW20874   3.165   7.620   4.516
 6857SOL    HW120875   3.151   7.531   4.485
 6857SOL    HW220876   3.260   7.629   4.523
 6858SOL     OW20877   2.157   6.673   5.681
 6858SOL    HW120878   2.082   6.720   5.644
 6858SOL    HW220879   2.180   6.722   5.760
 6859SOL     OW20880   3.741   2.499   2.962
 6859SOL    HW120881   3.761   2.566   3.027
 6859SOL    HW220882   3.805   2.430   2.979
 6860SOL     OW20883   3.067   2.106   1.234
 6860SOL    HW120884   3.084   2.131   1.325
 6860SOL    HW220885   2.985   2.149   1.212
 6861SOL     OW20886   3.487   2.413   1.320
 6861SOL    HW120887   3.431   2.336   1.330
 6861SOL    HW220888   3.534   2.419   1.403
 6862SOL     OW20889   6.103   5.228   3.443
 6862SOL    HW120890   6.188   5.200   3.409
 6862SOL    HW220891   6.119   5.248   3.535
 6863SOL     OW20892   8.178   5.202   1.820
 6863SOL    HW120893   8.213   5.231   1.904
 6863SOL    HW220894   8.083   5.198   1.833
 6864SOL     OW20895   4.038   5.295   2.077
 6864SOL    HW120896   4.012   5.316   2.167
 6864SOL    HW220897   4.130   5.270   2.084
 6865SOL     OW20898   7.863   3.245   0.012
 6865SOL    HW120899   7.905   3.228   0.096
 6865SOL    HW220900   3.820   7.381   5.771
 6866SOL     OW20901   7.200   5.695   1.409
 6866SOL    HW120902   7.112   5.664   1.430
 6866SOL    HW220903   7.207   5.685   1.314
 6867SOL     OW20904   7.395   8.216   4.260
 6867SOL    HW120905   7.409   8.177   4.346
 6867SOL    HW220906   7.453   8.167   4.201
 6868SOL     OW20907   6.578   6.747   4.651
 6868SOL    HW120908   6.649   6.683   4.657
 6868SOL    HW220909   6.622   6.832   4.644
 6869SOL     OW20910   3.886   1.090   2.237
 6869SOL    HW120911   3.929   1.039   2.168
 6869SOL    HW220912   3.814   1.135   2.193
 6870SOL     OW20913   1.064   7.882   5.712
 6870SOL    HW120914   1.142   7.861   5.660
 6870SOL    HW220915   0.996   7.824   5.677
 6871SOL     OW20916   1.322   3.841   1.806
 6871SOL    HW120917   1.306   3.929   1.841
 6871SOL    HW220918   1.417   3.833   1.803
 6872SOL     OW20919   3.770   7.224   0.919
 6872SOL    HW120920   3.862   7.213   0.942
 6872SOL    HW220921   3.723   7.162   0.976
 6873SOL     OW20922   4.059   1.757   1.611
 6873SOL    HW120923   3.967   1.762   1.585
 6873SOL    HW220924   4.094   1.682   1.563
 6874SOL     OW20925   3.610   0.845   1.255
 6874SOL    HW120926   3.622   0.848   1.350
 6874SOL    HW220927   3.631   0.934   1.225
 6875SOL     OW20928   0.464   3.795   0.967
 6875SOL    HW120929   0.546   3.842   0.983
 6875SOL    HW220930   0.453   3.739   1.044
 6876SOL     OW20931   1.673   7.359   1.417
 6876SOL    HW120932   1.698   7.378   1.507
 6876SOL    HW220933   1.622   7.278   1.423
 6877SOL     OW20934   2.344   5.199   1.120
 6877SOL    HW120935   2.265   5.196   1.175
 6877SOL    HW220936   2.413   5.162   1.175
 6878SOL     OW20937   7.616   2.054   4.264
 6878SOL    HW120938   7.623   1.962   4.237
 6878SOL    HW220939   7.552   2.053   4.335
 6879SOL     OW20940   3.623   7.978   0.697
 6879SOL    HW120941   3.527   7.984   0.698
 6879SOL    HW220942   3.652   8.065   0.723
 6880SOL     OW20943   3.932   5.114   1.899
 6880SOL    HW120944   3.841   5.140   1.889
 6880SOL    HW220945   3.971   5.183   1.952
 6881SOL     OW20946   7.254   1.131   5.121
 6881SOL    HW120947   7.166   1.169   5.130
 6881SOL    HW220948   7.296   1.149   5.205
 6882SOL     OW20949   0.182   3.043   3.421
 6882SOL    HW120950   0.222   3.124   3.389
 6882SOL    HW220951   0.173   3.057   3.515
 6883SOL     OW20952   8.186   6.101   5.358
 6883SOL    HW120953   8.172   6.074   5.267
 6883SOL    HW220954   8.152   6.190   5.363
 6884SOL     OW20955   0.933   2.277   4.396
 6884SOL    HW120956   0.973   2.358   4.364
 6884SOL    HW220957   0.863   2.306   4.454
 6885SOL     OW20958   7.710   4.643   4.137
 6885SOL    HW120959   7.775   4.619   4.203
 6885SOL    HW220960   7.669   4.560   4.112
 6886SOL     OW20961   3.230   5.735   3.128
 6886SOL    HW120962   3.179   5.766   3.203
 6886SOL    HW220963   3.300   5.682   3.167
 6887SOL     OW20964   7.575   5.837   4.377
 6887SOL    HW120965   7.567   5.747   4.344
 6887SOL    HW220966   7.505   5.885   4.333
 6888SOL     OW20967   3.117   0.917   3.413
 6888SOL    HW120968   3.204   0.956   3.418
 6888SOL    HW220969   3.076   0.959   3.337
 6889SOL     OW20970   8.048   5.798   2.376
 6889SOL    HW120971   8.035   5.705   2.396
 6889SOL    HW220972   7.964   5.826   2.339
 6890SOL     OW20973   4.827   7.693   3.605
 6890SOL    HW120974   4.741   7.712   3.643
 6890SOL    HW220975   4.861   7.779   3.579
 6891SOL     OW20976   6.418   7.815   3.039
 6891SOL    HW120977   6.361   7.803   2.963
 6891SOL    HW220978   6.386   7.753   3.104
 6892SOL     OW20979   1.278   4.109   2.157
 6892SOL    HW120980   1.321   4.024   2.151
 6892SOL    HW220981   1.196   4.091   2.202
 6893SOL     OW20982   3.503   0.354   4.109
 6893SOL    HW120983   3.458   0.277   4.143
 6893SOL    HW220984   3.524   0.331   4.018
 6894SOL     OW20985   0.682   4.508   2.044
 6894SOL    HW120986   0.733   4.567   2.099
 6894SOL    HW220987   0.594   4.509   2.082
 6895SOL     OW20988   4.487   0.058   5.317
 6895SOL    HW120989   4.484   0.071   5.412
 6895SOL    HW220990   4.569   0.098   5.290
 6896SOL     OW20991   3.329   3.444   5.245
 6896SOL    HW120992   3.316   3.536   5.266
 6896SOL    HW220993   3.297   3.397   5.322
 6897SOL     OW20994   1.998   0.909   0.204
 6897SOL    HW120995   2.068   0.846   0.191
 6897SOL    HW220996   2.000   0.928   0.298
 6898SOL     OW20997   5.071   4.812   0.620
 6898SOL    HW120998   5.106   4.850   0.540
 6898SOL    HW220999   4.981   4.789   0.598
 6899SOL     OW21000   4.393   6.349   1.995
 6899SOL    HW121001   4.312   6.299   2.001
 6899SOL    HW221002   4.370   6.427   1.945
 6900SOL     OW21003   1.204   7.695   0.200
 6900SOL    HW121004   1.166   7.767   0.150
 6900SOL    HW221005   1.294   7.687   0.167
 6901SOL     OW21006   7.385   6.413   4.925
 6901SOL    HW121007   7.310   6.455   4.883
 6901SOL    HW221008   7.346   6.348   4.984
 6902SOL     OW21009   3.305   1.001   1.666
 6902SOL    HW121010   3.290   1.088   1.704
 6902SOL    HW221011   3.321   0.944   1.741
 6903SOL     OW21012   0.464   3.667   1.240
 6903SOL    HW121013   0.448   3.678   1.334
 6903SOL    HW221014   0.400   3.601   1.212
 6904SOL     OW21015   6.773   3.581   5.472
 6904SOL    HW121016   6.852   3.564   5.420
 6904SOL    HW221017   6.805   3.602   5.559
 6905SOL     OW21018   0.191   8.014   1.485
 6905SOL    HW121019   0.100   8.043   1.477
 6905SOL    HW221020   0.233   8.082   1.537
 6906SOL     OW21021   7.419   1.995   1.702
 6906SOL    HW121022   7.465   2.022   1.782
 6906SOL    HW221023   7.390   1.906   1.720
 6907SOL     OW21024   7.235   6.532   3.981
 6907SOL    HW121025   7.194   6.574   3.905
 6907SOL    HW221026   7.311   6.486   3.945
 6908SOL     OW21027   5.050   1.825   2.018
 6908SOL    HW121028   5.024   1.763   2.086
 6908SOL    HW221029   5.044   1.775   1.936
 6909SOL     OW21030   5.922   4.944   4.346
 6909SOL    HW121031   5.873   4.886   4.288
 6909SOL    HW221032   5.860   4.968   4.415
 6910SOL     OW21033   4.892   5.078   5.605
 6910SOL    HW121034   4.899   5.163   5.562
 6910SOL    HW221035   4.963   5.026   5.567
 6911SOL     OW21036   2.277   2.646   4.695
 6911SOL    HW121037   2.270   2.551   4.704
 6911SOL    HW221038   2.187   2.677   4.700
 6912SOL     OW21039   6.995   3.575   1.142
 6912SOL    HW121040   7.014   3.536   1.227
 6912SOL    HW221041   6.928   3.641   1.160
 6913SOL     OW21042   8.180   2.158   0.756
 6913SOL    HW121043   0.001   2.141   0.836
 6913SOL    HW221044   8.088   2.155   0.784
 6914SOL     OW21045   4.485   2.628   0.276
 6914SOL    HW121046   4.540   2.566   0.227
 6914SOL    HW221047   4.396   2.611   0.245
 6915SOL     OW21048   0.754   7.232   1.536
 6915SOL    HW121049   0.661   7.218   1.555
 6915SOL    HW221050   0.755   7.264   1.446
 6916SOL     OW21051   2.447   2.157   4.313
 6916SOL    HW121052   2.537   2.153   4.346
 6916SOL    HW221053   2.399   2.205   4.380
 6917SOL     OW21054   3.756   5.128   0.340
 6917SOL    HW121055   3.698   5.204   0.341
 6917SOL    HW221056   3.842   5.164   0.319
 6918SOL     OW21057   3.925   5.148   2.748
 6918SOL    HW121058   3.830   5.159   2.754
 6918SOL    HW221059   3.942   5.062   2.787
 6919SOL     OW21060   3.095   0.483   0.323
 6919SOL    HW121061   3.094   0.430   0.403
 6919SOL    HW221062   3.157   0.438   0.265
 6920SOL     OW21063   3.392   4.111   2.706
 6920SOL    HW121064   3.470   4.158   2.737
 6920SOL    HW221065   3.417   4.019   2.710
 6921SOL     OW21066   6.215   5.339   5.359
 6921SOL    HW121067   6.183   5.261   5.405
 6921SOL    HW221068   6.281   5.375   5.418
 6922SOL     OW21069   4.757   6.071   2.889
 6922SOL    HW121070   4.840   6.024   2.897
 6922SOL    HW221071   4.695   6.006   2.856
 6923SOL     OW21072   1.219   3.389   2.152
 6923SOL    HW121073   1.151   3.433   2.101
 6923SOL    HW221074   1.233   3.306   2.106
 6924SOL     OW21075   4.750   0.312   1.149
 6924SOL    HW121076   4.807   0.383   1.178
 6924SOL    HW221077   4.664   0.353   1.138
 6925SOL     OW21078   4.790   1.083   5.139
 6925SOL    HW121079   4.821   1.173   5.129
 6925SOL    HW221080   4.869   1.030   5.136
 6926SOL     OW21081   6.142   4.747   5.751
 6926SOL    HW121082   6.172   4.822   5.802
 6926SOL    HW221083   6.126   4.782   5.663
 6927SOL     OW21084   1.143   1.209   2.148
 6927SOL    HW121085   1.162   1.275   2.215
 6927SOL    HW221086   1.169   1.250   2.066
 6928SOL     OW21087   5.154   6.945   0.004
 6928SOL    HW121088   1.045   2.856   5.731
 6928SOL    HW221089   5.120   6.856   0.002
 6929SOL     OW21090   3.389   6.545   1.309
 6929SOL    HW121091   3.356   6.491   1.381
 6929SOL    HW221092   3.470   6.503   1.282
 6930SOL     OW21093   5.970   2.313   2.164
 6930SOL    HW121094   6.041   2.344   2.108
 6930SOL    HW221095   5.891   2.324   2.111
 6931SOL     OW21096   3.916   5.000   5.077
 6931SOL    HW121097   4.007   4.977   5.094
 6931SOL    HW221098   3.885   5.038   5.159
 6932SOL     OW21099   6.698   7.086   2.105
 6932SOL    HW121100   6.777   7.077   2.052
 6932SOL    HW221101   6.718   7.156   2.167
 6933SOL     OW21102   8.033   1.546   3.316
 6933SOL    HW121103   8.044   1.504   3.231
 6933SOL    HW221104   8.046   1.476   3.380
 6934SOL     OW21105   2.351   5.463   0.382
 6934SOL    HW121106   2.415   5.510   0.328
 6934SOL    HW221107   2.392   5.457   0.468
 6935SOL     OW21108   5.246   5.219   4.256
 6935SOL    HW121109   5.174   5.248   4.313
 6935SOL    HW221110   5.325   5.253   4.298
 6936SOL     OW21111   6.979   5.872   5.363
 6936SOL    HW121112   7.053   5.825   5.401
 6936SOL    HW221113   7.000   5.879   5.270
 6937SOL     OW21114   6.478   4.772   2.972
 6937SOL    HW121115   6.558   4.816   3.001
 6937SOL    HW221116   6.480   4.779   2.877
 6938SOL     OW21117   3.811   4.079   0.385
 6938SOL    HW121118   3.720   4.082   0.414
 6938SOL    HW221119   3.809   4.111   0.295
 6939SOL     OW21120   0.047   6.177   2.643
 6939SOL    HW121121   0.132   6.217   2.662
 6939SOL    HW221122   0.056   6.086   2.671
 6940SOL     OW21123   5.076   1.018   4.900
 6940SOL    HW121124   5.095   1.106   4.932
 6940SOL    HW221125   5.002   1.030   4.841
 6941SOL     OW21126   3.007   3.243   0.900
 6941SOL    HW121127   2.980   3.248   0.808
 6941SOL    HW221128   3.077   3.177   0.900
 6942SOL     OW21129   5.325   2.298   1.259
 6942SOL    HW121130   5.297   2.375   1.210
 6942SOL    HW221131   5.274   2.301   1.340
 6943SOL     OW21132   1.948   4.976   1.231
 6943SOL    HW121133   1.964   4.884   1.212
 6943SOL    HW221134   2.035   5.016   1.229
 6944SOL     OW21135   4.655   7.398   2.803
 6944SOL    HW121136   4.656   7.467   2.869
 6944SOL    HW221137   4.745   7.395   2.770
 6945SOL     OW21138   5.915   6.219   0.620
 6945SOL    HW121139   5.969   6.256   0.550
 6945SOL    HW221140   5.870   6.145   0.580
 6946SOL     OW21141   4.924   3.651   2.765
 6946SOL    HW121142   4.870   3.576   2.788
 6946SOL    HW221143   4.929   3.703   2.845
 6947SOL     OW21144   2.809   3.138   0.218
 6947SOL    HW121145   2.791   3.114   0.127
 6947SOL    HW221146   2.727   3.176   0.249
 6948SOL     OW21147   4.928   5.080   4.169
 6948SOL    HW121148   4.983   5.142   4.216
 6948SOL    HW221149   4.843   5.086   4.213
 6949SOL     OW21150   7.192   6.861   2.576
 6949SOL    HW121151   7.235   6.940   2.544
 6949SOL    HW221152   7.175   6.809   2.497
 6950SOL     OW21153   2.720   2.291   4.179
 6950SOL    HW121154   2.694   2.382   4.190
 6950SOL    HW221155   2.646   2.250   4.134
 6951SOL     OW21156   7.295   3.356   5.779
 6951SOL    HW121157   7.350   3.407   5.720
 6951SOL    HW221158   3.239   7.443   0.030
 6952SOL     OW21159   4.307   2.670   0.757
 6952SOL    HW121160   4.341   2.589   0.795
 6952SOL    HW221161   4.347   2.675   0.670
 6953SOL     OW21162   5.992   1.930   2.978
 6953SOL    HW121163   6.084   1.907   2.966
 6953SOL    HW221164   5.969   1.892   3.063
 6954SOL     OW21165   6.238   2.873   0.943
 6954SOL    HW121166   6.304   2.906   0.882
 6954SOL    HW221167   6.287   2.819   1.005
 6955SOL     OW21168   0.372   7.716   0.849
 6955SOL    HW121169   0.377   7.727   0.754
 6955SOL    HW221170   0.408   7.797   0.885
 6956SOL     OW21171   2.948   5.970   4.041
 6956SOL    HW121172   3.004   6.010   4.108
 6956SOL    HW221173   2.868   6.022   4.043
 6957SOL     OW21174   2.325   7.465   0.418
 6957SOL    HW121175   2.372   7.386   0.391
 6957SOL    HW221176   2.389   7.536   0.408
 6958SOL     OW21177   6.850   4.100   3.853
 6958SOL    HW121178   6.867   4.019   3.901
 6958SOL    HW221179   6.756   4.116   3.866
 6959SOL     OW21180   6.692   6.481   3.462
 6959SOL    HW121181   6.785   6.469   3.482
 6959SOL    HW221182   6.669   6.404   3.409
 6960SOL     OW21183   5.733   5.042   5.646
 6960SOL    HW121184   5.808   5.009   5.695
 6960SOL    HW221185   5.768   5.116   5.596
 6961SOL     OW21186   5.072   4.022   5.370
 6961SOL    HW121187   5.071   4.114   5.345
 6961SOL    HW221188   5.124   3.979   5.302
 6962SOL     OW21189   4.929   1.522   4.461
 6962SOL    HW121190   4.913   1.448   4.403
 6962SOL    HW221191   4.864   1.512   4.531
 6963SOL     OW21192   1.935   7.758   2.787
 6963SOL    HW121193   1.939   7.786   2.696
 6963SOL    HW221194   2.019   7.786   2.825
 6964SOL     OW21195   4.917   6.750   4.308
 6964SOL    HW121196   5.000   6.719   4.345
 6964SOL    HW221197   4.872   6.790   4.382
 6965SOL     OW21198   0.321   3.766   4.662
 6965SOL    HW121199   0.260   3.708   4.616
 6965SOL    HW221200   0.271   3.847   4.677
 6966SOL     OW21201   6.960   2.390   4.972
 6966SOL    HW121202   7.037   2.428   4.929
 6966SOL    HW221203   6.996   2.333   5.040
 6967SOL     OW21204   7.808   0.019   0.429
 6967SOL    HW121205   7.869   0.008   0.502
 6967SOL    HW221206   7.734   0.067   0.467
 6968SOL     OW21207   1.532   7.708   5.381
 6968SOL    HW121208   1.449   7.696   5.335
 6968SOL    HW221209   1.581   7.769   5.326
 6969SOL     OW21210   3.081   2.742   1.015
 6969SOL    HW121211   3.011   2.696   1.061
 6969SOL    HW221212   3.073   2.713   0.924
 6970SOL     OW21213   1.506   6.068   4.856
 6970SOL    HW121214   1.441   6.065   4.927
 6970SOL    HW221215   1.542   6.157   4.860
 6971SOL     OW21216   1.718   6.289   0.741
 6971SOL    HW121217   1.632   6.269   0.704
 6971SOL    HW221218   1.701   6.305   0.834
 6972SOL     OW21219   5.041   0.006   4.606
 6972SOL    HW121220   5.055   8.215   4.698
 6972SOL    HW221221   5.129   0.013   4.569
 6973SOL     OW21222   0.042   0.475   0.655
 6973SOL    HW121223   0.053   0.568   0.637
 6973SOL    HW221224   0.021   0.471   0.748
 6974SOL     OW21225   8.125   5.564   1.457
 6974SOL    HW121226   8.082   5.519   1.530
 6974SOL    HW221227   8.054   5.608   1.411
 6975SOL     OW21228   6.719   0.516   4.957
 6975SOL    HW121229   6.733   0.514   5.052
 6975SOL    HW221230   6.678   0.601   4.941
 6976SOL     OW21231   4.990   1.219   3.747
 6976SOL    HW121232   4.901   1.204   3.779
 6976SOL    HW221233   4.981   1.289   3.683
 6977SOL     OW21234   1.609   3.999   1.723
 6977SOL    HW121235   1.580   3.976   1.811
 6977SOL    HW221236   1.693   4.043   1.736
 6978SOL     OW21237   6.756   6.505   1.127
 6978SOL    HW121238   6.785   6.480   1.039
 6978SOL    HW221239   6.797   6.441   1.185
 6979SOL     OW21240   5.984   1.246   4.750
 6979SOL    HW121241   6.033   1.318   4.709
 6979SOL    HW221242   5.899   1.247   4.705
 6980SOL     OW21243   2.202   8.196   3.640
 6980SOL    HW121244   2.191   0.048   3.689
 6980SOL    HW221245   2.168   8.128   3.698
 6981SOL     OW21246   4.125   1.349   2.605
 6981SOL    HW121247   4.186   1.376   2.674
 6981SOL    HW221248   4.051   1.310   2.652
 6982SOL     OW21249   3.137   0.690   3.029
 6982SOL    HW121250   3.192   0.641   3.089
 6982SOL    HW221251   3.097   0.623   2.973
 6983SOL     OW21252   7.646   4.969   5.305
 6983SOL    HW121253   7.735   4.986   5.275
 6983SOL    HW221254   7.634   4.875   5.291
 6984SOL     OW21255   4.278   7.683   0.722
 6984SOL    HW121256   4.312   7.649   0.805
 6984SOL    HW221257   4.351   7.732   0.685
 6985SOL     OW21258   0.096   4.437   0.385
 6985SOL    HW121259   0.046   4.370   0.338
 6985SOL    HW221260   0.143   4.484   0.316
 6986SOL     OW21261   7.887   0.763   4.368
 6986SOL    HW121262   7.949   0.694   4.345
 6986SOL    HW221263   7.908   0.835   4.309
 6987SOL     OW21264   7.231   6.502   2.273
 6987SOL    HW121265   7.199   6.527   2.186
 6987SOL    HW221266   7.204   6.574   2.330
 6988SOL     OW21267   5.860   5.284   5.526
 6988SOL    HW121268   5.892   5.364   5.484
 6988SOL    HW221269   5.937   5.227   5.532
 6989SOL     OW21270   1.139   4.423   1.939
 6989SOL    HW121271   1.049   4.392   1.932
 6989SOL    HW221272   1.137   4.513   1.907
 6990SOL     OW21273   4.132   6.184   1.118
 6990SOL    HW121274   4.152   6.181   1.212
 6990SOL    HW221275   4.038   6.203   1.114
 6991SOL     OW21276   1.347   2.486   1.569
 6991SOL    HW121277   1.376   2.399   1.597
 6991SOL    HW221278   1.357   2.541   1.647
 6992SOL     OW21279   5.266   6.535   2.681
 6992SOL    HW121280   5.180   6.577   2.675
 6992SOL    HW221281   5.325   6.596   2.638
 6993SOL     OW21282   5.828   1.769   0.947
 6993SOL    HW121283   5.779   1.729   1.019
 6993SOL    HW221284   5.883   1.836   0.989
 6994SOL     OW21285   5.880   6.430   4.546
 6994SOL    HW121286   5.966   6.438   4.587
 6994SOL    HW221287   5.836   6.512   4.567
 6995SOL     OW21288   7.958   7.512   4.729
 6995SOL    HW121289   7.979   7.439   4.787
 6995SOL    HW221290   7.891   7.562   4.777
 6996SOL     OW21291   4.816   0.691   0.141
 6996SOL    HW121292   4.722   0.698   0.122
 6996SOL    HW221293   4.858   0.745   0.074
 6997SOL     OW21294   4.209   6.801   4.279
 6997SOL    HW121295   4.264   6.815   4.356
 6997SOL    HW221296   4.162   6.720   4.298
 6998SOL     OW21297   3.111   3.637   0.043
 6998SOL    HW121298   3.111   3.543   0.023
 6998SOL    HW221299   3.019   3.658   0.058
 6999SOL     OW21300   1.783   3.054   1.269
 6999SOL    HW121301   1.699   3.007   1.271
 6999SOL    HW221302   1.779   3.114   1.344
 7000SOL     OW21303   1.694   1.092   5.522
 7000SOL    HW121304   1.738   1.144   5.589
 7000SOL    HW221305   1.650   1.022   5.570
 7001SOL     OW21306   7.028   0.970   5.298
 7001SOL    HW121307   7.093   1.039   5.310
 7001SOL    HW221308   6.949   1.003   5.342
 7002SOL     OW21309   1.280   0.034   1.719
 7002SOL    HW121310   1.267   8.194   1.654
 7002SOL    HW221311   1.285   0.115   1.667
 7003SOL     OW21312   0.764   3.483   3.897
 7003SOL    HW121313   0.850   3.446   3.916
 7003SOL    HW221314   0.715   3.473   3.979
 7004SOL     OW21315   7.213   2.796   0.499
 7004SOL    HW121316   7.183   2.882   0.529
 7004SOL    HW221317   7.140   2.762   0.447
 7005SOL     OW21318   5.003   6.821   2.111
 7005SOL    HW121319   5.072   6.811   2.045
 7005SOL    HW221320   4.923   6.794   2.066
 7006SOL     OW21321   4.931   7.613   0.927
 7006SOL    HW121322   4.932   7.531   0.878
 7006SOL    HW221323   5.018   7.619   0.966
 7007SOL     OW21324   1.847   7.623   1.693
 7007SOL    HW121325   1.905   7.638   1.618
 7007SOL    HW221326   1.812   7.535   1.680
 7008SOL     OW21327   7.304   3.047   2.364
 7008SOL    HW121328   7.319   2.992   2.287
 7008SOL    HW221329   7.210   3.066   2.361
 7009SOL     OW21330   6.755   7.672   2.068
 7009SOL    HW121331   6.704   7.599   2.033
 7009SOL    HW221332   6.757   7.657   2.162
 7010SOL     OW21333   0.013   5.914   1.938
 7010SOL    HW121334   0.066   5.994   1.943
 7010SOL    HW221335   8.155   5.945   1.912
 7011SOL     OW21336   6.933   4.314   5.444
 7011SOL    HW121337   6.839   4.313   5.428
 7011SOL    HW221338   6.954   4.406   5.461
 7012SOL     OW21339   2.826   5.598   0.781
 7012SOL    HW121340   2.793   5.672   0.729
 7012SOL    HW221341   2.909   5.575   0.739
 7013SOL     OW21342   1.635   6.895   2.250
 7013SOL    HW121343   1.702   6.842   2.207
 7013SOL    HW221344   1.675   6.981   2.260
 7014SOL     OW21345   6.253   1.834   2.888
 7014SOL    HW121346   6.277   1.878   2.807
 7014SOL    HW221347   6.329   1.845   2.945
 7015SOL     OW21348   8.035   1.868   2.200
 7015SOL    HW121349   7.951   1.908   2.176
 7015SOL    HW221350   8.038   1.874   2.295
 7016SOL     OW21351   3.177   5.476   1.476
 7016SOL    HW121352   3.202   5.568   1.472
 7016SOL    HW221353   3.097   5.470   1.424
 7017SOL     OW21354   5.151   2.782   0.708
 7017SOL    HW121355   5.164   2.724   0.783
 7017SOL    HW221356   5.211   2.855   0.722
 7018SOL     OW21357   5.036   3.975   0.940
 7018SOL    HW121358   5.101   3.928   0.992
 7018SOL    HW221359   5.071   4.064   0.934
 7019SOL     OW21360   5.662   6.271   1.719
 7019SOL    HW121361   5.664   6.211   1.644
 7019SOL    HW221362   5.750   6.307   1.723
 7020SOL     OW21363   3.390   0.562   1.955
 7020SOL    HW121364   3.388   0.539   2.048
 7020SOL    HW221365   3.454   0.502   1.917
 7021SOL     OW21366   6.315   8.121   4.330
 7021SOL    HW121367   6.242   8.178   4.354
 7021SOL    HW221368   6.387   8.149   4.387
 7022SOL     OW21369   4.259   4.191   4.295
 7022SOL    HW121370   4.232   4.121   4.354
 7022SOL    HW221371   4.310   4.146   4.227
 7023SOL     OW21372   5.860   8.052   4.465
 7023SOL    HW121373   5.854   8.135   4.512
 7023SOL    HW221374   5.954   8.038   4.454
 7024SOL     OW21375   3.216   6.095   0.302
 7024SOL    HW121376   3.146   6.036   0.275
 7024SOL    HW221377   3.278   6.093   0.229
 7025SOL     OW21378   6.274   5.958   4.962
 7025SOL    HW121379   6.313   5.871   4.962
 7025SOL    HW221380   6.208   5.954   5.031
 7026SOL     OW21381   7.997   1.537   2.188
 7026SOL    HW121382   8.075   1.587   2.165
 7026SOL    HW221383   7.959   1.585   2.261
 7027SOL     OW21384   8.057   0.746   1.387
 7027SOL    HW121385   8.083   0.831   1.422
 7027SOL    HW221386   8.042   0.691   1.464
 7028SOL     OW21387   6.476   4.226   2.418
 7028SOL    HW121388   6.513   4.224   2.506
 7028SOL    HW221389   6.492   4.315   2.388
 7029SOL     OW21390   1.296   4.335   4.379
 7029SOL    HW121391   1.212   4.375   4.358
 7029SOL    HW221392   1.304   4.346   4.474
 7030SOL     OW21393   1.909   7.119   4.335
 7030SOL    HW121394   1.954   7.090   4.256
 7030SOL    HW221395   1.882   7.038   4.378
 7031SOL     OW21396   5.744   8.225   0.402
 7031SOL    HW121397   5.715   0.065   0.342
 7031SOL    HW221398   5.665   8.175   0.420
 7032SOL     OW21399   1.611   6.204   2.592
 7032SOL    HW121400   1.670   6.204   2.517
 7032SOL    HW221401   1.565   6.288   2.587
 7033SOL     OW21402   1.470   3.553   2.585
 7033SOL    HW121403   1.550   3.599   2.560
 7033SOL    HW221404   1.454   3.491   2.514
 7034SOL     OW21405   7.538   5.489   3.520
 7034SOL    HW121406   7.632   5.472   3.523
 7034SOL    HW221407   7.525   5.563   3.579
 7035SOL     OW21408   3.128   5.516   3.493
 7035SOL    HW121409   3.218   5.536   3.520
 7035SOL    HW221410   3.137   5.446   3.428
 7036SOL     OW21411   1.801   7.454   3.541
 7036SOL    HW121412   1.799   7.359   3.550
 7036SOL    HW221413   1.885   7.480   3.579
 7037SOL     OW21414   4.664   2.789   3.760
 7037SOL    HW121415   4.630   2.755   3.843
 7037SOL    HW221416   4.741   2.840   3.785
 7038SOL     OW21417   0.293   5.674   0.816
 7038SOL    HW121418   0.335   5.760   0.814
 7038SOL    HW221419   0.200   5.692   0.805
 7039SOL     OW21420   5.390   6.141   4.729
 7039SOL    HW121421   5.407   6.073   4.794
 7039SOL    HW221422   5.373   6.093   4.648
 7040SOL     OW21423   1.362   8.200   0.731
 7040SOL    HW121424   1.416   0.046   0.756
 7040SOL    HW221425   1.283   0.009   0.693
 7041SOL     OW21426   3.377   1.204   0.958
 7041SOL    HW121427   3.461   1.249   0.952
 7041SOL    HW221428   3.398   1.112   0.945
 7042SOL     OW21429   3.256   0.698   4.313
 7042SOL    HW121430   3.305   0.629   4.358
 7042SOL    HW221431   3.313   0.723   4.240
 7043SOL     OW21432   5.434   5.973   5.042
 7043SOL    HW121433   5.354   5.955   5.091
 7043SOL    HW221434   5.462   6.059   5.073
 7044SOL     OW21435   5.668   2.494   0.885
 7044SOL    HW121436   5.672   2.495   0.789
 7044SOL    HW221437   5.756   2.521   0.913
 7045SOL     OW21438   2.527   6.942   0.713
 7045SOL    HW121439   2.507   6.894   0.633
 7045SOL    HW221440   2.442   6.973   0.745
 7046SOL     OW21441   6.643   6.276   1.665
 7046SOL    HW121442   6.736   6.261   1.680
 7046SOL    HW221443   6.639   6.335   1.590
 7047SOL     OW21444   3.539   2.950   2.252
 7047SOL    HW121445   3.576   2.954   2.340
 7047SOL    HW221446   3.539   3.041   2.222
 7048SOL     OW21447   7.281   6.539   2.925
 7048SOL    HW121448   7.313   6.603   2.989
 7048SOL    HW221449   7.218   6.588   2.872
 7049SOL     OW21450   0.239   3.693   2.669
 7049SOL    HW121451   0.203   3.664   2.753
 7049SOL    HW221452   0.258   3.612   2.622
 7050SOL     OW21453   5.350   5.920   2.153
 7050SOL    HW121454   5.410   5.934   2.080
 7050SOL    HW221455   5.407   5.910   2.229
 7051SOL     OW21456   0.929   2.490   2.402
 7051SOL    HW121457   0.914   2.488   2.308
 7051SOL    HW221458   0.849   2.453   2.440
 7052SOL     OW21459   5.890   2.638   2.088
 7052SOL    HW121460   5.872   2.710   2.148
 7052SOL    HW221461   5.867   2.559   2.137
 7053SOL     OW21462   2.668   1.553   5.629
 7053SOL    HW121463   2.611   1.481   5.601
 7053SOL    HW221464   2.693   1.596   5.547
 7054SOL     OW21465   6.504   3.690   2.523
 7054SOL    HW121466   6.572   3.662   2.462
 7054SOL    HW221467   6.545   3.758   2.576
 7055SOL     OW21468   0.101   5.409   2.677
 7055SOL    HW121469   0.145   5.470   2.618
 7055SOL    HW221470   0.156   5.331   2.676
 7056SOL     OW21471   2.865   0.083   2.621
 7056SOL    HW121472   2.829   0.168   2.595
 7056SOL    HW221473   2.805   0.051   2.688
 7057SOL     OW21474   7.719   7.432   2.822
 7057SOL    HW121475   7.722   7.343   2.788
 7057SOL    HW221476   7.783   7.433   2.893
 7058SOL     OW21477   7.953   4.498   0.200
 7058SOL    HW121478   8.007   4.420   0.211
 7058SOL    HW221479   7.995   4.564   0.254
 7059SOL     OW21480   2.902   2.667   1.458
 7059SOL    HW121481   2.886   2.722   1.534
 7059SOL    HW221482   2.881   2.578   1.488
 7060SOL     OW21483   1.963   0.172   2.491
 7060SOL    HW121484   1.879   0.191   2.450
 7060SOL    HW221485   1.971   0.237   2.561
 7061SOL     OW21486   4.568   5.889   3.483
 7061SOL    HW121487   4.621   5.871   3.560
 7061SOL    HW221488   4.559   5.984   3.481
 7062SOL     OW21489   2.880   5.038   4.835
 7062SOL    HW121490   2.828   5.116   4.855
 7062SOL    HW221491   2.872   5.028   4.740
 7063SOL     OW21492   7.942   4.339   3.844
 7063SOL    HW121493   7.978   4.300   3.764
 7063SOL    HW221494   7.856   4.372   3.818
 7064SOL     OW21495   3.586   1.649   2.894
 7064SOL    HW121496   3.681   1.660   2.885
 7064SOL    HW221497   3.554   1.642   2.804
 7065SOL     OW21498   2.206   1.451   0.453
 7065SOL    HW121499   2.187   1.370   0.406
 7065SOL    HW221500   2.247   1.507   0.387
 7066SOL     OW21501   6.201   6.642   4.395
 7066SOL    HW121502   6.203   6.555   4.354
 7066SOL    HW221503   6.149   6.630   4.474
 7067SOL     OW21504   7.361   0.044   5.275
 7067SOL    HW121505   7.414   0.019   5.199
 7067SOL    HW221506   7.306   8.197   5.292
 7068SOL     OW21507   7.846   0.635   0.292
 7068SOL    HW121508   7.796   0.694   0.348
 7068SOL    HW221509   7.892   0.577   0.353
 7069SOL     OW21510   0.096   5.812   2.358
 7069SOL    HW121511   0.003   5.831   2.370
 7069SOL    HW221512   0.132   5.892   2.320
 7070SOL     OW21513   3.934   5.840   0.016
 7070SOL    HW121514   3.926   5.844   0.111
 7070SOL    HW221515   8.134   1.763   5.816
 7071SOL     OW21516   0.139   3.267   1.193
 7071SOL    HW121517   0.073   3.201   1.214
 7071SOL    HW221518   0.088   3.343   1.164
 7072SOL     OW21519   0.757   0.402   0.526
 7072SOL    HW121520   0.746   0.455   0.447
 7072SOL    HW221521   0.827   0.340   0.505
 7073SOL     OW21522   2.847   2.685   5.587
 7073SOL    HW121523   2.906   2.686   5.663
 7073SOL    HW221524   2.760   2.699   5.624
 7074SOL     OW21525   3.922   2.942   5.744
 7074SOL    HW121526   3.997   2.901   5.787
 7074SOL    HW221527   3.849   2.883   5.762
 7075SOL     OW21528   4.781   7.913   4.261
 7075SOL    HW121529   4.778   7.926   4.166
 7075SOL    HW221530   4.821   7.993   4.295
 7076SOL     OW21531   5.726   4.410   5.095
 7076SOL    HW121532   5.782   4.334   5.082
 7076SOL    HW221533   5.711   4.444   5.007
 7077SOL     OW21534   1.171   2.259   4.623
 7077SOL    HW121535   1.119   2.181   4.639
 7077SOL    HW221536   1.187   2.258   4.529
 7078SOL     OW21537   4.159   1.767   5.229
 7078SOL    HW121538   4.177   1.680   5.193
 7078SOL    HW221539   4.080   1.797   5.183
 7079SOL     OW21540   6.547   7.212   4.351
 7079SOL    HW121541   6.494   7.146   4.305
 7079SOL    HW221542   6.532   7.194   4.444
 7080SOL     OW21543   0.369   0.644   3.937
 7080SOL    HW121544   0.293   0.621   3.990
 7080SOL    HW221545   0.335   0.704   3.870
 7081SOL     OW21546   6.247   1.401   1.147
 7081SOL    HW121547   6.275   1.427   1.235
 7081SOL    HW221548   6.258   1.306   1.145
 7082SOL     OW21549   5.614   7.210   3.263
 7082SOL    HW121550   5.538   7.260   3.234
 7082SOL    HW221551   5.581   7.152   3.332
 7083SOL     OW21552   2.734   4.965   1.355
 7083SOL    HW121553   2.810   4.952   1.298
 7083SOL    HW221554   2.771   5.001   1.436
 7084SOL     OW21555   5.451   2.646   4.353
 7084SOL    HW121556   5.381   2.600   4.399
 7084SOL    HW221557   5.446   2.736   4.385
 7085SOL     OW21558   2.106   5.263   5.269
 7085SOL    HW121559   2.023   5.272   5.222
 7085SOL    HW221560   2.082   5.225   5.354
 7086SOL     OW21561   4.239   6.341   2.286
 7086SOL    HW121562   4.276   6.379   2.366
 7086SOL    HW221563   4.210   6.417   2.235
 7087SOL     OW21564   4.035   7.916   2.174
 7087SOL    HW121565   4.001   7.834   2.210
 7087SOL    HW221566   4.106   7.889   2.115
 7088SOL     OW21567   1.246   5.835   0.616
 7088SOL    HW121568   1.209   5.909   0.567
 7088SOL    HW221569   1.176   5.809   0.676
 7089SOL     OW21570   0.517   6.562   0.996
 7089SOL    HW121571   0.450   6.608   0.945
 7089SOL    HW221572   0.573   6.521   0.930
 7090SOL     OW21573   6.966   4.001   3.124
 7090SOL    HW121574   6.975   4.008   3.219
 7090SOL    HW221575   6.875   4.024   3.106
 7091SOL     OW21576   6.442   2.046   3.127
 7091SOL    HW121577   6.492   2.023   3.049
 7091SOL    HW221578   6.408   1.963   3.159
 7092SOL     OW21579   0.686   5.624   3.323
 7092SOL    HW121580   0.765   5.595   3.368
 7092SOL    HW221581   0.658   5.702   3.372
 7093SOL     OW21582   5.501   1.634   2.675
 7093SOL    HW121583   5.496   1.702   2.742
 7093SOL    HW221584   5.422   1.582   2.687
 7094SOL     OW21585   5.454   6.378   1.887
 7094SOL    HW121586   5.370   6.350   1.851
 7094SOL    HW221587   5.519   6.337   1.831
 7095SOL     OW21588   0.593   6.889   0.113
 7095SOL    HW121589   0.583   6.830   0.039
 7095SOL    HW221590   0.631   6.968   0.076
 7096SOL     OW21591   1.300   3.260   4.608
 7096SOL    HW121592   1.302   3.240   4.702
 7096SOL    HW221593   1.209   3.282   4.590
 7097SOL     OW21594   5.641   4.107   3.710
 7097SOL    HW121595   5.728   4.075   3.732
 7097SOL    HW221596   5.619   4.064   3.628
 7098SOL     OW21597   3.160   6.444   3.516
 7098SOL    HW121598   3.228   6.412   3.576
 7098SOL    HW221599   3.081   6.451   3.570
 7099SOL     OW21600   6.969   0.673   1.855
 7099SOL    HW121601   6.933   0.743   1.910
 7099SOL    HW221602   6.993   0.717   1.773
 7100SOL     OW21603   0.917   1.791   1.550
 7100SOL    HW121604   0.999   1.749   1.525
 7100SOL    HW221605   0.878   1.820   1.467
 7101SOL     OW21606   0.457   7.870   5.324
 7101SOL    HW121607   0.406   7.869   5.405
 7101SOL    HW221608   0.526   7.934   5.340
 7102SOL     OW21609   1.157   4.659   2.100
 7102SOL    HW121610   1.111   4.680   2.019
 7102SOL    HW221611   1.250   4.668   2.078
 7103SOL     OW21612   1.321   1.683   1.216
 7103SOL    HW121613   1.343   1.611   1.157
 7103SOL    HW221614   1.405   1.723   1.238
 7104SOL     OW21615   0.942   2.349   2.074
 7104SOL    HW121616   1.033   2.335   2.047
 7104SOL    HW221617   0.908   2.414   2.013
 7105SOL     OW21618   0.746   5.380   1.861
 7105SOL    HW121619   0.666   5.369   1.912
 7105SOL    HW221620   0.718   5.424   1.781
 7106SOL     OW21621   2.241   7.896   3.140
 7106SOL    HW121622   2.294   7.844   3.201
 7106SOL    HW221623   2.176   7.939   3.195
 7107SOL     OW21624   4.283   1.026   5.706
 7107SOL    HW121625   4.311   1.100   5.759
 7107SOL    HW221626   4.265   0.956   5.769
 7108SOL     OW21627   3.781   5.900   4.352
 7108SOL    HW121628   3.753   5.881   4.262
 7108SOL    HW221629   3.824   5.985   4.346
 7109SOL     OW21630   4.333   6.186   1.641
 7109SOL    HW121631   4.324   6.277   1.612
 7109SOL    HW221632   4.427   6.168   1.635
 7110SOL     OW21633   4.543   7.099   4.859
 7110SOL    HW121634   4.515   7.154   4.786
 7110SOL    HW221635   4.623   7.056   4.828
 7111SOL     OW21636   0.857   1.243   4.029
 7111SOL    HW121637   0.765   1.221   4.012
 7111SOL    HW221638   0.854   1.314   4.094
 7112SOL     OW21639   0.207   0.222   1.633
 7112SOL    HW121640   0.194   0.150   1.572
 7112SOL    HW221641   0.287   0.265   1.604
 7113SOL     OW21642   1.750   5.920   2.557
 7113SOL    HW121643   1.694   5.997   2.559
 7113SOL    HW221644   1.775   5.910   2.465
 7114SOL     OW21645   1.941   5.309   1.880
 7114SOL    HW121646   1.978   5.354   1.956
 7114SOL    HW221647   1.911   5.225   1.915
 7115SOL     OW21648   4.863   5.678   2.823
 7115SOL    HW121649   4.903   5.738   2.886
 7115SOL    HW221650   4.789   5.727   2.787
 7116SOL     OW21651   2.397   6.873   5.496
 7116SOL    HW121652   2.333   6.889   5.565
 7116SOL    HW221653   2.421   6.960   5.465
 7117SOL     OW21654   1.162   7.323   5.558
 7117SOL    HW121655   1.211   7.405   5.561
 7117SOL    HW221656   1.077   7.347   5.520
 7118SOL     OW21657   5.838   1.059   2.810
 7118SOL    HW121658   5.873   1.050   2.721
 7118SOL    HW221659   5.743   1.048   2.800
 7119SOL     OW21660   1.703   4.150   2.860
 7119SOL    HW121661   1.773   4.184   2.804
 7119SOL    HW221662   1.631   4.130   2.800
 7120SOL     OW21663   4.274   5.229   3.703
 7120SOL    HW121664   4.356   5.254   3.659
 7120SOL    HW221665   4.205   5.265   3.647
 7121SOL     OW21666   2.534   1.495   0.211
 7121SOL    HW121667   2.546   1.501   0.306
 7121SOL    HW221668   2.443   1.521   0.196
 7122SOL     OW21669   6.439   7.436   4.267
 7122SOL    HW121670   6.503   7.477   4.209
 7122SOL    HW221671   6.462   7.343   4.267
 7123SOL     OW21672   3.868   0.857   5.788
 7123SOL    HW121673   3.800   0.922   5.806
 7123SOL    HW221674   3.833   0.806   5.715
 7124SOL     OW21675   5.959   3.242   3.295
 7124SOL    HW121676   5.981   3.240   3.202
 7124SOL    HW221677   6.016   3.176   3.335
 7125SOL     OW21678   4.252   1.039   2.073
 7125SOL    HW121679   4.158   1.022   2.074
 7125SOL    HW221680   4.261   1.118   2.019
 7126SOL     OW21681   6.539   3.723   1.092
 7126SOL    HW121682   6.614   3.696   1.038
 7126SOL    HW221683   6.551   3.817   1.104
 7127SOL     OW21684   2.261   5.618   5.579
 7127SOL    HW121685   2.234   5.688   5.638
 7127SOL    HW221686   2.179   5.576   5.553
 7128SOL     OW21687   6.407   0.476   0.765
 7128SOL    HW121688   6.497   0.497   0.739
 7128SOL    HW221689   6.371   0.430   0.689
 7129SOL     OW21690   0.816   6.090   5.426
 7129SOL    HW121691   0.748   6.100   5.359
 7129SOL    HW221692   0.887   6.043   5.382
 7130SOL     OW21693   7.211   1.573   1.549
 7130SOL    HW121694   7.214   1.488   1.506
 7130SOL    HW221695   7.190   1.635   1.479
 7131SOL     OW21696   2.152   0.109   5.512
 7131SOL    HW121697   2.112   0.071   5.590
 7131SOL    HW221698   2.226   0.161   5.545
 7132SOL     OW21699   0.650   0.998   4.724
 7132SOL    HW121700   0.689   0.968   4.642
 7132SOL    HW221701   0.556   0.982   4.714
 7133SOL     OW21702   2.342   1.563   4.382
 7133SOL    HW121703   2.314   1.551   4.473
 7133SOL    HW221704   2.293   1.639   4.351
 7134SOL     OW21705   6.456   5.484   5.468
 7134SOL    HW121706   6.471   5.458   5.559
 7134SOL    HW221707   6.408   5.567   5.474
 7135SOL     OW21708   3.745   2.643   4.460
 7135SOL    HW121709   3.739   2.721   4.516
 7135SOL    HW221710   3.668   2.648   4.403
 7136SOL     OW21711   0.103   4.424   5.699
 7136SOL    HW121712   0.181   4.438   5.753
 7136SOL    HW221713   0.130   4.450   5.611
 7137SOL     OW21714   1.641   6.686   0.575
 7137SOL    HW121715   1.721   6.636   0.589
 7137SOL    HW221716   1.588   6.630   0.518
 7138SOL     OW21717   2.012   4.946   4.905
 7138SOL    HW121718   1.929   4.910   4.873
 7138SOL    HW221719   2.003   4.946   5.000
 7139SOL     OW21720   5.875   3.530   2.144
 7139SOL    HW121721   5.868   3.611   2.094
 7139SOL    HW221722   5.807   3.538   2.211
 7140SOL     OW21723   4.709   1.887   4.423
 7140SOL    HW121724   4.749   1.846   4.347
 7140SOL    HW221725   4.772   1.954   4.450
 7141SOL     OW21726   4.785   3.727   3.994
 7141SOL    HW121727   4.803   3.801   4.052
 7141SOL    HW221728   4.796   3.762   3.906
 7142SOL     OW21729   5.206   3.153   2.529
 7142SOL    HW121730   5.175   3.143   2.439
 7142SOL    HW221731   5.299   3.129   2.525
 7143SOL     OW21732   6.249   7.012   0.842
 7143SOL    HW121733   6.263   6.975   0.929
 7143SOL    HW221734   6.241   7.106   0.857
 7144SOL     OW21735   2.061   0.237   3.704
 7144SOL    HW121736   1.995   0.168   3.693
 7144SOL    HW221737   2.019   0.301   3.761
 7145SOL     OW21738   2.971   5.084   5.247
 7145SOL    HW121739   3.035   5.130   5.193
 7145SOL    HW221740   2.974   5.129   5.331
 7146SOL     OW21741   0.152   6.211   0.396
 7146SOL    HW121742   0.190   6.296   0.375
 7146SOL    HW221743   0.203   6.180   0.471
 7147SOL     OW21744   7.883   7.316   3.313
 7147SOL    HW121745   7.976   7.320   3.336
 7147SOL    HW221746   7.849   7.243   3.364
 7148SOL     OW21747   0.013   5.451   0.944
 7148SOL    HW121748   8.196   5.372   0.970
 7148SOL    HW221749   0.019   5.503   1.024
 7149SOL     OW21750   4.464   0.205   1.338
 7149SOL    HW121751   4.449   0.299   1.343
 7149SOL    HW221752   4.479   0.188   1.245
 7150SOL     OW21753   6.421   0.655   3.795
 7150SOL    HW121754   6.345   0.614   3.754
 7150SOL    HW221755   6.385   0.721   3.854
 7151SOL     OW21756   7.529   7.984   1.971
 7151SOL    HW121757   7.596   7.976   2.039
 7151SOL    HW221758   7.564   7.935   1.896
 7152SOL     OW21759   6.109   6.005   3.261
 7152SOL    HW121760   6.106   6.029   3.354
 7152SOL    HW221761   6.166   5.928   3.258
 7153SOL     OW21762   4.757   3.157   3.895
 7153SOL    HW121763   4.682   3.115   3.937
 7153SOL    HW221764   4.720   3.202   3.819
 7154SOL     OW21765   0.997   7.250   0.812
 7154SOL    HW121766   0.977   7.231   0.904
 7154SOL    HW221767   1.000   7.346   0.808
 7155SOL     OW21768   1.353   2.324   3.340
 7155SOL    HW121769   1.318   2.402   3.384
 7155SOL    HW221770   1.447   2.341   3.333
 7156SOL     OW21771   3.108   6.831   5.132
 7156SOL    HW121772   3.014   6.821   5.119
 7156SOL    HW221773   3.142   6.742   5.136
 7157SOL     OW21774   8.031   3.242   1.339
 7157SOL    HW121775   8.020   3.262   1.432
 7157SOL    HW221776   7.960   3.181   1.319
 7158SOL     OW21777   2.769   1.728   3.321
 7158SOL    HW121778   2.729   1.724   3.408
 7158SOL    HW221779   2.706   1.686   3.263
 7159SOL     OW21780   4.499   1.567   4.107
 7159SOL    HW121781   4.455   1.542   4.026
 7159SOL    HW221782   4.568   1.627   4.080
 7160SOL     OW21783   0.405   5.736   4.409
 7160SOL    HW121784   0.325   5.786   4.395
 7160SOL    HW221785   0.380   5.666   4.470
 7161SOL     OW21786   3.327   7.141   3.843
 7161SOL    HW121787   3.344   7.135   3.749
 7161SOL    HW221788   3.371   7.221   3.871
 7162SOL     OW21789   5.570   3.409   5.626
 7162SOL    HW121790   5.569   3.328   5.678
 7162SOL    HW221791   5.650   3.454   5.654
 7163SOL     OW21792   5.306   4.815   4.648
 7163SOL    HW121793   5.291   4.860   4.565
 7163SOL    HW221794   5.311   4.885   4.713
 7164SOL     OW21795   1.915   6.898   0.057
 7164SOL    HW121796   1.998   6.944   0.050
 7164SOL    HW221797   1.909   6.872   0.149
 7165SOL     OW21798   6.612   6.551   4.166
 7165SOL    HW121799   6.663   6.484   4.213
 7165SOL    HW221800   6.572   6.603   4.235
 7166SOL     OW21801   2.746   4.617   3.256
 7166SOL    HW121802   2.741   4.653   3.345
 7166SOL    HW221803   2.768   4.525   3.269
 7167SOL     OW21804   2.445   5.376   2.386
 7167SOL    HW121805   2.475   5.373   2.295
 7167SOL    HW221806   2.453   5.286   2.416
 7168SOL     OW21807   4.152   5.331   3.952
 7168SOL    HW121808   4.194   5.304   3.871
 7168SOL    HW221809   4.179   5.422   3.964
 7169SOL     OW21810   2.479   6.423   3.470
 7169SOL    HW121811   2.420   6.499   3.473
 7169SOL    HW221812   2.565   6.458   3.492
 7170SOL     OW21813   3.131   4.468   0.363
 7170SOL    HW121814   3.205   4.515   0.402
 7170SOL    HW221815   3.055   4.522   0.384
 7171SOL     OW21816   1.204   2.263   4.021
 7171SOL    HW121817   1.273   2.294   4.079
 7171SOL    HW221818   1.215   2.168   4.020
 7172SOL     OW21819   0.979   7.358   2.582
 7172SOL    HW121820   1.032   7.294   2.629
 7172SOL    HW221821   0.890   7.345   2.615
 7173SOL     OW21822   6.801   0.173   1.440
 7173SOL    HW121823   6.753   0.132   1.368
 7173SOL    HW221824   6.807   0.105   1.507
 7174SOL     OW21825   7.396   7.911   3.130
 7174SOL    HW121826   7.369   7.865   3.051
 7174SOL    HW221827   7.490   7.927   3.118
 7175SOL     OW21828   7.627   3.164   5.139
 7175SOL    HW121829   7.577   3.186   5.217
 7175SOL    HW221830   7.652   3.072   5.151
 7176SOL     OW21831   7.653   7.695   5.809
 7176SOL    HW121832   3.487   3.656   0.018
 7176SOL    HW221833   7.617   7.673   5.723
 7177SOL     OW21834   6.011   1.100   3.745
 7177SOL    HW121835   6.083   1.078   3.804
 7177SOL    HW221836   6.005   1.026   3.685
 7178SOL     OW21837   6.021   6.683   5.109
 7178SOL    HW121838   6.044   6.722   5.025
 7178SOL    HW221839   6.099   6.635   5.135
 7179SOL     OW21840   5.232   1.623   4.055
 7179SOL    HW121841   5.269   1.591   3.973
 7179SOL    HW221842   5.153   1.670   4.029
 7180SOL     OW21843   5.534   4.549   3.084
 7180SOL    HW121844   5.626   4.536   3.063
 7180SOL    HW221845   5.494   4.463   3.072
 7181SOL     OW21846   3.649   6.527   3.737
 7181SOL    HW121847   3.710   6.456   3.756
 7181SOL    HW221848   3.630   6.519   3.644
 7182SOL     OW21849   3.798   5.873   2.132
 7182SOL    HW121850   3.715   5.826   2.137
 7182SOL    HW221851   3.786   5.935   2.061
 7183SOL     OW21852   2.759   0.878   1.393
 7183SOL    HW121853   2.702   0.911   1.462
 7183SOL    HW221854   2.798   0.957   1.354
 7184SOL     OW21855   4.898   1.525   0.653
 7184SOL    HW121856   4.961   1.497   0.719
 7184SOL    HW221857   4.816   1.535   0.701
 7185SOL     OW21858   5.604   7.359   2.638
 7185SOL    HW121859   5.629   7.307   2.715
 7185SOL    HW221860   5.678   7.349   2.578
 7186SOL     OW21861   2.743   6.722   2.960
 7186SOL    HW121862   2.647   6.724   2.960
 7186SOL    HW221863   2.768   6.755   3.046
 7187SOL     OW21864   4.265   6.833   3.514
 7187SOL    HW121865   4.256   6.755   3.569
 7187SOL    HW221866   4.309   6.897   3.570
 7188SOL     OW21867   6.472   0.330   0.297
 7188SOL    HW121868   6.546   0.365   0.347
 7188SOL    HW221869   6.413   0.294   0.364
 7189SOL     OW21870   3.102   3.889   4.495
 7189SOL    HW121871   3.033   3.826   4.517
 7189SOL    HW221872   3.055   3.962   4.455
 7190SOL     OW21873   5.562   6.173   5.169
 7190SOL    HW121874   5.637   6.119   5.144
 7190SOL    HW221875   5.600   6.258   5.192
 7191SOL     OW21876   2.833   0.647   1.893
 7191SOL    HW121877   2.770   0.702   1.939
 7191SOL    HW221878   2.846   0.572   1.950
 7192SOL     OW21879   5.207   1.647   1.032
 7192SOL    HW121880   5.254   1.649   0.949
 7192SOL    HW221881   5.125   1.694   1.015
 7193SOL     OW21882   0.942   8.101   1.625
 7193SOL    HW121883   0.947   8.014   1.585
 7193SOL    HW221884   0.883   8.089   1.700
 7194SOL     OW21885   2.881   7.738   2.547
 7194SOL    HW121886   2.836   7.806   2.497
 7194SOL    HW221887   2.891   7.666   2.485
 7195SOL     OW21888   1.353   7.802   0.642
 7195SOL    HW121889   1.392   7.817   0.556
 7195SOL    HW221890   1.425   7.818   0.703
 7196SOL     OW21891   6.508   1.481   2.118
 7196SOL    HW121892   6.478   1.444   2.035
 7196SOL    HW221893   6.428   1.509   2.163
 7197SOL     OW21894   4.061   3.600   2.369
 7197SOL    HW121895   4.157   3.603   2.365
 7197SOL    HW221896   4.038   3.518   2.325
 7198SOL     OW21897   1.042   1.491   0.628
 7198SOL    HW121898   1.074   1.558   0.689
 7198SOL    HW221899   1.049   1.532   0.542
 7199SOL     OW21900   6.174   7.773   1.149
 7199SOL    HW121901   6.269   7.759   1.146
 7199SOL    HW221902   6.144   7.721   1.224
 7200SOL     OW21903   1.071   7.841   0.626
 7200SOL    HW121904   1.058   7.922   0.576
 7200SOL    HW221905   1.166   7.831   0.631
 7201SOL     OW21906   1.308   4.658   3.755
 7201SOL    HW121907   1.241   4.591   3.767
 7201SOL    HW221908   1.287   4.698   3.671
 7202SOL     OW21909   0.815   0.952   5.729
 7202SOL    HW121910   0.781   0.981   5.814
 7202SOL    HW221911   0.738   0.918   5.683
 7203SOL     OW21912   3.445   5.080   0.325
 7203SOL    HW121913   3.353   5.062   0.343
 7203SOL    HW221914   3.491   5.004   0.360
 7204SOL     OW21915   6.219   7.085   2.525
 7204SOL    HW121916   6.260   7.072   2.610
 7204SOL    HW221917   6.292   7.088   2.463
 7205SOL     OW21918   2.159   0.494   2.469
 7205SOL    HW121919   2.229   0.560   2.462
 7205SOL    HW221920   2.181   0.444   2.547
 7206SOL     OW21921   1.947   1.163   5.130
 7206SOL    HW121922   1.940   1.079   5.175
 7206SOL    HW221923   1.933   1.228   5.199
 7207SOL     OW21924   4.124   6.187   5.178
 7207SOL    HW121925   4.067   6.211   5.251
 7207SOL    HW221926   4.192   6.254   5.178
 7208SOL     OW21927   1.416   1.261   4.823
 7208SOL    HW121928   1.369   1.331   4.868
 7208SOL    HW221929   1.449   1.302   4.743
 7209SOL     OW21930   5.565   5.040   0.540
 7209SOL    HW121931   5.499   4.976   0.569
 7209SOL    HW221932   5.646   4.990   0.534
 7210SOL     OW21933   7.026   0.553   0.650
 7210SOL    HW121934   7.114   0.588   0.663
 7210SOL    HW221935   6.987   0.552   0.738
 7211SOL     OW21936   2.275   6.948   2.467
 7211SOL    HW121937   2.347   6.954   2.404
 7211SOL    HW221938   2.196   6.949   2.413
 7212SOL     OW21939   7.155   5.036   4.261
 7212SOL    HW121940   7.140   4.982   4.339
 7212SOL    HW221941   7.249   5.054   4.262
 7213SOL     OW21942   6.553   4.328   0.169
 7213SOL    HW121943   6.548   4.422   0.186
 7213SOL    HW221944   6.632   4.317   0.116
 7214SOL     OW21945   6.367   4.039   1.336
 7214SOL    HW121946   6.332   4.016   1.250
 7214SOL    HW221947   6.348   3.963   1.391
 7215SOL     OW21948   3.173   1.972   5.031
 7215SOL    HW121949   3.110   2.006   4.967
 7215SOL    HW221950   3.163   1.877   5.026
 7216SOL     OW21951   6.406   2.527   5.475
 7216SOL    HW121952   6.377   2.484   5.555
 7216SOL    HW221953   6.428   2.455   5.416
 7217SOL     OW21954   4.116   2.234   5.801
 7217SOL    HW121955   4.148   2.144   5.807
 7217SOL    HW221956   8.139   6.343   0.008
 7218SOL     OW21957   2.218   3.652   0.355
 7218SOL    HW121958   2.125   3.673   0.348
 7218SOL    HW221959   2.259   3.733   0.385
 7219SOL     OW21960   5.504   2.107   2.695
 7219SOL    HW121961   5.546   2.086   2.612
 7219SOL    HW221962   5.444   2.034   2.711
 7220SOL     OW21963   1.591   8.176   1.677
 7220SOL    HW121964   1.607   8.201   1.586
 7220SOL    HW221965   1.586   0.030   1.724
 7221SOL     OW21966   7.883   1.349   0.507
 7221SOL    HW121967   7.876   1.439   0.475
 7221SOL    HW221968   7.868   1.356   0.601
 7222SOL     OW21969   3.720   5.485   0.623
 7222SOL    HW121970   3.740   5.449   0.536
 7222SOL    HW221971   3.635   5.448   0.645
 7223SOL     OW21972   0.951   0.187   2.245
 7223SOL    HW121973   1.042   0.190   2.275
 7223SOL    HW221974   0.929   0.278   2.225
 7224SOL     OW21975   2.139   3.730   1.772
 7224SOL    HW121976   2.160   3.667   1.703
 7224SOL    HW221977   2.049   3.757   1.753
 7225SOL     OW21978   7.302   7.869   4.597
 7225SOL    HW121979   7.288   7.807   4.526
 7225SOL    HW221980   7.395   7.863   4.617
 7226SOL     OW21981   2.971   2.176   5.802
 7226SOL    HW121982   2.994   2.235   5.730
 7226SOL    HW221983   7.001   6.322   0.013
 7227SOL     OW21984   0.690   6.833   1.864
 7227SOL    HW121985   0.636   6.815   1.787
 7227SOL    HW221986   0.646   6.906   1.907
 7228SOL     OW21987   5.088   3.937   1.390
 7228SOL    HW121988   5.003   3.900   1.415
 7228SOL    HW221989   5.109   3.998   1.461
 7229SOL     OW21990   0.294   3.176   1.858
 7229SOL    HW121991   0.318   3.155   1.948
 7229SOL    HW221992   0.198   3.178   1.859
 7230SOL     OW21993   2.571   5.194   1.305
 7230SOL    HW121994   2.611   5.108   1.321
 7230SOL    HW221995   2.614   5.225   1.225
 7231SOL     OW21996   3.656   7.191   2.231
 7231SOL    HW121997   3.668   7.268   2.287
 7231SOL    HW221998   3.631   7.227   2.146
 7232SOL     OW21999   2.198   3.754   4.661
 7232SOL    HW122000   2.229   3.786   4.746
 7232SOL    HW222001   2.242   3.810   4.596
 7233SOL     OW22002   0.520   5.663   1.056
 7233SOL    HW122003   0.540   5.599   1.124
 7233SOL    HW222004   0.570   5.634   0.980
 7234SOL     OW22005   5.528   7.899   4.855
 7234SOL    HW122006   5.512   7.990   4.880
 7234SOL    HW222007   5.558   7.904   4.764
 7235SOL     OW22008   1.645   0.201   1.979
 7235SOL    HW122009   1.561   0.155   1.972
 7235SOL    HW222010   1.682   0.196   1.891
 7236SOL     OW22011   3.112   7.623   5.806
 7236SOL    HW122012   3.189   7.645   5.754
 7236SOL    HW222013   7.262   3.482   0.072
 7237SOL     OW22014   6.442   0.886   0.371
 7237SOL    HW122015   6.449   0.912   0.279
 7237SOL    HW222016   6.532   0.864   0.396
 7238SOL     OW22017   5.093   5.857   4.447
 7238SOL    HW122018   5.067   5.832   4.358
 7238SOL    HW222019   5.092   5.775   4.496
 7239SOL     OW22020   6.177   6.396   4.250
 7239SOL    HW122021   6.145   6.333   4.314
 7239SOL    HW222022   6.136   6.369   4.168
 7240SOL     OW22023   5.160   8.010   5.176
 7240SOL    HW122024   5.235   7.961   5.142
 7240SOL    HW222025   5.152   7.983   5.267
 7241SOL     OW22026   1.727   4.377   1.461
 7241SOL    HW122027   1.780   4.451   1.433
 7241SOL    HW222028   1.723   4.384   1.556
 7242SOL     OW22029   5.340   1.453   3.046
 7242SOL    HW122030   5.283   1.506   3.102
 7242SOL    HW222031   5.303   1.365   3.050
 7243SOL     OW22032   5.338   6.355   0.039
 7243SOL    HW122033   1.207   2.231   5.764
 7243SOL    HW222034   5.428   6.388   0.045
 7244SOL     OW22035   0.085   5.743   3.170
 7244SOL    HW122036   0.156   5.722   3.109
 7244SOL    HW222037   0.044   5.659   3.190
 7245SOL     OW22038   2.635   0.175   3.977
 7245SOL    HW122039   2.635   0.264   3.942
 7245SOL    HW222040   2.646   0.119   3.900
 7246SOL     OW22041   5.356   7.829   0.512
 7246SOL    HW122042   5.287   7.890   0.487
 7246SOL    HW222043   5.363   7.770   0.437
 7247SOL     OW22044   0.293   3.309   0.896
 7247SOL    HW122045   0.386   3.317   0.915
 7247SOL    HW222046   0.249   3.348   0.971
 7248SOL     OW22047   2.137   4.076   4.565
 7248SOL    HW122048   2.184   4.152   4.599
 7248SOL    HW222049   2.112   4.101   4.476
 7249SOL     OW22050   0.570   3.284   0.991
 7249SOL    HW122051   0.625   3.355   0.959
 7249SOL    HW222052   0.631   3.222   1.030
 7250SOL     OW22053   3.146   0.244   0.991
 7250SOL    HW122054   3.113   0.300   0.921
 7250SOL    HW222055   3.206   0.183   0.947
 7251SOL     OW22056   7.381   6.002   0.899
 7251SOL    HW122057   7.286   5.998   0.888
 7251SOL    HW222058   7.415   6.011   0.810
 7252SOL     OW22059   2.979   3.353   0.124
 7252SOL    HW122060   2.927   3.385   0.051
 7252SOL    HW222061   2.937   3.271   0.150
 7253SOL     OW22062   1.479   5.743   2.187
 7253SOL    HW122063   1.420   5.676   2.222
 7253SOL    HW222064   1.507   5.792   2.264
 7254SOL     OW22065   1.553   5.641   0.764
 7254SOL    HW122066   1.647   5.656   0.776
 7254SOL    HW222067   1.534   5.678   0.678
 7255SOL     OW22068   4.138   4.549   0.682
 7255SOL    HW122069   4.075   4.616   0.655
 7255SOL    HW222070   4.106   4.468   0.643
 7256SOL     OW22071   1.150   2.630   2.217
 7256SOL    HW122072   1.204   2.600   2.144
 7256SOL    HW222073   1.185   2.585   2.294
 7257SOL     OW22074   4.470   4.629   1.108
 7257SOL    HW122075   4.561   4.611   1.085
 7257SOL    HW222076   4.430   4.658   1.026
 7258SOL     OW22077   7.060   5.441   4.598
 7258SOL    HW122078   7.076   5.431   4.504
 7258SOL    HW222079   7.050   5.352   4.631
 7259SOL     OW22080   7.821   1.027   5.262
 7259SOL    HW122081   7.843   0.946   5.309
 7259SOL    HW222082   7.786   0.997   5.178
 7260SOL     OW22083   0.950   6.776   1.836
 7260SOL    HW122084   0.993   6.861   1.848
 7260SOL    HW222085   0.857   6.795   1.848
 7261SOL     OW22086   4.255   0.894   0.459
 7261SOL    HW122087   4.290   0.899   0.370
 7261SOL    HW222088   4.163   0.918   0.449
 7262SOL     OW22089   3.108   6.302   5.209
 7262SOL    HW122090   3.131   6.254   5.289
 7262SOL    HW222091   3.023   6.341   5.228
 7263SOL     OW22092   1.419   3.574   0.194
 7263SOL    HW122093   1.333   3.616   0.203
 7263SOL    HW222094   1.480   3.635   0.235
 7264SOL     OW22095   2.146   7.187   4.482
 7264SOL    HW122096   2.125   7.099   4.452
 7264SOL    HW222097   2.200   7.224   4.412
 7265SOL     OW22098   3.454   5.643   3.271
 7265SOL    HW122099   3.518   5.613   3.206
 7265SOL    HW222100   3.506   5.691   3.336
 7266SOL     OW22101   3.370   3.902   4.988
 7266SOL    HW122102   3.281   3.883   5.017
 7266SOL    HW222103   3.378   3.997   4.998
 7267SOL     OW22104   1.253   4.952   3.798
 7267SOL    HW122105   1.202   4.937   3.719
 7267SOL    HW222106   1.283   4.865   3.825
 7268SOL     OW22107   2.900   3.739   2.752
 7268SOL    HW122108   2.983   3.693   2.737
 7268SOL    HW222109   2.833   3.679   2.718
 7269SOL     OW22110   5.123   3.611   4.740
 7269SOL    HW122111   5.098   3.662   4.817
 7269SOL    HW222112   5.068   3.646   4.669
 7270SOL     OW22113   1.061   1.035   2.945
 7270SOL    HW122114   1.074   1.123   2.980
 7270SOL    HW222115   0.975   1.008   2.977
 7271SOL     OW22116   3.568   0.240   0.700
 7271SOL    HW122117   3.631   0.172   0.722
 7271SOL    HW222118   3.620   0.309   0.660
 7272SOL     OW22119   5.869   2.534   1.599
 7272SOL    HW122120   5.891   2.564   1.687
 7272SOL    HW222121   5.908   2.600   1.541
 7273SOL     OW22122   5.768   1.487   1.700
 7273SOL    HW122123   5.675   1.465   1.707
 7273SOL    HW222124   5.780   1.562   1.759
 7274SOL     OW22125   3.603   4.649   1.696
 7274SOL    HW122126   3.666   4.595   1.745
 7274SOL    HW222127   3.606   4.614   1.607
 7275SOL     OW22128   6.483   7.810   3.388
 7275SOL    HW122129   6.454   7.901   3.397
 7275SOL    HW222130   6.571   7.816   3.351
 7276SOL     OW22131   7.824   7.961   1.902
 7276SOL    HW122132   7.879   7.908   1.960
 7276SOL    HW222133   7.815   8.045   1.947
 7277SOL     OW22134   0.370   0.099   2.297
 7277SOL    HW122135   0.464   0.099   2.278
 7277SOL    HW222136   0.358   0.027   2.360
 7278SOL     OW22137   6.346   7.627   5.615
 7278SOL    HW122138   6.305   7.648   5.531
 7278SOL    HW222139   6.297   7.679   5.679
 7279SOL     OW22140   5.228   6.908   5.003
 7279SOL    HW122141   5.186   6.876   5.083
 7279SOL    HW222142   5.319   6.926   5.028
 7280SOL     OW22143   3.310   0.215   2.221
 7280SOL    HW122144   3.281   0.136   2.176
 7280SOL    HW222145   3.281   0.203   2.312
 7281SOL     OW22146   3.958   2.181   4.505
 7281SOL    HW122147   3.904   2.257   4.484
 7281SOL    HW222148   3.937   2.162   4.597
 7282SOL     OW22149   6.966   4.977   0.645
 7282SOL    HW122150   6.982   5.050   0.585
 7282SOL    HW222151   7.031   4.911   0.620
 7283SOL     OW22152   8.219   3.772   4.804
 7283SOL    HW122153   8.150   3.705   4.799
 7283SOL    HW222154   0.046   3.743   4.876
 7284SOL     OW22155   1.616   3.102   2.828
 7284SOL    HW122156   1.556   3.176   2.837
 7284SOL    HW222157   1.700   3.142   2.805
 7285SOL     OW22158   5.085   6.333   2.336
 7285SOL    HW122159   5.127   6.261   2.384
 7285SOL    HW222160   5.024   6.289   2.276
 7286SOL     OW22161   6.460   3.868   2.893
 7286SOL    HW122162   6.374   3.882   2.854
 7286SOL    HW222163   6.520   3.870   2.819
 7287SOL     OW22164   3.405   4.653   3.641
 7287SOL    HW122165   3.429   4.746   3.638
 7287SOL    HW222166   3.449   4.615   3.565
 7288SOL     OW22167   0.481   3.642   1.514
 7288SOL    HW122168   0.423   3.660   1.588
 7288SOL    HW222169   0.569   3.641   1.552
 7289SOL     OW22170   7.968   2.877   5.640
 7289SOL    HW122171   7.973   2.936   5.565
 7289SOL    HW222172   7.876   2.880   5.667
 7290SOL     OW22173   7.105   7.342   1.298
 7290SOL    HW122174   7.131   7.296   1.378
 7290SOL    HW222175   7.122   7.434   1.317
 7291SOL     OW22176   1.746   0.092   4.259
 7291SOL    HW122177   1.783   0.177   4.234
 7291SOL    HW222178   1.822   0.036   4.274
 7292SOL     OW22179   5.482   7.512   4.052
 7292SOL    HW122180   5.551   7.522   3.987
 7292SOL    HW222181   5.401   7.525   4.003
 7293SOL     OW22182   0.460   1.565   5.042
 7293SOL    HW122183   0.472   1.472   5.062
 7293SOL    HW222184   0.471   1.609   5.126
 7294SOL     OW22185   3.882   2.020   1.581
 7294SOL    HW122186   3.844   2.042   1.666
 7294SOL    HW222187   3.814   2.041   1.517
 7295SOL     OW22188   6.567   1.735   3.524
 7295SOL    HW122189   6.619   1.679   3.582
 7295SOL    HW222190   6.553   1.682   3.445
 7296SOL     OW22191   3.374   6.723   4.070
 7296SOL    HW122192   3.424   6.791   4.116
 7296SOL    HW222193   3.435   6.649   4.062
 7297SOL     OW22194   4.687   7.242   5.487
 7297SOL    HW122195   4.617   7.304   5.466
 7297SOL    HW222196   4.704   7.255   5.580
 7298SOL     OW22197   1.940   4.642   2.318
 7298SOL    HW122198   1.871   4.702   2.347
 7298SOL    HW222199   2.020   4.694   2.323
 7299SOL     OW22200   7.691   1.921   5.574
 7299SOL    HW122201   7.635   1.844   5.583
 7299SOL    HW222202   7.654   1.969   5.500
 7300SOL     OW22203   2.267   5.261   0.195
 7300SOL    HW122204   2.300   5.305   0.274
 7300SOL    HW222205   2.262   5.331   0.129
 7301SOL     OW22206   4.121   4.498   5.435
 7301SOL    HW122207   4.180   4.562   5.395
 7301SOL    HW222208   4.051   4.551   5.474
 7302SOL     OW22209   0.437   6.048   3.060
 7302SOL    HW122210   0.440   6.003   3.144
 7302SOL    HW222211   0.346   6.077   3.052
 7303SOL     OW22212   1.504   3.484   2.056
 7303SOL    HW122213   1.510   3.390   2.075
 7303SOL    HW222214   1.410   3.501   2.046
 7304SOL     OW22215   6.982   1.722   2.879
 7304SOL    HW122216   6.941   1.753   2.960
 7304SOL    HW222217   6.941   1.637   2.863
 7305SOL     OW22218   2.111   2.911   3.424
 7305SOL    HW122219   2.089   2.991   3.376
 7305SOL    HW222220   2.179   2.869   3.371
 7306SOL     OW22221   6.093   2.305   5.305
 7306SOL    HW122222   6.028   2.295   5.236
 7306SOL    HW222223   6.173   2.331   5.259
 7307SOL     OW22224   2.016   6.558   3.751
 7307SOL    HW122225   2.076   6.543   3.678
 7307SOL    HW222226   2.069   6.542   3.829
 7308SOL     OW22227   5.532   1.433   0.640
 7308SOL    HW122228   5.516   1.527   0.651
 7308SOL    HW222229   5.488   1.410   0.558
 7309SOL     OW22230   0.661   6.344   5.426
 7309SOL    HW122231   0.658   6.429   5.382
 7309SOL    HW222232   0.722   6.292   5.374
 7310SOL     OW22233   2.614   7.709   3.126
 7310SOL    HW122234   2.699   7.665   3.124
 7310SOL    HW222235   2.551   7.640   3.108
 7311SOL     OW22236   5.955   2.112   1.345
 7311SOL    HW122237   5.870   2.120   1.388
 7311SOL    HW222238   5.981   2.202   1.326
 7312SOL     OW22239   5.095   7.913   0.085
 7312SOL    HW122240   5.150   7.835   0.081
 7312SOL    HW222241   0.947   3.809   5.815
 7313SOL     OW22242   7.448   1.026   4.259
 7313SOL    HW122243   7.477   0.980   4.338
 7313SOL    HW222244   7.445   0.958   4.191
 7314SOL     OW22245   2.868   1.258   3.791
 7314SOL    HW122246   2.827   1.258   3.704
 7314SOL    HW222247   2.857   1.168   3.822
 7315SOL     OW22248   5.712   0.559   4.833
 7315SOL    HW122249   5.710   0.487   4.896
 7315SOL    HW222250   5.800   0.595   4.840
 7316SOL     OW22251   0.002   3.041   2.096
 7316SOL    HW122252   0.001   3.085   2.011
 7316SOL    HW222253   0.038   3.106   2.157
 7317SOL     OW22254   0.975   2.058   2.296
 7317SOL    HW122255   0.960   1.968   2.268
 7317SOL    HW222256   1.008   2.103   2.218
 7318SOL     OW22257   7.913   3.224   1.589
 7318SOL    HW122258   7.971   3.189   1.657
 7318SOL    HW222259   7.826   3.220   1.628
 7319SOL     OW22260   1.602   7.334   4.915
 7319SOL    HW122261   1.594   7.376   5.000
 7319SOL    HW222262   1.643   7.400   4.859
 7320SOL     OW22263   6.497   2.607   4.612
 7320SOL    HW122264   6.428   2.673   4.620
 7320SOL    HW222265   6.574   2.647   4.653
 7321SOL     OW22266   7.817   6.405   3.705
 7321SOL    HW122267   7.788   6.468   3.771
 7321SOL    HW222268   7.783   6.321   3.736
 7322SOL     OW22269   0.525   1.958   5.308
 7322SOL    HW122270   0.517   1.866   5.284
 7322SOL    HW222271   0.448   1.975   5.362
 7323SOL     OW22272   5.069   0.571   2.918
 7323SOL    HW122273   4.999   0.544   2.859
 7323SOL    HW222274   5.135   0.611   2.861
 7324SOL     OW22275   2.298   3.799   2.463
 7324SOL    HW122276   2.215   3.805   2.510
 7324SOL    HW222277   2.277   3.826   2.374
 7325SOL     OW22278   2.949   0.088   4.224
 7325SOL    HW122279   3.013   0.031   4.265
 7325SOL    HW222280   2.976   0.092   4.132
 7326SOL     OW22281   7.153   6.060   1.062
 7326SOL    HW122282   7.232   6.115   1.065
 7326SOL    HW222283   7.134   6.041   1.154
 7327SOL     OW22284   1.990   2.059   1.920
 7327SOL    HW122285   1.975   2.152   1.938
 7327SOL    HW222286   2.044   2.058   1.841
 7328SOL     OW22287   7.173   1.138   0.644
 7328SOL    HW122288   7.176   1.081   0.567
 7328SOL    HW222289   7.250   1.112   0.695
 7329SOL     OW22290   2.709   0.036   1.413
 7329SOL    HW122291   2.666   0.073   1.490
 7329SOL    HW222292   2.641   8.214   1.370
 7330SOL     OW22293   4.557   6.457   0.331
 7330SOL    HW122294   4.608   6.440   0.410
 7330SOL    HW222295   4.527   6.371   0.303
 7331SOL     OW22296   3.750   4.907   3.133
 7331SOL    HW122297   3.678   4.886   3.192
 7331SOL    HW222298   3.718   4.981   3.082
 7332SOL     OW22299   7.237   2.934   0.041
 7332SOL    HW122300   7.257   3.021   0.008
 7332SOL    HW222301   3.125   6.992   5.783
 7333SOL     OW22302   4.559   1.600   2.777
 7333SOL    HW122303   4.516   1.592   2.692
 7333SOL    HW222304   4.646   1.635   2.756
 7334SOL     OW22305   4.419   5.548   2.019
 7334SOL    HW122306   4.493   5.593   2.059
 7334SOL    HW222307   4.458   5.497   1.948
 7335SOL     OW22308   0.812   4.459   3.656
 7335SOL    HW122309   0.846   4.543   3.624
 7335SOL    HW222310   0.805   4.470   3.751
 7336SOL     OW22311   6.584   4.356   3.959
 7336SOL    HW122312   6.574   4.291   3.889
 7336SOL    HW222313   6.560   4.439   3.918
 7337SOL     OW22314   3.894   2.314   4.212
 7337SOL    HW122315   3.898   2.225   4.177
 7337SOL    HW222316   3.898   2.371   4.135
 7338SOL     OW22317   0.768   8.079   4.652
 7338SOL    HW122318   0.751   8.000   4.601
 7338SOL    HW222319   0.863   8.085   4.656
 7339SOL     OW22320   4.809   4.338   1.529
 7339SOL    HW122321   4.892   4.291   1.533
 7339SOL    HW222322   4.767   4.307   1.449
 7340SOL     OW22323   7.192   3.682   0.284
 7340SOL    HW122324   7.272   3.637   0.310
 7340SOL    HW222325   7.206   3.773   0.310
 7341SOL     OW22326   6.145   3.388   3.868
 7341SOL    HW122327   6.079   3.340   3.917
 7341SOL    HW222328   6.178   3.325   3.804
 7342SOL     OW22329   3.235   2.338   4.267
 7342SOL    HW122330   3.192   2.381   4.193
 7342SOL    HW222331   3.328   2.338   4.245
 7343SOL     OW22332   1.577   7.751   4.909
 7343SOL    HW122333   1.615   7.816   4.849
 7343SOL    HW222334   1.577   7.669   4.859
 7344SOL     OW22335   1.093   7.891   2.380
 7344SOL    HW122336   1.016   7.931   2.341
 7344SOL    HW222337   1.060   7.810   2.420
 7345SOL     OW22338   1.495   2.585   4.535
 7345SOL    HW122339   1.438   2.619   4.466
 7345SOL    HW222340   1.505   2.492   4.514
 7346SOL     OW22341   1.358   3.856   3.633
 7346SOL    HW122342   1.340   3.950   3.639
 7346SOL    HW222343   1.423   3.849   3.563
 7347SOL     OW22344   6.963   7.095   2.360
 7347SOL    HW122345   6.902   7.154   2.316
 7347SOL    HW222346   6.980   7.136   2.445
 7348SOL     OW22347   3.571   2.231   2.819
 7348SOL    HW122348   3.479   2.220   2.844
 7348SOL    HW222349   3.597   2.145   2.785
 7349SOL     OW22350   6.748   3.407   1.092
 7349SOL    HW122351   6.710   3.467   1.028
 7349SOL    HW222352   6.836   3.442   1.108
 7350SOL     OW22353   0.295   3.450   2.291
 7350SOL    HW122354   0.237   3.401   2.232
 7350SOL    HW222355   0.288   3.404   2.375
 7351SOL     OW22356   0.339   2.762   0.312
 7351SOL    HW122357   0.429   2.752   0.282
 7351SOL    HW222358   0.298   2.818   0.246
 7352SOL     OW22359   7.773   5.893   1.476
 7352SOL    HW122360   7.857   5.919   1.439
 7352SOL    HW222361   7.727   5.850   1.404
 7353SOL     OW22362   4.280   3.808   4.405
 7353SOL    HW122363   4.365   3.848   4.424
 7353SOL    HW222364   4.290   3.770   4.318
 7354SOL     OW22365   6.613   1.405   3.908
 7354SOL    HW122366   6.544   1.341   3.925
 7354SOL    HW222367   6.594   1.477   3.968
 7355SOL     OW22368   4.228   2.543   1.414
 7355SOL    HW122369   4.323   2.554   1.423
 7355SOL    HW222370   4.198   2.519   1.502
 7356SOL     OW22371   7.540   5.675   0.426
 7356SOL    HW122372   7.613   5.629   0.384
 7356SOL    HW222373   7.483   5.605   0.457
 7357SOL     OW22374   7.510   5.306   1.871
 7357SOL    HW122375   7.531   5.238   1.807
 7357SOL    HW222376   7.592   5.321   1.918
 7358SOL     OW22377   0.086   7.505   5.035
 7358SOL    HW122378   0.048   7.591   5.017
 7358SOL    HW222379   0.159   7.523   5.094
 7359SOL     OW22380   0.491   4.040   1.241
 7359SOL    HW122381   0.536   3.973   1.190
 7359SOL    HW222382   0.497   4.009   1.331
 7360SOL     OW22383   2.719   5.789   0.582
 7360SOL    HW122384   2.634   5.818   0.550
 7360SOL    HW222385   2.774   5.785   0.504
 7361SOL     OW22386   7.351   1.066   3.505
 7361SOL    HW122387   7.273   1.013   3.525
 7361SOL    HW222388   7.345   1.141   3.564
 7362SOL     OW22389   3.204   4.112   3.568
 7362SOL    HW122390   3.140   4.128   3.498
 7362SOL    HW222391   3.232   4.199   3.596
 7363SOL     OW22392   6.625   2.943   4.850
 7363SOL    HW122393   6.591   2.969   4.764
 7363SOL    HW222394   6.574   2.994   4.913
 7364SOL     OW22395   2.782   5.874   2.394
 7364SOL    HW122396   2.801   5.801   2.335
 7364SOL    HW222397   2.747   5.942   2.337
 7365SOL     OW22398   2.164   3.766   3.451
 7365SOL    HW122399   2.103   3.707   3.496
 7365SOL    HW222400   2.132   3.854   3.472
 7366SOL     OW22401   3.153   2.516   2.807
 7366SOL    HW122402   3.154   2.470   2.723
 7366SOL    HW222403   3.213   2.590   2.795
 7367SOL     OW22404   4.733   5.897   3.721
 7367SOL    HW122405   4.791   5.885   3.797
 7367SOL    HW222406   4.700   5.986   3.730
 7368SOL     OW22407   0.676   4.248   3.619
 7368SOL    HW122408   0.705   4.337   3.640
 7368SOL    HW222409   0.703   4.236   3.528
 7369SOL     OW22410   1.697   6.722   1.649
 7369SOL    HW122411   1.623   6.716   1.709
 7369SOL    HW222412   1.762   6.774   1.697
 7370SOL     OW22413   4.782   6.908   1.208
 7370SOL    HW122414   4.806   7.000   1.213
 7370SOL    HW222415   4.776   6.889   1.114
 7371SOL     OW22416   8.005   0.239   5.001
 7371SOL    HW122417   8.080   0.284   5.040
 7371SOL    HW222418   8.044   0.182   4.934
 7372SOL     OW22419   2.562   4.282   3.955
 7372SOL    HW122420   2.595   4.217   4.017
 7372SOL    HW222421   2.470   4.293   3.978
 7373SOL     OW22422   0.562   4.132   1.913
 7373SOL    HW122423   0.633   4.085   1.870
 7373SOL    HW222424   0.593   4.223   1.917
 7374SOL     OW22425   0.936   0.654   4.232
 7374SOL    HW122426   0.854   0.695   4.258
 7374SOL    HW222427   0.928   0.564   4.262
 7375SOL     OW22428   2.403   6.160   1.616
 7375SOL    HW122429   2.385   6.072   1.648
 7375SOL    HW222430   2.473   6.148   1.552
 7376SOL     OW22431   4.243   3.752   4.926
 7376SOL    HW122432   4.187   3.714   4.858
 7376SOL    HW222433   4.328   3.762   4.884
 7377SOL     OW22434   1.963   7.842   0.527
 7377SOL    HW122435   1.871   7.842   0.552
 7377SOL    HW222436   1.980   7.752   0.499
 7378SOL     OW22437   5.929   2.092   4.590
 7378SOL    HW122438   6.002   2.043   4.629
 7378SOL    HW222439   5.961   2.182   4.586
 7379SOL     OW22440   3.477   3.565   5.546
 7379SOL    HW122441   3.462   3.659   5.552
 7379SOL    HW222442   3.404   3.526   5.595
 7380SOL     OW22443   7.276   3.520   4.065
 7380SOL    HW122444   7.367   3.548   4.070
 7380SOL    HW222445   7.268   3.481   3.978
 7381SOL     OW22446   0.952   0.492   4.968
 7381SOL    HW122447   0.890   0.533   4.908
 7381SOL    HW222448   1.029   0.472   4.914
 7382SOL     OW22449   6.228   3.506   0.205
 7382SOL    HW122450   6.272   3.568   0.263
 7382SOL    HW222451   6.254   3.534   0.117
 7383SOL     OW22452   1.889   8.130   3.225
 7383SOL    HW122453   1.921   8.071   3.157
 7383SOL    HW222454   1.835   8.074   3.281
 7384SOL     OW22455   5.428   6.849   5.339
 7384SOL    HW122456   5.492   6.868   5.270
 7384SOL    HW222457   5.396   6.935   5.366
 7385SOL     OW22458   3.200   1.887   1.031
 7385SOL    HW122459   3.194   1.981   1.015
 7385SOL    HW222460   3.270   1.878   1.095
 7386SOL     OW22461   3.259   2.495   1.633
 7386SOL    HW122462   3.315   2.572   1.623
 7386SOL    HW222463   3.229   2.476   1.544
 7387SOL     OW22464   2.058   5.438   5.538
 7387SOL    HW122465   1.975   5.478   5.564
 7387SOL    HW222466   2.033   5.358   5.493
 7388SOL     OW22467   6.254   5.479   3.558
 7388SOL    HW122468   6.341   5.446   3.579
 7388SOL    HW222469   6.251   5.479   3.462
 7389SOL     OW22470   2.808   7.804   5.551
 7389SOL    HW122471   2.756   7.884   5.562
 7389SOL    HW222472   2.849   7.790   5.636
 7390SOL     OW22473   6.374   0.146   3.168
 7390SOL    HW122474   6.372   0.132   3.073
 7390SOL    HW222475   6.351   0.238   3.179
 7391SOL     OW22476   4.034   7.925   2.648
 7391SOL    HW122477   4.036   7.926   2.744
 7391SOL    HW222478   4.051   8.016   2.623
 7392SOL     OW22479   5.039   0.151   1.808
 7392SOL    HW122480   4.945   0.162   1.794
 7392SOL    HW222481   5.075   0.238   1.793
 7393SOL     OW22482   6.994   0.736   4.265
 7393SOL    HW122483   7.012   0.725   4.358
 7393SOL    HW222484   6.901   0.715   4.255
 7394SOL     OW22485   5.415   6.381   4.532
 7394SOL    HW122486   5.357   6.316   4.491
 7394SOL    HW222487   5.381   6.391   4.621
 7395SOL     OW22488   3.861   3.108   4.825
 7395SOL    HW122489   3.770   3.133   4.841
 7395SOL    HW222490   3.893   3.078   4.910
 7396SOL     OW22491   0.152   5.403   0.661
 7396SOL    HW122492   0.195   5.364   0.585
 7396SOL    HW222493   0.062   5.419   0.632
 7397SOL     OW22494   6.368   7.202   1.313
 7397SOL    HW122495   6.273   7.204   1.302
 7397SOL    HW222496   6.381   7.184   1.406
 7398SOL     OW22497   2.286   0.477   1.703
 7398SOL    HW122498   2.347   0.519   1.642
 7398SOL    HW222499   2.245   0.407   1.652
 7399SOL     OW22500   0.893   2.669   0.310
 7399SOL    HW122501   0.889   2.594   0.369
 7399SOL    HW222502   0.968   2.651   0.253
 7400SOL     OW22503   5.619   6.996   2.391
 7400SOL    HW122504   5.581   6.913   2.420
 7400SOL    HW222505   5.656   7.034   2.471
 7401SOL     OW22506   1.851   2.790   2.334
 7401SOL    HW122507   1.888   2.808   2.248
 7401SOL    HW222508   1.910   2.726   2.372
 7402SOL     OW22509   7.298   0.184   1.770
 7402SOL    HW122510   7.383   0.228   1.771
 7402SOL    HW222511   7.234   0.255   1.768
 7403SOL     OW22512   0.630   4.645   0.348
 7403SOL    HW122513   0.662   4.556   0.336
 7403SOL    HW222514   0.654   4.690   0.267
 7404SOL     OW22515   7.993   7.208   2.030
 7404SOL    HW122516   7.960   7.218   1.941
 7404SOL    HW222517   7.938   7.139   2.068
 7405SOL     OW22518   3.311   5.950   5.456
 7405SOL    HW122519   3.275   5.895   5.526
 7405SOL    HW222520   3.336   5.888   5.388
 7406SOL     OW22521   5.655   5.912   1.597
 7406SOL    HW122522   5.716   5.966   1.547
 7406SOL    HW222523   5.628   5.844   1.536
 7407SOL     OW22524   7.732   2.559   2.642
 7407SOL    HW122525   7.692   2.534   2.559
 7407SOL    HW222526   7.785   2.636   2.621
 7408SOL     OW22527   0.752   1.813   2.317
 7408SOL    HW122528   0.752   1.815   2.413
 7408SOL    HW222529   0.844   1.827   2.293
 7409SOL     OW22530   3.405   1.035   4.877
 7409SOL    HW122531   3.371   0.946   4.866
 7409SOL    HW222532   3.347   1.076   4.941
 7410SOL     OW22533   4.947   4.379   3.856
 7410SOL    HW122534   4.993   4.351   3.777
 7410SOL    HW222535   4.887   4.307   3.875
 7411SOL     OW22536   0.262   4.391   4.773
 7411SOL    HW122537   0.251   4.481   4.802
 7411SOL    HW222538   0.174   4.363   4.746
 7412SOL     OW22539   1.164   3.053   4.331
 7412SOL    HW122540   1.145   2.968   4.291
 7412SOL    HW222541   1.173   3.034   4.424
 7413SOL     OW22542   1.204   0.206   5.316
 7413SOL    HW122543   1.208   0.195   5.221
 7413SOL    HW222544   1.112   0.195   5.338
 7414SOL     OW22545   2.880   3.706   3.483
 7414SOL    HW122546   2.810   3.749   3.434
 7414SOL    HW222547   2.947   3.773   3.493
 7415SOL     OW22548   1.780   5.540   2.138
 7415SOL    HW122549   1.828   5.506   2.214
 7415SOL    HW222550   1.801   5.633   2.137
 7416SOL     OW22551   2.655   2.881   1.530
 7416SOL    HW122552   2.738   2.879   1.578
 7416SOL    HW222553   2.609   2.802   1.557
 7417SOL     OW22554   7.958   1.099   2.226
 7417SOL    HW122555   7.886   1.037   2.232
 7417SOL    HW222556   8.012   1.081   2.303
 7418SOL     OW22557   4.093   1.516   3.662
 7418SOL    HW122558   4.052   1.537   3.746
 7418SOL    HW222559   4.133   1.598   3.633
 7419SOL     OW22560   4.520   4.375   1.626
 7419SOL    HW122561   4.541   4.376   1.719
 7419SOL    HW222562   4.596   4.416   1.584
 7420SOL     OW22563   2.032   2.016   2.867
 7420SOL    HW122564   2.116   1.977   2.890
 7420SOL    HW222565   1.999   2.052   2.949
 7421SOL     OW22566   0.605   3.105   4.124
 7421SOL    HW122567   0.674   3.109   4.058
 7421SOL    HW222568   0.525   3.091   4.074
 7422SOL     OW22569   6.465   3.380   4.086
 7422SOL    HW122570   6.492   3.303   4.036
 7422SOL    HW222571   6.386   3.352   4.133
 7423SOL     OW22572   4.119   8.145   5.135
 7423SOL    HW122573   4.097   8.144   5.228
 7423SOL    HW222574   4.109   0.008   5.110
 7424SOL     OW22575   5.531   1.073   3.270
 7424SOL    HW122576   5.455   1.126   3.294
 7424SOL    HW222577   5.545   1.093   3.177
 7425SOL     OW22578   7.980   5.788   4.788
 7425SOL    HW122579   7.922   5.861   4.764
 7425SOL    HW222580   7.929   5.736   4.849
 7426SOL     OW22581   1.379   3.565   4.772
 7426SOL    HW122582   1.289   3.540   4.792
 7426SOL    HW222583   1.426   3.553   4.854
 7427SOL     OW22584   5.345   8.219   5.711
 7427SOL    HW122585   5.270   8.187   5.660
 7427SOL    HW222586   5.418   8.163   5.685
 7428SOL     OW22587   7.666   6.262   1.402
 7428SOL    HW122588   7.736   6.253   1.338
 7428SOL    HW222589   7.608   6.188   1.385
 7429SOL     OW22590   7.130   7.427   3.224
 7429SOL    HW122591   7.165   7.417   3.312
 7429SOL    HW222592   7.150   7.344   3.180
 7430SOL     OW22593   2.351   7.278   2.934
 7430SOL    HW122594   2.437   7.290   2.893
 7430SOL    HW222595   2.297   7.238   2.866
 7431SOL     OW22596   8.105   2.685   1.046
 7431SOL    HW122597   8.138   2.668   0.958
 7431SOL    HW222598   8.164   2.751   1.082
 7432SOL     OW22599   1.642   7.402   2.441
 7432SOL    HW122600   1.666   7.451   2.363
 7432SOL    HW222601   1.687   7.447   2.513
 7433SOL     OW22602   4.083   2.035   4.282
 7433SOL    HW122603   4.038   2.110   4.321
 7433SOL    HW222604   4.130   1.995   4.355
 7434SOL     OW22605   1.247   1.351   2.344
 7434SOL    HW122606   1.339   1.369   2.327
 7434SOL    HW222607   1.229   1.393   2.428
 7435SOL     OW22608   0.039   5.289   2.093
 7435SOL    HW122609   0.002   5.221   2.149
 7435SOL    HW222610   0.036   5.368   2.147
 7436SOL     OW22611   2.960   1.146   5.049
 7436SOL    HW122612   2.867   1.169   5.054
 7436SOL    HW222613   3.006   1.225   5.078
 7437SOL     OW22614   3.460   5.263   1.721
 7437SOL    HW122615   3.534   5.212   1.755
 7437SOL    HW222616   3.402   5.198   1.681
 7438SOL     OW22617   6.986   4.381   5.001
 7438SOL    HW122618   7.058   4.439   5.026
 7438SOL    HW222619   7.026   4.318   4.942
 7439SOL     OW22620   3.730   5.926   5.714
 7439SOL    HW122621   3.816   5.924   5.755
 7439SOL    HW222622   3.747   5.913   5.621
 7440SOL     OW22623   4.795   7.096   4.764
 7440SOL    HW122624   4.814   7.175   4.815
 7440SOL    HW222625   4.868   7.037   4.784
 7441SOL     OW22626   2.626   2.726   0.547
 7441SOL    HW122627   2.634   2.776   0.628
 7441SOL    HW222628   2.714   2.729   0.509
 7442SOL     OW22629   7.708   1.554   4.304
 7442SOL    HW122630   7.770   1.511   4.363
 7442SOL    HW222631   7.663   1.482   4.260
 7443SOL     OW22632   2.725   1.870   5.721
 7443SOL    HW122633   2.755   1.807   5.655
 7443SOL    HW222634   2.805   1.909   5.755
 7444SOL     OW22635   5.120   7.834   5.398
 7444SOL    HW122636   5.195   7.789   5.436
 7444SOL    HW222637   5.058   7.764   5.378
 7445SOL     OW22638   2.027   6.631   2.373
 7445SOL    HW122639   1.981   6.558   2.413
 7445SOL    HW222640   2.120   6.609   2.382
 7446SOL     OW22641   4.504   4.974   2.200
 7446SOL    HW122642   4.507   5.058   2.246
 7446SOL    HW222643   4.422   4.977   2.151
 7447SOL     OW22644   1.314   7.156   2.381
 7447SOL    HW122645   1.262   7.235   2.365
 7447SOL    HW222646   1.391   7.188   2.429
 7448SOL     OW22647   7.536   6.366   4.696
 7448SOL    HW122648   7.477   6.407   4.760
 7448SOL    HW222649   7.534   6.425   4.621
 7449SOL     OW22650   2.207   6.482   3.945
 7449SOL    HW122651   2.234   6.409   4.000
 7449SOL    HW222652   2.287   6.508   3.899
 7450SOL     OW22653   6.213   3.942   2.762
 7450SOL    HW122654   6.148   3.872   2.772
 7450SOL    HW222655   6.164   4.022   2.779
 7451SOL     OW22656   8.196   1.709   2.054
 7451SOL    HW122657   8.140   1.782   2.081
 7451SOL    HW222658   0.023   1.746   1.986
 7452SOL     OW22659   3.379   7.013   1.884
 7452SOL    HW122660   3.450   6.950   1.892
 7452SOL    HW222661   3.333   6.988   1.804
 7453SOL     OW22662   6.381   0.913   5.416
 7453SOL    HW122663   6.321   0.893   5.344
 7453SOL    HW222664   6.336   0.881   5.494
 7454SOL     OW22665   7.817   7.480   5.621
 7454SOL    HW122666   7.820   7.537   5.544
 7454SOL    HW222667   7.737   7.428   5.610
 7455SOL     OW22668   6.130   5.793   1.456
 7455SOL    HW122669   6.147   5.875   1.410
 7455SOL    HW222670   6.038   5.798   1.482
 7456SOL     OW22671   0.507   5.959   1.010
 7456SOL    HW122672   0.506   6.005   1.094
 7456SOL    HW222673   0.520   5.867   1.033
 7457SOL     OW22674   4.248   8.103   3.637
 7457SOL    HW122675   4.268   8.176   3.578
 7457SOL    HW222676   4.242   8.143   3.724
 7458SOL     OW22677   4.908   6.379   4.999
 7458SOL    HW122678   4.875   6.318   4.934
 7458SOL    HW222679   4.854   6.363   5.077
 7459SOL     OW22680   5.315   6.440   1.481
 7459SOL    HW122681   5.249   6.379   1.513
 7459SOL    HW222682   5.268   6.496   1.419
 7460SOL     OW22683   1.103   0.033   0.057
 7460SOL    HW122684   1.029   8.201   0.050
 7460SOL    HW222685   1.079   0.106   0.000
 7461SOL     OW22686   6.508   0.207   3.406
 7461SOL    HW122687   6.510   0.302   3.413
 7461SOL    HW222688   6.442   0.189   3.340
 7462SOL     OW22689   6.975   7.742   3.895
 7462SOL    HW122690   7.035   7.669   3.880
 7462SOL    HW222691   6.890   7.710   3.865
 7463SOL     OW22692   3.247   6.382   1.519
 7463SOL    HW122693   3.179   6.397   1.454
 7463SOL    HW222694   3.285   6.297   1.496
 7464SOL     OW22695   1.892   8.171   4.678
 7464SOL    HW122696   1.978   8.208   4.696
 7464SOL    HW222697   1.905   8.117   4.600
 7465SOL     OW22698   3.988   0.708   1.097
 7465SOL    HW122699   3.966   0.721   1.189
 7465SOL    HW222700   4.061   0.768   1.081
 7466SOL     OW22701   2.771   1.053   4.569
 7466SOL    HW122702   2.846   1.075   4.624
 7466SOL    HW222703   2.747   1.135   4.527
 7467SOL     OW22704   3.654   6.809   0.549
 7467SOL    HW122705   3.600   6.734   0.573
 7467SOL    HW222706   3.744   6.777   0.553
 7468SOL     OW22707   0.670   6.147   0.667
 7468SOL    HW122708   0.684   6.119   0.577
 7468SOL    HW222709   0.575   6.152   0.676
 7469SOL     OW22710   3.785   6.337   0.600
 7469SOL    HW122711   3.849   6.375   0.660
 7469SOL    HW222712   3.717   6.300   0.657
 7470SOL     OW22713   0.320   8.186   1.653
 7470SOL    HW122714   0.409   8.222   1.662
 7470SOL    HW222715   0.273   8.221   1.729
 7471SOL     OW22716   6.514   0.109   2.543
 7471SOL    HW122717   6.533   0.130   2.451
 7471SOL    HW222718   6.599   0.086   2.580
 7472SOL     OW22719   7.415   1.584   3.505
 7472SOL    HW122720   7.320   1.579   3.509
 7472SOL    HW222721   7.433   1.652   3.440
 7473SOL     OW22722   4.438   4.811   0.203
 7473SOL    HW122723   4.371   4.879   0.194
 7473SOL    HW222724   4.392   4.730   0.182
 7474SOL     OW22725   7.715   4.449   2.472
 7474SOL    HW122726   7.782   4.485   2.529
 7474SOL    HW222727   7.643   4.426   2.531
 7475SOL     OW22728   0.912   7.691   3.439
 7475SOL    HW122729   0.942   7.600   3.439
 7475SOL    HW222730   0.992   7.743   3.441
 7476SOL     OW22731   5.306   7.215   2.922
 7476SOL    HW122732   5.325   7.255   3.007
 7476SOL    HW222733   5.384   7.164   2.901
 7477SOL     OW22734   5.665   6.917   1.634
 7477SOL    HW122735   5.670   6.934   1.728
 7477SOL    HW222736   5.721   6.983   1.595
 7478SOL     OW22737   5.161   3.120   1.906
 7478SOL    HW122738   5.140   3.044   1.961
 7478SOL    HW222739   5.079   3.169   1.901
 7479SOL     OW22740   4.486   5.659   0.885
 7479SOL    HW122741   4.489   5.634   0.977
 7479SOL    HW222742   4.430   5.593   0.844
 7480SOL     OW22743   1.753   5.415   0.109
 7480SOL    HW122744   1.724   5.349   0.046
 7480SOL    HW222745   1.842   5.438   0.081
 7481SOL     OW22746   7.156   8.130   4.171
 7481SOL    HW122747   7.188   8.105   4.084
 7481SOL    HW222748   7.234   8.160   4.218
 7482SOL     OW22749   7.767   1.727   3.693
 7482SOL    HW122750   7.677   1.700   3.710
 7482SOL    HW222751   7.787   1.693   3.606
 7483SOL     OW22752   0.590   2.379   3.501
 7483SOL    HW122753   0.631   2.297   3.472
 7483SOL    HW222754   0.587   2.434   3.423
 7484SOL     OW22755   0.823   3.491   2.965
 7484SOL    HW122756   0.835   3.513   3.058
 7484SOL    HW222757   0.907   3.513   2.925
 7485SOL     OW22758   4.201   6.387   5.599
 7485SOL    HW122759   4.297   6.388   5.599
 7485SOL    HW222760   4.178   6.317   5.659
 7486SOL     OW22761   6.498   6.707   4.373
 7486SOL    HW122762   6.508   6.708   4.468
 7486SOL    HW222763   6.405   6.688   4.359
 7487SOL     OW22764   8.214   2.067   4.829
 7487SOL    HW122765   8.157   1.996   4.859
 7487SOL    HW222766   8.154   2.132   4.792
 7488SOL     OW22767   6.627   3.527   2.907
 7488SOL    HW122768   6.637   3.461   2.838
 7488SOL    HW222769   6.670   3.605   2.872
 7489SOL     OW22770   7.317   7.234   2.170
 7489SOL    HW122771   7.327   7.279   2.086
 7489SOL    HW222772   7.319   7.304   2.235
 7490SOL     OW22773   7.061   5.887   4.805
 7490SOL    HW122774   7.132   5.830   4.834
 7490SOL    HW222775   7.009   5.832   4.746
 7491SOL     OW22776   6.826   1.774   5.149
 7491SOL    HW122777   6.818   1.750   5.241
 7491SOL    HW222778   6.765   1.717   5.103
 7492SOL     OW22779   6.740   7.097   5.341
 7492SOL    HW122780   6.788   7.064   5.265
 7492SOL    HW222781   6.652   7.061   5.331
 7493SOL     OW22782   3.788   1.261   2.607
 7493SOL    HW122783   3.780   1.258   2.702
 7493SOL    HW222784   3.746   1.181   2.576
 7494SOL     OW22785   2.356   5.851   2.099
 7494SOL    HW122786   2.401   5.926   2.061
 7494SOL    HW222787   2.426   5.790   2.121
 7495SOL     OW22788   3.737   4.704   2.799
 7495SOL    HW122789   3.805   4.646   2.765
 7495SOL    HW222790   3.667   4.645   2.826
 7496SOL     OW22791   6.582   2.584   2.727
 7496SOL    HW122792   6.627   2.522   2.785
 7496SOL    HW222793   6.649   2.611   2.664
 7497SOL     OW22794   1.660   6.772   3.265
 7497SOL    HW122795   1.681   6.855   3.222
 7497SOL    HW222796   1.722   6.767   3.338
 7498SOL     OW22797   1.554   6.555   5.271
 7498SOL    HW122798   1.586   6.645   5.274
 7498SOL    HW222799   1.544   6.536   5.178
 7499SOL     OW22800   6.946   6.377   0.945
 7499SOL    HW122801   7.024   6.335   0.980
 7499SOL    HW222802   6.977   6.425   0.868
 7500SOL     OW22803   5.737   6.051   3.609
 7500SOL    HW122804   5.686   5.986   3.657
 7500SOL    HW222805   5.778   6.104   3.677
 7501SOL     OW22806   0.645   0.441   3.824
 7501SOL    HW122807   0.704   0.368   3.804
 7501SOL    HW222808   0.576   0.402   3.878
 7502SOL     OW22809   5.202   2.633   1.324
 7502SOL    HW122810   5.296   2.646   1.338
 7502SOL    HW222811   5.196   2.594   1.237
 7503SOL     OW22812   6.642   4.513   5.631
 7503SOL    HW122813   6.733   4.498   5.657
 7503SOL    HW222814   6.592   4.446   5.678
 7504SOL     OW22815   8.211   1.115   3.010
 7504SOL    HW122816   8.139   1.061   3.043
 7504SOL    HW222817   8.191   1.127   2.917
 7505SOL     OW22818   2.873   0.598   0.200
 7505SOL    HW122819   2.964   0.582   0.226
 7505SOL    HW222820   2.879   0.658   0.126
 7506SOL     OW22821   3.444   4.424   4.564
 7506SOL    HW122822   3.379   4.354   4.573
 7506SOL    HW222823   3.438   4.451   4.472
 7507SOL     OW22824   0.413   6.932   0.973
 7507SOL    HW122825   0.327   6.933   0.932
 7507SOL    HW222826   0.464   6.869   0.922
 7508SOL     OW22827   4.216   1.775   3.607
 7508SOL    HW122828   4.274   1.848   3.587
 7508SOL    HW222829   4.137   1.816   3.642
 7509SOL     OW22830   8.191   6.732   1.207
 7509SOL    HW122831   0.029   6.794   1.178
 7509SOL    HW222832   8.124   6.787   1.248
 7510SOL     OW22833   7.939   2.581   2.252
 7510SOL    HW122834   7.853   2.567   2.292
 7510SOL    HW222835   7.935   2.533   2.169
 7511SOL     OW22836   2.439   6.595   4.593
 7511SOL    HW122837   2.412   6.650   4.667
 7511SOL    HW222838   2.431   6.505   4.626
 7512SOL     OW22839   4.134   6.460   3.779
 7512SOL    HW122840   4.094   6.382   3.817
 7512SOL    HW222841   4.139   6.441   3.685
 7513SOL     OW22842   2.005   1.504   3.231
 7513SOL    HW122843   2.027   1.572   3.294
 7513SOL    HW222844   1.961   1.551   3.160
 7514SOL     OW22845   6.095   1.794   3.791
 7514SOL    HW122846   6.071   1.702   3.796
 7514SOL    HW222847   6.122   1.817   3.880
 7515SOL     OW22848   7.371   5.443   4.265
 7515SOL    HW122849   7.460   5.437   4.300
 7515SOL    HW222850   7.341   5.530   4.290
 7516SOL     OW22851   1.007   3.434   1.949
 7516SOL    HW122852   1.053   3.350   1.941
 7516SOL    HW222853   0.922   3.411   1.987
 7517SOL     OW22854   6.273   1.557   2.250
 7517SOL    HW122855   6.272   1.652   2.261
 7517SOL    HW222856   6.307   1.523   2.333
 7518SOL     OW22857   6.045   6.964   0.359
 7518SOL    HW122858   6.013   7.041   0.312
 7518SOL    HW222859   6.023   6.980   0.451
 7519SOL     OW22860   3.635   7.515   5.098
 7519SOL    HW122861   3.544   7.517   5.128
 7519SOL    HW222862   3.687   7.534   5.176
 7520SOL     OW22863   3.799   7.617   5.305
 7520SOL    HW122864   3.725   7.677   5.316
 7520SOL    HW222865   3.867   7.671   5.264
 7521SOL     OW22866   5.926   1.774   2.334
 7521SOL    HW122867   5.861   1.745   2.398
 7521SOL    HW222868   5.916   1.869   2.331
 7522SOL     OW22869   8.095   5.160   0.671
 7522SOL    HW122870   8.141   5.094   0.620
 7522SOL    HW222871   8.118   5.243   0.630
 7523SOL     OW22872   2.986   5.503   4.737
 7523SOL    HW122873   2.919   5.526   4.672
 7523SOL    HW222874   3.026   5.423   4.702
 7524SOL     OW22875   6.902   2.415   2.108
 7524SOL    HW122876   6.891   2.470   2.186
 7524SOL    HW222877   6.902   2.477   2.035
 7525SOL     OW22878   4.707   4.409   3.679
 7525SOL    HW122879   4.769   4.344   3.711
 7525SOL    HW222880   4.688   4.464   3.755
 7526SOL     OW22881   5.275   4.055   0.558
 7526SOL    HW122882   5.360   4.082   0.523
 7526SOL    HW222883   5.212   4.083   0.492
 7527SOL     OW22884   1.167   3.156   0.551
 7527SOL    HW122885   1.151   3.097   0.625
 7527SOL    HW222886   1.239   3.212   0.580
 7528SOL     OW22887   1.327   7.726   1.323
 7528SOL    HW122888   1.386   7.656   1.296
 7528SOL    HW222889   1.360   7.803   1.277
 7529SOL     OW22890   7.830   7.973   5.278
 7529SOL    HW122891   7.920   7.961   5.309
 7529SOL    HW222892   7.776   7.958   5.355
 7530SOL     OW22893   1.732   6.701   0.849
 7530SOL    HW122894   1.746   6.794   0.834
 7530SOL    HW222895   1.669   6.676   0.781
 7531SOL     OW22896   5.387   3.832   1.942
 7531SOL    HW122897   5.442   3.847   1.865
 7531SOL    HW222898   5.446   3.796   2.008
 7532SOL     OW22899   7.483   7.580   2.481
 7532SOL    HW122900   7.442   7.666   2.489
 7532SOL    HW222901   7.574   7.594   2.507
 7533SOL     OW22902   4.985   0.167   5.260
 7533SOL    HW122903   4.992   0.247   5.311
 7533SOL    HW222904   5.053   0.110   5.296
 7534SOL     OW22905   5.382   3.447   0.140
 7534SOL    HW122906   5.343   3.504   0.206
 7534SOL    HW222907   5.307   3.409   0.093
 7535SOL     OW22908   4.049   2.333   1.998
 7535SOL    HW122909   4.072   2.421   1.968
 7535SOL    HW222910   4.119   2.310   2.059
 7536SOL     OW22911   2.748   4.209   5.083
 7536SOL    HW122912   2.676   4.246   5.135
 7536SOL    HW222913   2.767   4.125   5.125
 7537SOL     OW22914   0.784   4.895   4.501
 7537SOL    HW122915   0.848   4.890   4.430
 7537SOL    HW222916   0.711   4.944   4.463
 7538SOL     OW22917   2.864   5.784   4.979
 7538SOL    HW122918   2.940   5.823   5.022
 7538SOL    HW222919   2.792   5.844   4.997
 7539SOL     OW22920   7.492   0.143   2.030
 7539SOL    HW122921   7.483   0.233   1.999
 7539SOL    HW222922   7.504   0.091   1.950
 7540SOL     OW22923   2.152   5.848   1.144
 7540SOL    HW122924   2.178   5.802   1.224
 7540SOL    HW222925   2.125   5.935   1.174
 7541SOL     OW22926   2.595   0.437   3.916
 7541SOL    HW122927   2.580   0.527   3.886
 7541SOL    HW222928   2.518   0.389   3.885
 7542SOL     OW22929   4.900   6.481   5.723
 7542SOL    HW122930   4.946   6.397   5.732
 7542SOL    HW222931   4.849   6.472   5.642
 7543SOL     OW22932   6.557   4.587   0.165
 7543SOL    HW122933   6.628   4.567   0.225
 7543SOL    HW222934   6.590   4.659   0.112
 7544SOL     OW22935   4.833   6.504   0.091
 7544SOL    HW122936   4.902   6.481   0.153
 7544SOL    HW222937   4.757   6.453   0.118
 7545SOL     OW22938   5.871   5.446   0.859
 7545SOL    HW122939   5.910   5.391   0.792
 7545SOL    HW222940   5.940   5.457   0.925
 7546SOL     OW22941   2.712   3.573   5.416
 7546SOL    HW122942   2.699   3.494   5.469
 7546SOL    HW222943   2.629   3.620   5.423
 7547SOL     OW22944   6.916   1.935   2.686
 7547SOL    HW122945   6.953   1.862   2.735
 7547SOL    HW222946   6.989   1.995   2.673
 7548SOL     OW22947   3.774   1.564   3.462
 7548SOL    HW122948   3.686   1.528   3.474
 7548SOL    HW222949   3.785   1.627   3.533
 7549SOL     OW22950   4.984   7.164   0.120
 7549SOL    HW122951   4.917   7.157   0.052
 7549SOL    HW222952   5.053   7.104   0.092
 7550SOL     OW22953   7.515   0.976   2.551
 7550SOL    HW122954   7.565   0.935   2.622
 7550SOL    HW222955   7.433   0.927   2.548
 7551SOL     OW22956   1.877   3.425   1.812
 7551SOL    HW122957   1.892   3.516   1.839
 7551SOL    HW222958   1.842   3.431   1.723
 7552SOL     OW22959   5.748   5.005   4.564
 7552SOL    HW122960   5.808   5.044   4.627
 7552SOL    HW222961   5.692   4.947   4.617
 7553SOL     OW22962   1.156   2.980   1.587
 7553SOL    HW122963   1.063   2.962   1.601
 7553SOL    HW222964   1.158   3.057   1.530
 7554SOL     OW22965   3.623   1.429   4.208
 7554SOL    HW122966   3.596   1.520   4.218
 7554SOL    HW222967   3.569   1.396   4.136
 7555SOL     OW22968   3.898   2.267   2.724
 7555SOL    HW122969   3.871   2.184   2.763
 7555SOL    HW222970   3.903   2.249   2.630
 7556SOL     OW22971   5.561   6.776   2.553
 7556SOL    HW122972   5.602   6.787   2.639
 7556SOL    HW222973   5.469   6.797   2.567
 7557SOL     OW22974   2.554   0.141   1.080
 7557SOL    HW122975   2.588   0.056   1.108
 7557SOL    HW222976   2.544   0.133   0.985
 7558SOL     OW22977   3.167   3.607   5.559
 7558SOL    HW122978   3.105   3.640   5.493
 7558SOL    HW222979   3.192   3.685   5.609
 7559SOL     OW22980   4.110   1.612   0.208
 7559SOL    HW122981   4.062   1.593   0.289
 7559SOL    HW222982   4.061   1.684   0.168
 7560SOL     OW22983   0.244   7.269   2.835
 7560SOL    HW122984   0.282   7.181   2.830
 7560SOL    HW222985   0.216   7.288   2.746
 7561SOL     OW22986   7.101   6.240   0.735
 7561SOL    HW122987   7.175   6.295   0.707
 7561SOL    HW222988   7.033   6.257   0.670
 7562SOL     OW22989   7.978   2.828   0.362
 7562SOL    HW122990   8.024   2.912   0.355
 7562SOL    HW222991   7.997   2.797   0.450
 7563SOL     OW22992   4.258   0.486   4.110
 7563SOL    HW122993   4.183   0.432   4.085
 7563SOL    HW222994   4.229   0.533   4.188
 7564SOL     OW22995   2.247   1.411   2.027
 7564SOL    HW122996   2.245   1.484   2.088
 7564SOL    HW222997   2.178   1.353   2.057
 7565SOL     OW22998   0.491   1.526   2.549
 7565SOL    HW122999   0.496   1.621   2.543
 7565SOL    HW223000   0.412   1.509   2.600
 7566SOL     OW23001   4.629   1.067   3.535
 7566SOL    HW123002   4.604   1.103   3.450
 7566SOL    HW223003   4.649   1.144   3.588
 7567SOL     OW23004   7.029   2.206   2.757
 7567SOL    HW123005   7.095   2.171   2.697
 7567SOL    HW223006   7.033   2.301   2.743
 7568SOL     OW23007   0.654   2.751   3.401
 7568SOL    HW123008   0.659   2.689   3.474
 7568SOL    HW223009   0.624   2.698   3.327
 7569SOL     OW23010   2.840   2.428   3.870
 7569SOL    HW123011   2.752   2.402   3.842
 7569SOL    HW223012   2.834   2.523   3.884
 7570SOL     OW23013   1.569   7.914   5.172
 7570SOL    HW123014   1.511   7.974   5.126
 7570SOL    HW223015   1.616   7.868   5.103
 7571SOL     OW23016   5.687   5.793   4.551
 7571SOL    HW123017   5.707   5.776   4.459
 7571SOL    HW223018   5.679   5.888   4.556
 7572SOL     OW23019   7.528   0.860   5.360
 7572SOL    HW123020   7.586   0.788   5.337
 7572SOL    HW223021   7.558   0.889   5.446
 7573SOL     OW23022   1.836   7.230   4.868
 7573SOL    HW123023   1.866   7.266   4.951
 7573SOL    HW223024   1.742   7.216   4.881
 7574SOL     OW23025   6.729   2.273   3.417
 7574SOL    HW123026   6.767   2.328   3.349
 7574SOL    HW223027   6.687   2.202   3.369
 7575SOL     OW23028   3.801   7.401   2.361
 7575SOL    HW123029   3.894   7.400   2.386
 7575SOL    HW223030   3.755   7.422   2.442
 7576SOL     OW23031   1.660   0.678   4.435
 7576SOL    HW123032   1.727   0.746   4.427
 7576SOL    HW223033   1.577   0.726   4.428
 7577SOL     OW23034   1.082   5.283   3.516
 7577SOL    HW123035   1.151   5.284   3.583
 7577SOL    HW223036   1.049   5.373   3.514
 7578SOL     OW23037   2.478   7.695   0.315
 7578SOL    HW123038   2.560   7.647   0.306
 7578SOL    HW223039   2.504   7.786   0.329
 7579SOL     OW23040   5.021   3.188   1.235
 7579SOL    HW123041   4.988   3.176   1.324
 7579SOL    HW223042   4.955   3.146   1.180
 7580SOL     OW23043   0.799   0.619   4.767
 7580SOL    HW123044   0.877   0.645   4.718
 7580SOL    HW223045   0.792   0.684   4.837
 7581SOL     OW23046   6.007   7.839   3.030
 7581SOL    HW123047   6.012   7.831   2.935
 7581SOL    HW223048   5.915   7.859   3.048
 7582SOL     OW23049   7.166   3.072   4.015
 7582SOL    HW123050   7.124   3.020   4.083
 7582SOL    HW223051   7.219   3.009   3.966
 7583SOL     OW23052   1.895   6.356   5.602
 7583SOL    HW123053   1.872   6.448   5.587
 7583SOL    HW223054   1.817   6.318   5.643
 7584SOL     OW23055   0.951   3.589   4.946
 7584SOL    HW123056   1.019   3.529   4.916
 7584SOL    HW223057   0.891   3.534   4.997
 7585SOL     OW23058   3.680   2.916   3.668
 7585SOL    HW123059   3.641   2.992   3.625
 7585SOL    HW223060   3.650   2.841   3.616
 7586SOL     OW23061   7.671   2.839   5.075
 7586SOL    HW123062   7.689   2.871   4.987
 7586SOL    HW223063   7.580   2.809   5.072
 7587SOL     OW23064   8.080   1.090   1.121
 7587SOL    HW123065   8.035   1.097   1.205
 7587SOL    HW223066   8.162   1.044   1.142
 7588SOL     OW23067   7.922   4.996   4.653
 7588SOL    HW123068   7.881   4.919   4.614
 7588SOL    HW223069   7.859   5.026   4.719
 7589SOL     OW23070   6.203   2.278   4.847
 7589SOL    HW123071   6.155   2.357   4.870
 7589SOL    HW223072   6.158   2.208   4.894
 7590SOL     OW23073   0.041   4.631   0.585
 7590SOL    HW123074   0.031   4.560   0.521
 7590SOL    HW223075   0.136   4.637   0.599
 7591SOL     OW23076   5.971   3.147   5.620
 7591SOL    HW123077   5.911   3.214   5.653
 7591SOL    HW223078   5.994   3.176   5.532
 7592SOL     OW23079   2.415   1.356   1.563
 7592SOL    HW123080   2.413   1.261   1.572
 7592SOL    HW223081   2.336   1.386   1.607
 7593SOL     OW23082   7.513   2.183   3.504
 7593SOL    HW123083   7.542   2.177   3.413
 7593SOL    HW223084   7.420   2.206   3.498
 7594SOL     OW23085   1.557   1.585   4.362
 7594SOL    HW123086   1.591   1.523   4.297
 7594SOL    HW223087   1.485   1.629   4.317
 7595SOL     OW23088   7.102   6.274   2.914
 7595SOL    HW123089   7.172   6.287   2.977
 7595SOL    HW223090   7.080   6.362   2.885
 7596SOL     OW23091   1.683   0.658   0.219
 7596SOL    HW123092   1.777   0.651   0.236
 7596SOL    HW223093   1.675   0.654   0.124
 7597SOL     OW23094   0.128   5.043   3.231
 7597SOL    HW123095   0.121   5.066   3.324
 7597SOL    HW223096   0.221   5.048   3.211
 7598SOL     OW23097   2.253   3.319   2.974
 7598SOL    HW123098   2.210   3.388   3.024
 7598SOL    HW223099   2.261   3.355   2.886
 7599SOL     OW23100   0.075   0.041   5.028
 7599SOL    HW123101   0.110   8.182   5.042
 7599SOL    HW223102   0.007   0.051   5.094
 7600SOL     OW23103   0.303   6.003   5.665
 7600SOL    HW123104   0.293   6.038   5.577
 7600SOL    HW223105   0.235   5.936   5.673
 7601SOL     OW23106   0.281   4.245   3.146
 7601SOL    HW123107   0.257   4.158   3.114
 7601SOL    HW223108   0.201   4.297   3.136
 7602SOL     OW23109   7.143   1.618   3.517
 7602SOL    HW123110   7.077   1.685   3.499
 7602SOL    HW223111   7.113   1.575   3.597
 7603SOL     OW23112   6.157   2.678   5.383
 7603SOL    HW123113   6.248   2.649   5.388
 7603SOL    HW223114   6.157   2.764   5.425
 7604SOL     OW23115   6.475   6.089   1.531
 7604SOL    HW123116   6.413   6.039   1.583
 7604SOL    HW223117   6.526   6.138   1.595
 7605SOL     OW23118   3.046   6.523   3.274
 7605SOL    HW123119   2.951   6.519   3.288
 7605SOL    HW223120   3.083   6.500   3.359
 7606SOL     OW23121   0.357   7.710   2.656
 7606SOL    HW123122   0.346   7.734   2.564
 7606SOL    HW223123   0.380   7.792   2.700
 7607SOL     OW23124   5.440   2.214   2.380
 7607SOL    HW123125   5.452   2.308   2.395
 7607SOL    HW223126   5.528   2.177   2.385
 7608SOL     OW23127   2.725   6.063   2.623
 7608SOL    HW123128   2.678   6.031   2.700
 7608SOL    HW223129   2.766   5.985   2.586
 7609SOL     OW23130   4.334   8.034   1.379
 7609SOL    HW123131   4.324   7.971   1.307
 7609SOL    HW223132   4.425   8.063   1.373
 7610SOL     OW23133   5.826   5.963   0.517
 7610SOL    HW123134   5.832   5.944   0.423
 7610SOL    HW223135   5.898   5.913   0.556
 7611SOL     OW23136   4.831   6.894   3.978
 7611SOL    HW123137   4.845   6.799   3.981
 7611SOL    HW223138   4.906   6.930   4.026
 7612SOL     OW23139   4.196   0.052   1.862
 7612SOL    HW123140   4.130   8.227   1.819
 7612SOL    HW223141   4.145   0.118   1.910
 7613SOL     OW23142   0.003   1.809   1.418
 7613SOL    HW123143   8.229   1.749   1.492
 7613SOL    HW223144   8.169   1.878   1.440
 7614SOL     OW23145   5.942   0.153   3.778
 7614SOL    HW123146   5.963   0.105   3.858
 7614SOL    HW223147   5.975   0.097   3.707
 7615SOL     OW23148   3.825   4.485   0.272
 7615SOL    HW123149   3.732   4.498   0.290
 7615SOL    HW223150   3.828   4.409   0.214
 7616SOL     OW23151   2.860   5.066   0.304
 7616SOL    HW123152   2.825   5.037   0.388
 7616SOL    HW223153   2.783   5.090   0.253
 7617SOL     OW23154   5.933   4.637   0.209
 7617SOL    HW123155   5.889   4.635   0.124
 7617SOL    HW223156   6.007   4.696   0.196
 7618SOL     OW23157   7.627   1.767   4.151
 7618SOL    HW123158   7.600   1.706   4.082
 7618SOL    HW223159   7.658   1.710   4.222
 7619SOL     OW23160   7.651   5.257   3.173
 7619SOL    HW123161   7.560   5.236   3.152
 7619SOL    HW223162   7.655   5.352   3.166
 7620SOL     OW23163   5.741   0.769   2.574
 7620SOL    HW123164   5.772   0.701   2.515
 7620SOL    HW223165   5.647   0.754   2.580
 7621SOL     OW23166   8.029   6.900   0.218
 7621SOL    HW123167   7.947   6.949   0.213
 7621SOL    HW223168   8.010   6.817   0.175
 7622SOL     OW23169   5.792   1.197   0.323
 7622SOL    HW123170   5.711   1.230   0.284
 7622SOL    HW223171   5.766   1.119   0.371
 7623SOL     OW23172   7.498   0.931   1.923
 7623SOL    HW123173   7.445   1.009   1.906
 7623SOL    HW223174   7.588   0.962   1.921
 7624SOL     OW23175   3.403   6.174   4.468
 7624SOL    HW123176   3.497   6.169   4.449
 7624SOL    HW223177   3.381   6.087   4.500
 7625SOL     OW23178   7.916   8.124   5.641
 7625SOL    HW123179   7.966   8.171   5.574
 7625SOL    HW223180   7.831   8.109   5.601
 7626SOL     OW23181   2.457   2.323   2.184
 7626SOL    HW123182   2.432   2.258   2.249
 7626SOL    HW223183   2.374   2.365   2.160
 7627SOL     OW23184   2.326   4.316   2.394
 7627SOL    HW123185   2.295   4.291   2.307
 7627SOL    HW223186   2.340   4.233   2.439
 7628SOL     OW23187   2.749   0.917   3.445
 7628SOL    HW123188   2.801   0.963   3.511
 7628SOL    HW223189   2.667   0.966   3.441
 7629SOL     OW23190   5.933   6.377   3.541
 7629SOL    HW123191   5.919   6.463   3.501
 7629SOL    HW223192   5.910   6.314   3.472
 7630SOL     OW23193   4.818   2.600   2.453
 7630SOL    HW123194   4.865   2.556   2.524
 7630SOL    HW223195   4.886   2.645   2.403
 7631SOL     OW23196   4.018   0.353   2.507
 7631SOL    HW123197   4.091   0.390   2.556
 7631SOL    HW223198   3.966   0.429   2.479
 7632SOL     OW23199   7.402   4.519   4.287
 7632SOL    HW123200   7.333   4.582   4.269
 7632SOL    HW223201   7.421   4.479   4.202
 7633SOL     OW23202   0.217   5.960   3.255
 7633SOL    HW123203   0.184   5.874   3.229
 7633SOL    HW223204   0.144   6.020   3.239
 7634SOL     OW23205   5.952   5.873   1.723
 7634SOL    HW123206   5.927   5.830   1.641
 7634SOL    HW223207   5.871   5.880   1.773
 7635SOL     OW23208   5.645   0.890   5.128
 7635SOL    HW123209   5.695   0.963   5.164
 7635SOL    HW223210   5.617   0.921   5.042
 7636SOL     OW23211   1.965   6.235   3.610
 7636SOL    HW123212   2.008   6.173   3.668
 7636SOL    HW223213   1.874   6.236   3.638
 7637SOL     OW23214   1.001   1.799   1.901
 7637SOL    HW123215   1.068   1.867   1.904
 7637SOL    HW223216   1.021   1.750   1.821
 7638SOL     OW23217   4.754   1.347   2.276
 7638SOL    HW123218   4.833   1.370   2.228
 7638SOL    HW223219   4.687   1.404   2.239
 7639SOL     OW23220   0.162   4.913   0.030
 7639SOL    HW123221   0.107   4.839   0.005
 7639SOL    HW223222   4.364   0.775   5.819
 7640SOL     OW23223   0.201   4.115   1.278
 7640SOL    HW123224   0.291   4.084   1.269
 7640SOL    HW223225   0.201   4.201   1.236
 7641SOL     OW23226   3.090   5.856   1.150
 7641SOL    HW123227   3.055   5.855   1.061
 7641SOL    HW223228   3.018   5.888   1.204
 7642SOL     OW23229   0.265   1.885   3.136
 7642SOL    HW123230   0.195   1.863   3.197
 7642SOL    HW223231   0.236   1.850   3.052
 7643SOL     OW23232   0.033   1.730   0.530
 7643SOL    HW123233   0.055   1.773   0.447
 7643SOL    HW223234   8.168   1.713   0.524
 7644SOL     OW23235   5.831   4.884   1.128
 7644SOL    HW123236   5.737   4.867   1.120
 7644SOL    HW223237   5.860   4.901   1.038
 7645SOL     OW23238   1.000   4.191   0.617
 7645SOL    HW123239   0.946   4.127   0.663
 7645SOL    HW223240   1.031   4.250   0.685
 7646SOL     OW23241   5.609   7.117   5.235
 7646SOL    HW123242   5.514   7.112   5.243
 7646SOL    HW223243   5.625   7.198   5.186
 7647SOL     OW23244   6.215   6.920   1.567
 7647SOL    HW123245   6.135   6.931   1.515
 7647SOL    HW223246   6.270   6.863   1.514
 7648SOL     OW23247   7.770   3.659   3.916
 7648SOL    HW123248   7.826   3.582   3.929
 7648SOL    HW223249   7.772   3.675   3.822
 7649SOL     OW23250   0.657   7.294   4.918
 7649SOL    HW123251   0.587   7.349   4.955
 7649SOL    HW223252   0.620   7.260   4.836
 7650SOL     OW23253   1.318   6.413   0.779
 7650SOL    HW123254   1.308   6.497   0.824
 7650SOL    HW223255   1.317   6.348   0.849
 7651SOL     OW23256   4.761   6.489   5.492
 7651SOL    HW123257   4.670   6.511   5.471
 7651SOL    HW223258   4.810   6.568   5.469
 7652SOL     OW23259   7.917   7.617   2.021
 7652SOL    HW123260   7.992   7.592   1.967
 7652SOL    HW223261   7.948   7.608   2.111
 7653SOL     OW23262   0.449   7.978   0.869
 7653SOL    HW123263   0.363   8.019   0.866
 7653SOL    HW223264   0.510   8.048   0.847
 7654SOL     OW23265   6.559   8.038   1.195
 7654SOL    HW123266   6.636   8.018   1.249
 7654SOL    HW223267   6.596   8.064   1.110
 7655SOL     OW23268   0.038   0.529   0.920
 7655SOL    HW123269   0.086   0.598   0.965
 7655SOL    HW223270   8.181   0.529   0.961
 7656SOL     OW23271   1.844   3.407   4.565
 7656SOL    HW123272   1.787   3.413   4.641
 7656SOL    HW223273   1.933   3.414   4.601
 7657SOL     OW23274   4.075   0.951   3.631
 7657SOL    HW123275   4.031   0.932   3.714
 7657SOL    HW223276   4.045   1.039   3.608
 7658SOL     OW23277   7.665   8.046   0.696
 7658SOL    HW123278   7.664   7.951   0.683
 7658SOL    HW223279   7.757   8.071   0.688
 7659SOL     OW23280   8.055   5.500   0.257
 7659SOL    HW123281   8.020   5.424   0.211
 7659SOL    HW223282   8.149   5.497   0.241
 7660SOL     OW23283   0.810   5.487   4.198
 7660SOL    HW123284   0.773   5.517   4.281
 7660SOL    HW223285   0.749   5.419   4.168
 7661SOL     OW23286   3.521   6.274   3.515
 7661SOL    HW123287   3.513   6.333   3.440
 7661SOL    HW223288   3.446   6.296   3.571
 7662SOL     OW23289   2.624   6.173   1.782
 7662SOL    HW123290   2.546   6.193   1.729
 7662SOL    HW223291   2.669   6.257   1.790
 7663SOL     OW23292   2.042   7.537   4.198
 7663SOL    HW123293   1.972   7.542   4.133
 7663SOL    HW223294   1.999   7.507   4.278
 7664SOL     OW23295   5.187   6.419   3.555
 7664SOL    HW123296   5.240   6.382   3.485
 7664SOL    HW223297   5.248   6.432   3.627
 7665SOL     OW23298   7.051   6.046   1.584
 7665SOL    HW123299   6.978   5.992   1.616
 7665SOL    HW223300   7.117   6.040   1.653
 7666SOL     OW23301   2.794   4.770   3.703
 7666SOL    HW123302   2.803   4.849   3.650
 7666SOL    HW223303   2.864   4.777   3.768
 7667SOL     OW23304   2.268   3.577   4.339
 7667SOL    HW123305   2.238   3.534   4.259
 7667SOL    HW223306   2.363   3.575   4.334
 7668SOL     OW23307   3.816   7.082   0.646
 7668SOL    HW123308   3.734   7.083   0.597
 7668SOL    HW223309   3.813   7.162   0.699
 7669SOL     OW23310   0.307   4.754   3.081
 7669SOL    HW123311   0.358   4.814   3.027
 7669SOL    HW223312   0.217   4.785   3.072
 7670SOL     OW23313   7.495   1.375   4.498
 7670SOL    HW123314   7.562   1.433   4.535
 7670SOL    HW223315   7.533   1.344   4.416
 7671SOL     OW23316   1.649   0.520   1.523
 7671SOL    HW123317   1.590   0.576   1.473
 7671SOL    HW223318   1.602   0.503   1.605
 7672SOL     OW23319   6.147   6.704   3.532
 7672SOL    HW123320   6.147   6.799   3.521
 7672SOL    HW223321   6.063   6.684   3.574
 7673SOL     OW23322   5.904   5.931   4.792
 7673SOL    HW123323   5.838   5.983   4.746
 7673SOL    HW223324   5.985   5.981   4.781
 7674SOL     OW23325   8.126   1.659   4.374
 7674SOL    HW123326   8.036   1.686   4.356
 7674SOL    HW223327   8.155   1.719   4.443
 7675SOL     OW23328   4.976   1.780   5.762
 7675SOL    HW123329   5.042   1.711   5.759
 7675SOL    HW223330   4.983   1.824   5.677
 7676SOL     OW23331   7.546   3.618   2.124
 7676SOL    HW123332   7.583   3.574   2.200
 7676SOL    HW223333   7.603   3.593   2.051
 7677SOL     OW23334   3.898   6.514   1.108
 7677SOL    HW123335   3.933   6.547   1.191
 7677SOL    HW223336   3.973   6.475   1.064
 7678SOL     OW23337   5.892   3.887   2.904
 7678SOL    HW123338   5.955   3.958   2.918
 7678SOL    HW223339   5.946   3.811   2.882
 7679SOL     OW23340   6.868   4.914   4.770
 7679SOL    HW123341   6.959   4.892   4.792
 7679SOL    HW223342   6.826   4.927   4.855
 7680SOL     OW23343   3.914   6.299   0.361
 7680SOL    HW123344   3.881   6.301   0.451
 7680SOL    HW223345   4.005   6.271   0.370
 7681SOL     OW23346   4.877   6.749   2.955
 7681SOL    HW123347   4.784   6.741   2.934
 7681SOL    HW223348   4.881   6.820   3.020
 7682SOL     OW23349   1.859   2.783   4.388
 7682SOL    HW123350   1.833   2.870   4.358
 7682SOL    HW223351   1.781   2.729   4.377
 7683SOL     OW23352   0.623   4.998   3.723
 7683SOL    HW123353   0.699   4.978   3.668
 7683SOL    HW223354   0.625   5.093   3.734
 7684SOL     OW23355   1.960   6.926   1.102
 7684SOL    HW123356   1.892   6.979   1.143
 7684SOL    HW223357   1.954   6.841   1.146
 7685SOL     OW23358   3.876   4.869   1.568
 7685SOL    HW123359   3.912   4.826   1.645
 7685SOL    HW223360   3.823   4.941   1.603
 7686SOL     OW23361   3.869   8.203   4.976
 7686SOL    HW123362   3.787   0.016   5.002
 7686SOL    HW223363   3.891   8.145   5.049
 7687SOL     OW23364   5.006   2.645   0.140
 7687SOL    HW123365   5.060   2.591   0.197
 7687SOL    HW223366   5.061   2.662   0.063
 7688SOL     OW23367   1.368   8.181   0.121
 7688SOL    HW123368   1.407   0.024   0.170
 7688SOL    HW223369   1.283   8.214   0.093
 7689SOL     OW23370   2.539   0.684   0.625
 7689SOL    HW123371   2.596   0.738   0.570
 7689SOL    HW223372   2.599   0.634   0.681
 7690SOL     OW23373   8.111   1.260   1.557
 7690SOL    HW123374   8.172   1.210   1.610
 7690SOL    HW223375   8.031   1.263   1.609
 7691SOL     OW23376   3.346   5.708   1.840
 7691SOL    HW123377   3.309   5.633   1.793
 7691SOL    HW223378   3.313   5.700   1.929
 7692SOL     OW23379   4.055   4.524   2.100
 7692SOL    HW123380   3.976   4.470   2.101
 7692SOL    HW223381   4.034   4.597   2.158
 7693SOL     OW23382   1.480   1.702   0.140
 7693SOL    HW123383   1.421   1.774   0.119
 7693SOL    HW223384   1.567   1.741   0.140
 7694SOL     OW23385   2.393   7.994   4.074
 7694SOL    HW123386   2.360   7.977   4.162
 7694SOL    HW223387   2.477   8.039   4.087
 7695SOL     OW23388   4.253   2.703   4.317
 7695SOL    HW123389   4.195   2.634   4.284
 7695SOL    HW223390   4.274   2.675   4.406
 7696SOL     OW23391   4.388   5.147   2.551
 7696SOL    HW123392   4.399   5.157   2.646
 7696SOL    HW223393   4.419   5.230   2.515
 7697SOL     OW23394   7.829   7.086   1.556
 7697SOL    HW123395   7.855   6.996   1.574
 7697SOL    HW223396   7.749   7.098   1.607
 7698SOL     OW23397   3.102   3.172   2.424
 7698SOL    HW123398   3.163   3.245   2.411
 7698SOL    HW223399   3.156   3.094   2.415
 7699SOL     OW23400   0.568   1.144   5.748
 7699SOL    HW123401   4.727   5.272   0.013
 7699SOL    HW223402   0.555   1.232   5.714
 7700SOL     OW23403   3.369   2.523   4.811
 7700SOL    HW123404   3.339   2.566   4.891
 7700SOL    HW223405   3.294   2.528   4.751
 7701SOL     OW23406   7.661   5.504   1.432
 7701SOL    HW123407   7.589   5.452   1.397
 7701SOL    HW223408   7.673   5.470   1.521
 7702SOL     OW23409   0.406   3.080   1.467
 7702SOL    HW123410   0.399   3.063   1.373
 7702SOL    HW223411   0.487   3.130   1.477
 7703SOL     OW23412   1.213   2.264   1.396
 7703SOL    HW123413   1.250   2.321   1.329
 7703SOL    HW223414   1.282   2.200   1.414
 7704SOL     OW23415   5.204   4.067   4.018
 7704SOL    HW123416   5.258   4.093   3.943
 7704SOL    HW223417   5.219   3.973   4.026
 7705SOL     OW23418   1.600   7.143   3.347
 7705SOL    HW123419   1.629   7.106   3.263
 7705SOL    HW223420   1.559   7.226   3.324
 7706SOL     OW23421   6.667   2.239   5.675
 7706SOL    HW123422   6.687   2.215   5.585
 7706SOL    HW223423   6.657   2.334   5.673
 7707SOL     OW23424   0.392   0.863   5.276
 7707SOL    HW123425   0.396   0.927   5.205
 7707SOL    HW223426   0.483   0.846   5.299
 7708SOL     OW23427   7.226   0.255   5.018
 7708SOL    HW123428   7.279   0.309   5.077
 7708SOL    HW223429   7.145   0.305   5.006
 7709SOL     OW23430   5.066   8.210   4.896
 7709SOL    HW123431   5.011   8.141   4.934
 7709SOL    HW223432   5.014   0.061   4.905
 7710SOL     OW23433   2.345   3.678   3.234
 7710SOL    HW123434   2.267   3.705   3.282
 7710SOL    HW223435   2.414   3.674   3.300
 7711SOL     OW23436   3.817   6.522   5.231
 7711SOL    HW123437   3.878   6.560   5.168
 7711SOL    HW223438   3.870   6.461   5.282
 7712SOL     OW23439   0.036   5.046   2.584
 7712SOL    HW123440   8.189   5.101   2.602
 7712SOL    HW223441   0.076   5.033   2.670
 7713SOL     OW23442   4.907   6.933   3.157
 7713SOL    HW123443   4.928   6.920   3.250
 7713SOL    HW223444   4.976   6.991   3.125
 7714SOL     OW23445   7.226   4.642   5.681
 7714SOL    HW123446   7.210   4.550   5.701
 7714SOL    HW223447   7.287   4.671   5.749
 7715SOL     OW23448   0.268   7.634   0.333
 7715SOL    HW123449   0.238   7.723   0.315
 7715SOL    HW223450   0.249   7.586   0.253
 7716SOL     OW23451   4.634   2.608   4.514
 7716SOL    HW123452   4.631   2.701   4.491
 7716SOL    HW223453   4.564   2.597   4.579
 7717SOL     OW23454   0.723   6.288   3.451
 7717SOL    HW123455   0.712   6.383   3.447
 7717SOL    HW223456   0.817   6.275   3.442
 7718SOL     OW23457   8.016   1.076   2.795
 7718SOL    HW123458   7.958   1.074   2.719
 7718SOL    HW223459   7.960   1.104   2.868
 7719SOL     OW23460   2.329   0.716   2.213
 7719SOL    HW123461   2.379   0.654   2.160
 7719SOL    HW223462   2.238   0.701   2.189
 7720SOL     OW23463   5.979   3.884   1.102
 7720SOL    HW123464   6.068   3.905   1.129
 7720SOL    HW223465   5.980   3.790   1.086
 7721SOL     OW23466   4.945   6.180   3.528
 7721SOL    HW123467   4.991   6.165   3.446
 7721SOL    HW223468   4.942   6.275   3.537
 7722SOL     OW23469   0.664   7.482   2.319
 7722SOL    HW123470   0.708   7.440   2.245
 7722SOL    HW223471   0.571   7.470   2.301
 7723SOL     OW23472   7.596   6.937   1.355
 7723SOL    HW123473   7.691   6.926   1.360
 7723SOL    HW223474   7.584   7.018   1.305
 7724SOL     OW23475   4.939   0.877   2.570
 7724SOL    HW123476   4.901   0.882   2.658
 7724SOL    HW223477   4.949   0.968   2.543
 7725SOL     OW23478   3.985   2.801   1.727
 7725SOL    HW123479   4.012   2.893   1.733
 7725SOL    HW223480   3.954   2.791   1.637
 7726SOL     OW23481   5.485   4.574   3.989
 7726SOL    HW123482   5.475   4.655   4.039
 7726SOL    HW223483   5.404   4.567   3.939
 7727SOL     OW23484   8.219   3.603   0.805
 7727SOL    HW123485   8.174   3.537   0.752
 7727SOL    HW223486   0.062   3.633   0.750
 7728SOL     OW23487   1.767   7.702   2.084
 7728SOL    HW123488   1.758   7.781   2.031
 7728SOL    HW223489   1.762   7.630   2.021
 7729SOL     OW23490   4.444   5.265   0.705
 7729SOL    HW123491   4.384   5.338   0.722
 7729SOL    HW223492   4.523   5.287   0.754
 7730SOL     OW23493   4.335   3.624   2.357
 7730SOL    HW123494   4.406   3.632   2.293
 7730SOL    HW223495   4.379   3.622   2.442
 7731SOL     OW23496   5.691   1.166   5.429
 7731SOL    HW123497   5.616   1.161   5.370
 7731SOL    HW223498   5.734   1.249   5.408
 7732SOL     OW23499   1.252   6.373   5.186
 7732SOL    HW123500   1.188   6.302   5.188
 7732SOL    HW223501   1.204   6.448   5.151
 7733SOL     OW23502   0.196   6.891   3.329
 7733SOL    HW123503   0.129   6.959   3.321
 7733SOL    HW223504   0.149   6.815   3.364
 7734SOL     OW23505   3.473   7.653   3.752
 7734SOL    HW123506   3.378   7.664   3.749
 7734SOL    HW223507   3.490   7.620   3.840
 7735SOL     OW23508   5.310   5.203   2.806
 7735SOL    HW123509   5.284   5.252   2.884
 7735SOL    HW223510   5.245   5.133   2.798
 7736SOL     OW23511   1.600   2.770   1.470
 7736SOL    HW123512   1.580   2.837   1.404
 7736SOL    HW223513   1.609   2.689   1.420
 7737SOL     OW23514   1.471   2.958   0.058
 7737SOL    HW123515   1.377   2.942   0.056
 7737SOL    HW223516   1.510   2.872   0.073
 7738SOL     OW23517   0.036   5.048   1.102
 7738SOL    HW123518   0.126   5.050   1.133
 7738SOL    HW223519   0.017   4.955   1.089
 7739SOL     OW23520   3.330   2.728   2.729
 7739SOL    HW123521   3.423   2.721   2.751
 7739SOL    HW223522   3.321   2.682   2.645
 7740SOL     OW23523   6.735   0.662   1.402
 7740SOL    HW123524   6.748   0.693   1.312
 7740SOL    HW223525   6.748   0.740   1.456
 7741SOL     OW23526   4.769   1.007   1.355
 7741SOL    HW123527   4.677   1.000   1.382
 7741SOL    HW223528   4.779   1.097   1.325
 7742SOL     OW23529   5.281   6.208   5.470
 7742SOL    HW123530   5.293   6.229   5.377
 7742SOL    HW223531   5.368   6.220   5.508
 7743SOL     OW23532   6.779   1.446   3.461
 7743SOL    HW123533   6.713   1.408   3.403
 7743SOL    HW223534   6.855   1.389   3.450
 7744SOL     OW23535   8.141   2.244   2.162
 7744SOL    HW123536   8.069   2.278   2.216
 7744SOL    HW223537   8.098   2.189   2.097
 7745SOL     OW23538   5.957   4.551   1.262
 7745SOL    HW123539   5.876   4.547   1.314
 7745SOL    HW223540   6.026   4.527   1.324
 7746SOL     OW23541   0.717   2.622   2.278
 7746SOL    HW123542   0.759   2.697   2.235
 7746SOL    HW223543   0.689   2.656   2.363
 7747SOL     OW23544   2.754   4.248   0.719
 7747SOL    HW123545   2.723   4.177   0.663
 7747SOL    HW223546   2.804   4.204   0.788
 7748SOL     OW23547   2.639   0.972   3.910
 7748SOL    HW123548   2.604   1.000   3.995
 7748SOL    HW223549   2.734   0.981   3.919
 7749SOL     OW23550   2.570   7.924   2.763
 7749SOL    HW123551   2.556   7.832   2.786
 7749SOL    HW223552   2.504   7.971   2.813
 7750SOL     OW23553   0.166   0.456   2.759
 7750SOL    HW123554   0.154   0.366   2.790
 7750SOL    HW223555   0.192   0.446   2.667
 7751SOL     OW23556   7.699   1.590   5.793
 7751SOL    HW123557   7.702   1.595   5.697
 7751SOL    HW223558   7.721   1.499   5.813
 7752SOL     OW23559   2.679   2.282   3.092
 7752SOL    HW123560   2.755   2.275   3.149
 7752SOL    HW223561   2.604   2.270   3.150
 7753SOL     OW23562   5.100   7.461   2.391
 7753SOL    HW123563   5.190   7.481   2.365
 7753SOL    HW223564   5.071   7.539   2.438
 7754SOL     OW23565   3.305   2.631   4.450
 7754SOL    HW123566   3.287   2.663   4.538
 7754SOL    HW223567   3.225   2.585   4.424
 7755SOL     OW23568   6.795   5.888   4.484
 7755SOL    HW123569   6.775   5.907   4.576
 7755SOL    HW223570   6.885   5.920   4.472
 7756SOL     OW23571   5.824   4.744   5.785
 7756SOL    HW123572   5.786   4.738   5.697
 7756SOL    HW223573   5.884   4.670   5.791
 7757SOL     OW23574   2.606   3.076   1.328
 7757SOL    HW123575   2.659   3.035   1.259
 7757SOL    HW223576   2.618   3.020   1.404
 7758SOL     OW23577   4.786   0.050   0.951
 7758SOL    HW123578   4.745   0.035   0.866
 7758SOL    HW223579   4.865   8.226   0.950
 7759SOL     OW23580   3.095   3.887   5.063
 7759SOL    HW123581   3.034   3.907   5.134
 7759SOL    HW223582   3.053   3.923   4.985
 7760SOL     OW23583   0.986   4.314   4.358
 7760SOL    HW123584   0.961   4.222   4.356
 7760SOL    HW223585   1.001   4.333   4.451
 7761SOL     OW23586   4.079   6.424   0.598
 7761SOL    HW123587   4.154   6.444   0.541
 7761SOL    HW223588   4.086   6.486   0.670
 7762SOL     OW23589   7.532   7.158   1.217
 7762SOL    HW123590   7.564   7.221   1.282
 7762SOL    HW223591   7.471   7.208   1.163
 7763SOL     OW23592   0.768   2.696   2.664
 7763SOL    HW123593   0.805   2.712   2.751
 7763SOL    HW223594   0.839   2.717   2.604
 7764SOL     OW23595   2.687   5.535   5.434
 7764SOL    HW123596   2.770   5.518   5.479
 7764SOL    HW223597   2.620   5.516   5.499
 7765SOL     OW23598   4.613   7.369   3.921
 7765SOL    HW123599   4.529   7.411   3.905
 7765SOL    HW223600   4.656   7.424   3.987
 7766SOL     OW23601   2.573   0.341   5.686
 7766SOL    HW123602   2.610   0.355   5.599
 7766SOL    HW223603   2.514   0.267   5.676
 7767SOL     OW23604   6.614   0.188   0.524
 7767SOL    HW123605   6.619   0.177   0.619
 7767SOL    HW223606   6.524   0.165   0.502
 7768SOL     OW23607   4.058   6.819   3.103
 7768SOL    HW123608   4.126   6.850   3.164
 7768SOL    HW223609   4.016   6.899   3.072
 7769SOL     OW23610   1.569   0.883   0.711
 7769SOL    HW123611   1.608   0.917   0.792
 7769SOL    HW223612   1.484   0.927   0.705
 7770SOL     OW23613   4.126   1.072   3.335
 7770SOL    HW123614   4.192   1.125   3.379
 7770SOL    HW223615   4.143   0.983   3.366
 7771SOL     OW23616   2.152   1.753   4.356
 7771SOL    HW123617   2.152   1.840   4.316
 7771SOL    HW223618   2.091   1.760   4.430
 7772SOL     OW23619   6.533   5.475   3.648
 7772SOL    HW123620   6.535   5.571   3.645
 7772SOL    HW223621   6.500   5.454   3.735
 7773SOL     OW23622   3.010   4.209   2.745
 7773SOL    HW123623   3.013   4.123   2.704
 7773SOL    HW223624   3.069   4.202   2.820
 7774SOL     OW23625   0.372   1.012   0.628
 7774SOL    HW123626   0.337   0.996   0.540
 7774SOL    HW223627   0.444   0.949   0.636
 7775SOL     OW23628   6.108   2.082   4.989
 7775SOL    HW123629   6.167   2.057   5.060
 7775SOL    HW223630   6.030   2.028   5.003
 7776SOL     OW23631   5.812   2.095   0.357
 7776SOL    HW123632   5.771   2.150   0.423
 7776SOL    HW223633   5.898   2.135   0.342
 7777SOL     OW23634   1.214   0.354   1.238
 7777SOL    HW123635   1.135   0.367   1.290
 7777SOL    HW223636   1.213   0.426   1.175
 7778SOL     OW23637   7.803   2.321   0.181
 7778SOL    HW123638   7.734   2.257   0.200
 7778SOL    HW223639   7.882   2.282   0.218
 7779SOL     OW23640   3.100   2.863   3.399
 7779SOL    HW123641   3.120   2.771   3.417
 7779SOL    HW223642   3.139   2.879   3.313
 7780SOL     OW23643   7.567   4.750   4.428
 7780SOL    HW123644   7.560   4.656   4.412
 7780SOL    HW223645   7.577   4.789   4.341
 7781SOL     OW23646   7.694   7.037   5.446
 7781SOL    HW123647   7.720   6.945   5.437
 7781SOL    HW223648   7.643   7.056   5.367
 7782SOL     OW23649   7.542   7.021   4.583
 7782SOL    HW123650   7.576   6.936   4.557
 7782SOL    HW223651   7.612   7.083   4.562
 7783SOL     OW23652   3.753   1.649   4.877
 7783SOL    HW123653   3.827   1.592   4.898
 7783SOL    HW223654   3.755   1.657   4.782
 7784SOL     OW23655   1.024   0.854   0.346
 7784SOL    HW123656   1.112   0.833   0.379
 7784SOL    HW223657   0.967   0.792   0.391
 7785SOL     OW23658   7.813   3.645   2.823
 7785SOL    HW123659   7.785   3.697   2.748
 7785SOL    HW223660   7.905   3.669   2.836
 7786SOL     OW23661   4.982   7.850   3.935
 7786SOL    HW123662   5.061   7.807   3.967
 7786SOL    HW223663   4.994   7.855   3.840
 7787SOL     OW23664   0.410   5.458   4.842
 7787SOL    HW123665   0.322   5.423   4.856
 7787SOL    HW223666   0.446   5.469   4.930
 7788SOL     OW23667   4.328   6.751   4.037
 7788SOL    HW123668   4.413   6.708   4.038
 7788SOL    HW223669   4.305   6.761   4.129
 7789SOL     OW23670   0.839   0.004   0.456
 7789SOL    HW123671   0.918   0.056   0.438
 7789SOL    HW223672   0.851   8.153   0.406
 7790SOL     OW23673   4.981   3.256   0.774
 7790SOL    HW123674   4.944   3.306   0.701
 7790SOL    HW223675   4.940   3.170   0.767
 7791SOL     OW23676   5.856   2.068   3.483
 7791SOL    HW123677   5.877   2.045   3.574
 7791SOL    HW223678   5.767   2.036   3.470
 7792SOL     OW23679   1.499   0.149   5.499
 7792SOL    HW123680   1.442   0.226   5.494
 7792SOL    HW223681   1.438   0.075   5.507
 7793SOL     OW23682   0.832   7.629   5.108
 7793SOL    HW123683   0.818   7.590   5.194
 7793SOL    HW223684   0.904   7.578   5.070
 7794SOL     OW23685   0.964   2.985   4.757
 7794SOL    HW123686   0.940   3.078   4.752
 7794SOL    HW223687   0.892   2.944   4.804
 7795SOL     OW23688   2.365   0.320   1.085
 7795SOL    HW123689   2.418   0.241   1.094
 7795SOL    HW223690   2.420   0.390   1.121
 7796SOL     OW23691   5.554   3.359   0.512
 7796SOL    HW123692   5.509   3.303   0.449
 7796SOL    HW223693   5.547   3.311   0.595
 7797SOL     OW23694   1.009   1.822   5.096
 7797SOL    HW123695   1.031   1.735   5.062
 7797SOL    HW223696   0.922   1.811   5.135
 7798SOL     OW23697   8.220   3.669   5.441
 7798SOL    HW123698   0.000   3.713   5.525
 7798SOL    HW223699   0.080   3.654   5.411
 7799SOL     OW23700   4.559   0.040   4.833
 7799SOL    HW123701   4.526   0.063   4.920
 7799SOL    HW223702   4.605   8.186   4.846
 7800SOL     OW23703   0.730   3.491   4.712
 7800SOL    HW123704   0.645   3.514   4.675
 7800SOL    HW223705   0.722   3.510   4.805
 7801SOL     OW23706   3.418   7.712   5.192
 7801SOL    HW123707   3.336   7.740   5.233
 7801SOL    HW223708   3.487   7.749   5.248
 7802SOL     OW23709   0.132   6.322   5.729
 7802SOL    HW123710   0.041   6.325   5.699
 7802SOL    HW223711   0.164   6.411   5.715
 7803SOL     OW23712   2.941   0.418   0.854
 7803SOL    HW123713   2.881   0.402   0.927
 7803SOL    HW223714   2.927   0.510   0.832
 7804SOL     OW23715   6.266   1.926   1.079
 7804SOL    HW123716   6.307   1.840   1.084
 7804SOL    HW223717   6.172   1.908   1.082
 7805SOL     OW23718   0.104   1.106   2.453
 7805SOL    HW123719   0.159   1.044   2.405
 7805SOL    HW223720   0.021   1.105   2.406
 7806SOL     OW23721   7.388   7.469   0.408
 7806SOL    HW123722   7.452   7.415   0.455
 7806SOL    HW223723   7.304   7.426   0.424
 7807SOL     OW23724   5.459   3.475   3.833
 7807SOL    HW123725   5.405   3.550   3.808
 7807SOL    HW223726   5.514   3.458   3.757
 7808SOL     OW23727   4.030   3.123   0.390
 7808SOL    HW123728   4.010   3.157   0.303
 7808SOL    HW223729   4.043   3.201   0.443
 7809SOL     OW23730   2.865   6.808   3.181
 7809SOL    HW123731   2.939   6.857   3.217
 7809SOL    HW223732   2.787   6.854   3.213
 7810SOL     OW23733   7.539   3.680   4.457
 7810SOL    HW123734   7.478   3.607   4.459
 7810SOL    HW223735   7.598   3.664   4.530
 7811SOL     OW23736   7.705   8.200   4.407
 7811SOL    HW123737   7.737   8.163   4.325
 7811SOL    HW223738   7.779   0.020   4.442
 7812SOL     OW23739   4.153   1.843   2.256
 7812SOL    HW123740   4.163   1.748   2.262
 7812SOL    HW223741   4.218   1.870   2.192
 7813SOL     OW23742   1.781   7.288   4.612
 7813SOL    HW123743   1.774   7.213   4.553
 7813SOL    HW223744   1.816   7.251   4.693
 7814SOL     OW23745   3.048   2.752   1.867
 7814SOL    HW123746   3.071   2.667   1.904
 7814SOL    HW223747   3.034   2.808   1.943
 7815SOL     OW23748   7.927   5.028   5.141
 7815SOL    HW123749   7.908   4.943   5.100
 7815SOL    HW223750   7.901   5.092   5.075
 7816SOL     OW23751   2.736   6.479   2.506
 7816SOL    HW123752   2.707   6.388   2.497
 7816SOL    HW223753   2.779   6.482   2.592
 7817SOL     OW23754   6.681   5.825   2.975
 7817SOL    HW123755   6.643   5.752   3.023
 7817SOL    HW223756   6.691   5.792   2.886
 7818SOL     OW23757   6.034   0.268   0.684
 7818SOL    HW123758   5.958   0.214   0.706
 7818SOL    HW223759   5.997   0.354   0.663
 7819SOL     OW23760   4.958   4.433   4.531
 7819SOL    HW123761   4.996   4.514   4.566
 7819SOL    HW223762   4.904   4.462   4.457
 7820SOL     OW23763   1.599   4.091   1.996
 7820SOL    HW123764   1.648   4.162   2.037
 7820SOL    HW223765   1.660   4.017   1.994
 7821SOL     OW23766   6.354   7.484   5.365
 7821SOL    HW123767   6.415   7.419   5.400
 7821SOL    HW223768   6.270   7.438   5.360
 7822SOL     OW23769   5.781   5.981   0.242
 7822SOL    HW123770   5.846   5.965   0.174
 7822SOL    HW223771   5.702   5.938   0.210
 7823SOL     OW23772   0.538   3.720   2.183
 7823SOL    HW123773   0.520   3.658   2.112
 7823SOL    HW223774   0.585   3.669   2.249
 7824SOL     OW23775   6.009   5.607   1.934
 7824SOL    HW123776   5.939   5.542   1.929
 7824SOL    HW223777   6.050   5.605   1.847
 7825SOL     OW23778   5.736   1.613   1.452
 7825SOL    HW123779   5.750   1.704   1.479
 7825SOL    HW223780   5.760   1.561   1.529
 7826SOL     OW23781   4.359   8.198   2.953
 7826SOL    HW123782   4.343   8.198   3.047
 7826SOL    HW223783   4.283   0.014   2.916
 7827SOL     OW23784   5.982   2.062   2.613
 7827SOL    HW123785   6.015   2.111   2.538
 7827SOL    HW223786   5.939   2.128   2.668
 7828SOL     OW23787   5.182   6.287   4.369
 7828SOL    HW123788   5.118   6.275   4.299
 7828SOL    HW223789   5.146   6.357   4.424
 7829SOL     OW23790   7.980   3.822   1.765
 7829SOL    HW123791   7.909   3.866   1.812
 7829SOL    HW223792   7.941   3.794   1.682
 7830SOL     OW23793   7.662   8.098   4.697
 7830SOL    HW123794   7.613   8.125   4.619
 7830SOL    HW223795   7.696   8.180   4.734
 7831SOL     OW23796   2.360   2.475   5.746
 7831SOL    HW123797   2.289   2.537   5.729
 7831SOL    HW223798   2.316   2.397   5.780
 7832SOL     OW23799   2.172   1.859   0.903
 7832SOL    HW123800   2.188   1.940   0.854
 7832SOL    HW223801   2.211   1.876   0.989
 7833SOL     OW23802   6.744   7.815   3.307
 7833SOL    HW123803   6.786   7.881   3.362
 7833SOL    HW223804   6.816   7.761   3.275
 7834SOL     OW23805   2.403   7.234   1.745
 7834SOL    HW123806   2.442   7.217   1.831
 7834SOL    HW223807   2.442   7.316   1.716
 7835SOL     OW23808   2.174   0.198   4.615
 7835SOL    HW123809   2.135   0.219   4.530
 7835SOL    HW223810   2.123   0.249   4.678
 7836SOL     OW23811   4.594   0.320   2.042
 7836SOL    HW123812   4.640   0.344   2.122
 7836SOL    HW223813   4.540   0.397   2.021
 7837SOL     OW23814   2.710   4.371   1.561
 7837SOL    HW123815   2.643   4.428   1.523
 7837SOL    HW223816   2.737   4.314   1.489
 7838SOL     OW23817   3.298   4.597   2.378
 7838SOL    HW123818   3.300   4.689   2.406
 7838SOL    HW223819   3.390   4.573   2.371
 7839SOL     OW23820   6.920   1.775   4.326
 7839SOL    HW123821   6.875   1.750   4.246
 7839SOL    HW223822   6.879   1.857   4.353
 7840SOL     OW23823   1.872   2.810   5.529
 7840SOL    HW123824   1.947   2.793   5.472
 7840SOL    HW223825   1.876   2.741   5.595
 7841SOL     OW23826   0.445   5.153   4.905
 7841SOL    HW123827   0.488   5.238   4.917
 7841SOL    HW223828   0.378   5.151   4.973
 7842SOL     OW23829   1.400   3.098   3.226
 7842SOL    HW123830   1.476   3.144   3.191
 7842SOL    HW223831   1.357   3.061   3.149
 7843SOL     OW23832   7.258   3.843   1.034
 7843SOL    HW123833   7.262   3.905   0.961
 7843SOL    HW223834   7.168   3.850   1.066
 7844SOL     OW23835   7.216   7.130   0.393
 7844SOL    HW123836   7.154   7.162   0.328
 7844SOL    HW223837   7.301   7.135   0.349
 7845SOL     OW23838   1.139   4.262   5.105
 7845SOL    HW123839   1.113   4.171   5.117
 7845SOL    HW223840   1.057   4.310   5.095
 7846SOL     OW23841   3.459   1.246   0.627
 7846SOL    HW123842   3.426   1.164   0.590
 7846SOL    HW223843   3.413   1.255   0.710
 7847SOL     OW23844   2.452   5.883   4.829
 7847SOL    HW123845   2.481   5.813   4.887
 7847SOL    HW223846   2.378   5.845   4.781
 7848SOL     OW23847   2.666   0.519   4.334
 7848SOL    HW123848   2.644   0.611   4.351
 7848SOL    HW223849   2.747   0.523   4.284
 7849SOL     OW23850   3.112   2.492   4.035
 7849SOL    HW123851   3.017   2.489   4.042
 7849SOL    HW223852   3.136   2.581   4.060
 7850SOL     OW23853   2.852   7.196   0.760
 7850SOL    HW123854   2.888   7.136   0.695
 7850SOL    HW223855   2.921   7.260   0.775
 7851SOL     OW23856   3.268   2.816   2.128
 7851SOL    HW123857   3.277   2.874   2.053
 7851SOL    HW223858   3.300   2.731   2.097
 7852SOL     OW23859   8.105   5.739   0.078
 7852SOL    HW123860   8.191   5.752   0.119
 7852SOL    HW223861   8.058   5.681   0.138
 7853SOL     OW23862   6.780   4.097   2.622
 7853SOL    HW123863   6.810   4.086   2.712
 7853SOL    HW223864   6.854   4.137   2.577
 7854SOL     OW23865   1.361   4.598   5.687
 7854SOL    HW123866   1.273   4.601   5.649
 7854SOL    HW223867   1.353   4.644   5.770
 7855SOL     OW23868   1.121   2.711   0.792
 7855SOL    HW123869   1.123   2.669   0.878
 7855SOL    HW223870   1.028   2.712   0.768
 7856SOL     OW23871   4.028   2.950   5.023
 7856SOL    HW123872   4.083   2.895   4.968
 7856SOL    HW223873   4.058   2.932   5.112
 7857SOL     OW23874   3.693   6.914   3.451
 7857SOL    HW123875   3.645   6.933   3.532
 7857SOL    HW223876   3.779   6.953   3.465
 7858SOL     OW23877   1.501   5.758   0.502
 7858SOL    HW123878   1.525   5.819   0.433
 7858SOL    HW223879   1.408   5.775   0.517
 7859SOL     OW23880   1.035   4.806   1.330
 7859SOL    HW123881   1.001   4.743   1.394
 7859SOL    HW223882   0.994   4.889   1.354
 7860SOL     OW23883   3.876   6.537   1.697
 7860SOL    HW123884   3.918   6.621   1.680
 7860SOL    HW223885   3.783   6.553   1.682
 7861SOL     OW23886   0.051   2.460   0.249
 7861SOL    HW123887   0.022   2.440   0.160
 7861SOL    HW223888   0.031   2.553   0.261
 7862SOL     OW23889   0.211   3.278   3.205
 7862SOL    HW123890   0.298   3.293   3.242
 7862SOL    HW223891   0.214   3.321   3.119
 7863SOL     OW23892   8.163   4.141   3.124
 7863SOL    HW123893   8.178   4.119   3.216
 7863SOL    HW223894   0.021   4.142   3.085
 7864SOL     OW23895   1.704   3.433   0.699
 7864SOL    HW123896   1.759   3.499   0.742
 7864SOL    HW223897   1.626   3.427   0.754
 7865SOL     OW23898   3.980   5.340   3.389
 7865SOL    HW123899   3.974   5.263   3.332
 7865SOL    HW223900   4.073   5.345   3.412
 7866SOL     OW23901   6.157   7.369   3.591
 7866SOL    HW123902   6.089   7.316   3.549
 7866SOL    HW223903   6.239   7.335   3.555
 7867SOL     OW23904   0.249   2.806   5.783
 7867SOL    HW123905   0.164   2.844   5.762
 7867SOL    HW223906   0.229   2.716   5.808
 7868SOL     OW23907   6.352   0.038   0.489
 7868SOL    HW123908   6.354   0.041   0.585
 7868SOL    HW223909   6.325   8.178   0.469
 7869SOL     OW23910   5.543   4.344   1.519
 7869SOL    HW123911   5.528   4.435   1.494
 7869SOL    HW223912   5.637   4.331   1.507
 7870SOL     OW23913   6.078   5.909   3.775
 7870SOL    HW123914   6.138   5.977   3.804
 7870SOL    HW223915   6.093   5.836   3.835
 7871SOL     OW23916   5.323   4.754   1.834
 7871SOL    HW123917   5.267   4.803   1.773
 7871SOL    HW223918   5.320   4.664   1.802
 7872SOL     OW23919   3.496   4.606   3.103
 7872SOL    HW123920   3.503   4.525   3.053
 7872SOL    HW223921   3.491   4.577   3.194
 7873SOL     OW23922   0.273   6.548   4.464
 7873SOL    HW123923   0.211   6.616   4.437
 7873SOL    HW223924   0.349   6.596   4.497
 7874SOL     OW23925   1.803   4.344   1.971
 7874SOL    HW123926   1.761   4.335   2.057
 7874SOL    HW223927   1.893   4.370   1.991
 7875SOL     OW23928   5.553   2.307   3.511
 7875SOL    HW123929   5.581   2.293   3.421
 7875SOL    HW223930   5.551   2.219   3.550
 7876SOL     OW23931   5.293   2.486   4.103
 7876SOL    HW123932   5.232   2.558   4.087
 7876SOL    HW223933   5.281   2.427   4.029
 7877SOL     OW23934   0.469   4.619   4.780
 7877SOL    HW123935   0.564   4.624   4.787
 7877SOL    HW223936   0.438   4.695   4.829
 7878SOL     OW23937   5.893   2.318   3.624
 7878SOL    HW123938   5.871   2.233   3.587
 7878SOL    HW223939   5.860   2.314   3.714
 7879SOL     OW23940   1.038   4.470   1.435
 7879SOL    HW123941   1.082   4.399   1.483
 7879SOL    HW223942   1.081   4.550   1.466
 7880SOL     OW23943   5.353   8.006   2.112
 7880SOL    HW123944   5.408   8.042   2.043
 7880SOL    HW223945   5.332   7.917   2.083
 7881SOL     OW23946   0.837   2.027   1.051
 7881SOL    HW123947   0.818   2.112   1.011
 7881SOL    HW223948   0.929   2.011   1.031
 7882SOL     OW23949   4.902   0.002   2.860
 7882SOL    HW123950   4.841   0.049   2.802
 7882SOL    HW223951   4.846   8.193   2.928
 7883SOL     OW23952   2.900   4.351   4.174
 7883SOL    HW123953   2.939   4.352   4.087
 7883SOL    HW223954   2.858   4.265   4.181
 7884SOL     OW23955   7.314   3.958   0.081
 7884SOL    HW123956   7.397   3.967   0.128
 7884SOL    HW223957   7.248   3.995   0.140
 7885SOL     OW23958   0.139   5.843   5.314
 7885SOL    HW123959   0.220   5.792   5.321
 7885SOL    HW223960   0.163   5.929   5.348
 7886SOL     OW23961   7.674   4.949   4.186
 7886SOL    HW123962   7.760   4.908   4.196
 7886SOL    HW223963   7.693   5.038   4.158
 7887SOL     OW23964   5.531   1.864   4.342
 7887SOL    HW123965   5.522   1.945   4.392
 7887SOL    HW223966   5.573   1.803   4.403
 7888SOL     OW23967   0.060   6.424   1.549
 7888SOL    HW123968   0.087   6.458   1.464
 7888SOL    HW223969   8.195   6.438   1.552
 7889SOL     OW23970   2.256   1.723   2.873
 7889SOL    HW123971   2.269   1.816   2.853
 7889SOL    HW223972   2.284   1.714   2.964
 7890SOL     OW23973   6.324   0.583   2.368
 7890SOL    HW123974   6.240   0.618   2.339
 7890SOL    HW223975   6.302   0.503   2.415
 7891SOL     OW23976   4.157   0.910   2.693
 7891SOL    HW123977   4.229   0.851   2.671
 7891SOL    HW223978   4.138   0.890   2.785
 7892SOL     OW23979   0.478   2.620   3.723
 7892SOL    HW123980   0.569   2.626   3.692
 7892SOL    HW223981   0.428   2.594   3.645
 7893SOL     OW23982   6.410   6.710   4.863
 7893SOL    HW123983   6.464   6.730   4.787
 7893SOL    HW223984   6.323   6.742   4.839
 7894SOL     OW23985   3.544   6.537   0.838
 7894SOL    HW123986   3.568   6.553   0.747
 7894SOL    HW223987   3.537   6.624   0.876
 7895SOL     OW23988   7.874   4.476   1.665
 7895SOL    HW123989   7.911   4.388   1.676
 7895SOL    HW223990   7.934   4.520   1.604
 7896SOL     OW23991   5.718   2.031   1.800
 7896SOL    HW123992   5.767   2.074   1.870
 7896SOL    HW223993   5.665   1.966   1.845
 7897SOL     OW23994   4.192   2.526   3.256
 7897SOL    HW123995   4.136   2.449   3.246
 7897SOL    HW223996   4.234   2.537   3.171
 7898SOL     OW23997   0.101   6.525   1.303
 7898SOL    HW123998   0.040   6.585   1.260
 7898SOL    HW223999   0.157   6.493   1.233
 7899SOL     OW24000   5.521   7.294   1.456
 7899SOL    HW124001   5.591   7.228   1.458
 7899SOL    HW224002   5.557   7.369   1.502
 7900SOL     OW24003   1.453   2.963   1.612
 7900SOL    HW124004   1.359   2.962   1.630
 7900SOL    HW224005   1.467   2.893   1.549
 7901SOL     OW24006   0.386   1.792   0.815
 7901SOL    HW124007   0.433   1.835   0.887
 7901SOL    HW224008   0.416   1.838   0.737
 7902SOL     OW24009   1.933   1.461   4.947
 7902SOL    HW124010   2.004   1.517   4.916
 7902SOL    HW224011   1.959   1.373   4.920
 7903SOL     OW24012   1.161   0.884   4.046
 7903SOL    HW124013   1.113   0.841   4.117
 7903SOL    HW224014   1.151   0.978   4.063
 7904SOL     OW24015   7.359   4.899   2.797
 7904SOL    HW124016   7.398   4.855   2.872
 7904SOL    HW224017   7.266   4.906   2.818
 7905SOL     OW24018   5.521   3.739   2.636
 7905SOL    HW124019   5.597   3.728   2.693
 7905SOL    HW224020   5.496   3.650   2.612
 7906SOL     OW24021   8.069   0.007   1.942
 7906SOL    HW124022   8.132   0.078   1.955
 7906SOL    HW224023   8.112   8.159   1.979
 7907SOL     OW24024   3.284   8.161   3.582
 7907SOL    HW124025   3.322   8.082   3.621
 7907SOL    HW224026   3.356   8.199   3.531
 7908SOL     OW24027   2.809   6.632   0.410
 7908SOL    HW124028   2.825   6.641   0.316
 7908SOL    HW224029   2.717   6.655   0.421
 7909SOL     OW24030   4.602   2.746   3.247
 7909SOL    HW124031   4.594   2.811   3.177
 7909SOL    HW224032   4.549   2.780   3.319
 7910SOL     OW24033   1.232   1.255   4.380
 7910SOL    HW124034   1.235   1.337   4.430
 7910SOL    HW224035   1.257   1.280   4.291
 7911SOL     OW24036   7.503   7.412   0.837
 7911SOL    HW124037   7.539   7.426   0.925
 7911SOL    HW224038   7.455   7.493   0.818
 7912SOL     OW24039   4.863   7.230   3.907
 7912SOL    HW124040   4.853   7.158   3.844
 7912SOL    HW224041   4.774   7.265   3.918
 7913SOL     OW24042   8.195   3.062   3.944
 7913SOL    HW124043   8.171   3.144   3.987
 7913SOL    HW224044   8.157   2.994   4.000
 7914SOL     OW24045   1.351   1.615   2.579
 7914SOL    HW124046   1.413   1.624   2.506
 7914SOL    HW224047   1.393   1.660   2.652
 7915SOL     OW24048   2.295   5.647   1.685
 7915SOL    HW124049   2.223   5.584   1.677
 7915SOL    HW224050   2.333   5.629   1.771
 7916SOL     OW24051   7.924   7.963   4.940
 7916SOL    HW124052   8.002   7.941   4.991
 7916SOL    HW224053   7.876   8.025   4.995
 7917SOL     OW24054   3.340   3.345   2.418
 7917SOL    HW124055   3.303   3.378   2.500
 7917SOL    HW224056   3.402   3.277   2.445
 7918SOL     OW24057   1.487   0.372   5.123
 7918SOL    HW124058   1.574   0.388   5.086
 7918SOL    HW224059   1.475   0.443   5.187
 7919SOL     OW24060   1.429   3.161   0.953
 7919SOL    HW124061   1.521   3.153   0.979
 7919SOL    HW224062   1.390   3.215   1.022
 7920SOL     OW24063   3.887   1.405   0.138
 7920SOL    HW124064   3.831   1.482   0.130
 7920SOL    HW224065   3.974   1.436   0.114
 7921SOL     OW24066   0.875   7.527   0.017
 7921SOL    HW124067   0.826   7.609   0.010
 7921SOL    HW224068   0.851   7.492   0.103
 7922SOL     OW24069   4.809   2.962   1.905
 7922SOL    HW124070   4.743   3.028   1.884
 7922SOL    HW224071   4.761   2.895   1.954
 7923SOL     OW24072   7.790   3.202   4.845
 7923SOL    HW124073   7.770   3.108   4.846
 7923SOL    HW224074   7.772   3.229   4.755
 7924SOL     OW24075   4.131   1.676   2.656
 7924SOL    HW124076   4.121   1.594   2.608
 7924SOL    HW224077   4.223   1.700   2.644
 7925SOL     OW24078   1.582   5.761   3.427
 7925SOL    HW124079   1.637   5.826   3.470
 7925SOL    HW224080   1.584   5.785   3.334
 7926SOL     OW24081   3.832   5.593   5.729
 7926SOL    HW124082   3.861   5.505   5.752
 7926SOL    HW224083   3.901   5.650   5.762
 7927SOL     OW24084   4.978   4.565   3.001
 7927SOL    HW124085   4.958   4.597   2.913
 7927SOL    HW224086   4.951   4.636   3.059
 7928SOL     OW24087   5.382   0.890   5.271
 7928SOL    HW124088   5.398   0.857   5.359
 7928SOL    HW224089   5.469   0.914   5.238
 7929SOL     OW24090   0.292   6.630   0.537
 7929SOL    HW124091   0.377   6.609   0.575
 7929SOL    HW224092   0.249   6.545   0.528
 7930SOL     OW24093   4.380   3.574   5.377
 7930SOL    HW124094   4.380   3.485   5.413
 7930SOL    HW224095   4.305   3.575   5.317
 7931SOL     OW24096   8.177   0.984   3.876
 7931SOL    HW124097   8.195   0.894   3.849
 7931SOL    HW224098   8.192   0.984   3.970
 7932SOL     OW24099   3.132   5.343   0.233
 7932SOL    HW124100   3.173   5.428   0.216
 7932SOL    HW224101   3.146   5.329   0.327
 7933SOL     OW24102   6.231   4.741   3.359
 7933SOL    HW124103   6.315   4.697   3.344
 7933SOL    HW224104   6.218   4.795   3.281
 7934SOL     OW24105   1.215   7.366   4.632
 7934SOL    HW124106   1.154   7.307   4.676
 7934SOL    HW224107   1.250   7.315   4.559
 7935SOL     OW24108   0.544   1.476   1.466
 7935SOL    HW124109   0.507   1.503   1.382
 7935SOL    HW224110   0.639   1.484   1.454
 7936SOL     OW24111   0.087   0.476   0.030
 7936SOL    HW124112   0.039   0.430   0.099
 7936SOL    HW224113   0.171   0.500   0.070
 7937SOL     OW24114   2.220   1.157   1.386
 7937SOL    HW124115   2.299   1.203   1.357
 7937SOL    HW224116   2.239   1.131   1.476
 7938SOL     OW24117   1.959   3.803   2.140
 7938SOL    HW124118   1.891   3.786   2.205
 7938SOL    HW224119   2.029   3.742   2.163
 7939SOL     OW24120   4.691   6.847   3.537
 7939SOL    HW124121   4.633   6.922   3.523
 7939SOL    HW224122   4.634   6.779   3.573
 7940SOL     OW24123   0.287   1.604   0.523
 7940SOL    HW124124   0.260   1.607   0.431
 7940SOL    HW224125   0.211   1.636   0.572
 7941SOL     OW24126   1.531   8.129   2.025
 7941SOL    HW124127   1.507   8.221   2.016
 7941SOL    HW224128   1.462   8.092   2.079
 7942SOL     OW24129   5.522   2.849   3.260
 7942SOL    HW124130   5.589   2.867   3.194
 7942SOL    HW224131   5.561   2.781   3.315
 7943SOL     OW24132   6.939   5.791   0.173
 7943SOL    HW124133   6.854   5.832   0.159
 7943SOL    HW224134   6.995   5.829   0.105
 7944SOL     OW24135   1.558   1.826   1.298
 7944SOL    HW124136   1.635   1.811   1.352
 7944SOL    HW224137   1.593   1.846   1.211
 7945SOL     OW24138   2.871   1.777   5.082
 7945SOL    HW124139   2.867   1.873   5.088
 7945SOL    HW224140   2.895   1.759   4.991
 7946SOL     OW24141   4.728   7.945   3.979
 7946SOL    HW124142   4.760   8.031   3.951
 7946SOL    HW224143   4.804   7.888   3.972
 7947SOL     OW24144   3.959   6.084   4.957
 7947SOL    HW124145   3.898   6.156   4.943
 7947SOL    HW224146   4.023   6.119   5.019
 7948SOL     OW24147   0.369   0.456   0.143
 7948SOL    HW124148   0.435   0.449   0.074
 7948SOL    HW224149   0.382   0.543   0.180
 7949SOL     OW24150   0.749   0.939   4.044
 7949SOL    HW124151   0.699   0.858   4.035
 7949SOL    HW224152   0.754   0.974   3.955
 7950SOL     OW24153   1.308   0.369   4.564
 7950SOL    HW124154   1.301   0.456   4.526
 7950SOL    HW224155   1.252   0.314   4.510
 7951SOL     OW24156   5.219   2.568   1.611
 7951SOL    HW124157   5.244   2.588   1.521
 7951SOL    HW224158   5.222   2.472   1.616
 7952SOL     OW24159   0.854   5.768   4.145
 7952SOL    HW124160   0.873   5.764   4.051
 7952SOL    HW224161   0.834   5.678   4.170
 7953SOL     OW24162   4.004   0.443   4.674
 7953SOL    HW124163   4.022   0.365   4.622
 7953SOL    HW224164   4.032   0.516   4.619
 7954SOL     OW24165   7.748   7.208   2.680
 7954SOL    HW124166   7.843   7.218   2.671
 7954SOL    HW224167   7.736   7.116   2.705
 7955SOL     OW24168   2.483   2.891   2.036
 7955SOL    HW124169   2.521   2.923   2.118
 7955SOL    HW224170   2.504   2.798   2.035
 7956SOL     OW24171   7.528   7.764   1.794
 7956SOL    HW124172   7.576   7.721   1.865
 7956SOL    HW224173   7.456   7.704   1.774
 7957SOL     OW24174   1.059   1.742   0.750
 7957SOL    HW124175   1.052   1.730   0.845
 7957SOL    HW224176   0.977   1.785   0.726
 7958SOL     OW24177   6.371   5.344   2.206
 7958SOL    HW124178   6.384   5.361   2.113
 7958SOL    HW224179   6.399   5.425   2.249
 7959SOL     OW24180   5.366   1.193   2.073
 7959SOL    HW124181   5.299   1.222   2.011
 7959SOL    HW224182   5.372   1.099   2.059
 7960SOL     OW24183   6.117   7.806   0.713
 7960SOL    HW124184   6.091   7.865   0.784
 7960SOL    HW224185   6.126   7.721   0.755
 7961SOL     OW24186   3.499   2.907   3.868
 7961SOL    HW124187   3.432   2.871   3.810
 7961SOL    HW224188   3.580   2.903   3.816
 7962SOL     OW24189   3.001   1.392   4.394
 7962SOL    HW124190   2.928   1.428   4.444
 7962SOL    HW224191   3.078   1.416   4.445
 7963SOL     OW24192   1.848   4.372   2.342
 7963SOL    HW124193   1.772   4.357   2.285
 7963SOL    HW224194   1.856   4.467   2.346
 7964SOL     OW24195   5.538   8.031   0.456
 7964SOL    HW124196   5.462   7.996   0.503
 7964SOL    HW224197   5.570   7.958   0.404
 7965SOL     OW24198   5.415   3.467   2.582
 7965SOL    HW124199   5.400   3.376   2.559
 7965SOL    HW224200   5.349   3.516   2.534
 7966SOL     OW24201   2.408   4.281   1.218
 7966SOL    HW124202   2.400   4.203   1.272
 7966SOL    HW224203   2.335   4.275   1.156
 7967SOL     OW24204   5.760   4.230   3.131
 7967SOL    HW124205   5.710   4.259   3.207
 7967SOL    HW224206   5.708   4.258   3.056
 7968SOL     OW24207   8.005   4.169   2.513
 7968SOL    HW124208   8.030   4.225   2.587
 7968SOL    HW224209   8.072   4.186   2.446
 7969SOL     OW24210   2.599   4.385   2.312
 7969SOL    HW124211   2.641   4.390   2.398
 7969SOL    HW224212   2.512   4.421   2.326
 7970SOL     OW24213   0.305   7.867   1.699
 7970SOL    HW124214   0.324   7.784   1.655
 7970SOL    HW224215   0.252   7.917   1.636
 7971SOL     OW24216   1.722   5.088   4.985
 7971SOL    HW124217   1.771   5.136   5.052
 7971SOL    HW224218   1.700   5.154   4.919
 7972SOL     OW24219   4.839   2.007   4.035
 7972SOL    HW124220   4.851   2.043   3.947
 7972SOL    HW224221   4.912   1.947   4.047
 7973SOL     OW24222   2.569   7.033   5.804
 7973SOL    HW124223   2.585   7.025   5.710
 7973SOL    HW224224   6.744   2.855   0.025
 7974SOL     OW24225   2.103   5.572   0.276
 7974SOL    HW124226   2.197   5.565   0.294
 7974SOL    HW224227   2.098   5.578   0.181
 7975SOL     OW24228   3.343   2.050   2.189
 7975SOL    HW124229   3.350   1.971   2.136
 7975SOL    HW224230   3.429   2.092   2.181
 7976SOL     OW24231   0.316   8.215   0.287
 7976SOL    HW124232   0.349   0.075   0.296
 7976SOL    HW224233   0.384   8.161   0.328
 7977SOL     OW24234   6.050   6.199   4.975
 7977SOL    HW124235   6.113   6.187   4.904
 7977SOL    HW224236   6.060   6.120   5.029
 7978SOL     OW24237   7.858   3.046   1.239
 7978SOL    HW124238   7.876   2.953   1.228
 7978SOL    HW224239   7.790   3.065   1.174
 7979SOL     OW24240   4.851   6.663   1.319
 7979SOL    HW124241   4.774   6.640   1.371
 7979SOL    HW224242   4.822   6.734   1.262
 7980SOL     OW24243   1.371   1.960   0.172
 7980SOL    HW124244   1.355   1.926   0.260
 7980SOL    HW224245   1.285   1.986   0.140
 7981SOL     OW24246   0.703   6.607   3.007
 7981SOL    HW124247   0.730   6.525   3.049
 7981SOL    HW224248   0.630   6.582   2.951
 7982SOL     OW24249   7.823   2.382   0.737
 7982SOL    HW124250   7.744   2.433   0.720
 7982SOL    HW224251   7.801   2.327   0.812
 7983SOL     OW24252   5.684   1.976   0.743
 7983SOL    HW124253   5.620   2.028   0.792
 7983SOL    HW224254   5.706   1.903   0.801
 7984SOL     OW24255   1.604   7.080   4.879
 7984SOL    HW124256   1.587   7.172   4.857
 7984SOL    HW224257   1.519   7.037   4.868
 7985SOL     OW24258   8.151   7.819   1.546
 7985SOL    HW124259   8.103   7.885   1.495
 7985SOL    HW224260   8.108   7.736   1.525
 7986SOL     OW24261   0.918   5.725   3.106
 7986SOL    HW124262   0.846   5.771   3.148
 7986SOL    HW224263   0.887   5.709   3.017
 7987SOL     OW24264   6.117   7.798   5.558
 7987SOL    HW124265   6.023   7.789   5.541
 7987SOL    HW224266   6.143   7.874   5.506
 7988SOL     OW24267   0.751   7.776   2.739
 7988SOL    HW124268   0.841   7.750   2.758
 7988SOL    HW224269   0.710   7.785   2.825
 7989SOL     OW24270   5.874   6.662   3.511
 7989SOL    HW124271   5.785   6.696   3.498
 7989SOL    HW224272   5.931   6.730   3.476
 7990SOL     OW24273   6.456   6.424   4.689
 7990SOL    HW124274   6.519   6.494   4.671
 7990SOL    HW224275   6.465   6.365   4.614
 7991SOL     OW24276   1.461   7.232   2.589
 7991SOL    HW124277   1.419   7.258   2.671
 7991SOL    HW224278   1.516   7.307   2.566
 7992SOL     OW24279   1.265   2.721   4.729
 7992SOL    HW124280   1.313   2.730   4.647
 7992SOL    HW224281   1.271   2.628   4.750
 7993SOL     OW24282   7.423   8.215   1.312
 7993SOL    HW124283   7.358   0.030   1.258
 7993SOL    HW224284   7.383   8.210   1.399
 7994SOL     OW24285   0.908   8.060   0.027
 7994SOL    HW124286   5.086   3.921   5.779
 7994SOL    HW224287   0.840   7.993   0.021
 7995SOL     OW24288   3.358   2.723   5.520
 7995SOL    HW124289   3.341   2.691   5.432
 7995SOL    HW224290   3.395   2.810   5.507
 7996SOL     OW24291   0.100   6.430   4.998
 7996SOL    HW124292   0.104   6.335   5.006
 7996SOL    HW224293   0.148   6.449   4.917
 7997SOL     OW24294   2.849   4.560   0.087
 7997SOL    HW124295   2.932   4.512   0.084
 7997SOL    HW224296   2.854   4.620   0.013
 7998SOL     OW24297   7.246   7.726   0.396
 7998SOL    HW124298   7.318   7.789   0.393
 7998SOL    HW224299   7.169   7.779   0.415
 7999SOL     OW24300   0.871   3.823   2.382
 7999SOL    HW124301   0.813   3.784   2.317
 7999SOL    HW224302   0.912   3.897   2.337
 8000SOL     OW24303   1.300   6.641   0.545
 8000SOL    HW124304   1.334   6.591   0.619
 8000SOL    HW224305   1.207   6.654   0.565
 8001SOL     OW24306   7.111   3.420   4.350
 8001SOL    HW124307   7.199   3.386   4.333
 8001SOL    HW224308   7.126   3.507   4.387
 8002SOL     OW24309   7.633   5.761   1.278
 8002SOL    HW124310   7.610   5.775   1.186
 8002SOL    HW224311   7.613   5.669   1.294
 8003SOL     OW24312   2.278   2.882   1.136
 8003SOL    HW124313   2.343   2.944   1.105
 8003SOL    HW224314   2.249   2.836   1.057
 8004SOL     OW24315   5.190   1.485   3.813
 8004SOL    HW124316   5.117   1.537   3.779
 8004SOL    HW224317   5.151   1.400   3.834
 8005SOL     OW24318   1.302   3.808   1.541
 8005SOL    HW124319   1.308   3.811   1.636
 8005SOL    HW224320   1.229   3.866   1.519
 8006SOL     OW24321   6.661   3.522   3.480
 8006SOL    HW124322   6.600   3.488   3.415
 8006SOL    HW224323   6.690   3.445   3.528
 8007SOL     OW24324   1.692   2.067   5.617
 8007SOL    HW124325   1.644   2.129   5.672
 8007SOL    HW224326   1.644   2.065   5.535
 8008SOL     OW24327   8.038   3.838   2.575
 8008SOL    HW124328   8.062   3.926   2.547
 8008SOL    HW224329   7.949   3.825   2.542
 8009SOL     OW24330   1.918   0.364   0.178
 8009SOL    HW124331   1.942   0.436   0.236
 8009SOL    HW224332   1.990   0.359   0.115
 8010SOL     OW24333   0.153   3.375   1.699
 8010SOL    HW124334   0.060   3.391   1.681
 8010SOL    HW224335   0.197   3.394   1.616
 8011SOL     OW24336   8.000   3.085   2.319
 8011SOL    HW124337   8.032   3.157   2.264
 8011SOL    HW224338   7.964   3.128   2.396
 8012SOL     OW24339   7.155   6.346   3.305
 8012SOL    HW124340   7.196   6.339   3.219
 8012SOL    HW224341   7.221   6.389   3.359
 8013SOL     OW24342   2.900   3.714   4.602
 8013SOL    HW124343   2.870   3.776   4.668
 8013SOL    HW224344   2.922   3.635   4.651
 8014SOL     OW24345   0.894   0.381   4.281
 8014SOL    HW124346   0.919   0.309   4.223
 8014SOL    HW224347   0.799   0.385   4.274
 8015SOL     OW24348   1.297   6.632   0.262
 8015SOL    HW124349   1.203   6.650   0.265
 8015SOL    HW224350   1.326   6.638   0.353
 8016SOL     OW24351   1.108   5.218   0.519
 8016SOL    HW124352   1.103   5.197   0.426
 8016SOL    HW224353   1.201   5.211   0.541
 8017SOL     OW24354   0.300   7.901   2.835
 8017SOL    HW124355   0.248   7.883   2.914
 8017SOL    HW224356   0.293   7.996   2.823
 8018SOL     OW24357   7.552   4.212   3.786
 8018SOL    HW124358   7.477   4.259   3.821
 8018SOL    HW224359   7.590   4.167   3.861
 8019SOL     OW24360   1.926   2.323   1.958
 8019SOL    HW124361   1.973   2.359   1.883
 8019SOL    HW224362   1.845   2.374   1.962
 8020SOL     OW24363   3.246   3.042   3.577
 8020SOL    HW124364   3.235   2.969   3.516
 8020SOL    HW224365   3.173   3.033   3.638
 8021SOL     OW24366   5.531   5.745   1.428
 8021SOL    HW124367   5.544   5.792   1.346
 8021SOL    HW224368   5.529   5.653   1.402
 8022SOL     OW24369   6.872   1.066   0.594
 8022SOL    HW124370   6.815   1.082   0.519
 8022SOL    HW224371   6.961   1.070   0.558
 8023SOL     OW24372   7.526   0.187   3.912
 8023SOL    HW124373   7.526   0.109   3.856
 8023SOL    HW224374   7.442   0.184   3.957
 8024SOL     OW24375   0.953   6.609   5.344
 8024SOL    HW124376   0.948   6.534   5.285
 8024SOL    HW224377   0.866   6.649   5.340
 8025SOL     OW24378   4.549   4.161   4.506
 8025SOL    HW124379   4.485   4.194   4.443
 8025SOL    HW224380   4.633   4.194   4.475
 8026SOL     OW24381   5.101   1.868   3.499
 8026SOL    HW124382   5.178   1.822   3.533
 8026SOL    HW224383   5.116   1.960   3.522
 8027SOL     OW24384   2.288   2.920   1.401
 8027SOL    HW124385   2.359   2.983   1.394
 8027SOL    HW224386   2.251   2.916   1.313
 8028SOL     OW24387   1.320   3.579   3.676
 8028SOL    HW124388   1.289   3.569   3.766
 8028SOL    HW224389   1.329   3.674   3.664
 8029SOL     OW24390   1.733   1.996   2.024
 8029SOL    HW124391   1.732   1.911   1.980
 8029SOL    HW224392   1.818   2.034   2.002
 8030SOL     OW24393   3.258   2.939   2.390
 8030SOL    HW124394   3.255   2.914   2.298
 8030SOL    HW224395   3.283   2.859   2.436
 8031SOL     OW24396   2.943   3.865   0.647
 8031SOL    HW124397   2.996   3.924   0.700
 8031SOL    HW224398   2.996   3.785   0.640
 8032SOL     OW24399   7.250   1.008   2.720
 8032SOL    HW124400   7.305   1.029   2.795
 8032SOL    HW224401   7.275   0.919   2.695
 8033SOL     OW24402   0.845   3.978   0.690
 8033SOL    HW124403   0.908   3.945   0.626
 8033SOL    HW224404   0.785   3.905   0.704
 8034SOL     OW24405   0.610   6.932   3.637
 8034SOL    HW124406   0.645   6.963   3.554
 8034SOL    HW224407   0.527   6.890   3.614
 8035SOL     OW24408   1.014   3.409   3.325
 8035SOL    HW124409   1.104   3.390   3.352
 8035SOL    HW224410   0.960   3.349   3.376
 8036SOL     OW24411   5.812   7.323   4.822
 8036SOL    HW124412   5.882   7.348   4.761
 8036SOL    HW224413   5.736   7.374   4.793
 8037SOL     OW24414   3.438   4.870   5.432
 8037SOL    HW124415   3.436   4.821   5.350
 8037SOL    HW224416   3.346   4.890   5.451
 8038SOL     OW24417   5.911   2.295   5.097
 8038SOL    HW124418   5.857   2.336   5.029
 8038SOL    HW224419   5.886   2.203   5.095
 8039SOL     OW24420   4.512   1.211   5.785
 8039SOL    HW124421   4.554   1.130   5.755
 8039SOL    HW224422   0.468   5.376   0.007
 8040SOL     OW24423   2.468   3.697   4.750
 8040SOL    HW124424   2.436   3.761   4.686
 8040SOL    HW224425   2.488   3.749   4.828
 8041SOL     OW24426   2.980   5.071   3.856
 8041SOL    HW124427   2.999   4.978   3.864
 8041SOL    HW224428   2.953   5.083   3.765
 8042SOL     OW24429   1.050   3.292   4.597
 8042SOL    HW124430   0.963   3.279   4.634
 8042SOL    HW224431   1.036   3.288   4.502
 8043SOL     OW24432   2.584   2.970   0.695
 8043SOL    HW124433   2.644   2.994   0.624
 8043SOL    HW224434   2.497   2.981   0.657
 8044SOL     OW24435   4.265   1.964   4.505
 8044SOL    HW124436   4.317   1.886   4.486
 8044SOL    HW224437   4.330   2.033   4.518
 8045SOL     OW24438   0.579   0.596   4.589
 8045SOL    HW124439   0.535   0.520   4.627
 8045SOL    HW224440   0.660   0.604   4.639
 8046SOL     OW24441   6.736   5.712   5.779
 8046SOL    HW124442   6.830   5.704   5.766
 8046SOL    HW224443   2.604   1.549   0.041
 8047SOL     OW24444   4.538   3.269   0.281
 8047SOL    HW124445   4.596   3.216   0.335
 8047SOL    HW224446   4.481   3.314   0.344
 8048SOL     OW24447   7.386   7.320   3.380
 8048SOL    HW124448   7.350   7.253   3.322
 8048SOL    HW224449   7.440   7.271   3.442
 8049SOL     OW24450   7.468   3.451   1.503
 8049SOL    HW124451   7.426   3.388   1.445
 8049SOL    HW224452   7.427   3.535   1.482
 8050SOL     OW24453   0.809   5.644   2.128
 8050SOL    HW124454   0.756   5.574   2.089
 8050SOL    HW224455   0.746   5.713   2.150
 8051SOL     OW24456   3.753   0.340   3.941
 8051SOL    HW124457   3.687   0.282   3.904
 8051SOL    HW224458   3.774   0.401   3.870
 8052SOL     OW24459   5.073   3.335   4.824
 8052SOL    HW124460   4.999   3.283   4.794
 8052SOL    HW224461   5.076   3.409   4.763
 8053SOL     OW24462   1.060   7.464   5.802
 8053SOL    HW124463   5.138   3.303   0.058
 8053SOL    HW224464   1.054   7.402   5.730
 8054SOL     OW24465   7.350   1.686   1.777
 8054SOL    HW124466   7.424   1.626   1.785
 8054SOL    HW224467   7.299   1.653   1.703
 8055SOL     OW24468   7.791   2.168   0.900
 8055SOL    HW124469   7.712   2.119   0.875
 8055SOL    HW224470   7.827   2.119   0.974
 8056SOL     OW24471   3.795   6.730   4.620
 8056SOL    HW124472   3.880   6.772   4.606
 8056SOL    HW224473   3.749   6.787   4.681
 8057SOL     OW24474   6.308   3.514   5.206
 8057SOL    HW124475   6.225   3.561   5.200
 8057SOL    HW224476   6.342   3.536   5.293
 8058SOL     OW24477   2.893   5.649   3.597
 8058SOL    HW124478   2.960   5.599   3.551
 8058SOL    HW224479   2.942   5.713   3.649
 8059SOL     OW24480   2.782   3.684   2.111
 8059SOL    HW124481   2.803   3.658   2.201
 8059SOL    HW224482   2.687   3.694   2.111
 8060SOL     OW24483   0.478   3.270   1.672
 8060SOL    HW124484   0.414   3.242   1.738
 8060SOL    HW224485   0.425   3.311   1.604
 8061SOL     OW24486   7.616   2.701   0.984
 8061SOL    HW124487   7.596   2.672   1.073
 8061SOL    HW224488   7.531   2.708   0.941
 8062SOL     OW24489   0.108   3.395   4.296
 8062SOL    HW124490   0.156   3.476   4.315
 8062SOL    HW224491   0.170   3.325   4.318
 8063SOL     OW24492   0.136   1.927   2.545
 8063SOL    HW124493   0.180   1.903   2.627
 8063SOL    HW224494   0.132   1.845   2.495
 8064SOL     OW24495   6.895   6.301   0.563
 8064SOL    HW124496   6.815   6.316   0.514
 8064SOL    HW224497   6.890   6.209   0.588
 8065SOL     OW24498   4.350   6.093   0.723
 8065SOL    HW124499   4.301   6.016   0.695
 8065SOL    HW224500   4.377   6.136   0.642
 8066SOL     OW24501   6.239   4.459   2.959
 8066SOL    HW124502   6.324   4.426   2.988
 8066SOL    HW224503   6.186   4.463   3.039
 8067SOL     OW24504   1.322   1.577   3.508
 8067SOL    HW124505   1.254   1.518   3.542
 8067SOL    HW224506   1.294   1.596   3.419
 8068SOL     OW24507   0.004   0.784   1.889
 8068SOL    HW124508   8.147   0.760   1.924
 8068SOL    HW224509   0.030   0.861   1.939
 8069SOL     OW24510   2.525   4.311   3.241
 8069SOL    HW124511   2.536   4.360   3.159
 8069SOL    HW224512   2.449   4.351   3.283
 8070SOL     OW24513   2.049   2.599   2.380
 8070SOL    HW124514   2.047   2.521   2.324
 8070SOL    HW224515   2.137   2.599   2.418
 8071SOL     OW24516   4.899   6.178   4.790
 8071SOL    HW124517   4.823   6.175   4.732
 8071SOL    HW224518   4.943   6.094   4.777
 8072SOL     OW24519   4.604   4.522   3.221
 8072SOL    HW124520   4.594   4.434   3.257
 8072SOL    HW224521   4.673   4.562   3.274
 8073SOL     OW24522   7.817   5.787   5.604
 8073SOL    HW124523   7.801   5.826   5.518
 8073SOL    HW224524   7.745   5.818   5.658
 8074SOL     OW24525   1.840   5.882   3.024
 8074SOL    HW124526   1.884   5.857   2.943
 8074SOL    HW224527   1.773   5.815   3.037
 8075SOL     OW24528   1.863   4.087   1.745
 8075SOL    HW124529   1.936   4.146   1.762
 8075SOL    HW224530   1.870   4.066   1.652
 8076SOL     OW24531   8.093   8.200   5.208
 8076SOL    HW124532   8.031   0.041   5.190
 8076SOL    HW224533   8.128   8.221   5.295
 8077SOL     OW24534   2.854   2.726   3.890
 8077SOL    HW124535   2.872   2.786   3.962
 8077SOL    HW224536   2.836   2.783   3.815
 8078SOL     OW24537   7.900   6.870   4.912
 8078SOL    HW124538   7.977   6.915   4.877
 8078SOL    HW224539   7.873   6.924   4.987
 8079SOL     OW24540   6.029   0.484   3.988
 8079SOL    HW124541   6.018   0.562   4.042
 8079SOL    HW224542   6.027   0.516   3.898
 8080SOL     OW24543   4.467   0.237   3.820
 8080SOL    HW124544   4.414   0.166   3.855
 8080SOL    HW224545   4.525   0.261   3.892
 8081SOL     OW24546   2.802   5.127   2.260
 8081SOL    HW124547   2.739   5.102   2.192
 8081SOL    HW224548   2.887   5.102   2.224
 8082SOL     OW24549   4.463   4.599   3.649
 8082SOL    HW124550   4.529   4.554   3.702
 8082SOL    HW224551   4.490   4.691   3.649
 8083SOL     OW24552   1.734   1.437   2.930
 8083SOL    HW124553   1.705   1.463   3.018
 8083SOL    HW224554   1.691   1.353   2.915
 8084SOL     OW24555   1.025   1.746   2.987
 8084SOL    HW124556   1.084   1.717   2.917
 8084SOL    HW224557   1.079   1.803   3.042
 8085SOL     OW24558   7.628   6.066   1.067
 8085SOL    HW124559   7.548   6.084   1.018
 8085SOL    HW224560   7.686   6.023   1.004
 8086SOL     OW24561   2.041   0.291   0.681
 8086SOL    HW124562   2.085   0.292   0.766
 8086SOL    HW224563   2.112   0.295   0.617
 8087SOL     OW24564   0.160   7.869   1.251
 8087SOL    HW124565   0.151   7.926   1.327
 8087SOL    HW224566   0.140   7.782   1.284
 8088SOL     OW24567   4.662   3.749   1.980
 8088SOL    HW124568   4.752   3.758   1.949
 8088SOL    HW224569   4.640   3.835   2.016
 8089SOL     OW24570   5.345   7.091   5.608
 8089SOL    HW124571   5.332   7.086   5.703
 8089SOL    HW224572   5.429   7.047   5.594
 8090SOL     OW24573   5.417   7.308   1.780
 8090SOL    HW124574   5.340   7.365   1.775
 8090SOL    HW224575   5.383   7.220   1.762
 8091SOL     OW24576   5.237   6.836   1.960
 8091SOL    HW124577   5.294   6.840   1.883
 8091SOL    HW224578   5.293   6.800   2.029
 8092SOL     OW24579   6.746   7.295   2.327
 8092SOL    HW124580   6.669   7.348   2.309
 8092SOL    HW224581   6.762   7.308   2.421
 8093SOL     OW24582   2.155   3.333   1.848
 8093SOL    HW124583   2.065   3.362   1.864
 8093SOL    HW224584   2.145   3.248   1.805
 8094SOL     OW24585   2.260   0.531   1.286
 8094SOL    HW124586   2.309   0.477   1.224
 8094SOL    HW224587   2.228   0.604   1.234
 8095SOL     OW24588   1.961   0.507   2.288
 8095SOL    HW124589   2.030   0.480   2.349
 8095SOL    HW224590   1.913   0.426   2.270
 8096SOL     OW24591   0.581   5.142   2.944
 8096SOL    HW124592   0.637   5.071   2.913
 8096SOL    HW224593   0.613   5.162   3.032
 8097SOL     OW24594   1.759   7.952   1.983
 8097SOL    HW124595   1.705   8.030   1.995
 8097SOL    HW224596   1.777   7.949   1.889
 8098SOL     OW24597   7.412   3.217   1.376
 8098SOL    HW124598   7.428   3.125   1.353
 8098SOL    HW224599   7.331   3.216   1.426
 8099SOL     OW24600   3.245   3.431   3.056
 8099SOL    HW124601   3.248   3.421   3.151
 8099SOL    HW224602   3.154   3.455   3.038
 8100SOL     OW24603   7.152   2.213   4.812
 8100SOL    HW124604   7.113   2.132   4.778
 8100SOL    HW224605   7.164   2.196   4.906
 8101SOL     OW24606   0.599   5.972   1.425
 8101SOL    HW124607   0.660   5.980   1.499
 8101SOL    HW224608   0.512   5.980   1.465
 8102SOL     OW24609   1.609   2.333   2.520
 8102SOL    HW124610   1.515   2.313   2.517
 8102SOL    HW224611   1.614   2.417   2.566
 8103SOL     OW24612   0.329   4.196   4.367
 8103SOL    HW124613   0.360   4.272   4.417
 8103SOL    HW224614   0.387   4.125   4.393
 8104SOL     OW24615   7.943   7.182   4.190
 8104SOL    HW124616   8.024   7.232   4.176
 8104SOL    HW224617   7.906   7.219   4.270
 8105SOL     OW24618   0.566   2.453   2.124
 8105SOL    HW124619   0.639   2.511   2.146
 8105SOL    HW224620   0.534   2.485   2.040
 8106SOL     OW24621   7.472   3.442   0.805
 8106SOL    HW124622   7.412   3.511   0.832
 8106SOL    HW224623   7.546   3.488   0.766
 8107SOL     OW24624   7.347   7.817   2.845
 8107SOL    HW124625   7.329   7.808   2.751
 8107SOL    HW224626   7.412   7.749   2.864
 8108SOL     OW24627   2.925   7.845   0.167
 8108SOL    HW124628   2.868   7.793   0.110
 8108SOL    HW224629   2.917   7.934   0.134
 8109SOL     OW24630   6.547   3.313   1.668
 8109SOL    HW124631   6.636   3.348   1.671
 8109SOL    HW224632   6.492   3.390   1.655
 8110SOL     OW24633   4.256   0.172   1.522
 8110SOL    HW124634   4.200   0.097   1.500
 8110SOL    HW224635   4.328   0.168   1.459
 8111SOL     OW24636   2.097   3.652   5.065
 8111SOL    HW124637   2.122   3.736   5.026
 8111SOL    HW224638   2.015   3.670   5.111
 8112SOL     OW24639   0.854   0.679   0.508
 8112SOL    HW124640   0.907   0.600   0.508
 8112SOL    HW224641   0.862   0.713   0.597
 8113SOL     OW24642   4.755   2.704   2.092
 8113SOL    HW124643   4.692   2.744   2.152
 8113SOL    HW224644   4.789   2.629   2.140
 8114SOL     OW24645   0.669   3.876   1.119
 8114SOL    HW124646   0.720   3.957   1.110
 8114SOL    HW224647   0.725   3.819   1.172
 8115SOL     OW24648   6.145   1.901   4.717
 8115SOL    HW124649   6.211   1.840   4.684
 8115SOL    HW224650   6.187   1.945   4.791
 8116SOL     OW24651   7.989   3.477   3.327
 8116SOL    HW124652   7.902   3.507   3.353
 8116SOL    HW224653   8.047   3.505   3.398
 8117SOL     OW24654   2.901   8.196   0.566
 8117SOL    HW124655   2.908   0.062   0.565
 8117SOL    HW224656   2.917   8.172   0.657
 8118SOL     OW24657   0.492   7.534   1.093
 8118SOL    HW124658   0.501   7.578   1.177
 8118SOL    HW224659   0.577   7.491   1.079
 8119SOL     OW24660   7.725   0.265   3.356
 8119SOL    HW124661   7.694   0.251   3.445
 8119SOL    HW224662   7.805   0.316   3.366
 8120SOL     OW24663   4.499   0.337   2.705
 8120SOL    HW124664   4.422   0.280   2.701
 8120SOL    HW224665   4.505   0.375   2.618
 8121SOL     OW24666   5.123   0.489   5.061
 8121SOL    HW124667   5.067   0.413   5.048
 8121SOL    HW224668   5.063   0.558   5.089
 8122SOL     OW24669   7.468   2.390   2.935
 8122SOL    HW124670   7.397   2.383   2.999
 8122SOL    HW224671   7.458   2.312   2.880
 8123SOL     OW24672   0.977   3.385   1.456
 8123SOL    HW124673   1.003   3.293   1.446
 8123SOL    HW224674   1.020   3.430   1.383
 8124SOL     OW24675   0.866   3.888   2.650
 8124SOL    HW124676   0.919   3.967   2.641
 8124SOL    HW224677   0.839   3.867   2.561
 8125SOL     OW24678   6.046   6.274   4.018
 8125SOL    HW124679   5.962   6.315   3.996
 8125SOL    HW224680   6.107   6.310   3.953
 8126SOL     OW24681   5.412   4.605   3.516
 8126SOL    HW124682   5.400   4.522   3.470
 8126SOL    HW224683   5.323   4.637   3.531
 8127SOL     OW24684   6.989   1.588   3.771
 8127SOL    HW124685   6.977   1.558   3.861
 8127SOL    HW224686   6.902   1.581   3.732
 8128SOL     OW24687   4.522   4.145   3.589
 8128SOL    HW124688   4.617   4.136   3.582
 8128SOL    HW224689   4.508   4.176   3.679
 8129SOL     OW24690   5.459   4.767   3.250
 8129SOL    HW124691   5.393   4.795   3.187
 8129SOL    HW224692   5.501   4.691   3.209
 8130SOL     OW24693   1.775   5.036   0.366
 8130SOL    HW124694   1.844   5.096   0.394
 8130SOL    HW224695   1.815   4.985   0.296
 8131SOL     OW24696   2.458   6.501   2.645
 8131SOL    HW124697   2.554   6.504   2.650
 8131SOL    HW224698   2.431   6.593   2.644
 8132SOL     OW24699   7.358   5.325   5.044
 8132SOL    HW124700   7.304   5.358   4.972
 8132SOL    HW224701   7.438   5.378   5.040
 8133SOL     OW24702   6.143   1.766   0.859
 8133SOL    HW124703   6.124   1.855   0.831
 8133SOL    HW224704   6.236   1.768   0.883
 8134SOL     OW24705   2.420   5.489   0.852
 8134SOL    HW124706   2.331   5.467   0.880
 8134SOL    HW224707   2.422   5.469   0.759
 8135SOL     OW24708   2.721   6.807   4.729
 8135SOL    HW124709   2.763   6.875   4.677
 8135SOL    HW224710   2.766   6.726   4.705
 8136SOL     OW24711   7.673   5.871   0.785
 8136SOL    HW124712   7.723   5.833   0.713
 8136SOL    HW224713   7.585   5.834   0.775
 8137SOL     OW24714   0.731   6.904   0.413
 8137SOL    HW124715   0.771   6.932   0.331
 8137SOL    HW224716   0.676   6.830   0.388
 8138SOL     OW24717   5.335   5.217   0.675
 8138SOL    HW124718   5.374   5.303   0.690
 8138SOL    HW224719   5.395   5.174   0.614
 8139SOL     OW24720   0.849   2.620   1.531
 8139SOL    HW124721   0.921   2.603   1.591
 8139SOL    HW224722   0.770   2.608   1.584
 8140SOL     OW24723   2.072   1.179   1.019
 8140SOL    HW124724   1.986   1.207   0.988
 8140SOL    HW224725   2.054   1.115   1.087
 8141SOL     OW24726   5.088   2.734   1.816
 8141SOL    HW124727   5.128   2.725   1.902
 8141SOL    HW224728   5.129   2.666   1.763
 8142SOL     OW24729   4.781   7.541   4.827
 8142SOL    HW124730   4.706   7.489   4.854
 8142SOL    HW224731   4.763   7.628   4.862
 8143SOL     OW24732   4.817   2.951   5.773
 8143SOL    HW124733   4.815   3.047   5.775
 8143SOL    HW224734   4.854   2.930   5.687
 8144SOL     OW24735   1.985   7.049   1.875
 8144SOL    HW124736   1.980   7.077   1.966
 8144SOL    HW224737   2.021   7.124   1.828
 8145SOL     OW24738   6.327   1.345   0.156
 8145SOL    HW124739   6.320   1.406   0.083
 8145SOL    HW224740   6.419   1.319   0.156
 8146SOL     OW24741   0.124   1.670   4.251
 8146SOL    HW124742   0.037   1.661   4.291
 8146SOL    HW224743   0.180   1.612   4.303
 8147SOL     OW24744   3.083   1.439   3.813
 8147SOL    HW124745   3.026   1.364   3.796
 8147SOL    HW224746   3.096   1.438   3.908
 8148SOL     OW24747   6.865   4.849   4.401
 8148SOL    HW124748   6.860   4.944   4.414
 8148SOL    HW224749   6.946   4.836   4.352
 8149SOL     OW24750   1.521   0.252   0.516
 8149SOL    HW124751   1.481   0.233   0.601
 8149SOL    HW224752   1.578   0.327   0.532
 8150SOL     OW24753   5.159   4.640   3.245
 8150SOL    HW124754   5.122   4.556   3.273
 8150SOL    HW224755   5.174   4.688   3.327
 8151SOL     OW24756   7.636   1.257   2.555
 8151SOL    HW124757   7.619   1.163   2.551
 8151SOL    HW224758   7.561   1.297   2.511
 8152SOL     OW24759   8.024   6.861   3.086
 8152SOL    HW124760   8.050   6.776   3.122
 8152SOL    HW224761   8.104   6.896   3.048
 8153SOL     OW24762   5.644   5.863   2.222
 8153SOL    HW124763   5.736   5.837   2.226
 8153SOL    HW224764   5.615   5.864   2.313
 8154SOL     OW24765   0.414   6.830   2.517
 8154SOL    HW124766   0.404   6.922   2.494
 8154SOL    HW224767   0.472   6.794   2.450
 8155SOL     OW24768   2.318   1.307   4.794
 8155SOL    HW124769   2.404   1.280   4.762
 8155SOL    HW224770   2.325   1.301   4.889
 8156SOL     OW24771   2.691   7.102   0.472
 8156SOL    HW124772   2.690   7.014   0.511
 8156SOL    HW224773   2.751   7.152   0.527
 8157SOL     OW24774   6.170   7.515   4.171
 8157SOL    HW124775   6.164   7.510   4.076
 8157SOL    HW224776   6.255   7.475   4.192
 8158SOL     OW24777   4.286   3.833   2.051
 8158SOL    HW124778   4.298   3.915   2.002
 8158SOL    HW224779   4.361   3.829   2.110
 8159SOL     OW24780   7.506   0.918   1.111
 8159SOL    HW124781   7.565   0.982   1.071
 8159SOL    HW224782   7.482   0.956   1.195
 8160SOL     OW24783   4.954   3.664   5.290
 8160SOL    HW124784   4.950   3.750   5.331
 8160SOL    HW224785   4.869   3.625   5.309
 8161SOL     OW24786   0.142   3.048   3.697
 8161SOL    HW124787   0.226   3.092   3.712
 8161SOL    HW224788   0.128   2.996   3.776
 8162SOL     OW24789   2.254   0.130   1.521
 8162SOL    HW124790   2.181   0.092   1.472
 8162SOL    HW224791   2.269   0.069   1.593
 8163SOL     OW24792   1.983   1.590   2.053
 8163SOL    HW124793   1.998   1.661   1.991
 8163SOL    HW224794   2.070   1.551   2.065
 8164SOL     OW24795   4.157   3.630   5.146
 8164SOL    HW124796   4.063   3.613   5.137
 8164SOL    HW224797   4.180   3.678   5.066
 8165SOL     OW24798   4.725   5.575   5.044
 8165SOL    HW124799   4.686   5.573   4.957
 8165SOL    HW224800   4.680   5.506   5.093
 8166SOL     OW24801   3.538   6.273   0.769
 8166SOL    HW124802   3.508   6.364   0.772
 8166SOL    HW224803   3.458   6.221   0.764
 8167SOL     OW24804   7.709   4.419   4.601
 8167SOL    HW124805   7.717   4.325   4.587
 8167SOL    HW224806   7.616   4.433   4.620
 8168SOL     OW24807   7.287   0.027   2.197
 8168SOL    HW124808   7.349   0.055   2.129
 8168SOL    HW224809   7.236   8.187   2.156
 8169SOL     OW24810   7.573   3.200   4.049
 8169SOL    HW124811   7.506   3.268   4.044
 8169SOL    HW224812   7.532   3.123   4.010
 8170SOL     OW24813   2.538   0.532   5.198
 8170SOL    HW124814   2.586   0.455   5.229
 8170SOL    HW224815   2.550   0.531   5.103
 8171SOL     OW24816   7.515   1.053   4.946
 8171SOL    HW124817   7.606   1.042   4.974
 8171SOL    HW224818   7.469   1.084   5.024
 8172SOL     OW24819   5.705   1.643   2.458
 8172SOL    HW124820   5.630   1.659   2.515
 8172SOL    HW224821   5.751   1.570   2.499
 8173SOL     OW24822   7.090   4.149   2.245
 8173SOL    HW124823   7.047   4.152   2.330
 8173SOL    HW224824   7.181   4.171   2.263
 8174SOL     OW24825   6.548   4.947   0.643
 8174SOL    HW124826   6.574   4.891   0.570
 8174SOL    HW224827   6.467   4.908   0.676
 8175SOL     OW24828   0.204   3.886   2.463
 8175SOL    HW124829   0.221   3.822   2.394
 8175SOL    HW224830   0.231   3.842   2.544
 8176SOL     OW24831   7.540   7.049   4.920
 8176SOL    HW124832   7.551   6.957   4.896
 8176SOL    HW224833   7.530   7.094   4.836
 8177SOL     OW24834   7.970   3.537   2.385
 8177SOL    HW124835   7.984   3.450   2.422
 8177SOL    HW224836   8.046   3.587   2.415
 8178SOL     OW24837   2.885   2.842   4.622
 8178SOL    HW124838   2.850   2.754   4.634
 8178SOL    HW224839   2.863   2.888   4.703
 8179SOL     OW24840   7.276   5.835   0.118
 8179SOL    HW124841   7.230   5.895   0.059
 8179SOL    HW224842   7.264   5.874   0.205
 8180SOL     OW24843   3.379   7.450   5.242
 8180SOL    HW124844   3.386   7.545   5.252
 8180SOL    HW224845   3.362   7.417   5.330
 8181SOL     OW24846   0.768   5.833   2.567
 8181SOL    HW124847   0.706   5.892   2.610
 8181SOL    HW224848   0.836   5.818   2.633
 8182SOL     OW24849   0.332   3.173   0.073
 8182SOL    HW124850   0.254   3.212   0.034
 8182SOL    HW224851   0.321   3.187   0.167
 8183SOL     OW24852   1.175   7.352   0.015
 8183SOL    HW124853   5.288   3.162   5.775
 8183SOL    HW224854   5.282   3.313   5.776
 8184SOL     OW24855   0.488   4.272   2.346
 8184SOL    HW124856   0.506   4.260   2.439
 8184SOL    HW224857   0.552   4.216   2.302
 8185SOL     OW24858   7.102   7.833   3.082
 8185SOL    HW124859   7.188   7.863   3.112
 8185SOL    HW224860   7.071   7.774   3.151
 8186SOL     OW24861   2.848   1.541   2.338
 8186SOL    HW124862   2.813   1.566   2.252
 8186SOL    HW224863   2.792   1.469   2.367
 8187SOL     OW24864   2.471   6.100   1.993
 8187SOL    HW124865   2.379   6.123   1.981
 8187SOL    HW224866   2.512   6.120   1.909
 8188SOL     OW24867   5.680   3.702   0.251
 8188SOL    HW124868   5.697   3.621   0.299
 8188SOL    HW224869   5.765   3.745   0.246
 8189SOL     OW24870   4.641   8.062   5.544
 8189SOL    HW124871   4.549   8.054   5.520
 8189SOL    HW224872   4.639   8.103   5.631
 8190SOL     OW24873   2.495   7.816   4.823
 8190SOL    HW124874   2.484   7.723   4.802
 8190SOL    HW224875   2.586   7.835   4.802
 8191SOL     OW24876   5.866   3.934   4.364
 8191SOL    HW124877   5.962   3.939   4.366
 8191SOL    HW224878   5.841   3.911   4.453
 8192SOL     OW24879   0.757   7.613   5.741
 8192SOL    HW124880   0.682   7.574   5.785
 8192SOL    HW224881   0.749   7.707   5.760
 8193SOL     OW24882   1.322   1.577   0.850
 8193SOL    HW124883   1.328   1.499   0.794
 8193SOL    HW224884   1.406   1.621   0.839
 8194SOL     OW24885   2.296   4.986   0.256
 8194SOL    HW124886   2.344   4.966   0.337
 8194SOL    HW224887   2.316   5.078   0.238
 8195SOL     OW24888   0.865   5.878   4.753
 8195SOL    HW124889   0.857   5.790   4.716
 8195SOL    HW224890   0.842   5.867   4.845
 8196SOL     OW24891   0.286   2.548   3.511
 8196SOL    HW124892   0.265   2.461   3.477
 8196SOL    HW224893   0.296   2.602   3.433
 8197SOL     OW24894   4.703   7.024   1.889
 8197SOL    HW124895   4.723   7.090   1.823
 8197SOL    HW224896   4.612   6.999   1.871
 8198SOL     OW24897   3.823   2.790   0.732
 8198SOL    HW124898   3.868   2.788   0.648
 8198SOL    HW224899   3.859   2.866   0.777
 8199SOL     OW24900   1.352   5.184   3.944
 8199SOL    HW124901   1.412   5.144   4.008
 8199SOL    HW224902   1.316   5.110   3.895
 8200SOL     OW24903   1.810   3.895   0.820
 8200SOL    HW124904   1.820   3.826   0.754
 8200SOL    HW224905   1.844   3.974   0.778
 8201SOL     OW24906   6.078   5.316   2.278
 8201SOL    HW124907   6.120   5.249   2.331
 8201SOL    HW224908   6.150   5.359   2.232
 8202SOL     OW24909   4.848   3.687   5.791
 8202SOL    HW124910   4.814   3.660   5.706
 8202SOL    HW224911   0.672   7.764   0.035
 8203SOL     OW24912   0.332   1.649   1.574
 8203SOL    HW124913   0.289   1.706   1.510
 8203SOL    HW224914   0.394   1.597   1.522
 8204SOL     OW24915   3.911   5.813   4.803
 8204SOL    HW124916   3.868   5.899   4.804
 8204SOL    HW224917   3.997   5.828   4.841
 8205SOL     OW24918   2.733   1.906   1.238
 8205SOL    HW124919   2.822   1.871   1.237
 8205SOL    HW224920   2.737   1.985   1.185
 8206SOL     OW24921   6.794   7.739   0.373
 8206SOL    HW124922   6.749   7.655   0.370
 8206SOL    HW224923   6.730   7.799   0.412
 8207SOL     OW24924   1.037   3.281   1.104
 8207SOL    HW124925   1.125   3.307   1.130
 8207SOL    HW224926   1.007   3.350   1.045
 8208SOL     OW24927   1.458   0.725   4.101
 8208SOL    HW124928   1.383   0.770   4.062
 8208SOL    HW224929   1.532   0.784   4.085
 8209SOL     OW24930   2.213   7.802   1.610
 8209SOL    HW124931   2.209   7.880   1.555
 8209SOL    HW224932   2.181   7.831   1.695
 8210SOL     OW24933   2.093   6.845   2.074
 8210SOL    HW124934   2.106   6.767   2.020
 8210SOL    HW224935   2.008   6.832   2.116
 8211SOL     OW24936   7.338   4.119   3.397
 8211SOL    HW124937   7.387   4.201   3.394
 8211SOL    HW224938   7.366   4.072   3.318
 8212SOL     OW24939   4.218   2.806   1.275
 8212SOL    HW124940   4.200   2.721   1.315
 8212SOL    HW224941   4.213   2.869   1.347
 8213SOL     OW24942   1.273   4.663   3.478
 8213SOL    HW124943   1.314   4.675   3.393
 8213SOL    HW224944   1.203   4.599   3.462
 8214SOL     OW24945   2.378   3.945   3.611
 8214SOL    HW124946   2.307   3.881   3.622
 8214SOL    HW224947   2.447   3.915   3.670
 8215SOL     OW24948   2.151   2.439   3.760
 8215SOL    HW124949   2.224   2.412   3.704
 8215SOL    HW224950   2.181   2.520   3.801
 8216SOL     OW24951   7.038   0.589   4.515
 8216SOL    HW124952   7.034   0.634   4.600
 8216SOL    HW224953   7.122   0.544   4.516
 8217SOL     OW24954   7.923   4.404   5.409
 8217SOL    HW124955   7.959   4.491   5.427
 8217SOL    HW224956   7.972   4.345   5.467
 8218SOL     OW24957   5.547   7.289   0.017
 8218SOL    HW124958   5.481   7.222   0.036
 8218SOL    HW224959   1.386   3.239   5.782
 8219SOL     OW24960   6.769   5.243   4.918
 8219SOL    HW124961   6.822   5.279   4.989
 8219SOL    HW224962   6.680   5.270   4.939
 8220SOL     OW24963   5.118   7.807   1.529
 8220SOL    HW124964   5.192   7.746   1.533
 8220SOL    HW224965   5.041   7.751   1.529
 8221SOL     OW24966   3.818   4.017   4.837
 8221SOL    HW124967   3.833   3.927   4.865
 8221SOL    HW224968   3.906   4.055   4.829
 8222SOL     OW24969   2.874   2.332   2.292
 8222SOL    HW124970   2.967   2.308   2.289
 8222SOL    HW224971   2.850   2.322   2.384
 8223SOL     OW24972   1.619   1.728   5.085
 8223SOL    HW124973   1.580   1.778   5.013
 8223SOL    HW224974   1.617   1.637   5.055
 8224SOL     OW24975   3.737   4.327   1.188
 8224SOL    HW124976   3.739   4.378   1.269
 8224SOL    HW224977   3.648   4.338   1.154
 8225SOL     OW24978   3.521   5.756   0.589
 8225SOL    HW124979   3.602   5.805   0.603
 8225SOL    HW224980   3.476   5.803   0.519
 8226SOL     OW24981   5.599   5.566   0.308
 8226SOL    HW124982   5.614   5.479   0.272
 8226SOL    HW224983   5.671   5.579   0.370
 8227SOL     OW24984   1.643   1.168   2.977
 8227SOL    HW124985   1.552   1.173   2.947
 8227SOL    HW224986   1.637   1.162   3.072
 8228SOL     OW24987   2.852   0.221   1.297
 8228SOL    HW124988   2.932   0.181   1.262
 8228SOL    HW224989   2.794   0.147   1.315
 8229SOL     OW24990   7.202   3.643   2.730
 8229SOL    HW124991   7.130   3.690   2.687
 8229SOL    HW224992   7.187   3.551   2.709
 8230SOL     OW24993   1.141   6.800   4.305
 8230SOL    HW124994   1.087   6.879   4.304
 8230SOL    HW224995   1.078   6.728   4.311
 8231SOL     OW24996   7.080   4.816   5.125
 8231SOL    HW124997   7.097   4.815   5.219
 8231SOL    HW224998   6.987   4.797   5.117
 8232SOL     OW24999   2.965   2.544   5.182
 8232SOL    HW125000   2.998   2.458   5.156
 8232SOL    HW225001   3.042   2.601   5.181
 8233SOL     OW25002   6.944   7.666   4.796
 8233SOL    HW125003   6.950   7.759   4.774
 8233SOL    HW225004   6.952   7.621   4.712
 8234SOL     OW25005   4.273   4.203   2.188
 8234SOL    HW125006   4.349   4.148   2.209
 8234SOL    HW225007   4.292   4.237   2.101
 8235SOL     OW25008   0.326   7.497   0.062
 8235SOL    HW125009   0.405   7.502   0.008
 8235SOL    HW225010   0.277   7.423   0.026
 8236SOL     OW25011   4.924   5.043   4.790
 8236SOL    HW125012   4.897   5.110   4.853
 8236SOL    HW225013   4.893   4.961   4.827
 8237SOL     OW25014   5.906   5.116   4.764
 8237SOL    HW125015   5.941   5.100   4.851
 8237SOL    HW225016   5.898   5.211   4.759
 8238SOL     OW25017   5.888   1.067   2.552
 8238SOL    HW125018   5.846   0.983   2.534
 8238SOL    HW225019   5.842   1.130   2.497
 8239SOL     OW25020   0.411   4.905   4.133
 8239SOL    HW125021   0.448   4.859   4.057
 8239SOL    HW225022   0.373   4.836   4.187
 8240SOL     OW25023   1.595   0.529   0.740
 8240SOL    HW125024   1.664   0.466   0.718
 8240SOL    HW225025   1.599   0.595   0.671
 8241SOL     OW25026   6.174   4.073   4.740
 8241SOL    HW125027   6.138   4.006   4.798
 8241SOL    HW225028   6.269   4.062   4.748
 8242SOL     OW25029   4.296   1.768   0.336
 8242SOL    HW125030   4.212   1.805   0.364
 8242SOL    HW225031   4.273   1.705   0.268
 8243SOL     OW25032   0.577   0.834   5.036
 8243SOL    HW125033   0.528   0.909   5.001
 8243SOL    HW225034   0.667   0.849   5.008
 8244SOL     OW25035   2.281   3.920   2.983
 8244SOL    HW125036   2.372   3.947   2.995
 8244SOL    HW225037   2.255   3.960   2.900
 8245SOL     OW25038   2.161   1.993   4.256
 8245SOL    HW125039   2.174   1.996   4.161
 8245SOL    HW225040   2.189   2.079   4.287
 8246SOL     OW25041   1.868   3.272   4.830
 8246SOL    HW125042   1.957   3.242   4.848
 8246SOL    HW225043   1.813   3.198   4.856
 8247SOL     OW25044   6.208   6.066   0.257
 8247SOL    HW125045   6.284   6.119   0.232
 8247SOL    HW225046   6.144   6.083   0.188
 8248SOL     OW25047   0.174   0.647   4.146
 8248SOL    HW125048   0.179   0.551   4.146
 8248SOL    HW225049   0.185   0.672   4.238
 8249SOL     OW25050   0.472   2.572   1.915
 8249SOL    HW125051   0.412   2.638   1.950
 8249SOL    HW225052   0.417   2.518   1.858
 8250SOL     OW25053   6.840   6.436   4.994
 8250SOL    HW125054   6.776   6.389   4.940
 8250SOL    HW225055   6.881   6.498   4.934
 8251SOL     OW25056   5.247   5.880   4.873
 8251SOL    HW125057   5.335   5.909   4.898
 8251SOL    HW225058   5.193   5.959   4.880
 8252SOL     OW25059   3.358   6.174   1.181
 8252SOL    HW125060   3.364   6.235   1.108
 8252SOL    HW225061   3.415   6.101   1.157
 8253SOL     OW25062   4.661   5.099   4.298
 8253SOL    HW125063   4.701   5.115   4.383
 8253SOL    HW225064   4.597   5.029   4.314
 8254SOL     OW25065   6.420   8.202   5.440
 8254SOL    HW125066   6.505   8.202   5.395
 8254SOL    HW225067   6.372   0.045   5.400
 8255SOL     OW25068   5.531   2.930   5.745
 8255SOL    HW125069   5.539   2.915   5.651
 8255SOL    HW225070   5.581   2.859   5.785
 8256SOL     OW25071   2.554   1.575   1.932
 8256SOL    HW125072   2.546   1.661   1.974
 8256SOL    HW225073   2.477   1.527   1.962
 8257SOL     OW25074   4.925   4.448   5.557
 8257SOL    HW125075   4.834   4.420   5.555
 8257SOL    HW225076   4.920   4.543   5.560
 8258SOL     OW25077   7.288   2.535   3.309
 8258SOL    HW125078   7.281   2.605   3.374
 8258SOL    HW225079   7.381   2.534   3.285
 8259SOL     OW25080   4.717   5.010   1.518
 8259SOL    HW125081   4.677   5.007   1.605
 8259SOL    HW225082   4.792   5.069   1.529
 8260SOL     OW25083   2.689   2.443   2.850
 8260SOL    HW125084   2.737   2.506   2.904
 8260SOL    HW225085   2.634   2.396   2.912
 8261SOL     OW25086   7.807   7.405   1.710
 8261SOL    HW125087   7.788   7.396   1.803
 8261SOL    HW225088   7.795   7.498   1.692
 8262SOL     OW25089   2.132   0.411   0.033
 8262SOL    HW125090   2.222   0.441   0.049
 8262SOL    HW225091   6.205   4.599   5.806
 8263SOL     OW25092   1.815   3.415   5.206
 8263SOL    HW125093   1.811   3.458   5.121
 8263SOL    HW225094   1.839   3.485   5.267
 8264SOL     OW25095   4.500   3.908   5.618
 8264SOL    HW125096   4.504   4.002   5.634
 8264SOL    HW225097   4.407   3.890   5.602
 8265SOL     OW25098   5.824   3.644   1.071
 8265SOL    HW125099   5.813   3.620   0.979
 8265SOL    HW225100   5.752   3.704   1.089
 8266SOL     OW25101   6.981   2.143   1.882
 8266SOL    HW125102   6.890   2.150   1.911
 8266SOL    HW225103   7.032   2.140   1.963
 8267SOL     OW25104   1.775   7.710   5.174
 8267SOL    HW125105   1.829   7.712   5.253
 8267SOL    HW225106   1.802   7.787   5.124
 8268SOL     OW25107   6.946   6.534   3.221
 8268SOL    HW125108   7.012   6.464   3.221
 8268SOL    HW225109   6.875   6.500   3.166
 8269SOL     OW25110   6.330   6.030   1.769
 8269SOL    HW125111   6.239   6.056   1.781
 8269SOL    HW225112   6.380   6.110   1.785
 8270SOL     OW25113   5.069   7.793   1.859
 8270SOL    HW125114   4.991   7.739   1.869
 8270SOL    HW225115   5.051   7.848   1.783
 8271SOL     OW25116   0.683   6.621   5.009
 8271SOL    HW125117   0.686   6.555   4.939
 8271SOL    HW225118   0.769   6.662   5.007
 8272SOL     OW25119   0.304   1.227   3.321
 8272SOL    HW125120   0.250   1.298   3.355
 8272SOL    HW225121   0.261   1.201   3.239
 8273SOL     OW25122   0.033   0.942   5.600
 8273SOL    HW125123   0.039   0.926   5.506
 8273SOL    HW225124   0.017   1.036   5.608
 8274SOL     OW25125   6.681   7.087   2.554
 8274SOL    HW125126   6.613   7.135   2.601
 8274SOL    HW225127   6.758   7.144   2.558
 8275SOL     OW25128   5.285   6.302   1.047
 8275SOL    HW125129   5.228   6.297   1.123
 8275SOL    HW225130   5.229   6.277   0.973
 8276SOL     OW25131   3.804   2.287   0.809
 8276SOL    HW125132   3.872   2.344   0.844
 8276SOL    HW225133   3.798   2.310   0.716
 8277SOL     OW25134   1.034   3.012   0.972
 8277SOL    HW125135   1.026   3.098   1.014
 8277SOL    HW225136   0.951   2.999   0.927
 8278SOL     OW25137   1.901   6.086   2.129
 8278SOL    HW125138   1.994   6.066   2.140
 8278SOL    HW225139   1.861   6.067   2.214
 8279SOL     OW25140   5.582   0.984   2.725
 8279SOL    HW125141   5.562   0.890   2.723
 8279SOL    HW225142   5.599   1.007   2.634
 8280SOL     OW25143   0.713   4.654   3.405
 8280SOL    HW125144   0.703   4.591   3.477
 8280SOL    HW225145   0.624   4.666   3.372
 8281SOL     OW25146   7.236   5.917   1.849
 8281SOL    HW125147   7.256   5.843   1.792
 8281SOL    HW225148   7.284   5.991   1.812
 8282SOL     OW25149   3.370   1.814   1.731
 8282SOL    HW125150   3.327   1.736   1.766
 8282SOL    HW225151   3.425   1.782   1.660
 8283SOL     OW25152   0.388   6.575   5.040
 8283SOL    HW125153   0.319   6.641   5.043
 8283SOL    HW225154   0.467   6.622   5.066
 8284SOL     OW25155   2.503   3.802   5.005
 8284SOL    HW125156   2.431   3.801   5.068
 8284SOL    HW225157   2.582   3.807   5.059
 8285SOL     OW25158   2.165   6.683   3.143
 8285SOL    HW125159   2.109   6.605   3.139
 8285SOL    HW225160   2.254   6.649   3.132
 8286SOL     OW25161   1.670   2.488   3.904
 8286SOL    HW125162   1.589   2.463   3.860
 8286SOL    HW225163   1.725   2.410   3.899
 8287SOL     OW25164   7.131   7.488   2.153
 8287SOL    HW125165   7.128   7.449   2.240
 8287SOL    HW225166   7.219   7.526   2.147
 8288SOL     OW25167   0.651   8.048   5.430
 8288SOL    HW125168   0.690   8.113   5.372
 8288SOL    HW225169   0.720   7.983   5.442
 8289SOL     OW25170   4.788   6.571   4.744
 8289SOL    HW125171   4.744   6.620   4.813
 8289SOL    HW225172   4.759   6.481   4.757
 8290SOL     OW25173   6.107   1.440   4.957
 8290SOL    HW125174   6.105   1.353   4.996
 8290SOL    HW225175   6.015   1.462   4.942
 8291SOL     OW25176   1.223   6.031   0.833
 8291SOL    HW125177   1.173   5.982   0.898
 8291SOL    HW225178   1.157   6.073   0.779
 8292SOL     OW25179   7.567   7.704   3.706
 8292SOL    HW125180   7.519   7.636   3.753
 8292SOL    HW225181   7.632   7.657   3.655
 8293SOL     OW25182   7.467   2.826   0.159
 8293SOL    HW125183   7.390   2.858   0.112
 8293SOL    HW225184   7.541   2.856   0.107
 8294SOL     OW25185   3.823   8.150   0.252
 8294SOL    HW125186   3.909   8.124   0.285
 8294SOL    HW225187   3.771   8.168   0.331
 8295SOL     OW25188   1.853   3.176   5.594
 8295SOL    HW125189   1.929   3.118   5.586
 8295SOL    HW225190   1.782   3.129   5.550
 8296SOL     OW25191   0.053   4.099   1.049
 8296SOL    HW125192   0.043   4.018   0.999
 8296SOL    HW225193   0.085   4.070   1.135
 8297SOL     OW25194   6.357   3.303   2.906
 8297SOL    HW125195   6.300   3.279   2.833
 8297SOL    HW225196   6.443   3.316   2.866
 8298SOL     OW25197   0.026   0.083   3.548
 8298SOL    HW125198   0.000   0.153   3.488
 8298SOL    HW225199   0.083   0.026   3.496
 8299SOL     OW25200   1.515   6.509   3.168
 8299SOL    HW125201   1.604   6.484   3.191
 8299SOL    HW225202   1.489   6.571   3.236
 8300SOL     OW25203   3.925   7.986   1.365
 8300SOL    HW125204   3.851   8.045   1.352
 8300SOL    HW225205   3.891   7.899   1.343
 8301SOL     OW25206   8.056   4.089   4.131
 8301SOL    HW125207   7.969   4.069   4.166
 8301SOL    HW225208   8.103   4.005   4.132
 8302SOL     OW25209   7.404   1.003   3.808
 8302SOL    HW125210   7.363   0.917   3.810
 8302SOL    HW225211   7.473   0.995   3.742
 8303SOL     OW25212   5.214   7.519   2.720
 8303SOL    HW125213   5.243   7.445   2.667
 8303SOL    HW225214   5.291   7.575   2.728
 8304SOL     OW25215   2.248   6.718   4.150
 8304SOL    HW125216   2.253   6.659   4.225
 8304SOL    HW225217   2.227   6.661   4.076
 8305SOL     OW25218   6.239   1.699   1.630
 8305SOL    HW125219   6.266   1.781   1.671
 8305SOL    HW225220   6.227   1.639   1.703
 8306SOL     OW25221   2.425   0.522   0.394
 8306SOL    HW125222   2.494   0.515   0.328
 8306SOL    HW225223   2.466   0.567   0.468
 8307SOL     OW25224   4.137   2.219   3.895
 8307SOL    HW125225   4.158   2.268   3.815
 8307SOL    HW225226   4.145   2.284   3.965
 8308SOL     OW25227   6.472   3.513   2.054
 8308SOL    HW125228   6.505   3.433   2.094
 8308SOL    HW225229   6.399   3.540   2.110
 8309SOL     OW25230   1.355   5.200   5.132
 8309SOL    HW125231   1.434   5.150   5.151
 8309SOL    HW225232   1.340   5.252   5.211
 8310SOL     OW25233   6.679   1.578   0.090
 8310SOL    HW125234   6.648   1.488   0.096
 8310SOL    HW225235   2.585   5.705   5.816
 8311SOL     OW25236   6.650   2.276   0.792
 8311SOL    HW125237   6.577   2.255   0.734
 8311SOL    HW225238   6.690   2.192   0.813
 8312SOL     OW25239   1.759   4.076   5.571
 8312SOL    HW125240   1.853   4.095   5.567
 8312SOL    HW225241   1.751   3.986   5.541
 8313SOL     OW25242   2.079   7.740   4.584
 8313SOL    HW125243   2.067   7.719   4.676
 8313SOL    HW225244   2.051   7.661   4.537
 8314SOL     OW25245   8.179   0.254   3.770
 8314SOL    HW125246   8.197   0.179   3.827
 8314SOL    HW225247   8.172   0.217   3.682
 8315SOL     OW25248   6.744   7.382   4.428
 8315SOL    HW125249   6.683   7.309   4.417
 8315SOL    HW225250   6.753   7.420   4.341
 8316SOL     OW25251   4.771   6.629   3.838
 8316SOL    HW125252   4.859   6.632   3.800
 8316SOL    HW225253   4.717   6.680   3.777
 8317SOL     OW25254   2.884   7.121   2.247
 8317SOL    HW125255   2.861   7.072   2.326
 8317SOL    HW225256   2.851   7.209   2.263
 8318SOL     OW25257   0.342   6.768   4.205
 8318SOL    HW125258   0.368   6.685   4.166
 8318SOL    HW225259   0.417   6.793   4.259
 8319SOL     OW25260   6.380   3.733   4.931
 8319SOL    HW125261   6.324   3.745   5.008
 8319SOL    HW225262   6.469   3.745   4.964
 8320SOL     OW25263   4.921   2.771   3.147
 8320SOL    HW125264   4.981   2.794   3.076
 8320SOL    HW225265   4.838   2.753   3.103
 8321SOL     OW25266   0.353   0.821   5.654
 8321SOL    HW125267   0.345   0.913   5.630
 8321SOL    HW225268   0.280   0.805   5.714
 8322SOL     OW25269   4.412   2.946   2.479
 8322SOL    HW125270   4.453   3.031   2.462
 8322SOL    HW225271   4.332   2.947   2.427
 8323SOL     OW25272   2.687   5.303   5.222
 8323SOL    HW125273   2.776   5.318   5.252
 8323SOL    HW225274   2.633   5.311   5.301
 8324SOL     OW25275   0.914   4.923   4.738
 8324SOL    HW125276   0.871   4.936   4.653
 8324SOL    HW225277   0.864   4.852   4.779
 8325SOL     OW25278   5.408   8.221   2.753
 8325SOL    HW125279   5.323   8.197   2.790
 8325SOL    HW225280   5.461   0.018   2.828
 8326SOL     OW25281   3.817   8.092   5.336
 8326SOL    HW125282   3.910   8.077   5.322
 8326SOL    HW225283   3.813   8.163   5.400
 8327SOL     OW25284   7.197   3.183   0.232
 8327SOL    HW125285   7.172   3.105   0.182
 8327SOL    HW225286   7.287   3.201   0.205
 8328SOL     OW25287   5.356   6.550   0.501
 8328SOL    HW125288   5.340   6.539   0.595
 8328SOL    HW225289   5.451   6.538   0.492
 8329SOL     OW25290   4.584   5.801   3.197
 8329SOL    HW125291   4.528   5.855   3.142
 8329SOL    HW225292   4.572   5.835   3.286
 8330SOL     OW25293   5.424   3.593   5.497
 8330SOL    HW125294   5.465   3.522   5.546
 8330SOL    HW225295   5.348   3.553   5.456
 8331SOL     OW25296   2.966   4.233   0.922
 8331SOL    HW125297   3.059   4.256   0.926
 8331SOL    HW225298   2.936   4.234   1.013
 8332SOL     OW25299   2.751   5.668   4.618
 8332SOL    HW125300   2.689   5.610   4.663
 8332SOL    HW225301   2.758   5.631   4.530
 8333SOL     OW25302   6.369   7.802   4.914
 8333SOL    HW125303   6.399   7.765   4.997
 8333SOL    HW225304   6.449   7.829   4.869
 8334SOL     OW25305   5.287   0.014   3.873
 8334SOL    HW125306   5.306   8.177   3.940
 8334SOL    HW225307   5.251   8.194   3.800
 8335SOL     OW25308   1.134   8.190   1.024
 8335SOL    HW125309   1.222   8.152   1.033
 8335SOL    HW225310   1.098   8.147   0.947
 8336SOL     OW25311   4.086   3.796   0.868
 8336SOL    HW125312   4.126   3.840   0.943
 8336SOL    HW225313   3.999   3.770   0.899
 8337SOL     OW25314   4.739   2.307   4.969
 8337SOL    HW125315   4.799   2.379   4.987
 8337SOL    HW225316   4.793   2.242   4.924
 8338SOL     OW25317   4.751   4.138   0.813
 8338SOL    HW125318   4.663   4.161   0.843
 8338SOL    HW225319   4.810   4.196   0.862
 8339SOL     OW25320   2.033   5.251   4.358
 8339SOL    HW125321   1.948   5.274   4.396
 8339SOL    HW225322   2.011   5.204   4.278
 8340SOL     OW25323   6.644   2.709   3.868
 8340SOL    HW125324   6.560   2.707   3.913
 8340SOL    HW225325   6.636   2.780   3.805
 8341SOL     OW25326   0.037   4.500   1.711
 8341SOL    HW125327   0.023   4.527   1.620
 8341SOL    HW225328   0.092   4.422   1.704
 8342SOL     OW25329   6.862   1.142   4.532
 8342SOL    HW125330   6.768   1.140   4.515
 8342SOL    HW225331   6.896   1.063   4.489
 8343SOL     OW25332   7.596   8.186   1.788
 8343SOL    HW125333   7.535   8.129   1.835
 8343SOL    HW225334   7.674   8.189   1.843
 8344SOL     OW25335   7.907   5.075   0.478
 8344SOL    HW125336   7.980   5.117   0.432
 8344SOL    HW225337   7.829   5.113   0.438
 8345SOL     OW25338   0.275   1.152   5.079
 8345SOL    HW125339   0.215   1.127   5.149
 8345SOL    HW225340   0.295   1.070   5.034
 8346SOL     OW25341   3.977   7.611   5.683
 8346SOL    HW125342   3.977   7.542   5.616
 8346SOL    HW225343   4.008   7.567   5.762
 8347SOL     OW25344   3.102   3.283   2.094
 8347SOL    HW125345   3.078   3.312   2.006
 8347SOL    HW225346   3.197   3.277   2.091
 8348SOL     OW25347   1.823   1.551   0.579
 8348SOL    HW125348   1.751   1.607   0.550
 8348SOL    HW225349   1.839   1.492   0.505
 8349SOL     OW25350   5.833   1.603   2.875
 8349SOL    HW125351   5.854   1.518   2.837
 8349SOL    HW225352   5.876   1.666   2.817
 8350SOL     OW25353   6.831   5.427   3.779
 8350SOL    HW125354   6.839   5.445   3.685
 8350SOL    HW225355   6.911   5.464   3.817
 8351SOL     OW25356   7.387   2.561   1.534
 8351SOL    HW125357   7.429   2.592   1.454
 8351SOL    HW225358   7.434   2.481   1.556
 8352SOL     OW25359   4.859   6.475   3.507
 8352SOL    HW125360   4.788   6.518   3.459
 8352SOL    HW225361   4.893   6.543   3.565
 8353SOL     OW25362   6.892   2.399   1.240
 8353SOL    HW125363   6.908   2.487   1.275
 8353SOL    HW225364   6.805   2.404   1.201
 8354SOL     OW25365   6.663   6.515   0.840
 8354SOL    HW125366   6.655   6.604   0.873
 8354SOL    HW225367   6.748   6.513   0.796
 8355SOL     OW25368   3.960   0.634   4.316
 8355SOL    HW125369   4.010   0.647   4.396
 8355SOL    HW225370   3.921   0.547   4.327
 8356SOL     OW25371   7.668   2.130   1.494
 8356SOL    HW125372   7.615   2.090   1.563
 8356SOL    HW225373   7.643   2.084   1.414
 8357SOL     OW25374   6.478   5.837   5.793
 8357SOL    HW125375   6.556   5.782   5.785
 8357SOL    HW225376   6.510   5.926   5.780
 8358SOL     OW25377   2.182   0.867   3.550
 8358SOL    HW125378   2.224   0.839   3.469
 8358SOL    HW225379   2.187   0.790   3.607
 8359SOL     OW25380   1.915   4.286   5.062
 8359SOL    HW125381   1.928   4.371   5.020
 8359SOL    HW225382   1.972   4.288   5.139
 8360SOL     OW25383   2.649   3.681   4.038
 8360SOL    HW125384   2.595   3.602   4.038
 8360SOL    HW225385   2.586   3.752   4.026
 8361SOL     OW25386   3.189   3.004   4.859
 8361SOL    HW125387   3.112   3.035   4.811
 8361SOL    HW225388   3.257   3.069   4.840
 8362SOL     OW25389   0.991   4.491   4.634
 8362SOL    HW125390   0.912   4.510   4.583
 8362SOL    HW225391   0.963   4.499   4.725
 8363SOL     OW25392   6.314   5.657   4.085
 8363SOL    HW125393   6.239   5.661   4.145
 8363SOL    HW225394   6.336   5.749   4.068
 8364SOL     OW25395   0.878   2.763   0.646
 8364SOL    HW125396   0.940   2.813   0.592
 8364SOL    HW225397   0.794   2.772   0.600
 8365SOL     OW25398   5.361   3.172   2.109
 8365SOL    HW125399   5.369   3.087   2.151
 8365SOL    HW225400   5.327   3.152   2.022
 8366SOL     OW25401   7.366   6.095   0.625
 8366SOL    HW125402   7.346   6.186   0.647
 8366SOL    HW225403   7.387   6.097   0.532
 8367SOL     OW25404   1.631   5.319   2.082
 8367SOL    HW125405   1.595   5.343   1.997
 8367SOL    HW225406   1.680   5.396   2.110
 8368SOL     OW25407   5.773   7.155   0.013
 8368SOL    HW125408   1.639   2.984   5.757
 8368SOL    HW225409   5.703   7.220   0.013
 8369SOL     OW25410   4.063   7.170   3.087
 8369SOL    HW125411   4.020   7.216   3.159
 8369SOL    HW225412   3.995   7.113   3.051
 8370SOL     OW25413   6.111   3.834   1.651
 8370SOL    HW125414   6.189   3.867   1.695
 8370SOL    HW225415   6.063   3.787   1.719
 8371SOL     OW25416   1.155   2.379   0.887
 8371SOL    HW125417   1.110   2.402   0.968
 8371SOL    HW225418   1.224   2.445   0.879
 8372SOL     OW25419   4.577   0.523   3.019
 8372SOL    HW125420   4.558   0.433   2.992
 8372SOL    HW225421   4.584   0.519   3.114
 8373SOL     OW25422   1.118   1.555   5.037
 8373SOL    HW125423   1.080   1.475   5.000
 8373SOL    HW225424   1.212   1.545   5.026
 8374SOL     OW25425   5.507   0.181   2.552
 8374SOL    HW125426   5.561   0.124   2.607
 8374SOL    HW225427   5.521   0.148   2.463
 8375SOL     OW25428   3.499   0.910   3.197
 8375SOL    HW125429   3.463   0.972   3.133
 8375SOL    HW225430   3.582   0.882   3.158
 8376SOL     OW25431   2.621   5.369   2.165
 8376SOL    HW125432   2.606   5.281   2.130
 8376SOL    HW225433   2.661   5.417   2.092
 8377SOL     OW25434   3.814   3.741   4.856
 8377SOL    HW125435   3.824   3.654   4.894
 8377SOL    HW225436   3.722   3.745   4.830
 8378SOL     OW25437   2.157   1.657   1.262
 8378SOL    HW125438   2.182   1.611   1.182
 8378SOL    HW225439   2.062   1.669   1.254
 8379SOL     OW25440   7.753   5.872   2.441
 8379SOL    HW125441   7.816   5.918   2.497
 8379SOL    HW225442   7.682   5.847   2.501
 8380SOL     OW25443   8.167   1.533   1.566
 8380SOL    HW125444   8.201   1.446   1.587
 8380SOL    HW225445   8.165   1.579   1.650
 8381SOL     OW25446   1.439   6.336   5.552
 8381SOL    HW125447   1.482   6.254   5.528
 8381SOL    HW225448   1.464   6.350   5.643
 8382SOL     OW25449   7.969   1.172   3.882
 8382SOL    HW125450   8.035   1.222   3.833
 8382SOL    HW225451   8.004   1.083   3.886
 8383SOL     OW25452   4.374   0.495   1.944
 8383SOL    HW125453   4.377   0.445   1.863
 8383SOL    HW225454   4.283   0.525   1.951
 8384SOL     OW25455   5.245   1.584   0.218
 8384SOL    HW125456   5.281   1.651   0.277
 8384SOL    HW225457   5.152   1.580   0.241
 8385SOL     OW25458   4.598   4.462   1.287
 8385SOL    HW125459   4.652   4.526   1.333
 8385SOL    HW225460   4.640   4.451   1.202
 8386SOL     OW25461   8.048   8.083   0.045
 8386SOL    HW125462   3.944   4.019   5.783
 8386SOL    HW225463   8.060   8.147   0.115
 8387SOL     OW25464   2.410   3.826   3.972
 8387SOL    HW125465   2.348   3.771   3.923
 8387SOL    HW225466   2.463   3.868   3.905
 8388SOL     OW25467   1.745   0.483   5.762
 8388SOL    HW125468   1.676   0.490   5.697
 8388SOL    HW225469   1.810   0.424   5.722
 8389SOL     OW25470   2.843   3.954   0.104
 8389SOL    HW125471   2.754   3.984   0.085
 8389SOL    HW225472   2.846   3.865   0.070
 8390SOL     OW25473   5.995   0.084   5.419
 8390SOL    HW125474   5.952   0.016   5.368
 8390SOL    HW225475   5.931   0.108   5.486
 8391SOL     OW25476   1.795   2.908   3.067
 8391SOL    HW125477   1.715   2.939   3.024
 8391SOL    HW225478   1.788   2.813   3.066
 8392SOL     OW25479   6.748   5.722   2.720
 8392SOL    HW125480   6.813   5.788   2.695
 8392SOL    HW225481   6.772   5.644   2.670
 8393SOL     OW25482   3.267   6.439   3.072
 8393SOL    HW125483   3.197   6.480   3.123
 8393SOL    HW225484   3.233   6.352   3.051
 8394SOL     OW25485   5.347   4.184   4.989
 8394SOL    HW125486   5.392   4.251   5.041
 8394SOL    HW225487   5.301   4.233   4.921
 8395SOL     OW25488   0.319   2.457   3.206
 8395SOL    HW125489   0.233   2.467   3.165
 8395SOL    HW225490   0.321   2.365   3.233
 8396SOL     OW25491   5.111   6.395   4.799
 8396SOL    HW125492   5.032   6.341   4.793
 8396SOL    HW225493   5.085   6.468   4.856
 8397SOL     OW25494   5.029   4.953   4.502
 8397SOL    HW125495   5.034   5.044   4.531
 8397SOL    HW225496   5.080   4.951   4.421
 8398SOL     OW25497   6.623   4.802   1.029
 8398SOL    HW125498   6.645   4.711   1.012
 8398SOL    HW225499   6.678   4.852   0.969
 8399SOL     OW25500   2.472   6.745   2.932
 8399SOL    HW125501   2.428   6.679   2.986
 8399SOL    HW225502   2.470   6.825   2.985
 8400SOL     OW25503   1.142   4.062   4.413
 8400SOL    HW125504   1.204   4.066   4.340
 8400SOL    HW225505   1.112   3.971   4.414
 8401SOL     OW25506   5.897   5.059   3.322
 8401SOL    HW125507   5.870   5.117   3.251
 8401SOL    HW225508   5.968   5.106   3.366
 8402SOL     OW25509   5.315   0.450   1.282
 8402SOL    HW125510   5.313   0.485   1.371
 8402SOL    HW225511   5.261   0.511   1.231
 8403SOL     OW25512   6.055   1.052   4.171
 8403SOL    HW125513   5.965   1.024   4.153
 8403SOL    HW225514   6.045   1.134   4.220
 8404SOL     OW25515   0.775   3.848   2.001
 8404SOL    HW125516   0.756   3.853   1.907
 8404SOL    HW225517   0.858   3.800   2.006
 8405SOL     OW25518   0.545   0.487   1.701
 8405SOL    HW125519   0.509   0.425   1.638
 8405SOL    HW225520   0.640   0.475   1.696
 8406SOL     OW25521   3.514   6.280   5.727
 8406SOL    HW125522   3.435   6.314   5.768
 8406SOL    HW225523   3.559   6.232   5.797
 8407SOL     OW25524   7.912   8.192   2.268
 8407SOL    HW125525   7.978   0.022   2.231
 8407SOL    HW225526   7.961   8.135   2.327
 8408SOL     OW25527   3.057   5.110   0.651
 8408SOL    HW125528   3.017   5.163   0.720
 8408SOL    HW225529   3.055   5.021   0.685
 8409SOL     OW25530   8.157   4.402   4.993
 8409SOL    HW125531   8.103   4.451   4.932
 8409SOL    HW225532   8.095   4.349   5.043
 8410SOL     OW25533   4.600   7.673   3.782
 8410SOL    HW125534   4.505   7.667   3.792
 8410SOL    HW225535   4.635   7.640   3.865
 8411SOL     OW25536   1.503   7.855   2.813
 8411SOL    HW125537   1.571   7.851   2.746
 8411SOL    HW225538   1.457   7.771   2.806
 8412SOL     OW25539   3.826   4.483   1.828
 8412SOL    HW125540   3.809   4.401   1.782
 8412SOL    HW225541   3.809   4.462   1.920
 8413SOL     OW25542   0.203   8.028   5.132
 8413SOL    HW125543   0.261   8.103   5.146
 8413SOL    HW225544   0.262   7.956   5.110
 8414SOL     OW25545   3.131   1.501   4.646
 8414SOL    HW125546   3.097   1.589   4.658
 8414SOL    HW225547   3.217   1.503   4.689
 8415SOL     OW25548   2.188   8.002   0.499
 8415SOL    HW125549   2.120   7.938   0.521
 8415SOL    HW225550   2.150   8.087   0.522
 8416SOL     OW25551   5.891   7.719   0.535
 8416SOL    HW125552   5.970   7.761   0.570
 8416SOL    HW225553   5.851   7.677   0.611
 8417SOL     OW25554   7.093   0.091   2.544
 8417SOL    HW125555   7.046   0.173   2.529
 8417SOL    HW225556   7.180   0.106   2.508
 8418SOL     OW25557   6.349   2.457   4.125
 8418SOL    HW125558   6.262   2.425   4.102
 8418SOL    HW225559   6.360   2.535   4.070
 8419SOL     OW25560   1.829   2.649   5.764
 8419SOL    HW125561   5.969   6.797   0.031
 8419SOL    HW225562   1.736   2.628   5.772
 8420SOL     OW25563   6.483   1.171   5.294
 8420SOL    HW125564   6.450   1.107   5.357
 8420SOL    HW225565   6.411   1.183   5.232
 8421SOL     OW25566   3.676   2.599   0.865
 8421SOL    HW125567   3.621   2.585   0.788
 8421SOL    HW225568   3.742   2.661   0.836
 8422SOL     OW25569   6.202   7.756   3.225
 8422SOL    HW125570   6.166   7.667   3.228
 8422SOL    HW225571   6.136   7.807   3.179
 8423SOL     OW25572   4.195   2.475   1.675
 8423SOL    HW125573   4.289   2.457   1.675
 8423SOL    HW225574   4.187   2.565   1.708
 8424SOL     OW25575   2.226   8.151   0.019
 8424SOL    HW125576   2.219   8.088   0.091
 8424SOL    HW225577   2.139   8.191   0.014
 8425SOL     OW25578   7.784   3.928   5.341
 8425SOL    HW125579   7.846   3.856   5.355
 8425SOL    HW225580   7.837   3.999   5.304
 8426SOL     OW25581   4.234   7.538   0.183
 8426SOL    HW125582   4.285   7.484   0.243
 8426SOL    HW225583   4.261   7.510   0.096
 8427SOL     OW25584   4.534   7.294   3.615
 8427SOL    HW125585   4.614   7.345   3.628
 8427SOL    HW225586   4.470   7.336   3.672
 8428SOL     OW25587   6.309   0.772   4.542
 8428SOL    HW125588   6.314   0.844   4.479
 8428SOL    HW225589   6.312   0.693   4.489
 8429SOL     OW25590   3.518   0.362   2.554
 8429SOL    HW125591   3.568   0.280   2.550
 8429SOL    HW225592   3.582   0.430   2.535
 8430SOL     OW25593   6.298   7.332   2.101
 8430SOL    HW125594   6.213   7.318   2.059
 8430SOL    HW225595   6.278   7.338   2.194
 8431SOL     OW25596   2.385   0.049   3.103
 8431SOL    HW125597   2.424   0.130   3.071
 8431SOL    HW225598   2.411   0.045   3.195
 8432SOL     OW25599   4.449   4.256   2.982
 8432SOL    HW125600   4.534   4.300   2.981
 8432SOL    HW225601   4.408   4.280   2.899
 8433SOL     OW25602   5.157   4.262   2.403
 8433SOL    HW125603   5.203   4.346   2.395
 8433SOL    HW225604   5.139   4.236   2.313
 8434SOL     OW25605   2.857   2.762   0.382
 8434SOL    HW125606   2.932   2.749   0.440
 8434SOL    HW225607   2.895   2.761   0.294
 8435SOL     OW25608   8.136   3.205   2.600
 8435SOL    HW125609   8.144   3.292   2.638
 8435SOL    HW225610   8.219   3.162   2.621
 8436SOL     OW25611   4.080   0.212   2.058
 8436SOL    HW125612   4.144   0.257   2.113
 8436SOL    HW225613   4.080   0.122   2.090
 8437SOL     OW25614   7.662   4.690   4.853
 8437SOL    HW125615   7.625   4.743   4.783
 8437SOL    HW225616   7.586   4.663   4.905
 8438SOL     OW25617   5.787   0.315   3.507
 8438SOL    HW125618   5.843   0.393   3.503
 8438SOL    HW225619   5.766   0.306   3.600
 8439SOL     OW25620   0.296   1.630   5.572
 8439SOL    HW125621   0.210   1.591   5.558
 8439SOL    HW225622   0.308   1.627   5.667
 8440SOL     OW25623   0.682   3.452   5.014
 8440SOL    HW125624   0.680   3.367   5.058
 8440SOL    HW225625   0.621   3.506   5.064
 8441SOL     OW25626   3.209   5.719   1.346
 8441SOL    HW125627   3.168   5.759   1.270
 8441SOL    HW225628   3.181   5.773   1.420
 8442SOL     OW25629   6.454   4.167   2.966
 8442SOL    HW125630   6.470   4.080   3.004
 8442SOL    HW225631   6.432   4.222   3.041
 8443SOL     OW25632   0.183   7.502   3.736
 8443SOL    HW125633   0.177   7.407   3.740
 8443SOL    HW225634   0.232   7.526   3.815
 8444SOL     OW25635   3.702   7.673   3.171
 8444SOL    HW125636   3.618   7.718   3.160
 8444SOL    HW225637   3.759   7.739   3.211
 8445SOL     OW25638   8.199   6.473   4.408
 8445SOL    HW125639   8.148   6.543   4.368
 8445SOL    HW225640   8.138   6.430   4.468
 8446SOL     OW25641   6.666   4.367   4.589
 8446SOL    HW125642   6.689   4.290   4.537
 8446SOL    HW225643   6.672   4.440   4.527
 8447SOL     OW25644   6.945   6.711   4.438
 8447SOL    HW125645   6.906   6.700   4.351
 8447SOL    HW225646   7.021   6.767   4.423
 8448SOL     OW25647   2.660   1.305   3.092
 8448SOL    HW125648   2.735   1.362   3.106
 8448SOL    HW225649   2.657   1.293   2.997
 8449SOL     OW25650   2.914   2.471   0.660
 8449SOL    HW125651   2.874   2.493   0.744
 8449SOL    HW225652   2.871   2.389   0.634
 8450SOL     OW25653   1.352   2.868   5.210
 8450SOL    HW125654   1.283   2.932   5.194
 8450SOL    HW225655   1.363   2.867   5.305
 8451SOL     OW25656   6.999   1.277   3.582
 8451SOL    HW125657   6.918   1.257   3.628
 8451SOL    HW225658   7.068   1.261   3.646
 8452SOL     OW25659   1.902   2.508   0.062
 8452SOL    HW125660   1.875   2.553   0.142
 8452SOL    HW225661   1.996   2.527   0.055
 8453SOL     OW25662   2.798   4.353   3.277
 8453SOL    HW125663   2.785   4.333   3.184
 8453SOL    HW225664   2.721   4.317   3.321
 8454SOL     OW25665   7.946   1.439   1.865
 8454SOL    HW125666   8.020   1.400   1.912
 8454SOL    HW225667   7.869   1.397   1.903
 8455SOL     OW25668   2.060   4.864   1.872
 8455SOL    HW125669   2.011   4.796   1.825
 8455SOL    HW225670   2.146   4.825   1.886
 8456SOL     OW25671   5.930   5.734   2.270
 8456SOL    HW125672   5.940   5.710   2.178
 8456SOL    HW225673   6.018   5.759   2.299
 8457SOL     OW25674   4.521   1.717   3.515
 8457SOL    HW125675   4.505   1.661   3.591
 8457SOL    HW225676   4.485   1.802   3.540
 8458SOL     OW25677   3.768   1.791   4.401
 8458SOL    HW125678   3.782   1.764   4.492
 8458SOL    HW225679   3.826   1.734   4.350
 8459SOL     OW25680   2.594   2.487   2.464
 8459SOL    HW125681   2.670   2.475   2.521
 8459SOL    HW225682   2.630   2.481   2.375
 8460SOL     OW25683   6.937   3.545   0.276
 8460SOL    HW125684   6.942   3.449   0.272
 8460SOL    HW225685   7.027   3.574   0.261
 8461SOL     OW25686   3.039   3.122   3.958
 8461SOL    HW125687   2.983   3.197   3.975
 8461SOL    HW225688   3.117   3.138   4.011
 8462SOL     OW25689   4.994   6.149   3.962
 8462SOL    HW125690   5.052   6.209   3.914
 8462SOL    HW225691   4.906   6.171   3.931
 8463SOL     OW25692   4.515   4.442   2.312
 8463SOL    HW125693   4.497   4.534   2.330
 8463SOL    HW225694   4.449   4.394   2.363
 8464SOL     OW25695   4.866   0.357   3.269
 8464SOL    HW125696   4.880   0.452   3.266
 8464SOL    HW225697   4.921   0.328   3.342
 8465SOL     OW25698   8.131   1.967   0.998
 8465SOL    HW125699   8.125   1.913   0.919
 8465SOL    HW225700   8.214   2.013   0.989
 8466SOL     OW25701   3.685   0.178   1.132
 8466SOL    HW125702   3.667   0.229   1.053
 8466SOL    HW225703   3.720   0.241   1.195
 8467SOL     OW25704   7.887   0.315   1.338
 8467SOL    HW125705   7.883   0.383   1.270
 8467SOL    HW225706   7.913   0.236   1.291
 8468SOL     OW25707   4.022   4.035   4.121
 8468SOL    HW125708   4.047   3.949   4.086
 8468SOL    HW225709   4.073   4.098   4.070
 8469SOL     OW25710   6.448   2.174   3.522
 8469SOL    HW125711   6.404   2.103   3.568
 8469SOL    HW225712   6.508   2.130   3.462
 8470SOL     OW25713   5.882   0.654   0.292
 8470SOL    HW125714   5.810   0.661   0.355
 8470SOL    HW225715   5.884   0.739   0.248
 8471SOL     OW25716   5.807   6.162   2.631
 8471SOL    HW125717   5.715   6.187   2.637
 8471SOL    HW225718   5.832   6.185   2.541
 8472SOL     OW25719   4.517   1.196   1.106
 8472SOL    HW125720   4.513   1.148   1.189
 8472SOL    HW225721   4.540   1.285   1.131
 8473SOL     OW25722   1.324   4.989   1.956
 8473SOL    HW125723   1.398   5.039   1.921
 8473SOL    HW225724   1.296   5.038   2.033
 8474SOL     OW25725   0.560   5.838   2.118
 8474SOL    HW125726   0.471   5.854   2.149
 8474SOL    HW225727   0.616   5.869   2.189
 8475SOL     OW25728   2.787   0.443   3.470
 8475SOL    HW125729   2.744   0.512   3.420
 8475SOL    HW225730   2.724   0.371   3.470
 8476SOL     OW25731   1.544   3.733   1.952
 8476SOL    HW125732   1.632   3.771   1.958
 8476SOL    HW225733   1.557   3.641   1.974
 8477SOL     OW25734   8.054   6.250   5.091
 8477SOL    HW125735   8.127   6.189   5.094
 8477SOL    HW225736   8.035   6.260   4.998
 8478SOL     OW25737   5.603   1.478   0.012
 8478SOL    HW125738   5.697   1.489   0.026
 8478SOL    HW225739   5.579   1.405   0.070
 8479SOL     OW25740   5.299   8.218   0.743
 8479SOL    HW125741   5.307   8.148   0.808
 8479SOL    HW225742   5.206   8.220   0.722
 8480SOL     OW25743   6.000   1.107   5.639
 8480SOL    HW125744   6.034   1.028   5.681
 8480SOL    HW225745   6.010   1.176   5.705
 8481SOL     OW25746   3.787   6.548   0.307
 8481SOL    HW125747   3.834   6.465   0.315
 8481SOL    HW225748   3.824   6.603   0.376
 8482SOL     OW25749   3.984   2.037   3.599
 8482SOL    HW125750   3.955   2.116   3.553
 8482SOL    HW225751   3.963   1.965   3.540
 8483SOL     OW25752   4.788   6.384   4.411
 8483SOL    HW125753   4.876   6.421   4.415
 8483SOL    HW225754   4.795   6.314   4.346
 8484SOL     OW25755   6.539   1.718   2.397
 8484SOL    HW125756   6.573   1.630   2.380
 8484SOL    HW225757   6.515   1.751   2.311
 8485SOL     OW25758   2.584   4.690   5.484
 8485SOL    HW125759   2.504   4.719   5.440
 8485SOL    HW225760   2.641   4.660   5.413
 8486SOL     OW25761   6.807   5.551   0.071
 8486SOL    HW125762   2.708   1.477   5.805
 8486SOL    HW225763   6.880   5.581   0.125
 8487SOL     OW25764   0.262   5.260   1.022
 8487SOL    HW125765   0.244   5.228   1.110
 8487SOL    HW225766   0.273   5.181   0.969
 8488SOL     OW25767   2.048   1.769   3.362
 8488SOL    HW125768   2.098   1.844   3.395
 8488SOL    HW225769   1.965   1.806   3.334
 8489SOL     OW25770   0.013   0.443   3.470
 8489SOL    HW125771   0.051   0.395   3.397
 8489SOL    HW225772   0.077   0.434   3.541
 8490SOL     OW25773   4.190   6.611   1.081
 8490SOL    HW125774   4.181   6.610   0.986
 8490SOL    HW225775   4.284   6.613   1.096
 8491SOL     OW25776   4.598   2.784   2.305
 8491SOL    HW125777   4.527   2.803   2.366
 8491SOL    HW225778   4.651   2.718   2.349
 8492SOL     OW25779   0.421   3.532   2.898
 8492SOL    HW125780   0.330   3.561   2.892
 8492SOL    HW225781   0.430   3.497   2.987
 8493SOL     OW25782   8.214   2.912   5.809
 8493SOL    HW125783   8.165   2.896   5.728
 8493SOL    HW225784   4.041   6.996   0.059
 8494SOL     OW25785   3.685   7.570   0.980
 8494SOL    HW125786   3.615   7.636   0.981
 8494SOL    HW225787   3.695   7.544   1.072
 8495SOL     OW25788   4.773   3.108   0.170
 8495SOL    HW125789   4.714   3.085   0.098
 8495SOL    HW225790   4.765   3.035   0.231
 8496SOL     OW25791   5.526   7.936   2.391
 8496SOL    HW125792   5.519   7.841   2.394
 8496SOL    HW225793   5.491   7.961   2.306
 8497SOL     OW25794   8.038   6.852   2.127
 8497SOL    HW125795   8.127   6.880   2.148
 8497SOL    HW225796   7.982   6.922   2.161
 8498SOL     OW25797   0.902   5.636   5.465
 8498SOL    HW125798   0.953   5.663   5.541
 8498SOL    HW225799   0.889   5.717   5.415
 8499SOL     OW25800   4.632   5.590   3.010
 8499SOL    HW125801   4.629   5.635   3.095
 8499SOL    HW225802   4.687   5.646   2.955
 8500SOL     OW25803   0.331   5.267   5.310
 8500SOL    HW125804   0.408   5.217   5.283
 8500SOL    HW225805   0.281   5.279   5.229
 8501SOL     OW25806   5.056   3.019   4.499
 8501SOL    HW125807   5.134   3.055   4.540
 8501SOL    HW225808   5.013   3.094   4.458
 8502SOL     OW25809   5.743   5.203   2.738
 8502SOL    HW125810   5.779   5.120   2.707
 8502SOL    HW225811   5.655   5.207   2.701
 8503SOL     OW25812   6.280   7.571   0.519
 8503SOL    HW125813   6.373   7.590   0.533
 8503SOL    HW225814   6.240   7.582   0.605
 8504SOL     OW25815   1.260   1.566   5.443
 8504SOL    HW125816   1.304   1.483   5.460
 8504SOL    HW225817   1.331   1.629   5.433
 8505SOL     OW25818   1.066   7.986   5.230
 8505SOL    HW125819   1.032   8.075   5.220
 8505SOL    HW225820   1.119   7.972   5.152
 8506SOL     OW25821   6.449   4.707   4.323
 8506SOL    HW125822   6.373   4.696   4.266
 8506SOL    HW225823   6.480   4.796   4.305
 8507SOL     OW25824   0.777   8.132   5.192
 8507SOL    HW125825   0.802   8.208   5.139
 8507SOL    HW225826   0.681   8.133   5.192
 8508SOL     OW25827   7.487   2.526   5.768
 8508SOL    HW125828   7.555   2.480   5.818
 8508SOL    HW225829   7.406   2.480   5.790
 8509SOL     OW25830   5.389   7.703   0.226
 8509SOL    HW125831   5.299   7.709   0.194
 8509SOL    HW225832   5.418   7.615   0.200
 8510SOL     OW25833   3.144   2.371   0.519
 8510SOL    HW125834   3.085   2.389   0.592
 8510SOL    HW225835   3.189   2.454   0.504
 8511SOL     OW25836   3.434   2.915   5.778
 8511SOL    HW125837   3.359   2.904   5.720
 8511SOL    HW225838   3.486   2.985   5.738
 8512SOL     OW25839   6.640   6.178   1.165
 8512SOL    HW125840   6.557   6.144   1.131
 8512SOL    HW225841   6.678   6.227   1.092
 8513SOL     OW25842   0.784   6.819   4.712
 8513SOL    HW125843   0.866   6.771   4.698
 8513SOL    HW225844   0.806   6.887   4.776
 8514SOL     OW25845   1.422   2.565   0.133
 8514SOL    HW125846   1.506   2.604   0.108
 8514SOL    HW225847   1.429   2.473   0.107
 8515SOL     OW25848   2.090   4.381   4.171
 8515SOL    HW125849   2.067   4.461   4.124
 8515SOL    HW225850   2.048   4.391   4.256
 8516SOL     OW25851   1.684   7.069   1.973
 8516SOL    HW125852   1.598   7.027   1.972
 8516SOL    HW225853   1.717   7.059   1.884
 8517SOL     OW25854   5.193   3.099   0.943
 8517SOL    HW125855   5.250   3.134   0.875
 8517SOL    HW225856   5.105   3.124   0.915
 8518SOL     OW25857   3.812   5.632   1.345
 8518SOL    HW125858   3.773   5.661   1.427
 8518SOL    HW225859   3.758   5.673   1.277
 8519SOL     OW25860   6.430   7.075   3.733
 8519SOL    HW125861   6.375   7.004   3.700
 8519SOL    HW225862   6.369   7.137   3.773
 8520SOL     OW25863   3.517   0.895   4.224
 8520SOL    HW125864   3.563   0.971   4.260
 8520SOL    HW225865   3.553   0.820   4.272
 8521SOL     OW25866   2.596   1.477   4.303
 8521SOL    HW125867   2.514   1.522   4.324
 8521SOL    HW225868   2.603   1.484   4.208
 8522SOL     OW25869   6.848   3.301   4.403
 8522SOL    HW125870   6.933   3.338   4.379
 8522SOL    HW225871   6.784   3.356   4.358
 8523SOL     OW25872   5.419   2.326   4.305
 8523SOL    HW125873   5.409   2.379   4.226
 8523SOL    HW225874   5.508   2.344   4.335
 8524SOL     OW25875   6.717   4.313   4.855
 8524SOL    HW125876   6.718   4.338   4.763
 8524SOL    HW225877   6.808   4.323   4.883
 8525SOL     OW25878   5.376   0.878   2.384
 8525SOL    HW125879   5.304   0.878   2.448
 8525SOL    HW225880   5.447   0.925   2.428
 8526SOL     OW25881   7.336   6.057   1.581
 8526SOL    HW125882   7.392   6.077   1.656
 8526SOL    HW225883   7.380   5.985   1.537
 8527SOL     OW25884   4.827   2.130   2.098
 8527SOL    HW125885   4.777   2.084   2.030
 8527SOL    HW225886   4.907   2.158   2.054
 8528SOL     OW25887   6.699   7.521   3.558
 8528SOL    HW125888   6.627   7.552   3.503
 8528SOL    HW225889   6.686   7.426   3.563
 8529SOL     OW25890   1.285   7.417   2.255
 8529SOL    HW125891   1.276   7.357   2.181
 8529SOL    HW225892   1.195   7.440   2.278
 8530SOL     OW25893   3.768   5.023   0.056
 8530SOL    HW125894   3.696   5.065   0.009
 8530SOL    HW225895   3.767   5.064   0.143
 8531SOL     OW25896   1.975   6.134   5.452
 8531SOL    HW125897   1.918   6.210   5.446
 8531SOL    HW225898   1.992   6.123   5.546
 8532SOL     OW25899   3.545   2.000   5.197
 8532SOL    HW125900   3.584   1.970   5.115
 8532SOL    HW225901   3.594   2.079   5.220
 8533SOL     OW25902   6.987   4.570   0.452
 8533SOL    HW125903   7.054   4.541   0.390
 8533SOL    HW225904   7.017   4.536   0.537
 8534SOL     OW25905   1.706   7.118   0.070
 8534SOL    HW125906   5.883   2.986   5.818
 8534SOL    HW225907   1.680   7.031   0.100
 8535SOL     OW25908   2.458   1.802   5.738
 8535SOL    HW125909   2.541   1.848   5.723
 8535SOL    HW225910   2.421   1.789   5.651
 8536SOL     OW25911   0.867   5.191   4.999
 8536SOL    HW125912   0.828   5.104   5.000
 8536SOL    HW225913   0.944   5.182   4.943
 8537SOL     OW25914   7.511   1.877   0.197
 8537SOL    HW125915   7.585   1.928   0.165
 8537SOL    HW225916   7.480   1.830   0.120
 8538SOL     OW25917   8.122   7.664   1.836
 8538SOL    HW125918   8.130   7.572   1.809
 8538SOL    HW225919   8.103   7.711   1.755
 8539SOL     OW25920   4.323   5.406   4.277
 8539SOL    HW125921   4.360   5.443   4.357
 8539SOL    HW225922   4.307   5.482   4.221
 8540SOL     OW25923   4.116   6.863   1.184
 8540SOL    HW125924   4.030   6.899   1.164
 8540SOL    HW225925   4.129   6.794   1.119
 8541SOL     OW25926   4.687   5.822   0.803
 8541SOL    HW125927   4.738   5.859   0.875
 8541SOL    HW225928   4.628   5.759   0.844
 8542SOL     OW25929   4.756   5.108   4.567
 8542SOL    HW125930   4.835   5.073   4.608
 8542SOL    HW225931   4.692   5.113   4.638
 8543SOL     OW25932   1.728   4.845   1.067
 8543SOL    HW125933   1.732   4.843   1.163
 8543SOL    HW225934   1.760   4.932   1.043
 8544SOL     OW25935   3.199   1.016   3.774
 8544SOL    HW125936   3.232   0.965   3.848
 8544SOL    HW225937   3.135   0.958   3.732
 8545SOL     OW25938   1.570   3.126   4.047
 8545SOL    HW125939   1.587   3.215   4.077
 8545SOL    HW225940   1.656   3.092   4.024
 8546SOL     OW25941   7.894   2.277   2.274
 8546SOL    HW125942   7.842   2.349   2.310
 8546SOL    HW225943   7.839   2.241   2.204
 8547SOL     OW25944   1.434   2.717   2.464
 8547SOL    HW125945   1.414   2.627   2.491
 8547SOL    HW225946   1.481   2.755   2.539
 8548SOL     OW25947   7.436   2.979   3.922
 8548SOL    HW125948   7.367   2.957   3.860
 8548SOL    HW225949   7.486   2.898   3.932
 8549SOL     OW25950   4.075   6.155   3.276
 8549SOL    HW125951   4.039   6.086   3.332
 8549SOL    HW225952   3.999   6.205   3.248
 8550SOL     OW25953   8.078   3.213   3.370
 8550SOL    HW125954   8.007   3.276   3.353
 8550SOL    HW225955   8.069   3.191   3.463
 8551SOL     OW25956   3.920   8.087   4.152
 8551SOL    HW125957   3.908   8.177   4.122
 8551SOL    HW225958   3.841   8.067   4.202
 8552SOL     OW25959   5.258   3.946   5.115
 8552SOL    HW125960   5.243   4.038   5.095
 8552SOL    HW225961   5.301   3.911   5.037
 8553SOL     OW25962   4.999   0.510   2.608
 8553SOL    HW125963   5.009   0.459   2.528
 8553SOL    HW225964   5.026   0.598   2.583
 8554SOL     OW25965   0.436   5.013   0.972
 8554SOL    HW125966   0.357   4.976   0.934
 8554SOL    HW225967   0.504   4.948   0.954
 8555SOL     OW25968   3.661   5.147   3.006
 8555SOL    HW125969   3.663   5.240   3.027
 8555SOL    HW225970   3.601   5.140   2.932
 8556SOL     OW25971   7.957   6.269   0.073
 8556SOL    HW125972   7.930   6.251   0.163
 8556SOL    HW225973   7.901   6.342   0.046
 8557SOL     OW25974   1.667   2.079   2.489
 8557SOL    HW125975   1.635   2.060   2.401
 8557SOL    HW225976   1.675   2.174   2.491
 8558SOL     OW25977   5.650   1.295   2.659
 8558SOL    HW125978   5.592   1.259   2.726
 8558SOL    HW225979   5.667   1.385   2.688
 8559SOL     OW25980   2.920   8.127   1.499
 8559SOL    HW125981   2.854   8.167   1.443
 8559SOL    HW225982   2.870   8.078   1.564
 8560SOL     OW25983   0.785   8.046   0.943
 8560SOL    HW125984   0.731   8.118   0.911
 8560SOL    HW225985   0.833   8.083   1.017
 8561SOL     OW25986   2.441   0.052   3.427
 8561SOL    HW125987   2.357   0.060   3.473
 8561SOL    HW225988   2.500   0.110   3.474
 8562SOL     OW25989   5.152   0.363   2.369
 8562SOL    HW125990   5.168   0.276   2.334
 8562SOL    HW225991   5.111   0.411   2.297
 8563SOL     OW25992   6.217   1.690   4.984
 8563SOL    HW125993   6.160   1.763   4.961
 8563SOL    HW225994   6.163   1.612   4.971
 8564SOL     OW25995   0.075   0.825   2.986
 8564SOL    HW125996   8.226   0.789   2.944
 8564SOL    HW225997   0.042   0.893   3.045
 8565SOL     OW25998   2.084   0.081   2.234
 8565SOL    HW125999   2.043   0.133   2.304
 8565SOL    HW226000   2.167   0.125   2.217
 8566SOL     OW26001   6.087   4.840   1.299
 8566SOL    HW126002   6.029   4.910   1.328
 8566SOL    HW226003   6.031   4.784   1.245
 8567SOL     OW26004   5.584   8.041   5.678
 8567SOL    HW126005   5.670   8.072   5.650
 8567SOL    HW226006   5.598   8.010   5.768
 8568SOL     OW26007   2.624   0.144   1.645
 8568SOL    HW126008   2.530   0.141   1.665
 8568SOL    HW226009   2.666   0.160   1.729
 8569SOL     OW26010   4.602   2.961   2.741
 8569SOL    HW126011   4.557   3.036   2.701
 8569SOL    HW226012   4.668   2.936   2.676
 8570SOL     OW26013   7.419   1.701   2.367
 8570SOL    HW126014   7.382   1.651   2.294
 8570SOL    HW226015   7.498   1.652   2.391
 8571SOL     OW26016   6.062   5.259   1.905
 8571SOL    HW126017   6.041   5.325   1.839
 8571SOL    HW226018   6.025   5.294   1.986
 8572SOL     OW26019   8.069   2.677   4.966
 8572SOL    HW126020   8.031   2.696   4.880
 8572SOL    HW226021   8.014   2.607   5.002
 8573SOL     OW26022   4.423   1.968   5.014
 8573SOL    HW126023   4.518   1.978   5.003
 8573SOL    HW226024   4.409   1.979   5.108
 8574SOL     OW26025   2.447   2.713   0.000
 8574SOL    HW126026   6.586   6.880   5.742
 8574SOL    HW226027   2.475   2.766   0.075
 8575SOL     OW26028   4.236   5.904   5.119
 8575SOL    HW126029   4.233   5.997   5.143
 8575SOL    HW226030   4.209   5.858   5.199
 8576SOL     OW26031   4.127   7.857   1.489
 8576SOL    HW126032   4.067   7.916   1.443
 8576SOL    HW226033   4.189   7.915   1.534
 8577SOL     OW26034   6.022   1.713   0.103
 8577SOL    HW126035   5.953   1.679   0.045
 8577SOL    HW226036   6.016   1.808   0.093
 8578SOL     OW26037   1.347   4.313   0.223
 8578SOL    HW126038   1.412   4.328   0.292
 8578SOL    HW226039   1.263   4.326   0.266
 8579SOL     OW26040   1.199   6.082   3.465
 8579SOL    HW126041   1.189   6.075   3.370
 8579SOL    HW226042   1.169   5.997   3.498
 8580SOL     OW26043   6.933   3.229   1.677
 8580SOL    HW126044   6.968   3.141   1.665
 8580SOL    HW226045   6.879   3.245   1.600
 8581SOL     OW26046   2.698   1.421   4.023
 8581SOL    HW126047   2.732   1.442   3.936
 8581SOL    HW226048   2.736   1.336   4.044
 8582SOL     OW26049   4.640   3.435   5.629
 8582SOL    HW126050   4.643   3.390   5.545
 8582SOL    HW226051   4.626   3.527   5.606
 8583SOL     OW26052   0.387   0.762   4.501
 8583SOL    HW126053   0.312   0.703   4.501
 8583SOL    HW226054   0.459   0.709   4.535
 8584SOL     OW26055   1.079   5.558   1.784
 8584SOL    HW126056   1.100   5.595   1.870
 8584SOL    HW226057   1.099   5.628   1.722
 8585SOL     OW26058   7.263   6.999   5.760
 8585SOL    HW126059   7.228   7.071   5.708
 8585SOL    HW226060   3.082   2.870   0.009
 8586SOL     OW26061   7.854   3.815   4.317
 8586SOL    HW126062   7.891   3.838   4.232
 8586SOL    HW226063   7.930   3.796   4.372
 8587SOL     OW26064   6.867   2.750   5.419
 8587SOL    HW126065   6.897   2.808   5.489
 8587SOL    HW226066   6.772   2.747   5.430
 8588SOL     OW26067   3.520   5.541   0.829
 8588SOL    HW126068   3.535   5.600   0.755
 8588SOL    HW226069   3.606   5.502   0.846
 8589SOL     OW26070   3.258   6.709   0.522
 8589SOL    HW126071   3.352   6.695   0.515
 8589SOL    HW226072   3.247   6.803   0.511
 8590SOL     OW26073   6.302   0.340   0.548
 8590SOL    HW126074   6.236   0.407   0.531
 8590SOL    HW226075   6.259   0.278   0.607
 8591SOL     OW26076   2.152   7.523   3.917
 8591SOL    HW126077   2.128   7.475   3.996
 8591SOL    HW226078   2.229   7.478   3.883
 8592SOL     OW26079   1.503   3.531   1.650
 8592SOL    HW126080   1.427   3.552   1.704
 8592SOL    HW226081   1.477   3.453   1.601
 8593SOL     OW26082   6.486   7.193   5.678
 8593SOL    HW126083   6.399   7.164   5.651
 8593SOL    HW226084   6.495   7.162   5.768
 8594SOL     OW26085   1.778   0.263   3.539
 8594SOL    HW126086   1.792   0.211   3.460
 8594SOL    HW226087   1.739   0.202   3.601
 8595SOL     OW26088   5.907   2.685   4.380
 8595SOL    HW126089   5.982   2.730   4.341
 8595SOL    HW226090   5.851   2.756   4.413
 8596SOL     OW26091   1.755   6.355   3.211
 8596SOL    HW126092   1.772   6.406   3.290
 8596SOL    HW226093   1.752   6.264   3.241
 8597SOL     OW26094   0.976   7.972   3.100
 8597SOL    HW126095   0.994   8.030   3.026
 8597SOL    HW226096   1.062   7.940   3.128
 8598SOL     OW26097   6.056   0.028   1.179
 8598SOL    HW126098   6.083   0.118   1.200
 8598SOL    HW226099   6.129   8.203   1.210
 8599SOL     OW26100   1.414   1.152   0.502
 8599SOL    HW126101   1.362   1.226   0.534
 8599SOL    HW226102   1.466   1.189   0.431
 8600SOL     OW26103   1.312   2.640   1.068
 8600SOL    HW126104   1.290   2.594   1.149
 8600SOL    HW226105   1.342   2.726   1.097
 8601SOL     OW26106   7.056   3.684   4.166
 8601SOL    HW126107   7.061   3.673   4.261
 8601SOL    HW226108   7.127   3.630   4.132
 8602SOL     OW26109   6.876   6.553   1.832
 8602SOL    HW126110   6.962   6.575   1.796
 8602SOL    HW226111   6.893   6.527   1.923
 8603SOL     OW26112   3.820   1.784   1.399
 8603SOL    HW126113   3.799   1.877   1.390
 8603SOL    HW226114   3.866   1.761   1.318
 8604SOL     OW26115   0.397   4.470   2.591
 8604SOL    HW126116   0.325   4.446   2.532
 8604SOL    HW226117   0.384   4.564   2.607
 8605SOL     OW26118   6.755   3.703   4.222
 8605SOL    HW126119   6.845   3.708   4.255
 8605SOL    HW226120   6.717   3.788   4.244
 8606SOL     OW26121   1.815   5.016   3.895
 8606SOL    HW126122   1.724   4.988   3.900
 8606SOL    HW226123   1.810   5.110   3.876
 8607SOL     OW26124   4.789   7.544   1.949
 8607SOL    HW126125   4.878   7.569   1.974
 8607SOL    HW226126   4.800   7.475   1.884
 8608SOL     OW26127   2.290   7.335   5.127
 8608SOL    HW126128   2.202   7.366   5.146
 8608SOL    HW226129   2.342   7.415   5.117
 8609SOL     OW26130   5.072   2.058   1.294
 8609SOL    HW126131   5.070   2.108   1.212
 8609SOL    HW226132   5.024   1.977   1.274
 8610SOL     OW26133   5.519   6.420   2.735
 8610SOL    HW126134   5.538   6.326   2.740
 8610SOL    HW226135   5.457   6.428   2.663
 8611SOL     OW26136   4.103   0.325   3.346
 8611SOL    HW126137   4.087   0.393   3.411
 8611SOL    HW226138   4.179   0.356   3.297
 8612SOL     OW26139   7.077   7.930   4.729
 8612SOL    HW126140   7.107   7.949   4.818
 8612SOL    HW226141   7.150   7.883   4.688
 8613SOL     OW26142   5.668   0.705   1.362
 8613SOL    HW126143   5.635   0.727   1.449
 8613SOL    HW226144   5.746   0.652   1.378
 8614SOL     OW26145   6.370   8.056   4.660
 8614SOL    HW126146   6.417   7.979   4.628
 8614SOL    HW226147   6.423   8.131   4.631
 8615SOL     OW26148   6.258   6.250   2.044
 8615SOL    HW126149   6.299   6.174   2.085
 8615SOL    HW226150   6.304   6.260   1.961
 8616SOL     OW26151   0.119   0.180   2.800
 8616SOL    HW126152   0.156   0.092   2.792
 8616SOL    HW226153   0.061   0.175   2.876
 8617SOL     OW26154   1.046   5.531   2.604
 8617SOL    HW126155   1.046   5.442   2.638
 8617SOL    HW226156   1.030   5.521   2.510
 8618SOL     OW26157   3.295   2.736   0.503
 8618SOL    HW126158   3.374   2.789   0.513
 8618SOL    HW226159   3.314   2.656   0.551
 8619SOL     OW26160   7.055   6.001   3.103
 8619SOL    HW126161   7.014   6.027   3.020
 8619SOL    HW226162   7.011   5.919   3.126
 8620SOL     OW26163   4.174   2.940   1.539
 8620SOL    HW126164   4.187   3.016   1.595
 8620SOL    HW226165   4.140   2.976   1.457
 8621SOL     OW26166   1.835   7.328   5.122
 8621SOL    HW126167   1.886   7.399   5.082
 8621SOL    HW226168   1.894   7.291   5.187
 8622SOL     OW26169   4.986   3.195   5.125
 8622SOL    HW126170   5.037   3.276   5.117
 8622SOL    HW226171   4.946   3.201   5.212
 8623SOL     OW26172   4.085   5.482   4.834
 8623SOL    HW126173   4.144   5.407   4.846
 8623SOL    HW226174   4.077   5.490   4.739
 8624SOL     OW26175   7.800   8.201   2.004
 8624SOL    HW126176   7.878   0.015   1.968
 8624SOL    HW226177   7.813   8.203   2.099
 8625SOL     OW26178   0.028   7.997   4.862
 8625SOL    HW126179   8.162   7.994   4.860
 8625SOL    HW226180   0.053   7.916   4.906
 8626SOL     OW26181   3.146   7.126   4.235
 8626SOL    HW126182   3.092   7.047   4.230
 8626SOL    HW226183   3.155   7.143   4.329
 8627SOL     OW26184   5.995   7.809   2.748
 8627SOL    HW126185   5.940   7.734   2.724
 8627SOL    HW226186   5.937   7.885   2.742
 8628SOL     OW26187   4.796   4.611   3.403
 8628SOL    HW126188   4.727   4.656   3.452
 8628SOL    HW226189   4.850   4.569   3.470
 8629SOL     OW26190   4.312   3.393   5.101
 8629SOL    HW126191   4.346   3.395   5.012
 8629SOL    HW226192   4.245   3.462   5.102
 8630SOL     OW26193   3.818   6.004   3.120
 8630SOL    HW126194   3.806   6.088   3.165
 8630SOL    HW226195   3.820   5.939   3.190
 8631SOL     OW26196   0.626   6.568   3.471
 8631SOL    HW126197   0.533   6.546   3.480
 8631SOL    HW226198   0.658   6.578   3.561
 8632SOL     OW26199   5.249   6.231   2.734
 8632SOL    HW126200   5.159   6.229   2.768
 8632SOL    HW226201   5.258   6.318   2.695
 8633SOL     OW26202   1.706   0.661   3.593
 8633SOL    HW126203   1.772   0.593   3.577
 8633SOL    HW226204   1.704   0.711   3.512
 8634SOL     OW26205   6.033   6.950   3.527
 8634SOL    HW126206   6.064   7.025   3.476
 8634SOL    HW226207   5.956   6.983   3.573
 8635SOL     OW26208   7.579   4.058   5.510
 8635SOL    HW126209   7.535   3.995   5.567
 8635SOL    HW226210   7.651   4.009   5.471
 8636SOL     OW26211   3.886   1.918   4.793
 8636SOL    HW126212   3.805   1.908   4.844
 8636SOL    HW226213   3.890   1.838   4.740
 8637SOL     OW26214   5.364   5.376   5.633
 8637SOL    HW126215   5.432   5.318   5.666
 8637SOL    HW226216   5.337   5.336   5.550
 8638SOL     OW26217   7.541   5.144   0.816
 8638SOL    HW126218   7.636   5.158   0.814
 8638SOL    HW226219   7.504   5.227   0.845
 8639SOL     OW26220   6.776   2.474   0.091
 8639SOL    HW126221   6.866   2.440   0.089
 8639SOL    HW226222   6.733   2.431   0.017
 8640SOL     OW26223   1.348   1.970   4.438
 8640SOL    HW126224   1.288   1.977   4.512
 8640SOL    HW226225   1.333   2.050   4.387
 8641SOL     OW26226   4.007   4.680   0.356
 8641SOL    HW126227   3.931   4.627   0.332
 8641SOL    HW226228   3.970   4.765   0.380
 8642SOL     OW26229   0.157   4.773   1.602
 8642SOL    HW126230   0.248   4.753   1.578
 8642SOL    HW226231   0.164   4.840   1.670
 8643SOL     OW26232   1.515   4.246   4.636
 8643SOL    HW126233   1.602   4.207   4.640
 8643SOL    HW226234   1.526   4.333   4.673
 8644SOL     OW26235   4.895   7.707   5.326
 8644SOL    HW126236   4.868   7.737   5.239
 8644SOL    HW226237   4.821   7.655   5.358
 8645SOL     OW26238   0.585   2.978   2.037
 8645SOL    HW126239   0.644   2.983   1.962
 8645SOL    HW226240   0.518   2.915   2.010
 8646SOL     OW26241   1.554   2.177   1.141
 8646SOL    HW126242   1.617   2.247   1.122
 8646SOL    HW226243   1.480   2.195   1.082
 8647SOL     OW26244   0.860   7.344   5.305
 8647SOL    HW126245   0.836   7.330   5.397
 8647SOL    HW226246   0.777   7.345   5.258
 8648SOL     OW26247   5.431   2.235   0.441
 8648SOL    HW126248   5.366   2.237   0.371
 8648SOL    HW226249   5.457   2.143   0.448
 8649SOL     OW26250   7.043   1.232   1.007
 8649SOL    HW126251   7.084   1.301   0.955
 8649SOL    HW226252   6.971   1.200   0.953
 8650SOL     OW26253   3.496   7.426   4.404
 8650SOL    HW126254   3.540   7.487   4.462
 8650SOL    HW226255   3.536   7.341   4.423
 8651SOL     OW26256   5.151   4.793   5.007
 8651SOL    HW126257   5.216   4.740   4.961
 8651SOL    HW226258   5.086   4.730   5.037
 8652SOL     OW26259   7.845   6.471   3.008
 8652SOL    HW126260   7.865   6.528   2.934
 8652SOL    HW226261   7.794   6.526   3.068
 8653SOL     OW26262   2.421   4.073   1.634
 8653SOL    HW126263   2.512   4.054   1.656
 8653SOL    HW226264   2.404   4.157   1.677
 8654SOL     OW26265   1.667   8.205   0.444
 8654SOL    HW126266   1.734   8.204   0.376
 8654SOL    HW226267   1.641   0.068   0.450
 8655SOL     OW26268   7.995   5.327   5.743
 8655SOL    HW126269   3.891   1.263   0.005
 8655SOL    HW226270   8.072   5.349   5.691
 8656SOL     OW26271   0.510   0.615   1.941
 8656SOL    HW126272   0.419   0.641   1.951
 8656SOL    HW226273   0.509   0.552   1.869
 8657SOL     OW26274   2.670   2.189   5.001
 8657SOL    HW126275   2.597   2.194   5.063
 8657SOL    HW226276   2.747   2.173   5.056
 8658SOL     OW26277   3.634   1.198   5.220
 8658SOL    HW126278   3.704   1.228   5.161
 8658SOL    HW226279   3.558   1.250   5.195
 8659SOL     OW26280   5.431   0.909   5.693
 8659SOL    HW126281   5.398   0.984   5.643
 8659SOL    HW226282   5.495   0.946   5.753
 8660SOL     OW26283   4.320   8.164   3.213
 8660SOL    HW126284   4.380   8.209   3.272
 8660SOL    HW226285   4.312   8.076   3.250
 8661SOL     OW26286   7.218   5.494   4.831
 8661SOL    HW126287   7.228   5.584   4.799
 8661SOL    HW226288   7.147   5.457   4.778
 8662SOL     OW26289   5.445   2.908   4.401
 8662SOL    HW126290   5.485   2.976   4.455
 8662SOL    HW226291   5.391   2.956   4.338
 8663SOL     OW26292   1.802   6.877   0.379
 8663SOL    HW126293   1.804   6.829   0.462
 8663SOL    HW226294   1.733   6.835   0.328
 8664SOL     OW26295   5.135   1.946   0.263
 8664SOL    HW126296   5.219   1.938   0.309
 8664SOL    HW226297   5.134   1.872   0.202
 8665SOL     OW26298   2.131   2.732   3.785
 8665SOL    HW126299   2.099   2.706   3.871
 8665SOL    HW226300   2.055   2.771   3.742
 8666SOL     OW26301   2.209   5.847   5.250
 8666SOL    HW126302   2.221   5.832   5.156
 8666SOL    HW226303   2.176   5.937   5.256
 8667SOL     OW26304   3.068   6.709   2.234
 8667SOL    HW126305   2.996   6.695   2.295
 8667SOL    HW226306   3.037   6.671   2.152
 8668SOL     OW26307   0.347   0.026   3.780
 8668SOL    HW126308   0.306   0.019   3.866
 8668SOL    HW226309   0.433   8.214   3.791
 8669SOL     OW26310   0.391   2.292   5.732
 8669SOL    HW126311   0.462   2.324   5.676
 8669SOL    HW226312   0.435   2.242   5.800
 8670SOL     OW26313   5.860   7.538   3.035
 8670SOL    HW126314   5.768   7.537   3.008
 8670SOL    HW226315   5.909   7.549   2.954
 8671SOL     OW26316   5.860   8.210   3.099
 8671SOL    HW126317   5.806   8.150   3.048
 8671SOL    HW226318   5.894   8.156   3.171
 8672SOL     OW26319   5.656   3.113   4.013
 8672SOL    HW126320   5.562   3.118   3.997
 8672SOL    HW226321   5.677   3.194   4.060
 8673SOL     OW26322   7.657   2.797   3.612
 8673SOL    HW126323   7.574   2.819   3.570
 8673SOL    HW226324   7.640   2.714   3.657
 8674SOL     OW26325   5.210   1.399   1.215
 8674SOL    HW126326   5.129   1.423   1.259
 8674SOL    HW226327   5.273   1.466   1.242
 8675SOL     OW26328   5.225   0.821   3.977
 8675SOL    HW126329   5.280   0.760   4.026
 8675SOL    HW226330   5.280   0.851   3.904
 8676SOL     OW26331   6.087   2.884   1.613
 8676SOL    HW126332   6.048   2.910   1.530
 8676SOL    HW226333   6.172   2.846   1.589
 8677SOL     OW26334   4.174   5.728   5.358
 8677SOL    HW126335   4.214   5.704   5.442
 8677SOL    HW226336   4.096   5.777   5.382
 8678SOL     OW26337   4.134   5.761   3.389
 8678SOL    HW126338   4.109   5.844   3.431
 8678SOL    HW226339   4.171   5.709   3.460
 8679SOL     OW26340   5.300   5.439   0.021
 8679SOL    HW126341   1.252   1.264   5.807
 8679SOL    HW226342   5.301   5.427   0.116
 8680SOL     OW26343   2.983   0.824   2.772
 8680SOL    HW126344   3.068   0.780   2.766
 8680SOL    HW226345   2.962   0.847   2.681
 8681SOL     OW26346   5.127   4.853   2.469
 8681SOL    HW126347   5.085   4.775   2.505
 8681SOL    HW226348   5.150   4.829   2.379
 8682SOL     OW26349   6.046   4.629   3.492
 8682SOL    HW126350   6.024   4.699   3.553
 8682SOL    HW226351   6.112   4.668   3.434
 8683SOL     OW26352   3.893   0.573   2.401
 8683SOL    HW126353   3.937   0.655   2.424
 8683SOL    HW226354   3.815   0.572   2.456
 8684SOL     OW26355   3.333   2.685   5.261
 8684SOL    HW126356   3.303   2.761   5.210
 8684SOL    HW226357   3.271   2.616   5.240
 8685SOL     OW26358   5.576   4.370   0.122
 8685SOL    HW126359   5.601   4.278   0.125
 8685SOL    HW226360   5.633   4.412   0.186
 8686SOL     OW26361   6.987   4.673   0.789
 8686SOL    HW126362   7.080   4.693   0.803
 8686SOL    HW226363   6.961   4.732   0.718
 8687SOL     OW26364   6.402   5.368   5.714
 8687SOL    HW126365   6.434   5.294   5.663
 8687SOL    HW226366   6.321   5.337   5.755
 8688SOL     OW26367   0.857   8.142   4.184
 8688SOL    HW126368   0.909   8.092   4.248
 8688SOL    HW226369   0.867   8.094   4.102
 8689SOL     OW26370   2.771   5.772   1.569
 8689SOL    HW126371   2.802   5.731   1.650
 8689SOL    HW226372   2.741   5.699   1.515
 8690SOL     OW26373   4.753   7.849   0.127
 8690SOL    HW126374   4.804   7.791   0.183
 8690SOL    HW226375   4.695   7.791   0.079
 8691SOL     OW26376   3.472   1.406   3.341
 8691SOL    HW126377   3.470   1.418   3.436
 8691SOL    HW226378   3.398   1.457   3.308
 8692SOL     OW26379   6.720   2.788   5.128
 8692SOL    HW126380   6.680   2.795   5.041
 8692SOL    HW226381   6.724   2.694   5.146
 8693SOL     OW26382   3.976   5.669   3.997
 8693SOL    HW126383   3.882   5.667   4.014
 8693SOL    HW226384   4.015   5.679   4.084
 8694SOL     OW26385   7.631   4.936   2.285
 8694SOL    HW126386   7.567   4.945   2.214
 8694SOL    HW226387   7.681   4.857   2.263
 8695SOL     OW26388   1.775   8.083   5.255
 8695SOL    HW126389   1.854   8.042   5.221
 8695SOL    HW226390   1.703   8.032   5.216
 8696SOL     OW26391   6.909   5.987   4.157
 8696SOL    HW126392   6.828   5.985   4.105
 8696SOL    HW226393   6.957   6.064   4.125
 8697SOL     OW26394   5.551   1.291   3.951
 8697SOL    HW126395   5.518   1.288   4.041
 8697SOL    HW226396   5.563   1.199   3.926
 8698SOL     OW26397   2.208   7.774   4.153
 8698SOL    HW126398   2.167   7.688   4.157
 8698SOL    HW226399   2.284   7.762   4.096
 8699SOL     OW26400   3.823   3.285   3.471
 8699SOL    HW126401   3.807   3.308   3.563
 8699SOL    HW226402   3.917   3.267   3.466
 8700SOL     OW26403   1.781   1.145   4.906
 8700SOL    HW126404   1.852   1.169   4.965
 8700SOL    HW226405   1.786   1.208   4.834
 8701SOL     OW26406   1.096   5.941   4.220
 8701SOL    HW126407   1.045   5.995   4.280
 8701SOL    HW226408   1.033   5.914   4.153
 8702SOL     OW26409   4.790   0.413   0.232
 8702SOL    HW126410   4.805   0.485   0.170
 8702SOL    HW226411   4.741   0.453   0.304
 8703SOL     OW26412   6.573   7.537   2.728
 8703SOL    HW126413   6.577   7.623   2.686
 8703SOL    HW226414   6.593   7.554   2.820
 8704SOL     OW26415   3.466   3.184   3.270
 8704SOL    HW126416   3.496   3.268   3.306
 8704SOL    HW226417   3.529   3.120   3.303
 8705SOL     OW26418   6.337   2.585   0.492
 8705SOL    HW126419   6.284   2.664   0.486
 8705SOL    HW226420   6.397   2.602   0.565
 8706SOL     OW26421   7.030   5.153   3.672
 8706SOL    HW126422   7.084   5.125   3.598
 8706SOL    HW226423   7.004   5.072   3.715
 8707SOL     OW26424   7.652   5.989   2.914
 8707SOL    HW126425   7.746   5.974   2.904
 8707SOL    HW226426   7.646   6.075   2.956
 8708SOL     OW26427   3.658   1.811   3.608
 8708SOL    HW126428   3.716   1.778   3.677
 8708SOL    HW226429   3.664   1.906   3.615
 8709SOL     OW26430   5.038   3.238   0.201
 8709SOL    HW126431   4.978   3.164   0.212
 8709SOL    HW226432   4.986   3.314   0.226
 8710SOL     OW26433   3.072   4.394   0.079
 8710SOL    HW126434   3.054   4.301   0.066
 8710SOL    HW226435   3.120   4.397   0.162
 8711SOL     OW26436   7.841   0.887   1.584
 8711SOL    HW126437   7.874   0.803   1.616
 8711SOL    HW226438   7.793   0.865   1.504
 8712SOL     OW26439   2.039   1.248   4.826
 8712SOL    HW126440   2.129   1.274   4.806
 8712SOL    HW226441   2.042   1.152   4.825
 8713SOL     OW26442   4.653   2.829   0.035
 8713SOL    HW126443   4.688   2.780   0.109
 8713SOL    HW226444   4.611   2.906   0.074
 8714SOL     OW26445   4.123   3.982   3.477
 8714SOL    HW126446   4.184   3.947   3.412
 8714SOL    HW226447   4.179   4.027   3.540
 8715SOL     OW26448   8.008   2.582   5.329
 8715SOL    HW126449   7.936   2.641   5.306
 8715SOL    HW226450   8.075   2.639   5.365
 8716SOL     OW26451   5.676   0.919   2.201
 8716SOL    HW126452   5.681   0.972   2.122
 8716SOL    HW226453   5.766   0.889   2.216
 8717SOL     OW26454   0.598   1.803   4.095
 8717SOL    HW126455   0.581   1.862   4.021
 8717SOL    HW226456   0.520   1.748   4.101
 8718SOL     OW26457   7.960   4.120   0.126
 8718SOL    HW126458   7.931   4.112   0.217
 8718SOL    HW226459   7.903   4.188   0.089
 8719SOL     OW26460   5.088   7.268   2.611
 8719SOL    HW126461   5.034   7.328   2.560
 8719SOL    HW226462   5.177   7.303   2.603
 8720SOL     OW26463   2.528   7.531   1.713
 8720SOL    HW126464   2.508   7.565   1.800
 8720SOL    HW226465   2.463   7.571   1.656
 8721SOL     OW26466   2.306   7.339   4.285
 8721SOL    HW126467   2.299   7.434   4.294
 8721SOL    HW226468   2.226   7.314   4.239
 8722SOL     OW26469   0.774   0.431   1.533
 8722SOL    HW126470   0.776   0.343   1.496
 8722SOL    HW226471   0.739   0.486   1.463
 8723SOL     OW26472   4.167   4.383   0.897
 8723SOL    HW126473   4.149   4.430   0.815
 8723SOL    HW226474   4.080   4.368   0.935
 8724SOL     OW26475   6.631   0.294   4.399
 8724SOL    HW126476   6.685   0.271   4.474
 8724SOL    HW226477   6.547   0.321   4.437
 8725SOL     OW26478   7.987   7.170   5.264
 8725SOL    HW126479   8.059   7.222   5.229
 8725SOL    HW226480   7.944   7.132   5.187
 8726SOL     OW26481   2.762   0.341   2.485
 8726SOL    HW126482   2.670   0.354   2.508
 8726SOL    HW226483   2.774   0.392   2.405
 8727SOL     OW26484   2.972   5.760   5.439
 8727SOL    HW126485   2.904   5.778   5.375
 8727SOL    HW226486   2.930   5.777   5.524
 8728SOL     OW26487   2.222   2.468   1.464
 8728SOL    HW126488   2.146   2.524   1.451
 8728SOL    HW226489   2.287   2.501   1.402
 8729SOL     OW26490   1.872   5.739   0.261
 8729SOL    HW126491   1.957   5.698   0.275
 8729SOL    HW226492   1.892   5.820   0.214
 8730SOL     OW26493   2.454   6.342   5.327
 8730SOL    HW126494   2.509   6.346   5.405
 8730SOL    HW226495   2.380   6.399   5.348
 8731SOL     OW26496   3.070   1.128   1.721
 8731SOL    HW126497   3.093   1.049   1.671
 8731SOL    HW226498   2.998   1.101   1.777
 8732SOL     OW26499   2.308   0.199   2.433
 8732SOL    HW126500   2.341   0.126   2.485
 8732SOL    HW226501   2.235   0.234   2.484
 8733SOL     OW26502   6.379   2.314   2.549
 8733SOL    HW126503   6.304   2.291   2.494
 8733SOL    HW226504   6.446   2.249   2.527
 8734SOL     OW26505   1.672   0.993   2.146
 8734SOL    HW126506   1.680   0.921   2.083
 8734SOL    HW226507   1.748   0.983   2.204
 8735SOL     OW26508   5.384   4.013   2.322
 8735SOL    HW126509   5.377   4.072   2.247
 8735SOL    HW226510   5.293   3.994   2.346
 8736SOL     OW26511   0.347   3.032   4.970
 8736SOL    HW126512   0.295   2.982   4.907
 8736SOL    HW226513   0.408   2.968   5.007
 8737SOL     OW26514   4.455   5.416   3.586
 8737SOL    HW126515   4.528   5.356   3.572
 8737SOL    HW226516   4.493   5.489   3.635
 8738SOL     OW26517   3.260   7.185   1.403
 8738SOL    HW126518   3.233   7.176   1.494
 8738SOL    HW226519   3.185   7.155   1.352
 8739SOL     OW26520   7.807   2.542   1.496
 8739SOL    HW126521   7.739   2.607   1.479
 8739SOL    HW226522   7.889   2.587   1.478
 8740SOL     OW26523   3.546   2.238   3.806
 8740SOL    HW126524   3.554   2.328   3.838
 8740SOL    HW226525   3.636   2.205   3.802
 8741SOL     OW26526   4.276   5.951   2.727
 8741SOL    HW126527   4.324   5.964   2.645
 8741SOL    HW226528   4.203   6.012   2.723
 8742SOL     OW26529   0.948   6.943   3.979
 8742SOL    HW126530   0.870   6.888   3.973
 8742SOL    HW226531   1.021   6.881   3.982
 8743SOL     OW26532   7.423   5.190   3.321
 8743SOL    HW126533   7.419   5.286   3.322
 8743SOL    HW226534   7.443   5.166   3.412
 8744SOL     OW26535   4.422   1.419   0.467
 8744SOL    HW126536   4.483   1.410   0.540
 8744SOL    HW226537   4.336   1.401   0.505
 8745SOL     OW26538   5.674   3.372   5.077
 8745SOL    HW126539   5.737   3.369   5.149
 8745SOL    HW226540   5.590   3.390   5.119
 8746SOL     OW26541   0.734   2.170   2.089
 8746SOL    HW126542   0.709   2.179   1.997
 8746SOL    HW226543   0.799   2.239   2.103
 8747SOL     OW26544   1.039   6.250   5.496
 8747SOL    HW126545   0.967   6.193   5.522
 8747SOL    HW226546   1.063   6.220   5.408
 8748SOL     OW26547   4.852   5.247   3.279
 8748SOL    HW126548   4.936   5.280   3.311
 8748SOL    HW226549   4.853   5.265   3.185
 8749SOL     OW26550   4.427   4.139   4.083
 8749SOL    HW126551   4.499   4.200   4.099
 8749SOL    HW226552   4.430   4.123   3.989
 8750SOL     OW26553   2.576   0.448   1.822
 8750SOL    HW126554   2.499   0.394   1.802
 8750SOL    HW226555   2.650   0.398   1.787
 8751SOL     OW26556   6.205   1.023   3.921
 8751SOL    HW126557   6.199   0.977   4.005
 8751SOL    HW226558   6.214   0.953   3.856
 8752SOL     OW26559   0.101   3.522   3.363
 8752SOL    HW126560   0.106   3.437   3.320
 8752SOL    HW226561   0.189   3.538   3.396
 8753SOL     OW26562   4.693   7.601   2.987
 8753SOL    HW126563   4.644   7.563   3.060
 8753SOL    HW226564   4.764   7.649   3.029
 8754SOL     OW26565   0.225   2.886   4.769
 8754SOL    HW126566   0.235   2.812   4.828
 8754SOL    HW226567   0.224   2.847   4.682
 8755SOL     OW26568   5.531   3.043   4.684
 8755SOL    HW126569   5.566   2.981   4.747
 8755SOL    HW226570   5.592   3.116   4.685
 8756SOL     OW26571   4.193   2.112   2.732
 8756SOL    HW126572   4.206   2.060   2.653
 8756SOL    HW226573   4.198   2.203   2.703
 8757SOL     OW26574   7.943   7.674   0.197
 8757SOL    HW126575   7.999   7.728   0.141
 8757SOL    HW226576   8.003   7.631   0.258
 8758SOL     OW26577   6.197   3.863   0.366
 8758SOL    HW126578   6.241   3.780   0.384
 8758SOL    HW226579   6.255   3.908   0.305
 8759SOL     OW26580   3.209   4.865   5.225
 8759SOL    HW126581   3.205   4.915   5.306
 8759SOL    HW226582   3.122   4.876   5.186
 8760SOL     OW26583   0.332   0.739   2.933
 8760SOL    HW126584   0.359   0.803   2.867
 8760SOL    HW226585   0.240   0.761   2.950
 8761SOL     OW26586   3.878   3.584   1.400
 8761SOL    HW126587   3.925   3.501   1.400
 8761SOL    HW226588   3.872   3.608   1.493
 8762SOL     OW26589   1.416   6.506   1.361
 8762SOL    HW126590   1.479   6.572   1.333
 8762SOL    HW226591   1.468   6.426   1.372
 8763SOL     OW26592   3.082   3.744   1.118
 8763SOL    HW126593   3.081   3.672   1.055
 8763SOL    HW226594   3.161   3.729   1.170
 8764SOL     OW26595   5.532   5.853   5.343
 8764SOL    HW126596   5.466   5.880   5.279
 8764SOL    HW226597   5.483   5.802   5.408
 8765SOL     OW26598   5.933   2.924   0.034
 8765SOL    HW126599   1.849   6.957   5.814
 8765SOL    HW226600   5.846   2.904   0.067
 8766SOL     OW26601   3.140   0.470   5.179
 8766SOL    HW126602   3.067   0.516   5.138
 8766SOL    HW226603   3.214   0.530   5.170
 8767SOL     OW26604   4.029   4.792   5.763
 8767SOL    HW126605   4.070   4.877   5.746
 8767SOL    HW226606   4.099   4.739   5.801
 8768SOL     OW26607   6.320   0.682   4.065
 8768SOL    HW126608   6.372   0.615   4.109
 8768SOL    HW226609   6.242   0.692   4.119
 8769SOL     OW26610   6.775   8.026   5.255
 8769SOL    HW126611   6.798   7.941   5.293
 8769SOL    HW226612   6.806   8.020   5.164
 8770SOL     OW26613   2.931   3.371   1.862
 8770SOL    HW126614   2.836   3.363   1.862
 8770SOL    HW226615   2.948   3.464   1.878
 8771SOL     OW26616   7.722   3.691   4.743
 8771SOL    HW126617   7.738   3.602   4.713
 8771SOL    HW226618   7.809   3.731   4.747
 8772SOL     OW26619   4.352   3.114   5.023
 8772SOL    HW126620   4.349   3.197   5.071
 8772SOL    HW226621   4.306   3.052   5.079
 8773SOL     OW26622   7.343   0.435   5.190
 8773SOL    HW126623   7.350   0.530   5.192
 8773SOL    HW226624   7.296   0.412   5.270
 8774SOL     OW26625   0.926   0.114   4.410
 8774SOL    HW126626   0.841   0.156   4.400
 8774SOL    HW226627   0.932   0.093   4.503
 8775SOL     OW26628   7.233   8.201   4.990
 8775SOL    HW126629   7.318   8.196   4.947
 8775SOL    HW226630   7.209   0.064   4.986
 8776SOL     OW26631   0.108   7.103   5.428
 8776SOL    HW126632   0.064   7.186   5.446
 8776SOL    HW226633   0.201   7.124   5.430
 8777SOL     OW26634   3.729   1.443   0.650
 8777SOL    HW126635   3.688   1.504   0.589
 8777SOL    HW226636   3.714   1.357   0.612
 8778SOL     OW26637   5.624   1.807   3.727
 8778SOL    HW126638   5.672   1.725   3.718
 8778SOL    HW226639   5.612   1.817   3.821
 8779SOL     OW26640   2.306   4.693   1.753
 8779SOL    HW126641   2.275   4.718   1.666
 8779SOL    HW226642   2.385   4.746   1.767
 8780SOL     OW26643   7.081   2.044   1.310
 8780SOL    HW126644   7.079   2.097   1.231
 8780SOL    HW226645   7.152   2.082   1.363
 8781SOL     OW26646   3.582   2.940   0.176
 8781SOL    HW126647   3.603   3.012   0.235
 8781SOL    HW226648   3.557   2.983   0.094
 8782SOL     OW26649   2.998   6.826   2.855
 8782SOL    HW126650   3.053   6.904   2.862
 8782SOL    HW226651   2.909   6.858   2.870
 8783SOL     OW26652   4.842   2.109   0.550
 8783SOL    HW126653   4.771   2.129   0.611
 8783SOL    HW226654   4.855   2.191   0.502
 8784SOL     OW26655   0.582   2.800   4.182
 8784SOL    HW126656   0.570   2.860   4.109
 8784SOL    HW226657   0.657   2.835   4.230
 8785SOL     OW26658   0.608   7.563   2.671
 8785SOL    HW126659   0.634   7.653   2.689
 8785SOL    HW226660   0.649   7.512   2.741
 8786SOL     OW26661   5.539   4.254   2.693
 8786SOL    HW126662   5.549   4.170   2.738
 8786SOL    HW226663   5.498   4.311   2.758
 8787SOL     OW26664   8.030   5.193   0.190
 8787SOL    HW126665   7.949   5.165   0.147
 8787SOL    HW226666   8.075   5.111   0.211
 8788SOL     OW26667   3.505   4.206   3.007
 8788SOL    HW126668   3.559   4.208   2.928
 8788SOL    HW226669   3.565   4.182   3.077
 8789SOL     OW26670   7.147   5.739   2.908
 8789SOL    HW126671   7.207   5.769   2.977
 8789SOL    HW226672   7.107   5.819   2.875
 8790SOL     OW26673   2.811   4.043   2.095
 8790SOL    HW126674   2.742   4.037   2.161
 8790SOL    HW226675   2.892   4.046   2.146
 8791SOL     OW26676   5.478   3.153   5.253
 8791SOL    HW126677   5.395   3.143   5.300
 8791SOL    HW226678   5.544   3.120   5.314
 8792SOL     OW26679   6.998   5.187   4.700
 8792SOL    HW126680   6.939   5.112   4.689
 8792SOL    HW226681   7.018   5.188   4.794
 8793SOL     OW26682   5.763   4.576   4.075
 8793SOL    HW126683   5.822   4.637   4.031
 8793SOL    HW226684   5.690   4.565   4.014
 8794SOL     OW26685   6.304   5.002   1.284
 8794SOL    HW126686   6.279   5.094   1.296
 8794SOL    HW226687   6.226   4.952   1.307
 8795SOL     OW26688   1.239   0.450   4.873
 8795SOL    HW126689   1.309   0.516   4.873
 8795SOL    HW226690   1.222   0.434   4.780
 8796SOL     OW26691   3.577   1.428   0.028
 8796SOL    HW126692   3.557   1.521   0.017
 8796SOL    HW226693   7.696   5.508   5.758
 8797SOL     OW26694   2.529   3.991   4.347
 8797SOL    HW126695   2.607   3.936   4.346
 8797SOL    HW226696   2.480   3.961   4.424
 8798SOL     OW26697   7.759   3.688   5.015
 8798SOL    HW126698   7.694   3.624   5.042
 8798SOL    HW226699   7.754   3.689   4.919
 8799SOL     OW26700   1.094   5.632   2.154
 8799SOL    HW126701   1.000   5.616   2.156
 8799SOL    HW226702   1.120   5.633   2.246
 8800SOL     OW26703   5.520   2.248   1.690
 8800SOL    HW126704   5.609   2.276   1.671
 8800SOL    HW226705   5.529   2.157   1.719
 8801SOL     OW26706   2.753   3.619   0.350
 8801SOL    HW126707   2.706   3.680   0.293
 8801SOL    HW226708   2.826   3.588   0.296
 8802SOL     OW26709   1.690   7.425   5.350
 8802SOL    HW126710   1.747   7.403   5.277
 8802SOL    HW226711   1.693   7.521   5.355
 8803SOL     OW26712   8.133   7.137   1.613
 8803SOL    HW126713   8.183   7.074   1.562
 8803SOL    HW226714   8.042   7.113   1.598
 8804SOL     OW26715   0.955   0.267   3.312
 8804SOL    HW126716   1.002   0.188   3.339
 8804SOL    HW226717   1.023   0.334   3.307
 8805SOL     OW26718   2.530   6.651   0.232
 8805SOL    HW126719   2.606   6.660   0.175
 8805SOL    HW226720   2.458   6.692   0.184
 8806SOL     OW26721   4.351   2.018   0.699
 8806SOL    HW126722   4.316   2.056   0.619
 8806SOL    HW226723   4.279   2.024   0.762
 8807SOL     OW26724   6.646   1.572   5.081
 8807SOL    HW126725   6.675   1.481   5.091
 8807SOL    HW226726   6.563   1.565   5.033
 8808SOL     OW26727   7.151   2.609   4.293
 8808SOL    HW126728   7.187   2.618   4.381
 8808SOL    HW226729   7.105   2.691   4.278
 8809SOL     OW26730   5.112   2.986   3.338
 8809SOL    HW126731   5.135   2.953   3.251
 8809SOL    HW226732   5.144   2.919   3.398
 8810SOL     OW26733   6.388   1.417   2.470
 8810SOL    HW126734   6.474   1.390   2.438
 8810SOL    HW226735   6.356   1.342   2.520
 8811SOL     OW26736   0.426   0.661   3.270
 8811SOL    HW126737   0.340   0.619   3.267
 8811SOL    HW226738   0.411   0.749   3.236
 8812SOL     OW26739   3.212   3.561   4.073
 8812SOL    HW126740   3.208   3.512   3.991
 8812SOL    HW226741   3.137   3.620   4.070
 8813SOL     OW26742   4.058   0.508   2.731
 8813SOL    HW126743   3.990   0.447   2.761
 8813SOL    HW226744   4.106   0.532   2.810
 8814SOL     OW26745   4.747   1.341   5.006
 8814SOL    HW126746   4.653   1.325   5.004
 8814SOL    HW226747   4.785   1.270   4.954
 8815SOL     OW26748   5.874   2.446   3.161
 8815SOL    HW126749   5.879   2.364   3.210
 8815SOL    HW226750   5.790   2.441   3.116
 8816SOL     OW26751   3.178   5.535   2.721
 8816SOL    HW126752   3.185   5.543   2.816
 8816SOL    HW226753   3.236   5.604   2.687
 8817SOL     OW26754   1.688   4.270   4.227
 8817SOL    HW126755   1.655   4.358   4.245
 8817SOL    HW226756   1.674   4.221   4.308
 8818SOL     OW26757   6.367   5.980   4.258
 8818SOL    HW126758   6.412   5.955   4.177
 8818SOL    HW226759   6.277   5.998   4.230
 8819SOL     OW26760   0.346   3.070   5.789
 8819SOL    HW126761   0.321   2.978   5.792
 8819SOL    HW226762   0.372   3.084   5.698
 8820SOL     OW26763   6.912   6.287   1.529
 8820SOL    HW126764   6.951   6.269   1.444
 8820SOL    HW226765   6.954   6.225   1.589
 8821SOL     OW26766   4.871   4.587   1.370
 8821SOL    HW126767   4.944   4.557   1.317
 8821SOL    HW226768   4.862   4.521   1.439
 8822SOL     OW26769   6.294   6.240   2.543
 8822SOL    HW126770   6.234   6.311   2.518
 8822SOL    HW226771   6.274   6.224   2.635
 8823SOL     OW26772   1.151   0.489   3.967
 8823SOL    HW126773   1.057   0.506   3.959
 8823SOL    HW226774   1.159   0.437   4.047
 8824SOL     OW26775   6.774   4.245   4.132
 8824SOL    HW126776   6.748   4.157   4.105
 8824SOL    HW226777   6.727   4.303   4.073
 8825SOL     OW26778   3.302   4.097   2.336
 8825SOL    HW126779   3.353   4.071   2.413
 8825SOL    HW226780   3.303   4.193   2.337
 8826SOL     OW26781   6.297   1.038   1.908
 8826SOL    HW126782   6.219   1.073   1.865
 8826SOL    HW226783   6.264   0.998   1.988
 8827SOL     OW26784   8.135   7.245   0.512
 8827SOL    HW126785   8.194   7.235   0.437
 8827SOL    HW226786   8.051   7.212   0.480
 8828SOL     OW26787   7.342   0.777   3.294
 8828SOL    HW126788   7.341   0.861   3.340
 8828SOL    HW226789   7.305   0.797   3.208
 8829SOL     OW26790   3.782   7.025   5.539
 8829SOL    HW126791   3.800   7.014   5.632
 8829SOL    HW226792   3.842   6.964   5.495
 8830SOL     OW26793   5.277   2.979   5.661
 8830SOL    HW126794   5.218   2.933   5.721
 8830SOL    HW226795   5.365   2.958   5.692
 8831SOL     OW26796   5.680   5.288   0.593
 8831SOL    HW126797   5.761   5.258   0.634
 8831SOL    HW226798   5.620   5.214   0.604
 8832SOL     OW26799   6.340   3.622   0.420
 8832SOL    HW126800   6.347   3.552   0.484
 8832SOL    HW226801   6.430   3.639   0.393
 8833SOL     OW26802   3.624   7.082   3.959
 8833SOL    HW126803   3.551   7.045   4.008
 8833SOL    HW226804   3.678   7.006   3.935
 8834SOL     OW26805   3.267   1.656   3.732
 8834SOL    HW126806   3.210   1.579   3.728
 8834SOL    HW226807   3.306   1.662   3.645
 8835SOL     OW26808   5.052   6.480   4.516
 8835SOL    HW126809   5.086   6.559   4.475
 8835SOL    HW226810   5.081   6.486   4.607
 8836SOL     OW26811   3.409   6.109   0.094
 8836SOL    HW126812   3.410   6.171   0.021
 8836SOL    HW226813   3.491   6.126   0.141
 8837SOL     OW26814   6.719   3.638   0.113
 8837SOL    HW126815   6.682   3.554   0.085
 8837SOL    HW226816   6.767   3.617   0.193
 8838SOL     OW26817   7.404   7.209   0.207
 8838SOL    HW126818   7.478   7.194   0.149
 8838SOL    HW226819   7.381   7.301   0.194
 8839SOL     OW26820   6.983   5.855   1.998
 8839SOL    HW126821   7.033   5.813   2.069
 8839SOL    HW226822   7.048   5.906   1.950
 8840SOL     OW26823   2.082   8.066   2.809
 8840SOL    HW126824   2.138   7.991   2.830
 8840SOL    HW226825   2.016   8.067   2.879
 8841SOL     OW26826   1.342   7.522   5.612
 8841SOL    HW126827   1.414   7.465   5.586
 8841SOL    HW226828   1.378   7.575   5.683
 8842SOL     OW26829   1.921   4.600   4.380
 8842SOL    HW126830   1.959   4.615   4.294
 8842SOL    HW226831   1.836   4.643   4.377
 8843SOL     OW26832   1.449   1.449   1.066
 8843SOL    HW126833   1.430   1.356   1.057
 8843SOL    HW226834   1.426   1.486   0.981
 8844SOL     OW26835   2.510   2.607   1.984
 8844SOL    HW126836   2.551   2.555   2.053
 8844SOL    HW226837   2.448   2.547   1.942
 8845SOL     OW26838   5.229   2.405   5.158
 8845SOL    HW126839   5.251   2.492   5.125
 8845SOL    HW226840   5.239   2.347   5.083
 8846SOL     OW26841   3.641   7.836   5.010
 8846SOL    HW126842   3.566   7.894   5.024
 8846SOL    HW226843   3.625   7.762   5.069
 8847SOL     OW26844   4.458   5.659   0.300
 8847SOL    HW126845   4.499   5.743   0.280
 8847SOL    HW226846   4.530   5.603   0.328
 8848SOL     OW26847   6.616   6.566   5.786
 8848SOL    HW126848   6.587   6.657   5.793
 8848SOL    HW226849   2.579   2.446   0.023
 8849SOL     OW26850   6.845   2.361   1.684
 8849SOL    HW126851   6.891   2.279   1.699
 8849SOL    HW226852   6.821   2.359   1.591
 8850SOL     OW26853   8.141   5.109   3.033
 8850SOL    HW126854   8.204   5.099   3.104
 8850SOL    HW226855   8.176   5.056   2.962
 8851SOL     OW26856   4.024   3.741   3.231
 8851SOL    HW126857   4.028   3.647   3.215
 8851SOL    HW226858   4.040   3.781   3.146
 8852SOL     OW26859   0.386   0.091   4.850
 8852SOL    HW126860   0.464   0.090   4.794
 8852SOL    HW226861   0.329   0.024   4.813
 8853SOL     OW26862   2.096   8.189   4.006
 8853SOL    HW126863   2.158   8.193   4.078
 8853SOL    HW226864   2.064   0.049   3.996
 8854SOL     OW26865   6.663   3.856   1.565
 8854SOL    HW126866   6.727   3.853   1.636
 8854SOL    HW226867   6.677   3.941   1.523
 8855SOL     OW26868   1.276   1.730   5.782
 8855SOL    HW126869   1.330   1.754   5.706
 8855SOL    HW226870   1.221   1.807   5.797
 8856SOL     OW26871   1.568   6.878   0.115
 8856SOL    HW126872   1.495   6.893   0.175
 8856SOL    HW226873   1.550   6.793   0.076
 8857SOL     OW26874   1.505   5.156   4.392
 8857SOL    HW126875   1.452   5.235   4.384
 8857SOL    HW226876   1.528   5.152   4.485
 8858SOL     OW26877   3.035   1.126   0.362
 8858SOL    HW126878   3.026   1.031   0.370
 8858SOL    HW226879   2.987   1.161   0.437
 8859SOL     OW26880   4.410   5.955   3.029
 8859SOL    HW126881   4.381   6.045   3.042
 8859SOL    HW226882   4.380   5.933   2.941
 8860SOL     OW26883   5.855   3.018   5.188
 8860SOL    HW126884   5.794   2.955   5.150
 8860SOL    HW226885   5.907   3.050   5.114
 8861SOL     OW26886   7.684   1.683   2.028
 8861SOL    HW126887   7.710   1.767   2.066
 8861SOL    HW226888   7.637   1.638   2.098
 8862SOL     OW26889   1.742   4.548   2.847
 8862SOL    HW126890   1.768   4.494   2.772
 8862SOL    HW226891   1.779   4.503   2.923
 8863SOL     OW26892   4.192   4.944   4.661
 8863SOL    HW126893   4.228   5.027   4.630
 8863SOL    HW226894   4.104   4.966   4.692
 8864SOL     OW26895   6.865   3.036   5.521
 8864SOL    HW126896   6.946   3.058   5.475
 8864SOL    HW226897   6.802   3.018   5.451
 8865SOL     OW26898   7.828   4.825   0.347
 8865SOL    HW126899   7.863   4.895   0.403
 8865SOL    HW226900   7.893   4.755   0.353
 8866SOL     OW26901   4.580   7.820   4.427
 8866SOL    HW126902   4.636   7.852   4.357
 8866SOL    HW226903   4.528   7.896   4.453
 8867SOL     OW26904   5.221   7.666   0.698
 8867SOL    HW126905   5.267   7.668   0.782
 8867SOL    HW226906   5.281   7.707   0.636
 8868SOL     OW26907   5.415   4.128   3.835
 8868SOL    HW126908   5.364   4.157   3.759
 8868SOL    HW226909   5.499   4.100   3.798
 8869SOL     OW26910   5.710   2.615   4.188
 8869SOL    HW126911   5.767   2.671   4.241
 8869SOL    HW226912   5.632   2.601   4.242
 8870SOL     OW26913   7.035   6.643   0.266
 8870SOL    HW126914   6.984   6.685   0.197
 8870SOL    HW226915   6.971   6.621   0.334
 8871SOL     OW26916   2.276   1.392   4.169
 8871SOL    HW126917   2.304   1.439   4.248
 8871SOL    HW226918   2.226   1.457   4.119
 8872SOL     OW26919   2.135   3.165   2.732
 8872SOL    HW126920   2.152   3.251   2.771
 8872SOL    HW226921   2.101   3.112   2.804
 8873SOL     OW26922   1.241   3.347   5.720
 8873SOL    HW126923   1.229   3.442   5.712
 8873SOL    HW226924   1.154   3.313   5.741
 8874SOL     OW26925   0.472   0.128   2.758
 8874SOL    HW126926   0.479   0.178   2.839
 8874SOL    HW226927   0.543   0.064   2.762
 8875SOL     OW26928   6.286   2.301   5.635
 8875SOL    HW126929   6.199   2.340   5.635
 8875SOL    HW226930   6.284   2.237   5.564
 8876SOL     OW26931   4.993   5.904   0.068
 8876SOL    HW126932   5.061   5.917   0.002
 8876SOL    HW226933   5.040   5.878   0.147
 8877SOL     OW26934   0.403   7.735   3.486
 8877SOL    HW126935   0.443   7.819   3.465
 8877SOL    HW226936   0.309   7.752   3.484
 8878SOL     OW26937   6.017   7.566   4.711
 8878SOL    HW126938   6.013   7.635   4.645
 8878SOL    HW226939   6.088   7.593   4.770
 8879SOL     OW26940   2.476   1.836   4.254
 8879SOL    HW126941   2.460   1.755   4.206
 8879SOL    HW226942   2.482   1.903   4.186
 8880SOL     OW26943   6.402   3.180   5.733
 8880SOL    HW126944   2.311   7.325   0.002
 8880SOL    HW226945   6.466   3.221   5.675
 8881SOL     OW26946   7.103   1.265   1.614
 8881SOL    HW126947   7.186   1.222   1.635
 8881SOL    HW226948   7.097   1.337   1.677
 8882SOL     OW26949   5.606   4.526   1.202
 8882SOL    HW126950   5.636   4.441   1.170
 8882SOL    HW226951   5.632   4.528   1.294
 8883SOL     OW26952   7.424   5.164   4.253
 8883SOL    HW126953   7.425   5.259   4.239
 8883SOL    HW226954   7.456   5.127   4.170
 8884SOL     OW26955   6.388   6.720   3.345
 8884SOL    HW126956   6.409   6.638   3.301
 8884SOL    HW226957   6.302   6.705   3.383
 8885SOL     OW26958   7.773   6.125   4.074
 8885SOL    HW126959   7.784   6.031   4.088
 8885SOL    HW226960   7.843   6.165   4.125
 8886SOL     OW26961   0.080   7.071   1.372
 8886SOL    HW126962   0.132   7.027   1.304
 8886SOL    HW226963   8.218   7.060   1.344
 8887SOL     OW26964   2.657   4.755   4.703
 8887SOL    HW126965   2.605   4.675   4.697
 8887SOL    HW226966   2.643   4.787   4.792
 8888SOL     OW26967   1.075   2.099   2.670
 8888SOL    HW126968   0.989   2.081   2.632
 8888SOL    HW226969   1.103   2.180   2.628
 8889SOL     OW26970   5.863   5.770   4.049
 8889SOL    HW126971   5.769   5.754   4.056
 8889SOL    HW226972   5.870   5.852   4.000
 8890SOL     OW26973   5.594   4.467   4.623
 8890SOL    HW126974   5.619   4.375   4.616
 8890SOL    HW226975   5.586   4.496   4.532
 8891SOL     OW26976   2.437   0.593   1.519
 8891SOL    HW126977   2.409   0.568   1.431
 8891SOL    HW226978   2.505   0.659   1.504
 8892SOL     OW26979   2.866   1.337   5.624
 8892SOL    HW126980   2.892   1.422   5.659
 8892SOL    HW226981   2.857   1.351   5.530
 8893SOL     OW26982   7.866   7.326   3.918
 8893SOL    HW126983   7.960   7.335   3.904
 8893SOL    HW226984   7.857   7.244   3.967
 8894SOL     OW26985   7.422   5.695   0.805
 8894SOL    HW126986   7.429   5.602   0.782
 8894SOL    HW226987   7.369   5.733   0.735
 8895SOL     OW26988   2.557   4.002   3.048
 8895SOL    HW126989   2.610   3.926   3.074
 8895SOL    HW226990   2.584   4.021   2.958
 8896SOL     OW26991   3.703   0.703   1.023
 8896SOL    HW126992   3.798   0.697   1.027
 8896SOL    HW226993   3.678   0.748   1.104
 8897SOL     OW26994   3.405   3.190   1.531
 8897SOL    HW126995   3.314   3.171   1.510
 8897SOL    HW226996   3.435   3.114   1.582
 8898SOL     OW26997   3.891   5.225   1.192
 8898SOL    HW126998   3.796   5.228   1.185
 8898SOL    HW226999   3.909   5.252   1.282
 8899SOL     OW27000   2.703   6.285   5.184
 8899SOL    HW127001   2.619   6.306   5.225
 8899SOL    HW227002   2.759   6.359   5.205
 8900SOL     OW27003   0.437   1.444   4.247
 8900SOL    HW127004   0.429   1.526   4.296
 8900SOL    HW227005   0.450   1.377   4.314
 8901SOL     OW27006   0.343   2.748   1.525
 8901SOL    HW127007   0.362   2.703   1.442
 8901SOL    HW227008   0.387   2.832   1.517
 8902SOL     OW27009   4.567   3.645   1.708
 8902SOL    HW127010   4.658   3.624   1.730
 8902SOL    HW227011   4.545   3.720   1.763
 8903SOL     OW27012   8.184   2.412   0.001
 8903SOL    HW127013   8.185   2.319   0.025
 8903SOL    HW227014   4.105   6.529   5.731
 8904SOL     OW27015   4.669   2.196   3.094
 8904SOL    HW127016   4.580   2.199   3.060
 8904SOL    HW227017   4.677   2.275   3.148
 8905SOL     OW27018   7.949   5.183   3.328
 8905SOL    HW127019   7.921   5.093   3.346
 8905SOL    HW227020   7.868   5.229   3.306
 8906SOL     OW27021   0.978   6.243   2.640
 8906SOL    HW127022   1.054   6.207   2.685
 8906SOL    HW227023   0.911   6.176   2.649
 8907SOL     OW27024   6.535   2.018   1.854
 8907SOL    HW127025   6.587   2.095   1.830
 8907SOL    HW227026   6.564   1.996   1.942
 8908SOL     OW27027   4.563   1.755   0.409
 8908SOL    HW127028   4.471   1.760   0.384
 8908SOL    HW227029   4.598   1.684   0.355
 8909SOL     OW27030   7.820   3.900   2.206
 8909SOL    HW127031   7.858   3.988   2.202
 8909SOL    HW227032   7.746   3.908   2.267
 8910SOL     OW27033   7.652   3.013   1.538
 8910SOL    HW127034   7.730   2.957   1.542
 8910SOL    HW227035   7.613   2.994   1.453
 8911SOL     OW27036   7.200   3.298   1.733
 8911SOL    HW127037   7.108   3.274   1.724
 8911SOL    HW227038   7.198   3.387   1.768
 8912SOL     OW27039   7.668   0.585   2.796
 8912SOL    HW127040   7.700   0.495   2.787
 8912SOL    HW227041   7.593   0.589   2.736
 8913SOL     OW27042   5.164   7.244   2.222
 8913SOL    HW127043   5.259   7.241   2.237
 8913SOL    HW227044   5.134   7.319   2.273
 8914SOL     OW27045   3.659   7.198   4.482
 8914SOL    HW127046   3.644   7.171   4.573
 8914SOL    HW227047   3.626   7.125   4.430
 8915SOL     OW27048   4.184   7.693   4.414
 8915SOL    HW127049   4.226   7.618   4.456
 8915SOL    HW227050   4.226   7.769   4.454
 8916SOL     OW27051   6.993   7.339   0.210
 8916SOL    HW127052   7.046   7.418   0.199
 8916SOL    HW227053   6.904   7.367   0.189
 8917SOL     OW27054   1.509   4.589   5.023
 8917SOL    HW127055   1.487   4.670   4.977
 8917SOL    HW227056   1.601   4.599   5.046
 8918SOL     OW27057   6.241   7.300   0.754
 8918SOL    HW127058   6.265   7.360   0.825
 8918SOL    HW227059   6.149   7.319   0.736
 8919SOL     OW27060   4.510   2.466   3.832
 8919SOL    HW127061   4.494   2.547   3.880
 8919SOL    HW227062   4.548   2.494   3.749
 8920SOL     OW27063   1.800   0.390   0.522
 8920SOL    HW127064   1.803   0.481   0.492
 8920SOL    HW227065   1.883   0.377   0.568
 8921SOL     OW27066   5.472   0.848   3.463
 8921SOL    HW127067   5.472   0.930   3.413
 8921SOL    HW227068   5.384   0.813   3.451
 8922SOL     OW27069   3.812   8.012   1.963
 8922SOL    HW127070   3.814   8.107   1.977
 8922SOL    HW227071   3.872   7.976   2.029
 8923SOL     OW27072   1.887   3.584   3.979
 8923SOL    HW127073   1.942   3.662   3.982
 8923SOL    HW227074   1.916   3.531   4.053
 8924SOL     OW27075   2.075   6.608   0.571
 8924SOL    HW127076   2.119   6.581   0.651
 8924SOL    HW227077   1.996   6.554   0.567
 8925SOL     OW27078   2.743   0.258   0.353
 8925SOL    HW127079   2.658   0.217   0.337
 8925SOL    HW227080   2.777   0.214   0.431
 8926SOL     OW27081   7.202   4.299   0.521
 8926SOL    HW127082   7.154   4.323   0.600
 8926SOL    HW227083   7.154   4.341   0.450
 8927SOL     OW27084   6.957   4.308   2.988
 8927SOL    HW127085   6.989   4.253   3.059
 8927SOL    HW227086   6.936   4.391   3.030
 8928SOL     OW27087   5.203   3.447   5.678
 8928SOL    HW127088   5.203   3.540   5.655
 8928SOL    HW227089   5.123   3.435   5.729
 8929SOL     OW27090   2.891   2.166   1.687
 8929SOL    HW127091   2.916   2.160   1.779
 8929SOL    HW227092   2.892   2.075   1.656
 8930SOL     OW27093   7.818   6.721   4.299
 8930SOL    HW127094   7.761   6.723   4.222
 8930SOL    HW227095   7.905   6.701   4.264
 8931SOL     OW27096   3.111   2.205   2.191
 8931SOL    HW127097   3.044   2.137   2.203
 8931SOL    HW227098   3.194   2.159   2.201
 8932SOL     OW27099   7.500   4.021   2.548
 8932SOL    HW127100   7.570   4.057   2.494
 8932SOL    HW227101   7.452   4.098   2.579
 8933SOL     OW27102   5.077   1.939   4.332
 8933SOL    HW127103   5.001   1.997   4.329
 8933SOL    HW227104   5.040   1.851   4.338
 8934SOL     OW27105   8.025   0.902   0.424
 8934SOL    HW127106   8.088   0.967   0.393
 8934SOL    HW227107   8.077   0.843   0.478
 8935SOL     OW27108   6.399   6.353   0.457
 8935SOL    HW127109   6.397   6.317   0.368
 8935SOL    HW227110   6.312   6.333   0.492
 8936SOL     OW27111   1.443   4.833   3.313
 8936SOL    HW127112   1.429   4.912   3.365
 8936SOL    HW227113   1.514   4.856   3.253
 8937SOL     OW27114   3.667   3.715   3.268
 8937SOL    HW127115   3.726   3.745   3.338
 8937SOL    HW227116   3.640   3.795   3.224
 8938SOL     OW27117   7.838   5.820   0.565
 8938SOL    HW127118   7.780   5.755   0.526
 8938SOL    HW227119   7.877   5.865   0.490
 8939SOL     OW27120   7.359   1.274   5.380
 8939SOL    HW127121   7.407   1.296   5.460
 8939SOL    HW227122   7.273   1.245   5.411
 8940SOL     OW27123   4.265   4.298   2.453
 8940SOL    HW127124   4.196   4.252   2.501
 8940SOL    HW227125   4.291   4.237   2.384
 8941SOL     OW27126   0.822   4.207   2.209
 8941SOL    HW127127   0.833   4.241   2.120
 8941SOL    HW227128   0.746   4.149   2.203
 8942SOL     OW27129   0.538   2.625   2.936
 8942SOL    HW127130   0.574   2.602   2.850
 8942SOL    HW227131   0.614   2.629   2.994
 8943SOL     OW27132   3.489   7.344   1.060
 8943SOL    HW127133   3.554   7.274   1.065
 8943SOL    HW227134   3.455   7.338   0.971
 8944SOL     OW27135   2.105   6.600   2.743
 8944SOL    HW127136   2.078   6.546   2.669
 8944SOL    HW227137   2.105   6.541   2.818
 8945SOL     OW27138   3.519   3.107   3.561
 8945SOL    HW127139   3.424   3.105   3.548
 8945SOL    HW227140   3.535   3.184   3.615
 8946SOL     OW27141   2.419   3.033   4.522
 8946SOL    HW127142   2.405   3.120   4.485
 8946SOL    HW227143   2.366   3.032   4.602
 8947SOL     OW27144   8.058   3.105   3.667
 8947SOL    HW127145   7.976   3.058   3.681
 8947SOL    HW227146   8.126   3.040   3.685
 8948SOL     OW27147   7.748   5.284   0.357
 8948SOL    HW127148   7.727   5.376   0.372
 8948SOL    HW227149   7.722   5.267   0.267
 8949SOL     OW27150   8.040   5.984   3.617
 8949SOL    HW127151   7.989   6.008   3.540
 8949SOL    HW227152   7.975   5.954   3.680
 8950SOL     OW27153   1.967   1.680   2.300
 8950SOL    HW127154   1.877   1.689   2.332
 8950SOL    HW227155   1.958   1.645   2.211
 8951SOL     OW27156   4.844   4.120   0.546
 8951SOL    HW127157   4.847   4.104   0.640
 8951SOL    HW227158   4.751   4.135   0.527
 8952SOL     OW27159   8.053   8.087   2.962
 8952SOL    HW127160   8.052   8.025   2.889
 8952SOL    HW227161   8.143   8.083   2.995
 8953SOL     OW27162   1.448   8.137   5.027
 8953SOL    HW127163   1.471   8.214   5.080
 8953SOL    HW227164   1.519   8.130   4.963
 8954SOL     OW27165   0.598   5.470   1.649
 8954SOL    HW127166   0.584   5.434   1.561
 8954SOL    HW227167   0.511   5.494   1.680
 8955SOL     OW27168   4.839   5.347   3.025
 8955SOL    HW127169   4.862   5.334   2.933
 8955SOL    HW227170   4.750   5.382   3.023
 8956SOL     OW27171   1.006   4.058   4.726
 8956SOL    HW127172   1.089   4.105   4.724
 8956SOL    HW227173   0.959   4.096   4.801
 8957SOL     OW27174   7.238   2.823   1.890
 8957SOL    HW127175   7.248   2.887   1.820
 8957SOL    HW227176   7.218   2.741   1.845
 8958SOL     OW27177   2.355   3.095   3.043
 8958SOL    HW127178   2.321   3.174   3.002
 8958SOL    HW227179   2.373   3.121   3.133
 8959SOL     OW27180   1.504   2.296   1.644
 8959SOL    HW127181   1.584   2.343   1.667
 8959SOL    HW227182   1.526   2.204   1.658
 8960SOL     OW27183   0.592   4.362   4.237
 8960SOL    HW127184   0.632   4.309   4.168
 8960SOL    HW227185   0.600   4.309   4.316
 8961SOL     OW27186   5.793   5.547   0.508
 8961SOL    HW127187   5.742   5.474   0.544
 8961SOL    HW227188   5.772   5.621   0.565
 8962SOL     OW27189   8.042   3.396   3.807
 8962SOL    HW127190   8.068   3.466   3.867
 8962SOL    HW227191   7.949   3.382   3.825
 8963SOL     OW27192   1.363   4.071   3.324
 8963SOL    HW127193   1.296   4.002   3.326
 8963SOL    HW227194   1.341   4.127   3.399
 8964SOL     OW27195   5.709   5.677   4.836
 8964SOL    HW127196   5.663   5.720   4.764
 8964SOL    HW227197   5.651   5.687   4.911
 8965SOL     OW27198   7.001   5.490   2.917
 8965SOL    HW127199   6.916   5.492   2.962
 8965SOL    HW227200   7.022   5.582   2.900
 8966SOL     OW27201   7.304   6.635   0.563
 8966SOL    HW127202   7.256   6.692   0.503
 8966SOL    HW227203   7.386   6.681   0.580
 8967SOL     OW27204   7.756   6.065   3.230
 8967SOL    HW127205   7.738   6.155   3.204
 8967SOL    HW227206   7.850   6.055   3.215
 8968SOL     OW27207   1.616   4.022   1.244
 8968SOL    HW127208   1.572   4.005   1.327
 8968SOL    HW227209   1.559   3.982   1.178
 8969SOL     OW27210   5.734   3.696   0.589
 8969SOL    HW127211   5.718   3.620   0.533
 8969SOL    HW227212   5.648   3.717   0.626
 8970SOL     OW27213   0.422   0.338   0.707
 8970SOL    HW127214   0.390   0.367   0.793
 8970SOL    HW227215   0.370   0.260   0.688
 8971SOL     OW27216   6.446   3.998   0.309
 8971SOL    HW127217   6.465   3.925   0.250
 8971SOL    HW227218   6.372   4.044   0.268
 8972SOL     OW27219   2.714   5.065   2.522
 8972SOL    HW127220   2.621   5.067   2.545
 8972SOL    HW227221   2.718   5.106   2.436
 8973SOL     OW27222   3.145   5.596   5.290
 8973SOL    HW127223   3.095   5.674   5.313
 8973SOL    HW227224   3.190   5.571   5.371
 8974SOL     OW27225   8.075   4.147   5.492
 8974SOL    HW127226   8.088   4.082   5.423
 8974SOL    HW227227   8.156   4.198   5.493
 8975SOL     OW27228   3.083   1.673   5.299
 8975SOL    HW127229   3.033   1.748   5.267
 8975SOL    HW227230   3.153   1.661   5.234
 8976SOL     OW27231   7.227   7.896   1.091
 8976SOL    HW127232   7.310   7.896   1.139
 8976SOL    HW227233   7.226   7.980   1.045
 8977SOL     OW27234   7.888   4.411   3.375
 8977SOL    HW127235   7.977   4.442   3.391
 8977SOL    HW227236   7.855   4.387   3.462
 8978SOL     OW27237   2.939   2.248   0.070
 8978SOL    HW127238   7.058   6.349   5.794
 8978SOL    HW227239   2.896   2.169   0.104
 8979SOL     OW27240   7.214   4.367   5.420
 8979SOL    HW127241   7.204   4.412   5.504
 8979SOL    HW227242   7.129   4.327   5.405
 8980SOL     OW27243   0.486   5.859   3.283
 8980SOL    HW127244   0.397   5.892   3.297
 8980SOL    HW227245   0.474   5.770   3.251
 8981SOL     OW27246   7.604   6.507   2.702
 8981SOL    HW127247   7.651   6.491   2.620
 8981SOL    HW227248   7.618   6.428   2.754
 8982SOL     OW27249   4.227   0.824   1.818
 8982SOL    HW127250   4.176   0.778   1.884
 8982SOL    HW227251   4.258   0.755   1.759
 8983SOL     OW27252   7.476   6.790   0.731
 8983SOL    HW127253   7.436   6.871   0.762
 8983SOL    HW227254   7.553   6.779   0.786
 8984SOL     OW27255   2.910   3.330   2.288
 8984SOL    HW127256   2.929   3.265   2.355
 8984SOL    HW227257   2.981   3.321   2.224
 8985SOL     OW27258   4.473   7.957   4.753
 8985SOL    HW127259   4.485   8.036   4.806
 8985SOL    HW227260   4.496   7.984   4.664
 8986SOL     OW27261   1.280   4.587   2.697
 8986SOL    HW127262   1.204   4.634   2.731
 8986SOL    HW227263   1.349   4.604   2.761
 8987SOL     OW27264   2.877   3.251   4.986
 8987SOL    HW127265   2.792   3.291   5.005
 8987SOL    HW227266   2.920   3.245   5.071
 8988SOL     OW27267   1.190   0.075   4.067
 8988SOL    HW127268   1.159   0.164   4.085
 8988SOL    HW227269   1.198   0.034   4.153
 8989SOL     OW27270   7.776   5.130   0.088
 8989SOL    HW127271   7.756   5.217   0.053
 8989SOL    HW227272   7.693   5.082   0.081
 8990SOL     OW27273   7.422   3.851   4.636
 8990SOL    HW127274   7.473   3.820   4.561
 8990SOL    HW227275   7.399   3.771   4.684
 8991SOL     OW27276   5.094   7.124   1.267
 8991SOL    HW127277   5.185   7.095   1.261
 8991SOL    HW227278   5.098   7.209   1.311
 8992SOL     OW27279   7.428   4.214   5.355
 8992SOL    HW127280   7.385   4.293   5.388
 8992SOL    HW227281   7.437   4.158   5.432
 8993SOL     OW27282   4.042   7.159   0.947
 8993SOL    HW127283   4.043   7.249   0.913
 8993SOL    HW227284   4.098   7.110   0.887
 8994SOL     OW27285   8.063   1.765   1.185
 8994SOL    HW127286   8.113   1.834   1.141
 8994SOL    HW227287   8.126   1.722   1.243
 8995SOL     OW27288   5.278   1.503   2.777
 8995SOL    HW127289   5.212   1.561   2.815
 8995SOL    HW227290   5.327   1.470   2.852
 8996SOL     OW27291   7.590   5.818   1.919
 8996SOL    HW127292   7.514   5.823   1.977
 8996SOL    HW227293   7.653   5.879   1.957
 8997SOL     OW27294   8.166   4.225   5.809
 8997SOL    HW127295   4.082   0.088   0.078
 8997SOL    HW227296   8.220   4.299   5.783
 8998SOL     OW27297   2.572   5.819   1.008
 8998SOL    HW127298   2.531   5.768   1.077
 8998SOL    HW227299   2.661   5.834   1.039
 8999SOL     OW27300   2.370   3.318   4.485
 8999SOL    HW127301   2.442   3.367   4.524
 8999SOL    HW227302   2.301   3.383   4.473
 9000SOL     OW27303   2.682   4.363   0.167
 9000SOL    HW127304   2.741   4.406   0.105
 9000SOL    HW227305   2.713   4.392   0.253
 9001SOL     OW27306   4.009   4.240   1.371
 9001SOL    HW127307   3.969   4.185   1.304
 9001SOL    HW227308   3.968   4.213   1.453
 9002SOL     OW27309   7.966   5.602   0.750
 9002SOL    HW127310   7.948   5.694   0.730
 9002SOL    HW227311   7.880   5.563   0.762
 9003SOL     OW27312   3.415   3.410   3.660
 9003SOL    HW127313   3.441   3.409   3.568
 9003SOL    HW227314   3.384   3.499   3.675
 9004SOL     OW27315   6.206   4.538   3.700
 9004SOL    HW127316   6.128   4.516   3.751
 9004SOL    HW227317   6.175   4.597   3.632
 9005SOL     OW27318   1.765   0.907   0.499
 9005SOL    HW127319   1.685   0.871   0.536
 9005SOL    HW227320   1.834   0.846   0.525
 9006SOL     OW27321   4.019   2.848   2.956
 9006SOL    HW127322   4.096   2.832   3.010
 9006SOL    HW227323   3.970   2.915   3.004
 9007SOL     OW27324   2.242   5.020   4.791
 9007SOL    HW127325   2.195   5.026   4.708
 9007SOL    HW227326   2.177   4.985   4.853
 9008SOL     OW27327   0.513   2.810   1.052
 9008SOL    HW127328   0.487   2.859   0.974
 9008SOL    HW227329   0.547   2.727   1.018
 9009SOL     OW27330   6.121   0.514   0.296
 9009SOL    HW127331   6.067   0.591   0.281
 9009SOL    HW227332   6.202   0.548   0.334
 9010SOL     OW27333   1.789   4.763   4.834
 9010SOL    HW127334   1.700   4.797   4.830
 9010SOL    HW227335   1.784   4.689   4.895
 9011SOL     OW27336   5.894   6.365   3.220
 9011SOL    HW127337   5.889   6.272   3.243
 9011SOL    HW227338   5.934   6.366   3.133
 9012SOL     OW27339   2.644   0.695   1.672
 9012SOL    HW127340   2.618   0.607   1.698
 9012SOL    HW227341   2.739   0.691   1.665
 9013SOL     OW27342   4.848   4.746   3.170
 9013SOL    HW127343   4.937   4.777   3.186
 9013SOL    HW227344   4.826   4.695   3.248
 9014SOL     OW27345   6.870   6.272   1.849
 9014SOL    HW127346   6.852   6.359   1.812
 9014SOL    HW227347   6.952   6.283   1.897
 9015SOL     OW27348   1.457   6.090   0.102
 9015SOL    HW127349   1.394   6.135   0.159
 9015SOL    HW227350   1.526   6.154   0.087
 9016SOL     OW27351   4.938   0.827   3.729
 9016SOL    HW127352   5.024   0.865   3.712
 9016SOL    HW227353   4.956   0.738   3.759
 9017SOL     OW27354   3.085   4.611   5.406
 9017SOL    HW127355   3.090   4.654   5.320
 9017SOL    HW227356   3.020   4.662   5.454
 9018SOL     OW27357   5.816   5.355   2.330
 9018SOL    HW127358   5.910   5.360   2.312
 9018SOL    HW227359   5.793   5.442   2.362
 9019SOL     OW27360   3.098   7.531   0.502
 9019SOL    HW127361   3.022   7.473   0.498
 9019SOL    HW227362   3.068   7.613   0.462
 9020SOL     OW27363   0.415   4.212   4.928
 9020SOL    HW127364   0.398   4.244   5.017
 9020SOL    HW227365   0.355   4.262   4.873
 9021SOL     OW27366   4.471   6.347   5.583
 9021SOL    HW127367   4.504   6.387   5.663
 9021SOL    HW227368   4.506   6.401   5.512
 9022SOL     OW27369   5.908   3.790   2.109
 9022SOL    HW127370   5.965   3.863   2.083
 9022SOL    HW227371   5.925   3.778   2.202
 9023SOL     OW27372   2.948   5.464   1.278
 9023SOL    HW127373   3.028   5.453   1.227
 9023SOL    HW227374   2.896   5.526   1.227
 9024SOL     OW27375   5.637   1.451   2.172
 9024SOL    HW127376   5.637   1.425   2.264
 9024SOL    HW227377   5.582   1.385   2.129
 9025SOL     OW27378   1.675   4.386   0.686
 9025SOL    HW127379   1.597   4.413   0.735
 9025SOL    HW227380   1.640   4.334   0.614
 9026SOL     OW27381   4.352   0.588   4.757
 9026SOL    HW127382   4.443   0.613   4.742
 9026SOL    HW227383   4.350   0.494   4.742
 9027SOL     OW27384   1.094   3.520   2.977
 9027SOL    HW127385   1.099   3.600   3.029
 9027SOL    HW227386   1.177   3.516   2.930
 9028SOL     OW27387   2.692   6.148   4.439
 9028SOL    HW127388   2.754   6.218   4.461
 9028SOL    HW227389   2.697   6.087   4.512
 9029SOL     OW27390   7.192   4.912   2.004
 9029SOL    HW127391   7.125   4.844   2.013
 9029SOL    HW227392   7.144   4.994   2.016
 9030SOL     OW27393   5.854   1.584   4.165
 9030SOL    HW127394   5.821   1.501   4.132
 9030SOL    HW227395   5.944   1.588   4.133
 9031SOL     OW27396   2.974   1.418   1.732
 9031SOL    HW127397   2.883   1.391   1.738
 9031SOL    HW227398   3.022   1.338   1.711
 9032SOL     OW27399   7.811   2.846   2.617
 9032SOL    HW127400   7.833   2.932   2.653
 9032SOL    HW227401   7.832   2.853   2.524
 9033SOL     OW27402   1.265   2.300   5.336
 9033SOL    HW127403   1.340   2.299   5.277
 9033SOL    HW227404   1.205   2.364   5.298
 9034SOL     OW27405   3.749   0.032   2.044
 9034SOL    HW127406   3.662   0.065   2.022
 9034SOL    HW227407   3.758   0.048   2.138
 9035SOL     OW27408   3.796   0.691   5.588
 9035SOL    HW127409   3.717   0.743   5.573
 9035SOL    HW227410   3.765   0.600   5.588
 9036SOL     OW27411   4.167   1.709   2.957
 9036SOL    HW127412   4.156   1.683   2.865
 9036SOL    HW227413   4.078   1.716   2.991
 9037SOL     OW27414   2.009   4.055   3.227
 9037SOL    HW127415   2.099   4.066   3.198
 9037SOL    HW227416   1.973   4.144   3.229
 9038SOL     OW27417   8.150   6.492   0.561
 9038SOL    HW127418   8.086   6.474   0.630
 9038SOL    HW227419   8.100   6.535   0.492
 9039SOL     OW27420   0.403   0.391   1.120
 9039SOL    HW127421   0.359   0.364   1.201
 9039SOL    HW227422   0.350   0.353   1.050
 9040SOL     OW27423   4.026   5.337   5.244
 9040SOL    HW127424   4.086   5.264   5.256
 9040SOL    HW227425   4.037   5.390   5.323
 9041SOL     OW27426   5.367   4.889   0.613
 9041SOL    HW127427   5.414   4.841   0.681
 9041SOL    HW227428   5.290   4.924   0.658
 9042SOL     OW27429   5.115   6.010   0.670
 9042SOL    HW127430   5.021   6.009   0.650
 9042SOL    HW227431   5.122   5.961   0.752
 9043SOL     OW27432   1.182   7.805   0.917
 9043SOL    HW127433   1.211   7.859   0.843
 9043SOL    HW227434   1.242   7.828   0.988
 9044SOL     OW27435   4.414   1.966   3.567
 9044SOL    HW127436   4.467   2.013   3.502
 9044SOL    HW227437   4.418   2.021   3.645
 9045SOL     OW27438   1.458   4.696   3.995
 9045SOL    HW127439   1.415   4.679   4.078
 9045SOL    HW227440   1.387   4.714   3.934
 9046SOL     OW27441   1.957   2.081   1.467
 9046SOL    HW127442   2.027   2.055   1.527
 9046SOL    HW227443   1.913   1.999   1.445
 9047SOL     OW27444   7.688   4.311   5.267
 9047SOL    HW127445   7.753   4.325   5.336
 9047SOL    HW227446   7.608   4.285   5.313
 9048SOL     OW27447   0.703   4.728   4.054
 9048SOL    HW127448   0.632   4.757   3.996
 9048SOL    HW227449   0.662   4.720   4.140
 9049SOL     OW27450   5.208   1.371   2.523
 9049SOL    HW127451   5.168   1.306   2.582
 9049SOL    HW227452   5.215   1.450   2.576
 9050SOL     OW27453   0.765   2.339   1.626
 9050SOL    HW127454   0.849   2.297   1.606
 9050SOL    HW227455   0.716   2.335   1.544
 9051SOL     OW27456   2.731   1.285   3.563
 9051SOL    HW127457   2.724   1.364   3.509
 9051SOL    HW227458   2.659   1.230   3.534
 9052SOL     OW27459   3.087   1.149   4.304
 9052SOL    HW127460   3.162   1.188   4.259
 9052SOL    HW227461   3.047   1.222   4.352
 9053SOL     OW27462   4.232   5.729   1.891
 9053SOL    HW127463   4.307   5.679   1.923
 9053SOL    HW227464   4.156   5.680   1.922
 9054SOL     OW27465   7.471   2.575   1.218
 9054SOL    HW127466   7.528   2.498   1.220
 9054SOL    HW227467   7.383   2.539   1.204
 9055SOL     OW27468   4.447   0.635   2.177
 9055SOL    HW127469   4.505   0.680   2.115
 9055SOL    HW227470   4.398   0.573   2.123
 9056SOL     OW27471   3.047   0.438   1.366
 9056SOL    HW127472   3.074   0.454   1.276
 9056SOL    HW227473   3.016   0.348   1.366
 9057SOL     OW27474   6.257   7.599   2.544
 9057SOL    HW127475   6.281   7.629   2.632
 9057SOL    HW227476   6.322   7.639   2.486
 9058SOL     OW27477   0.893   1.035   4.250
 9058SOL    HW127478   0.860   0.982   4.178
 9058SOL    HW227479   0.859   1.123   4.234
 9059SOL     OW27480   6.114   2.731   0.746
 9059SOL    HW127481   6.136   2.811   0.794
 9059SOL    HW227482   6.140   2.660   0.805
 9060SOL     OW27483   0.544   3.881   4.787
 9060SOL    HW127484   0.628   3.846   4.759
 9060SOL    HW227485   0.479   3.828   4.740
 9061SOL     OW27486   3.609   2.007   4.331
 9061SOL    HW127487   3.660   1.929   4.352
 9061SOL    HW227488   3.656   2.078   4.374
 9062SOL     OW27489   3.538   3.240   5.170
 9062SOL    HW127490   3.531   3.311   5.233
 9062SOL    HW227491   3.610   3.186   5.203
 9063SOL     OW27492   2.403   0.039   5.108
 9063SOL    HW127493   2.394   8.177   5.134
 9063SOL    HW227494   2.406   0.037   5.012
 9064SOL     OW27495   0.871   5.478   0.592
 9064SOL    HW127496   0.853   5.417   0.521
 9064SOL    HW227497   0.890   5.561   0.548
 9065SOL     OW27498   0.723   2.601   5.679
 9065SOL    HW127499   0.653   2.665   5.689
 9065SOL    HW227500   0.688   2.520   5.716
 9066SOL     OW27501   5.251   2.256   4.936
 9066SOL    HW127502   5.336   2.222   4.909
 9066SOL    HW227503   5.233   2.327   4.875
 9067SOL     OW27504   2.300   6.763   0.920
 9067SOL    HW127505   2.253   6.680   0.918
 9067SOL    HW227506   2.241   6.825   0.877
 9068SOL     OW27507   7.410   7.718   1.504
 9068SOL    HW127508   7.466   7.735   1.428
 9068SOL    HW227509   7.465   7.666   1.562
 9069SOL     OW27510   2.900   2.288   3.232
 9069SOL    HW127511   2.970   2.223   3.226
 9069SOL    HW227512   2.932   2.352   3.295
 9070SOL     OW27513   6.687   5.011   5.538
 9070SOL    HW127514   6.599   5.048   5.539
 9070SOL    HW227515   6.744   5.082   5.567
 9071SOL     OW27516   1.531   2.121   3.906
 9071SOL    HW127517   1.565   2.114   3.817
 9071SOL    HW227518   1.575   2.198   3.943
 9072SOL     OW27519   0.823   1.292   0.161
 9072SOL    HW127520   0.745   1.283   0.106
 9072SOL    HW227521   0.896   1.273   0.103
 9073SOL     OW27522   6.214   7.045   3.167
 9073SOL    HW127523   6.288   7.065   3.224
 9073SOL    HW227524   6.251   6.990   3.098
 9074SOL     OW27525   4.998   5.410   0.012
 9074SOL    HW127526   4.995   5.338   0.075
 9074SOL    HW227527   0.967   1.284   5.786
 9075SOL     OW27528   5.165   6.504   2.965
 9075SOL    HW127529   5.145   6.501   2.872
 9075SOL    HW227530   5.094   6.555   3.004
 9076SOL     OW27531   3.524   2.478   3.319
 9076SOL    HW127532   3.615   2.472   3.290
 9076SOL    HW227533   3.486   2.393   3.298
 9077SOL     OW27534   1.020   1.627   3.839
 9077SOL    HW127535   0.959   1.554   3.832
 9077SOL    HW227536   0.965   1.701   3.866
 9078SOL     OW27537   1.967   5.483   2.852
 9078SOL    HW127538   1.877   5.457   2.873
 9078SOL    HW227539   1.959   5.573   2.820
 9079SOL     OW27540   3.185   7.815   3.599
 9079SOL    HW127541   3.122   7.885   3.581
 9079SOL    HW227542   3.137   7.753   3.654
 9080SOL     OW27543   0.860   7.921   5.015
 9080SOL    HW127544   0.842   7.985   5.084
 9080SOL    HW227545   0.871   7.838   5.062
 9081SOL     OW27546   4.731   0.719   5.151
 9081SOL    HW127547   4.639   0.739   5.135
 9081SOL    HW227548   4.734   0.691   5.242
 9082SOL     OW27549   2.638   7.017   5.541
 9082SOL    HW127550   2.684   6.935   5.524
 9082SOL    HW227551   2.706   7.084   5.537
 9083SOL     OW27552   1.695   3.308   3.495
 9083SOL    HW127553   1.705   3.392   3.450
 9083SOL    HW227554   1.672   3.332   3.585
 9084SOL     OW27555   7.927   7.331   4.438
 9084SOL    HW127556   8.017   7.344   4.467
 9084SOL    HW227557   7.889   7.272   4.503
 9085SOL     OW27558   3.231   3.805   1.832
 9085SOL    HW127559   3.151   3.758   1.810
 9085SOL    HW227560   3.202   3.878   1.886
 9086SOL     OW27561   6.562   6.675   2.317
 9086SOL    HW127562   6.629   6.683   2.385
 9086SOL    HW227563   6.610   6.646   2.239
 9087SOL     OW27564   7.486   8.009   5.107
 9087SOL    HW127565   7.450   8.068   5.041
 9087SOL    HW227566   7.519   7.934   5.057
 9088SOL     OW27567   6.095   0.722   2.741
 9088SOL    HW127568   6.167   0.699   2.799
 9088SOL    HW227569   6.054   0.798   2.783
 9089SOL     OW27570   6.487   4.571   3.798
 9089SOL    HW127571   6.397   4.600   3.785
 9089SOL    HW227572   6.541   4.642   3.763
 9090SOL     OW27573   1.777   6.190   2.930
 9090SOL    HW127574   1.789   6.224   3.019
 9090SOL    HW227575   1.715   6.118   2.940
 9091SOL     OW27576   7.985   3.901   3.578
 9091SOL    HW127577   7.905   3.889   3.628
 9091SOL    HW227578   8.002   3.815   3.539
 9092SOL     OW27579   4.165   5.519   0.537
 9092SOL    HW127580   4.221   5.446   0.510
 9092SOL    HW227581   4.194   5.593   0.484
 9093SOL     OW27582   0.112   6.172   3.489
 9093SOL    HW127583   0.049   6.227   3.535
 9093SOL    HW227584   0.197   6.202   3.519
 9094SOL     OW27585   1.922   5.719   1.619
 9094SOL    HW127586   1.850   5.658   1.601
 9094SOL    HW227587   1.894   5.802   1.580
 9095SOL     OW27588   3.331   0.178   4.797
 9095SOL    HW127589   3.323   0.190   4.892
 9095SOL    HW227590   3.330   0.267   4.762
 9096SOL     OW27591   7.824   7.556   0.562
 9096SOL    HW127592   7.750   7.495   0.554
 9096SOL    HW227593   7.901   7.500   0.568
 9097SOL     OW27594   0.832   0.986   1.026
 9097SOL    HW127595   0.850   1.055   1.090
 9097SOL    HW227596   0.760   1.020   0.973
 9098SOL     OW27597   1.494   8.205   4.621
 9098SOL    HW127598   1.470   0.066   4.644
 9098SOL    HW227599   1.541   8.173   4.698
 9099SOL     OW27600   2.755   6.019   0.238
 9099SOL    HW127601   2.798   5.937   0.262
 9099SOL    HW227602   2.779   6.080   0.307
 9100SOL     OW27603   3.947   8.135   2.480
 9100SOL    HW127604   3.958   8.066   2.414
 9100SOL    HW227605   3.853   8.137   2.496
 9101SOL     OW27606   3.112   2.979   1.711
 9101SOL    HW127607   3.088   2.891   1.740
 9101SOL    HW227608   3.033   3.032   1.726
 9102SOL     OW27609   1.120   1.131   1.792
 9102SOL    HW127610   1.083   1.203   1.843
 9102SOL    HW227611   1.202   1.166   1.757
 9103SOL     OW27612   3.179   7.430   2.760
 9103SOL    HW127613   3.130   7.395   2.834
 9103SOL    HW227614   3.261   7.461   2.798
 9104SOL     OW27615   7.229   3.950   3.055
 9104SOL    HW127616   7.250   3.977   2.965
 9104SOL    HW227617   7.140   3.982   3.070
 9105SOL     OW27618   0.324   3.846   3.551
 9105SOL    HW127619   0.311   3.818   3.460
 9105SOL    HW227620   0.373   3.928   3.544
 9106SOL     OW27621   1.510   3.768   4.016
 9106SOL    HW127622   1.524   3.675   3.999
 9106SOL    HW227623   1.517   3.776   4.111
 9107SOL     OW27624   5.716   5.692   2.739
 9107SOL    HW127625   5.720   5.601   2.767
 9107SOL    HW227626   5.684   5.688   2.649
 9108SOL     OW27627   3.736   3.295   0.420
 9108SOL    HW127628   3.782   3.377   0.440
 9108SOL    HW227629   3.737   3.290   0.324
 9109SOL     OW27630   3.286   5.640   0.130
 9109SOL    HW127631   3.325   5.662   0.215
 9109SOL    HW227632   3.311   5.713   0.073
 9110SOL     OW27633   6.711   1.464   4.319
 9110SOL    HW127634   6.714   1.369   4.310
 9110SOL    HW227635   6.788   1.486   4.372
 9111SOL     OW27636   1.803   5.368   0.873
 9111SOL    HW127637   1.762   5.365   0.959
 9111SOL    HW227638   1.818   5.461   0.857
 9112SOL     OW27639   1.311   2.102   5.596
 9112SOL    HW127640   1.385   2.115   5.537
 9112SOL    HW227641   1.328   2.017   5.637
 9113SOL     OW27642   1.876   1.239   3.205
 9113SOL    HW127643   1.940   1.297   3.247
 9113SOL    HW227644   1.794   1.288   3.209
 9114SOL     OW27645   6.789   8.111   1.039
 9114SOL    HW127646   6.832   8.180   0.989
 9114SOL    HW227647   6.857   8.045   1.052
 9115SOL     OW27648   7.823   3.135   4.164
 9115SOL    HW127649   7.742   3.187   4.162
 9115SOL    HW227650   7.832   3.102   4.075
 9116SOL     OW27651   6.868   7.038   3.335
 9116SOL    HW127652   6.820   6.958   3.354
 9116SOL    HW227653   6.920   7.017   3.257
 9117SOL     OW27654   4.932   0.950   0.505
 9117SOL    HW127655   4.837   0.960   0.500
 9117SOL    HW227656   4.952   0.880   0.443
 9118SOL     OW27657   2.167   3.791   1.025
 9118SOL    HW127658   2.129   3.879   1.025
 9118SOL    HW227659   2.225   3.790   1.101
 9119SOL     OW27660   5.290   6.097   0.010
 9119SOL    HW127661   5.322   6.185   0.029
 9119SOL    HW227662   1.102   1.995   5.769
 9120SOL     OW27663   3.248   1.159   5.733
 9120SOL    HW127664   3.256   1.241   5.683
 9120SOL    HW227665   3.165   1.167   5.780
 9121SOL     OW27666   4.143   7.281   1.223
 9121SOL    HW127667   4.143   7.230   1.142
 9121SOL    HW227668   4.236   7.295   1.243
 9122SOL     OW27669   0.466   5.214   2.264
 9122SOL    HW127670   0.553   5.244   2.291
 9122SOL    HW227671   0.406   5.279   2.301
 9123SOL     OW27672   0.887   3.997   3.377
 9123SOL    HW127673   0.820   3.929   3.385
 9123SOL    HW227674   0.840   4.073   3.343
 9124SOL     OW27675   6.052   3.455   2.375
 9124SOL    HW127676   6.014   3.516   2.438
 9124SOL    HW227677   5.984   3.444   2.308
 9125SOL     OW27678   7.475   5.091   3.966
 9125SOL    HW127679   7.400   5.136   3.928
 9125SOL    HW227680   7.551   5.133   3.926
 9126SOL     OW27681   4.972   0.205   2.577
 9126SOL    HW127682   4.885   0.225   2.612
 9126SOL    HW227683   5.028   0.275   2.609
 9127SOL     OW27684   0.244   6.731   1.789
 9127SOL    HW127685   0.150   6.739   1.804
 9127SOL    HW227686   0.277   6.820   1.798
 9128SOL     OW27687   4.710   4.430   1.870
 9128SOL    HW127688   4.751   4.495   1.927
 9128SOL    HW227689   4.768   4.425   1.794
 9129SOL     OW27690   0.133   4.587   5.008
 9129SOL    HW127691   0.055   4.535   4.991
 9129SOL    HW227692   0.204   4.523   5.015
 9130SOL     OW27693   4.589   7.101   0.802
 9130SOL    HW127694   4.561   7.188   0.775
 9130SOL    HW227695   4.684   7.107   0.809
 9131SOL     OW27696   1.049   3.521   1.684
 9131SOL    HW127697   1.045   3.460   1.758
 9131SOL    HW227698   1.026   3.468   1.608
 9132SOL     OW27699   0.946   2.031   3.469
 9132SOL    HW127700   0.911   1.981   3.395
 9132SOL    HW227701   1.041   2.022   3.462
 9133SOL     OW27702   6.949   5.620   0.977
 9133SOL    HW127703   6.930   5.578   1.061
 9133SOL    HW227704   6.898   5.701   0.979
 9134SOL     OW27705   4.473   0.940   1.793
 9134SOL    HW127706   4.388   0.904   1.819
 9134SOL    HW227707   4.494   0.896   1.710
 9135SOL     OW27708   3.677   0.969   0.700
 9135SOL    HW127709   3.652   0.895   0.644
 9135SOL    HW227710   3.762   0.997   0.667
 9136SOL     OW27711   0.265   7.741   4.818
 9136SOL    HW127712   0.173   7.723   4.836
 9136SOL    HW227713   0.297   7.786   4.897
 9137SOL     OW27714   0.397   0.526   0.512
 9137SOL    HW127715   0.452   0.476   0.451
 9137SOL    HW227716   0.403   0.478   0.594
 9138SOL     OW27717   4.351   7.431   3.774
 9138SOL    HW127718   4.304   7.409   3.855
 9138SOL    HW227719   4.282   7.451   3.711
 9139SOL     OW27720   5.728   5.189   1.016
 9139SOL    HW127721   5.799   5.147   0.967
 9139SOL    HW227722   5.661   5.121   1.025
 9140SOL     OW27723   1.516   0.086   5.217
 9140SOL    HW127724   1.478   0.171   5.195
 9140SOL    HW227725   1.524   0.088   5.312
 9141SOL     OW27726   1.413   2.829   2.210
 9141SOL    HW127727   1.493   2.881   2.211
 9141SOL    HW227728   1.423   2.768   2.283
 9142SOL     OW27729   6.037   3.159   4.202
 9142SOL    HW127730   5.960   3.204   4.238
 9142SOL    HW227731   6.014   3.140   4.111
 9143SOL     OW27732   3.618   2.325   1.565
 9143SOL    HW127733   3.653   2.399   1.615
 9143SOL    HW227734   3.694   2.290   1.518
 9144SOL     OW27735   4.823   7.630   1.198
 9144SOL    HW127736   4.896   7.584   1.239
 9144SOL    HW227737   4.845   7.631   1.105
 9145SOL     OW27738   0.887   3.014   3.322
 9145SOL    HW127739   0.974   3.030   3.359
 9145SOL    HW227740   0.838   2.974   3.394
 9146SOL     OW27741   4.001   6.901   4.591
 9146SOL    HW127742   3.998   6.980   4.536
 9146SOL    HW227743   4.094   6.883   4.601
 9147SOL     OW27744   7.615   0.464   1.363
 9147SOL    HW127745   7.566   0.394   1.406
 9147SOL    HW227746   7.675   0.419   1.304
 9148SOL     OW27747   1.256   4.154   3.616
 9148SOL    HW127748   1.161   4.158   3.612
 9148SOL    HW227749   1.286   4.234   3.573
 9149SOL     OW27750   3.899   6.815   5.397
 9149SOL    HW127751   3.862   6.732   5.425
 9149SOL    HW227752   3.876   6.821   5.304
 9150SOL     OW27753   7.823   8.005   1.629
 9150SOL    HW127754   7.729   8.021   1.622
 9150SOL    HW227755   7.834   7.960   1.713
 9151SOL     OW27756   7.242   7.186   2.788
 9151SOL    HW127757   7.200   7.191   2.702
 9151SOL    HW227758   7.318   7.244   2.781
 9152SOL     OW27759   2.908   4.128   5.737
 9152SOL    HW127760   2.871   4.041   5.722
 9152SOL    HW227761   3.002   4.113   5.746
 9153SOL     OW27762   3.817   1.066   4.481
 9153SOL    HW127763   3.749   1.100   4.423
 9153SOL    HW227764   3.823   0.973   4.459
 9154SOL     OW27765   1.584   5.373   0.345
 9154SOL    HW127766   1.603   5.390   0.253
 9154SOL    HW227767   1.632   5.441   0.392
 9155SOL     OW27768   2.694   5.200   0.084
 9155SOL    HW127769   6.851   1.067   5.819
 9155SOL    HW227770   2.714   5.292   0.101
 9156SOL     OW27771   0.142   6.952   0.870
 9156SOL    HW127772   0.104   7.024   0.821
 9156SOL    HW227773   0.115   6.873   0.822
 9157SOL     OW27774   6.031   4.730   1.578
 9157SOL    HW127775   6.102   4.756   1.520
 9157SOL    HW227776   6.067   4.657   1.629
 9158SOL     OW27777   3.985   4.822   3.781
 9158SOL    HW127778   4.075   4.848   3.763
 9158SOL    HW227779   3.985   4.800   3.874
 9159SOL     OW27780   5.790   1.695   5.422
 9159SOL    HW127781   5.768   1.663   5.510
 9159SOL    HW227782   5.870   1.746   5.435
 9160SOL     OW27783   3.133   0.466   1.903
 9160SOL    HW127784   3.148   0.424   1.818
 9160SOL    HW227785   3.220   0.494   1.932
 9161SOL     OW27786   5.866   3.272   0.619
 9161SOL    HW127787   5.835   3.182   0.630
 9161SOL    HW227788   5.897   3.276   0.528
 9162SOL     OW27789   6.968   0.897   2.191
 9162SOL    HW127790   6.930   0.865   2.273
 9162SOL    HW227791   7.061   0.877   2.199
 9163SOL     OW27792   0.827   1.642   4.469
 9163SOL    HW127793   0.842   1.707   4.401
 9163SOL    HW227794   0.742   1.665   4.506
 9164SOL     OW27795   3.723   3.634   4.547
 9164SOL    HW127796   3.802   3.649   4.494
 9164SOL    HW227797   3.716   3.713   4.601
 9165SOL     OW27798   6.256   2.158   2.927
 9165SOL    HW127799   6.292   2.126   3.010
 9165SOL    HW227800   6.324   2.215   2.892
 9166SOL     OW27801   6.923   5.923   2.647
 9166SOL    HW127802   6.931   5.977   2.725
 9166SOL    HW227803   6.991   5.956   2.588
 9167SOL     OW27804   1.057   6.832   5.459
 9167SOL    HW127805   1.005   6.754   5.440
 9167SOL    HW227806   1.136   6.822   5.407
 9168SOL     OW27807   7.664   4.019   1.211
 9168SOL    HW127808   7.659   4.053   1.122
 9168SOL    HW227809   7.651   3.925   1.201
 9169SOL     OW27810   5.757   0.606   0.050
 9169SOL    HW127811   5.814   0.590   0.125
 9169SOL    HW227812   1.693   4.690   5.793
 9170SOL     OW27813   6.906   2.533   3.502
 9170SOL    HW127814   6.825   2.540   3.452
 9170SOL    HW227815   6.878   2.535   3.594
 9171SOL     OW27816   2.768   7.043   1.816
 9171SOL    HW127817   2.718   6.985   1.873
 9171SOL    HW227818   2.787   7.119   1.871
 9172SOL     OW27819   0.927   5.420   5.270
 9172SOL    HW127820   0.924   5.483   5.342
 9172SOL    HW227821   0.837   5.389   5.262
 9173SOL     OW27822   1.707   1.297   5.334
 9173SOL    HW127823   1.698   1.232   5.403
 9173SOL    HW227824   1.683   1.250   5.254
 9174SOL     OW27825   6.227   0.055   0.133
 9174SOL    HW127826   6.302   0.095   0.178
 9174SOL    HW227827   6.177   0.012   0.203
 9175SOL     OW27828   7.001   6.164   4.877
 9175SOL    HW127829   7.007   6.075   4.842
 9175SOL    HW227830   6.907   6.183   4.878
 9176SOL     OW27831   7.476   3.621   0.180
 9176SOL    HW127832   7.484   3.710   0.147
 9176SOL    HW227833   7.486   3.629   0.275
 9177SOL     OW27834   1.211   5.108   2.211
 9177SOL    HW127835   1.202   5.184   2.154
 9177SOL    HW227836   1.148   5.122   2.281
 9178SOL     OW27837   0.233   0.345   0.927
 9178SOL    HW127838   0.163   0.410   0.921
 9178SOL    HW227839   0.195   0.266   0.888
 9179SOL     OW27840   7.135   4.242   1.383
 9179SOL    HW127841   7.088   4.203   1.457
 9179SOL    HW227842   7.075   4.308   1.349
 9180SOL     OW27843   4.515   6.001   2.018
 9180SOL    HW127844   4.448   6.028   1.955
 9180SOL    HW227845   4.477   5.925   2.062
 9181SOL     OW27846   2.967   6.903   3.780
 9181SOL    HW127847   3.036   6.875   3.840
 9181SOL    HW227848   2.984   6.996   3.766
 9182SOL     OW27849   4.608   0.527   4.301
 9182SOL    HW127850   4.661   0.507   4.378
 9182SOL    HW227851   4.653   0.600   4.259
 9183SOL     OW27852   1.501   0.319   4.748
 9183SOL    HW127853   1.461   0.342   4.664
 9183SOL    HW227854   1.432   0.333   4.812
 9184SOL     OW27855   3.814   4.049   1.267
 9184SOL    HW127856   3.768   3.974   1.229
 9184SOL    HW227857   3.770   4.125   1.230
 9185SOL     OW27858   8.088   4.228   0.641
 9185SOL    HW127859   8.110   4.286   0.568
 9185SOL    HW227860   8.059   4.287   0.710
 9186SOL     OW27861   3.807   0.419   4.193
 9186SOL    HW127862   3.789   0.355   4.262
 9186SOL    HW227863   3.764   0.384   4.115
 9187SOL     OW27864   2.322   2.165   5.256
 9187SOL    HW127865   2.293   2.196   5.170
 9187SOL    HW227866   2.414   2.191   5.261
 9188SOL     OW27867   7.584   7.449   1.109
 9188SOL    HW127868   7.488   7.448   1.108
 9188SOL    HW227869   7.608   7.410   1.193
 9189SOL     OW27870   6.383   2.152   4.545
 9189SOL    HW127871   6.437   2.222   4.582
 9189SOL    HW227872   6.337   2.193   4.472
 9190SOL     OW27873   5.718   3.180   0.350
 9190SOL    HW127874   5.645   3.198   0.291
 9190SOL    HW227875   5.688   3.107   0.404
 9191SOL     OW27876   4.191   5.982   4.049
 9191SOL    HW127877   4.200   5.921   4.122
 9191SOL    HW227878   4.245   5.945   3.979
 9192SOL     OW27879   6.938   4.503   1.615
 9192SOL    HW127880   6.916   4.421   1.659
 9192SOL    HW227881   6.869   4.564   1.642
 9193SOL     OW27882   1.949   7.232   1.648
 9193SOL    HW127883   1.867   7.274   1.675
 9193SOL    HW227884   1.981   7.286   1.576
 9194SOL     OW27885   0.346   7.009   2.784
 9194SOL    HW127886   0.270   6.957   2.812
 9194SOL    HW227887   0.416   6.945   2.775
 9195SOL     OW27888   0.151   5.755   4.165
 9195SOL    HW127889   0.234   5.802   4.155
 9195SOL    HW227890   0.085   5.824   4.176
 9196SOL     OW27891   6.065   7.278   1.967
 9196SOL    HW127892   5.990   7.278   2.026
 9196SOL    HW227893   6.027   7.262   1.881
 9197SOL     OW27894   0.394   5.754   2.355
 9197SOL    HW127895   0.299   5.748   2.357
 9197SOL    HW227896   0.412   5.848   2.353
 9198SOL     OW27897   5.343   1.678   4.652
 9198SOL    HW127898   5.398   1.743   4.696
 9198SOL    HW227899   5.264   1.727   4.627
 9199SOL     OW27900   6.223   2.246   4.321
 9199SOL    HW127901   6.156   2.194   4.277
 9199SOL    HW227902   6.305   2.224   4.276
 9200SOL     OW27903   0.916   5.673   2.815
 9200SOL    HW127904   0.862   5.597   2.792
 9200SOL    HW227905   1.003   5.651   2.783
 9201SOL     OW27906   7.338   8.220   1.592
 9201SOL    HW127907   7.351   0.067   1.648
 9201SOL    HW227908   7.255   8.183   1.621
 9202SOL     OW27909   6.593   2.413   3.862
 9202SOL    HW127910   6.608   2.429   3.955
 9202SOL    HW227911   6.606   2.498   3.820
 9203SOL     OW27912   1.709   6.121   5.178
 9203SOL    HW127913   1.681   6.139   5.088
 9203SOL    HW227914   1.732   6.207   5.213
 9204SOL     OW27915   2.332   4.886   3.717
 9204SOL    HW127916   2.365   4.940   3.645
 9204SOL    HW227917   2.411   4.859   3.765
 9205SOL     OW27918   6.429   3.100   3.142
 9205SOL    HW127919   6.440   3.012   3.107
 9205SOL    HW227920   6.402   3.153   3.067
 9206SOL     OW27921   3.402   3.733   3.450
 9206SOL    HW127922   3.479   3.689   3.415
 9206SOL    HW227923   3.413   3.728   3.545
 9207SOL     OW27924   4.024   4.307   3.561
 9207SOL    HW127925   4.100   4.363   3.546
 9207SOL    HW227926   4.050   4.222   3.526
 9208SOL     OW27927   4.832   1.596   0.114
 9208SOL    HW127928   4.751   1.548   0.130
 9208SOL    HW227929   4.882   1.586   0.195
 9209SOL     OW27930   2.673   7.519   0.275
 9209SOL    HW127931   2.681   7.500   0.181
 9209SOL    HW227932   2.732   7.457   0.317
 9210SOL     OW27933   4.442   1.017   4.533
 9210SOL    HW127934   4.482   1.101   4.510
 9210SOL    HW227935   4.458   0.961   4.457
 9211SOL     OW27936   3.624   1.853   4.020
 9211SOL    HW127937   3.569   1.876   4.095
 9211SOL    HW227938   3.573   1.880   3.944
 9212SOL     OW27939   1.328   3.303   1.489
 9212SOL    HW127940   1.304   3.389   1.456
 9212SOL    HW227941   1.283   3.296   1.573
 9213SOL     OW27942   1.258   1.060   2.522
 9213SOL    HW127943   1.322   1.077   2.453
 9213SOL    HW227944   1.173   1.062   2.477
 9214SOL     OW27945   7.381   2.912   0.968
 9214SOL    HW127946   7.331   2.993   0.962
 9214SOL    HW227947   7.349   2.869   1.048
 9215SOL     OW27948   5.113   7.789   3.709
 9215SOL    HW127949   5.189   7.732   3.720
 9215SOL    HW227950   5.150   7.877   3.702
 9216SOL     OW27951   7.679   2.649   1.867
 9216SOL    HW127952   7.643   2.734   1.843
 9216SOL    HW227953   7.774   2.663   1.869
 9217SOL     OW27954   0.088   6.719   3.504
 9217SOL    HW127955   0.007   6.669   3.515
 9217SOL    HW227956   0.078   6.794   3.562
 9218SOL     OW27957   5.265   8.024   1.653
 9218SOL    HW127958   5.212   8.052   1.727
 9218SOL    HW227959   5.234   7.936   1.633
 9219SOL     OW27960   0.259   3.061   5.280
 9219SOL    HW127961   0.251   3.156   5.275
 9219SOL    HW227962   0.262   3.033   5.189
 9220SOL     OW27963   7.203   2.757   2.803
 9220SOL    HW127964   7.286   2.732   2.763
 9220SOL    HW227965   7.227   2.818   2.872
 9221SOL     OW27966   2.384   7.142   5.396
 9221SOL    HW127967   2.379   7.186   5.311
 9221SOL    HW227968   2.466   7.172   5.434
 9222SOL     OW27969   0.603   3.593   0.442
 9222SOL    HW127970   0.657   3.527   0.485
 9222SOL    HW227971   0.530   3.544   0.404
 9223SOL     OW27972   3.116   6.568   4.306
 9223SOL    HW127973   3.173   6.643   4.289
 9223SOL    HW227974   3.061   6.596   4.379
 9224SOL     OW27975   3.362   5.863   0.815
 9224SOL    HW127976   3.359   5.790   0.877
 9224SOL    HW227977   3.407   5.828   0.738
 9225SOL     OW27978   0.652   1.965   5.632
 9225SOL    HW127979   0.681   1.956   5.541
 9225SOL    HW227980   0.590   2.038   5.630
 9226SOL     OW27981   6.627   3.407   5.292
 9226SOL    HW127982   6.678   3.469   5.345
 9226SOL    HW227983   6.693   3.348   5.255
 9227SOL     OW27984   7.997   2.971   0.882
 9227SOL    HW127985   8.087   2.961   0.851
 9227SOL    HW227986   7.984   3.066   0.889
 9228SOL     OW27987   5.470   4.314   2.363
 9228SOL    HW127988   5.421   4.383   2.318
 9228SOL    HW227989   5.474   4.242   2.300
 9229SOL     OW27990   1.157   2.721   1.480
 9229SOL    HW127991   1.161   2.803   1.529
 9229SOL    HW227992   1.125   2.657   1.543
 9230SOL     OW27993   0.275   5.726   0.048
 9230SOL    HW127994   0.312   5.734   0.136
 9230SOL    HW227995   0.185   5.696   0.063
 9231SOL     OW27996   6.533   0.117   1.678
 9231SOL    HW127997   6.518   0.026   1.652
 9231SOL    HW227998   6.573   0.111   1.765
 9232SOL     OW27999   6.998   8.089   5.542
 9232SOL    HW128000   7.089   8.073   5.517
 9232SOL    HW228001   6.960   8.002   5.552
 9233SOL     OW28002   6.660   3.444   4.245
 9233SOL    HW128003   6.680   3.533   4.216
 9233SOL    HW228004   6.573   3.426   4.209
 9234SOL     OW28005   1.699   1.128   1.851
 9234SOL    HW128006   1.608   1.121   1.878
 9234SOL    HW228007   1.695   1.130   1.755
 9235SOL     OW28008   6.908   6.922   3.930
 9235SOL    HW128009   6.823   6.887   3.905
 9235SOL    HW228010   6.894   6.957   4.018
 9236SOL     OW28011   7.794   4.851   2.562
 9236SOL    HW128012   7.760   4.867   2.474
 9236SOL    HW228013   7.732   4.895   2.620
 9237SOL     OW28014   6.734   0.129   2.250
 9237SOL    HW128015   6.676   0.195   2.289
 9237SOL    HW228016   6.797   0.180   2.199
 9238SOL     OW28017   5.202   0.754   2.627
 9238SOL    HW128018   5.212   0.660   2.614
 9238SOL    HW228019   5.117   0.774   2.588
 9239SOL     OW28020   7.707   4.599   1.093
 9239SOL    HW128021   7.650   4.674   1.076
 9239SOL    HW228022   7.722   4.602   1.188
 9240SOL     OW28023   5.190   5.649   4.167
 9240SOL    HW128024   5.256   5.591   4.131
 9240SOL    HW228025   5.235   5.733   4.176
 9241SOL     OW28026   6.965   3.498   4.939
 9241SOL    HW128027   6.873   3.508   4.913
 9241SOL    HW228028   6.990   3.412   4.906
 9242SOL     OW28029   0.335   2.145   1.573
 9242SOL    HW128030   0.276   2.106   1.509
 9242SOL    HW228031   0.406   2.082   1.582
 9243SOL     OW28032   7.463   2.233   0.153
 9243SOL    HW128033   7.408   2.159   0.126
 9243SOL    HW228034   7.478   2.219   0.246
 9244SOL     OW28035   6.771   1.209   3.719
 9244SOL    HW128036   6.837   1.156   3.763
 9244SOL    HW228037   6.721   1.249   3.790
 9245SOL     OW28038   7.866   3.549   2.012
 9245SOL    HW128039   7.957   3.572   1.993
 9245SOL    HW228040   7.865   3.453   2.014
 9246SOL     OW28041   6.738   1.556   1.990
 9246SOL    HW128042   6.723   1.644   1.955
 9246SOL    HW228043   6.656   1.533   2.033
 9247SOL     OW28044   2.363   7.059   3.716
 9247SOL    HW128045   2.454   7.046   3.741
 9247SOL    HW228046   2.368   7.094   3.627
 9248SOL     OW28047   0.208   6.072   0.832
 9248SOL    HW128048   0.142   6.141   0.843
 9248SOL    HW228049   0.163   5.992   0.859
 9249SOL     OW28050   3.137   7.981   1.057
 9249SOL    HW128051   3.128   7.886   1.053
 9249SOL    HW228052   3.147   8.000   1.150
 9250SOL     OW28053   3.296   3.286   5.020
 9250SOL    HW128054   3.354   3.272   5.095
 9250SOL    HW228055   3.355   3.302   4.947
 9251SOL     OW28056   6.770   4.679   1.872
 9251SOL    HW128057   6.698   4.619   1.888
 9251SOL    HW228058   6.729   4.756   1.833
 9252SOL     OW28059   6.043   7.213   3.353
 9252SOL    HW128060   5.978   7.270   3.311
 9252SOL    HW228061   6.102   7.187   3.282
 9253SOL     OW28062   2.174   2.377   4.691
 9253SOL    HW128063   2.101   2.435   4.668
 9253SOL    HW228064   2.132   2.300   4.728
 9254SOL     OW28065   2.396   0.853   0.401
 9254SOL    HW128066   2.360   0.901   0.476
 9254SOL    HW228067   2.490   0.851   0.418
 9255SOL     OW28068   3.605   6.557   4.018
 9255SOL    HW128069   3.622   6.556   3.924
 9255SOL    HW228070   3.692   6.563   4.058
 9256SOL     OW28071   6.702   6.826   1.571
 9256SOL    HW128072   6.797   6.835   1.560
 9256SOL    HW228073   6.690   6.743   1.616
 9257SOL     OW28074   3.418   0.495   5.145
 9257SOL    HW128075   3.446   0.580   5.179
 9257SOL    HW228076   3.403   0.442   5.223
 9258SOL     OW28077   3.571   7.532   0.248
 9258SOL    HW128078   3.490   7.504   0.205
 9258SOL    HW228079   3.552   7.621   0.277
 9259SOL     OW28080   3.672   3.770   1.370
 9259SOL    HW128081   3.736   3.702   1.389
 9259SOL    HW228082   3.593   3.723   1.345
 9260SOL     OW28083   8.133   2.122   5.513
 9260SOL    HW128084   8.069   2.057   5.541
 9260SOL    HW228085   8.160   2.093   5.426
 9261SOL     OW28086   1.359   0.133   3.842
 9261SOL    HW128087   1.297   0.176   3.900
 9261SOL    HW228088   1.343   0.039   3.853
 9262SOL     OW28089   6.033   7.226   2.938
 9262SOL    HW128090   6.106   7.285   2.954
 9262SOL    HW228091   5.992   7.215   3.024
 9263SOL     OW28092   3.139   6.091   1.370
 9263SOL    HW128093   3.197   6.149   1.321
 9263SOL    HW228094   3.082   6.052   1.303
 9264SOL     OW28095   1.307   2.908   1.928
 9264SOL    HW128096   1.398   2.922   1.901
 9264SOL    HW228097   1.311   2.895   2.023
 9265SOL     OW28098   4.240   3.428   5.641
 9265SOL    HW128099   4.290   3.363   5.691
 9265SOL    HW228100   4.239   3.394   5.552
 9266SOL     OW28101   1.775   3.219   1.505
 9266SOL    HW128102   1.867   3.241   1.522
 9266SOL    HW228103   1.736   3.301   1.473
 9267SOL     OW28104   0.430   4.281   0.358
 9267SOL    HW128105   0.353   4.236   0.393
 9267SOL    HW228106   0.504   4.234   0.396
 9268SOL     OW28107   1.308   5.761   5.038
 9268SOL    HW128108   1.242   5.776   4.970
 9268SOL    HW228109   1.299   5.836   5.097
 9269SOL     OW28110   7.657   0.645   4.018
 9269SOL    HW128111   7.575   0.598   4.034
 9269SOL    HW228112   7.710   0.628   4.096
 9270SOL     OW28113   8.126   3.297   0.107
 9270SOL    HW128114   8.158   3.210   0.083
 9270SOL    HW228115   8.158   3.311   0.196
 9271SOL     OW28116   3.675   8.082   2.514
 9271SOL    HW128117   3.625   8.034   2.580
 9271SOL    HW228118   3.620   8.157   2.491
 9272SOL     OW28119   3.136   5.979   3.592
 9272SOL    HW128120   3.090   5.919   3.651
 9272SOL    HW228121   3.068   6.038   3.560
 9273SOL     OW28122   7.201   0.840   1.774
 9273SOL    HW128123   7.174   0.910   1.833
 9273SOL    HW228124   7.147   0.853   1.696
 9274SOL     OW28125   1.137   5.859   4.878
 9274SOL    HW128126   1.048   5.839   4.906
 9274SOL    HW228127   1.133   5.951   4.851
 9275SOL     OW28128   6.178   0.215   3.926
 9275SOL    HW128129   6.100   0.262   3.957
 9275SOL    HW228130   6.246   0.282   3.922
 9276SOL     OW28131   1.427   5.925   3.063
 9276SOL    HW128132   1.349   5.935   3.117
 9276SOL    HW228133   1.417   5.992   2.995
 9277SOL     OW28134   3.047   2.299   5.587
 9277SOL    HW128135   3.013   2.347   5.511
 9277SOL    HW228136   3.071   2.213   5.552
 9278SOL     OW28137   0.992   0.855   0.679
 9278SOL    HW128138   1.000   0.895   0.766
 9278SOL    HW228139   0.968   0.928   0.621
 9279SOL     OW28140   4.264   0.879   3.875
 9279SOL    HW128141   4.299   0.922   3.797
 9279SOL    HW228142   4.175   0.913   3.884
 9280SOL     OW28143   4.809   0.252   3.003
 9280SOL    HW128144   4.724   0.242   3.045
 9280SOL    HW228145   4.869   0.274   3.074
 9281SOL     OW28146   7.389   5.016   4.462
 9281SOL    HW128147   7.419   5.062   4.384
 9281SOL    HW228148   7.359   5.085   4.521
 9282SOL     OW28149   6.216   2.972   2.577
 9282SOL    HW128150   6.201   2.882   2.549
 9282SOL    HW228151   6.306   2.991   2.551
 9283SOL     OW28152   5.592   0.937   0.727
 9283SOL    HW128153   5.609   1.026   0.758
 9283SOL    HW228154   5.515   0.945   0.670
 9284SOL     OW28155   5.892   2.893   0.430
 9284SOL    HW128156   5.801   2.915   0.409
 9284SOL    HW228157   5.941   2.972   0.409
 9285SOL     OW28158   5.778   4.212   2.437
 9285SOL    HW128159   5.857   4.179   2.394
 9285SOL    HW228160   5.709   4.150   2.411
 9286SOL     OW28161   5.481   3.078   2.526
 9286SOL    HW128162   5.567   3.075   2.485
 9286SOL    HW228163   5.499   3.072   2.620
 9287SOL     OW28164   6.405   1.887   0.038
 9287SOL    HW128165   2.353   6.057   5.810
 9287SOL    HW228166   6.387   1.935   0.119
 9288SOL     OW28167   4.736   1.959   3.310
 9288SOL    HW128168   4.652   2.004   3.303
 9288SOL    HW228169   4.720   1.872   3.274
 9289SOL     OW28170   0.878   7.874   5.436
 9289SOL    HW128171   0.840   7.789   5.414
 9289SOL    HW228172   0.951   7.884   5.375
 9290SOL     OW28173   6.650   6.811   0.325
 9290SOL    HW128174   6.676   6.877   0.261
 9290SOL    HW228175   6.589   6.857   0.383
 9291SOL     OW28176   1.038   2.309   1.615
 9291SOL    HW128177   1.093   2.304   1.537
 9291SOL    HW228178   1.053   2.397   1.650
 9292SOL     OW28179   6.311   1.634   0.003
 9292SOL    HW128180   6.228   1.655   0.045
 9292SOL    HW228181   6.367   1.710   0.020
 9293SOL     OW28182   4.409   1.963   3.126
 9293SOL    HW128183   4.432   2.056   3.123
 9293SOL    HW228184   4.328   1.959   3.176
 9294SOL     OW28185   2.092   3.586   2.270
 9294SOL    HW128186   2.105   3.558   2.361
 9294SOL    HW228187   2.125   3.513   2.218
 9295SOL     OW28188   3.296   1.285   1.788
 9295SOL    HW128189   3.337   1.243   1.863
 9295SOL    HW228190   3.215   1.236   1.774
 9296SOL     OW28191   5.886   6.431   4.942
 9296SOL    HW128192   5.941   6.498   4.982
 9296SOL    HW228193   5.945   6.357   4.928
 9297SOL     OW28194   4.016   0.804   0.330
 9297SOL    HW128195   4.040   0.781   0.240
 9297SOL    HW228196   3.959   0.880   0.320
 9298SOL     OW28197   2.767   0.091   4.491
 9298SOL    HW128198   2.801   0.078   4.580
 9298SOL    HW228199   2.805   0.020   4.440
 9299SOL     OW28200   1.351   5.631   3.127
 9299SOL    HW128201   1.305   5.570   3.070
 9299SOL    HW228202   1.442   5.601   3.127
 9300SOL     OW28203   2.839   7.995   2.808
 9300SOL    HW128204   2.787   7.981   2.887
 9300SOL    HW228205   2.781   7.972   2.736
 9301SOL     OW28206   1.603   4.764   0.104
 9301SOL    HW128207   1.650   4.727   0.030
 9301SOL    HW228208   1.631   4.711   0.179
 9302SOL     OW28209   4.197   2.137   1.042
 9302SOL    HW128210   4.105   2.120   1.021
 9302SOL    HW228211   4.225   2.202   0.977
 9303SOL     OW28212   3.045   4.800   3.850
 9303SOL    HW128213   3.095   4.828   3.773
 9303SOL    HW228214   3.112   4.779   3.916
 9304SOL     OW28215   4.439   1.422   0.960
 9304SOL    HW128216   4.350   1.439   0.991
 9304SOL    HW228217   4.495   1.451   1.032
 9305SOL     OW28218   2.494   4.624   4.464
 9305SOL    HW128219   2.451   4.708   4.451
 9305SOL    HW228220   2.500   4.614   4.559
 9306SOL     OW28221   0.543   7.120   3.003
 9306SOL    HW128222   0.506   7.054   2.945
 9306SOL    HW228223   0.610   7.074   3.053
 9307SOL     OW28224   8.108   3.858   1.394
 9307SOL    HW128225   8.066   3.826   1.314
 9307SOL    HW228226   8.043   3.845   1.463
 9308SOL     OW28227   1.956   5.454   1.207
 9308SOL    HW128228   1.972   5.534   1.157
 9308SOL    HW228229   2.010   5.464   1.285
 9309SOL     OW28230   3.901   7.698   2.275
 9309SOL    HW128231   3.813   7.727   2.301
 9309SOL    HW228232   3.922   7.627   2.335
 9310SOL     OW28233   0.983   4.891   4.319
 9310SOL    HW128234   1.002   4.916   4.228
 9310SOL    HW228235   1.067   4.859   4.353
 9311SOL     OW28236   3.777   2.361   3.662
 9311SOL    HW128237   3.801   2.429   3.725
 9311SOL    HW228238   3.814   2.280   3.698
 9312SOL     OW28239   3.955   7.641   3.398
 9312SOL    HW128240   3.916   7.726   3.416
 9312SOL    HW228241   4.005   7.620   3.477
 9313SOL     OW28242   2.627   3.234   3.471
 9313SOL    HW128243   2.575   3.246   3.551
 9313SOL    HW228244   2.565   3.198   3.408
 9314SOL     OW28245   0.718   4.429   0.229
 9314SOL    HW128246   0.796   4.477   0.201
 9314SOL    HW228247   0.704   4.364   0.160
 9315SOL     OW28248   2.416   4.708   2.977
 9315SOL    HW128249   2.473   4.783   2.961
 9315SOL    HW228250   2.468   4.650   3.032
 9316SOL     OW28251   0.129   8.147   2.696
 9316SOL    HW128252   0.071   8.092   2.748
 9316SOL    HW228253   0.127   8.108   2.609
 9317SOL     OW28254   5.892   5.657   0.025
 9317SOL    HW128255   1.720   1.511   5.774
 9317SOL    HW228256   5.894   5.752   0.014
 9318SOL     OW28257   7.446   2.060   0.390
 9318SOL    HW128258   7.443   2.000   0.315
 9318SOL    HW228259   7.440   2.003   0.466
 9319SOL     OW28260   7.916   8.163   0.683
 9319SOL    HW128261   7.981   8.105   0.722
 9319SOL    HW228262   7.896   8.227   0.752
 9320SOL     OW28263   5.110   6.782   4.710
 9320SOL    HW128264   5.205   6.789   4.705
 9320SOL    HW228265   5.093   6.757   4.801
 9321SOL     OW28266   2.598   2.241   1.597
 9321SOL    HW128267   2.629   2.323   1.635
 9321SOL    HW228268   2.655   2.228   1.521
 9322SOL     OW28269   3.766   3.013   1.423
 9322SOL    HW128270   3.755   2.990   1.331
 9322SOL    HW228271   3.756   3.108   1.425
 9323SOL     OW28272   4.926   5.706   4.269
 9323SOL    HW128273   4.861   5.722   4.201
 9323SOL    HW228274   5.001   5.670   4.223
 9324SOL     OW28275   4.498   2.189   3.389
 9324SOL    HW128276   4.578   2.241   3.379
 9324SOL    HW228277   4.427   2.253   3.391
 9325SOL     OW28278   6.429   6.004   1.104
 9325SOL    HW128279   6.339   6.034   1.115
 9325SOL    HW228280   6.425   5.911   1.126
 9326SOL     OW28281   1.840   3.511   4.317
 9326SOL    HW128282   1.848   3.482   4.408
 9326SOL    HW228283   1.908   3.462   4.271
 9327SOL     OW28284   3.685   6.712   0.125
 9327SOL    HW128285   3.763   6.710   0.069
 9327SOL    HW228286   3.707   6.655   0.199
 9328SOL     OW28287   2.682   7.545   2.220
 9328SOL    HW128288   2.604   7.599   2.203
 9328SOL    HW228289   2.753   7.590   2.174
 9329SOL     OW28290   4.689   5.333   3.811
 9329SOL    HW128291   4.628   5.341   3.884
 9329SOL    HW228292   4.772   5.365   3.846
 9330SOL     OW28293   5.779   8.121   0.647
 9330SOL    HW128294   5.755   8.207   0.682
 9330SOL    HW228295   5.785   8.134   0.552
 9331SOL     OW28296   5.740   4.370   3.679
 9331SOL    HW128297   5.714   4.293   3.729
 9331SOL    HW228298   5.684   4.440   3.711
 9332SOL     OW28299   4.453   2.409   0.086
 9332SOL    HW128300   4.431   2.455   0.005
 9332SOL    HW228301   4.374   2.416   0.140
 9333SOL     OW28302   4.529   4.795   3.914
 9333SOL    HW128303   4.511   4.882   3.951
 9333SOL    HW228304   4.460   4.782   3.850
 9334SOL     OW28305   0.385   0.081   1.338
 9334SOL    HW128306   0.362   0.002   1.289
 9334SOL    HW228307   0.395   0.052   1.429
 9335SOL     OW28308   8.033   6.626   2.817
 9335SOL    HW128309   8.084   6.599   2.740
 9335SOL    HW228310   8.095   6.677   2.870
 9336SOL     OW28311   6.697   5.916   0.775
 9336SOL    HW128312   6.770   5.896   0.716
 9336SOL    HW228313   6.718   5.869   0.856
 9337SOL     OW28314   0.613   0.941   5.476
 9337SOL    HW128315   0.651   0.870   5.424
 9337SOL    HW228316   0.576   0.897   5.552
 9338SOL     OW28317   1.312   6.587   2.994
 9338SOL    HW128318   1.273   6.665   3.033
 9338SOL    HW228319   1.354   6.542   3.067
 9339SOL     OW28320   3.703   1.932   5.604
 9339SOL    HW128321   3.718   1.898   5.516
 9339SOL    HW228322   3.682   2.024   5.591
 9340SOL     OW28323   0.974   2.650   3.015
 9340SOL    HW128324   1.034   2.627   2.944
 9340SOL    HW228325   0.918   2.718   2.978
 9341SOL     OW28326   6.222   1.867   4.017
 9341SOL    HW128327   6.200   1.789   4.068
 9341SOL    HW228328   6.161   1.934   4.048
 9342SOL     OW28329   1.976   0.592   0.341
 9342SOL    HW128330   2.059   0.616   0.300
 9342SOL    HW228331   1.968   0.650   0.417
 9343SOL     OW28332   8.165   3.301   4.082
 9343SOL    HW128333   0.015   3.319   4.132
 9343SOL    HW228334   8.106   3.373   4.104
 9344SOL     OW28335   5.358   6.932   4.017
 9344SOL    HW128336   5.434   6.943   4.074
 9344SOL    HW228337   5.289   6.982   4.060
 9345SOL     OW28338   8.137   2.144   3.339
 9345SOL    HW128339   8.043   2.134   3.355
 9345SOL    HW228340   8.150   2.111   3.250
 9346SOL     OW28341   0.469   2.662   4.909
 9346SOL    HW128342   0.477   2.574   4.946
 9346SOL    HW228343   0.528   2.716   4.961
 9347SOL     OW28344   2.036   3.799   2.535
 9347SOL    HW128345   2.017   3.754   2.617
 9347SOL    HW228346   1.955   3.790   2.484
 9348SOL     OW28347   8.162   3.940   1.992
 9348SOL    HW128348   8.133   3.907   2.077
 9348SOL    HW228349   8.102   3.901   1.929
 9349SOL     OW28350   5.280   1.985   4.786
 9349SOL    HW128351   5.191   1.986   4.750
 9349SOL    HW228352   5.317   2.069   4.760
 9350SOL     OW28353   5.991   4.396   2.844
 9350SOL    HW128354   5.949   4.432   2.766
 9350SOL    HW228355   6.069   4.450   2.856
 9351SOL     OW28356   2.325   5.196   5.157
 9351SOL    HW128357   2.380   5.226   5.229
 9351SOL    HW228358   2.237   5.227   5.180
 9352SOL     OW28359   6.297   5.087   0.099
 9352SOL    HW128360   6.338   5.090   0.185
 9352SOL    HW228361   6.297   4.994   0.075
 9353SOL     OW28362   5.446   5.219   0.352
 9353SOL    HW128363   5.493   5.156   0.407
 9353SOL    HW228364   5.510   5.288   0.334
 9354SOL     OW28365   4.624   5.134   5.730
 9354SOL    HW128366   4.576   5.149   5.648
 9354SOL    HW228367   4.699   5.080   5.705
 9355SOL     OW28368   5.303   1.879   1.742
 9355SOL    HW128369   5.353   1.952   1.779
 9355SOL    HW228370   5.361   1.841   1.676
 9356SOL     OW28371   2.208   1.134   3.657
 9356SOL    HW128372   2.155   1.061   3.626
 9356SOL    HW228373   2.245   1.172   3.578
 9357SOL     OW28374   4.603   3.443   0.071
 9357SOL    HW128375   4.562   3.403   0.148
 9357SOL    HW228376   4.587   3.381   0.000
 9358SOL     OW28377   7.896   2.997   1.878
 9358SOL    HW128378   7.967   2.998   1.943
 9358SOL    HW228379   7.891   2.906   1.849
 9359SOL     OW28380   5.709   2.844   3.983
 9359SOL    HW128381   5.617   2.819   3.979
 9359SOL    HW228382   5.708   2.938   3.999
 9360SOL     OW28383   0.709   4.962   4.960
 9360SOL    HW128384   0.619   4.953   4.990
 9360SOL    HW228385   0.742   4.872   4.958
 9361SOL     OW28386   1.050   4.708   5.062
 9361SOL    HW128387   1.083   4.798   5.066
 9361SOL    HW228388   0.993   4.706   4.985
 9362SOL     OW28389   0.007   0.195   1.178
 9362SOL    HW128390   8.217   0.185   1.085
 9362SOL    HW228391   8.195   0.119   1.219
 9363SOL     OW28392   0.130   3.762   3.708
 9363SOL    HW128393   0.168   3.681   3.742
 9363SOL    HW228394   0.203   3.807   3.666
 9364SOL     OW28395   1.326   6.550   4.266
 9364SOL    HW128396   1.269   6.627   4.263
 9364SOL    HW228397   1.365   6.547   4.179
 9365SOL     OW28398   4.795   5.853   5.818
 9365SOL    HW128399   4.818   5.787   5.752
 9365SOL    HW228400   0.699   1.696   0.083
 9366SOL     OW28401   8.128   0.091   1.677
 9366SOL    HW128402   8.041   0.098   1.637
 9366SOL    HW228403   8.114   0.040   1.757
 9367SOL     OW28404   7.380   1.616   0.164
 9367SOL    HW128405   7.368   1.617   0.259
 9367SOL    HW228406   7.473   1.600   0.151
 9368SOL     OW28407   5.900   5.035   1.347
 9368SOL    HW128408   5.852   4.989   1.278
 9368SOL    HW228409   5.934   5.113   1.304
 9369SOL     OW28410   4.626   0.805   3.205
 9369SOL    HW128411   4.569   0.728   3.201
 9369SOL    HW228412   4.688   0.785   3.275
 9370SOL     OW28413   2.107   4.755   0.565
 9370SOL    HW128414   2.084   4.704   0.642
 9370SOL    HW228415   2.044   4.727   0.498
 9371SOL     OW28416   1.273   1.040   0.205
 9371SOL    HW128417   1.360   1.024   0.167
 9371SOL    HW228418   1.279   1.128   0.242
 9372SOL     OW28419   7.510   7.897   4.346
 9372SOL    HW128420   7.497   7.925   4.255
 9372SOL    HW228421   7.543   7.808   4.339
 9373SOL     OW28422   7.198   4.641   4.659
 9373SOL    HW128423   7.221   4.559   4.702
 9373SOL    HW228424   7.112   4.625   4.621
 9374SOL     OW28425   6.253   3.490   3.041
 9374SOL    HW128426   6.307   3.433   2.987
 9374SOL    HW228427   6.240   3.441   3.122
 9375SOL     OW28428   2.948   3.271   3.242
 9375SOL    HW128429   2.941   3.323   3.322
 9375SOL    HW228430   3.042   3.261   3.227
 9376SOL     OW28431   8.229   4.778   0.797
 9376SOL    HW128432   0.028   4.730   0.719
 9376SOL    HW228433   0.018   4.718   0.870
 9377SOL     OW28434   4.404   0.685   0.532
 9377SOL    HW128435   4.362   0.764   0.499
 9377SOL    HW228436   4.375   0.616   0.472
 9378SOL     OW28437   0.980   4.154   3.597
 9378SOL    HW128438   0.947   4.103   3.523
 9378SOL    HW228439   0.921   4.131   3.669
 9379SOL     OW28440   7.934   4.616   2.541
 9379SOL    HW128441   7.869   4.685   2.555
 9379SOL    HW228442   8.006   4.638   2.600
 9380SOL     OW28443   1.247   3.305   5.188
 9380SOL    HW128444   1.301   3.330   5.113
 9380SOL    HW228445   1.209   3.221   5.163
 9381SOL     OW28446   0.042   6.667   2.192
 9381SOL    HW128447   0.030   6.728   2.119
 9381SOL    HW228448   0.049   6.723   2.269
 9382SOL     OW28449   5.523   4.898   1.448
 9382SOL    HW128450   5.555   4.945   1.525
 9382SOL    HW228451   5.546   4.954   1.374
 9383SOL     OW28452   5.571   0.217   5.017
 9383SOL    HW128453   5.504   0.271   5.059
 9383SOL    HW228454   5.604   0.161   5.087
 9384SOL     OW28455   4.536   7.431   3.145
 9384SOL    HW128456   4.519   7.463   3.233
 9384SOL    HW228457   4.474   7.359   3.133
 9385SOL     OW28458   0.559   6.602   5.600
 9385SOL    HW128459   0.496   6.674   5.597
 9385SOL    HW228460   0.610   6.611   5.520
 9386SOL     OW28461   5.275   6.968   0.341
 9386SOL    HW128462   5.217   6.981   0.416
 9386SOL    HW228463   5.262   6.876   0.317
 9387SOL     OW28464   1.162   4.761   4.651
 9387SOL    HW128465   1.168   4.738   4.558
 9387SOL    HW228466   1.073   4.736   4.676
 9388SOL     OW28467   0.785   4.449   1.547
 9388SOL    HW128468   0.859   4.435   1.487
 9388SOL    HW228469   0.782   4.544   1.561
 9389SOL     OW28470   1.363   2.676   1.797
 9389SOL    HW128471   1.398   2.607   1.854
 9389SOL    HW228472   1.344   2.749   1.856
 9390SOL     OW28473   4.761   2.542   0.073
 9390SOL    HW128474   4.847   2.583   0.081
 9390SOL    HW228475   0.618   6.678   5.803
 9391SOL     OW28476   0.514   5.052   1.405
 9391SOL    HW128477   0.486   5.142   1.421
 9391SOL    HW228478   0.592   5.060   1.350
 9392SOL     OW28479   5.513   3.775   2.218
 9392SOL    HW128480   5.471   3.840   2.274
 9392SOL    HW228481   5.554   3.826   2.148
 9393SOL     OW28482   2.070   2.358   0.352
 9393SOL    HW128483   2.076   2.359   0.256
 9393SOL    HW228484   1.996   2.300   0.371
 9394SOL     OW28485   1.753   7.652   2.343
 9394SOL    HW128486   1.782   7.734   2.384
 9394SOL    HW228487   1.736   7.675   2.252
 9395SOL     OW28488   0.321   8.093   1.208
 9395SOL    HW128489   0.280   8.110   1.123
 9395SOL    HW228490   0.280   8.012   1.239
 9396SOL     OW28491   1.882   6.806   2.984
 9396SOL    HW128492   1.939   6.797   2.908
 9396SOL    HW228493   1.842   6.720   2.995
 9397SOL     OW28494   0.392   1.764   1.317
 9397SOL    HW128495   0.433   1.834   1.369
 9397SOL    HW228496   0.461   1.734   1.258
 9398SOL     OW28497   2.575   6.246   2.492
 9398SOL    HW128498   2.536   6.193   2.422
 9398SOL    HW228499   2.632   6.185   2.539
 9399SOL     OW28500   5.881   6.404   5.800
 9399SOL    HW128501   5.922   6.489   5.817
 9399SOL    HW228502   1.814   2.228   0.037
 9400SOL     OW28503   5.459   2.686   1.350
 9400SOL    HW128504   5.551   2.689   1.323
 9400SOL    HW228505   5.422   2.768   1.319
 9401SOL     OW28506   2.988   6.625   5.623
 9401SOL    HW128507   2.981   6.565   5.698
 9401SOL    HW228508   3.057   6.588   5.569
 9402SOL     OW28509   2.230   7.823   2.867
 9402SOL    HW128510   2.256   7.832   2.959
 9402SOL    HW228511   2.244   7.731   2.847
 9403SOL     OW28512   0.996   3.575   1.260
 9403SOL    HW128513   0.901   3.588   1.254
 9403SOL    HW228514   1.024   3.557   1.170
 9404SOL     OW28515   6.848   7.349   0.928
 9404SOL    HW128516   6.791   7.274   0.942
 9404SOL    HW228517   6.877   7.340   0.837
 9405SOL     OW28518   6.780   5.067   0.395
 9405SOL    HW128519   6.798   4.974   0.408
 9405SOL    HW228520   6.717   5.070   0.323
 9406SOL     OW28521   4.818   1.847   4.867
 9406SOL    HW128522   4.733   1.882   4.841
 9406SOL    HW228523   4.800   1.756   4.891
 9407SOL     OW28524   3.318   0.875   2.528
 9407SOL    HW128525   3.369   0.894   2.606
 9407SOL    HW228526   3.285   0.960   2.500
 9408SOL     OW28527   8.100   0.248   0.587
 9408SOL    HW128528   8.139   0.161   0.592
 9408SOL    HW228529   8.171   0.308   0.609
 9409SOL     OW28530   2.067   5.760   3.594
 9409SOL    HW128531   1.990   5.773   3.649
 9409SOL    HW228532   2.035   5.772   3.505
 9410SOL     OW28533   4.087   4.144   4.835
 9410SOL    HW128534   4.132   4.218   4.794
 9410SOL    HW228535   4.118   4.145   4.926
 9411SOL     OW28536   4.066   7.044   3.741
 9411SOL    HW128537   4.153   7.052   3.701
 9411SOL    HW228538   4.082   6.997   3.823
 9412SOL     OW28539   1.345   2.588   2.885
 9412SOL    HW128540   1.380   2.669   2.922
 9412SOL    HW228541   1.357   2.523   2.954
 9413SOL     OW28542   6.172   8.056   2.842
 9413SOL    HW128543   6.185   8.037   2.935
 9413SOL    HW228544   6.081   8.033   2.826
 9414SOL     OW28545   7.391   6.484   1.904
 9414SOL    HW128546   7.399   6.576   1.929
 9414SOL    HW228547   7.437   6.437   1.973
 9415SOL     OW28548   2.344   5.279   4.363
 9415SOL    HW128549   2.335   5.255   4.271
 9415SOL    HW228550   2.425   5.236   4.391
 9416SOL     OW28551   1.475   4.460   1.814
 9416SOL    HW128552   1.415   4.534   1.824
 9416SOL    HW228553   1.421   4.383   1.830
 9417SOL     OW28554   6.915   4.512   2.526
 9417SOL    HW128555   6.941   4.562   2.603
 9417SOL    HW228556   6.951   4.562   2.452
 9418SOL     OW28557   3.803   7.682   2.579
 9418SOL    HW128558   3.866   7.753   2.594
 9418SOL    HW228559   3.739   7.720   2.519
 9419SOL     OW28560   4.407   7.539   1.419
 9419SOL    HW128561   4.314   7.559   1.412
 9419SOL    HW228562   4.439   7.595   1.490
 9420SOL     OW28563   8.079   3.338   0.693
 9420SOL    HW128564   8.006   3.310   0.748
 9420SOL    HW228565   8.156   3.295   0.732
 9421SOL     OW28566   8.131   6.939   5.324
 9421SOL    HW128567   8.081   7.016   5.298
 9421SOL    HW228568   8.206   6.974   5.373
 9422SOL     OW28569   5.105   0.668   2.379
 9422SOL    HW128570   5.046   0.719   2.324
 9422SOL    HW228571   5.119   0.587   2.331
 9423SOL     OW28572   4.167   3.252   3.099
 9423SOL    HW128573   4.154   3.341   3.132
 9423SOL    HW228574   4.262   3.239   3.102
 9424SOL     OW28575   0.286   7.924   0.299
 9424SOL    HW128576   0.357   7.964   0.248
 9424SOL    HW228577   0.206   7.966   0.267
 9425SOL     OW28578   7.297   7.104   2.495
 9425SOL    HW128579   7.264   7.170   2.434
 9425SOL    HW228580   7.390   7.095   2.474
 9426SOL     OW28581   3.229   4.182   2.963
 9426SOL    HW128582   3.204   4.114   3.025
 9426SOL    HW228583   3.324   4.186   2.969
 9427SOL     OW28584   6.938   6.840   0.673
 9427SOL    HW128585   6.991   6.813   0.748
 9427SOL    HW228586   6.890   6.761   0.649
 9428SOL     OW28587   5.592   6.282   1.414
 9428SOL    HW128588   5.586   6.362   1.466
 9428SOL    HW228589   5.501   6.255   1.401
 9429SOL     OW28590   1.488   7.119   1.204
 9429SOL    HW128591   1.437   7.199   1.218
 9429SOL    HW228592   1.555   7.144   1.140
 9430SOL     OW28593   6.106   7.489   3.209
 9430SOL    HW128594   6.028   7.456   3.164
 9430SOL    HW228595   6.083   7.485   3.302
 9431SOL     OW28596   2.462   3.268   5.803
 9431SOL    HW128597   6.529   7.436   0.048
 9431SOL    HW228598   2.510   3.332   5.750
 9432SOL     OW28599   4.121   2.037   2.969
 9432SOL    HW128600   4.171   1.956   2.974
 9432SOL    HW228601   4.138   2.071   2.881
 9433SOL     OW28602   6.123   5.546   0.375
 9433SOL    HW128603   6.161   5.633   0.360
 9433SOL    HW228604   6.144   5.526   0.466
 9434SOL     OW28605   2.804   2.729   1.748
 9434SOL    HW128606   2.879   2.682   1.784
 9434SOL    HW228607   2.803   2.812   1.796
 9435SOL     OW28608   0.668   0.831   1.952
 9435SOL    HW128609   0.648   0.864   1.864
 9435SOL    HW228610   0.620   0.749   1.958
 9436SOL     OW28611   1.809   1.561   1.789
 9436SOL    HW128612   1.817   1.517   1.704
 9436SOL    HW228613   1.895   1.552   1.829
 9437SOL     OW28614   4.087   6.561   5.438
 9437SOL    HW128615   4.141   6.507   5.497
 9437SOL    HW228616   3.998   6.554   5.474
 9438SOL     OW28617   5.059   2.064   1.900
 9438SOL    HW128618   5.053   2.023   1.814
 9438SOL    HW228619   5.091   1.994   1.957
 9439SOL     OW28620   5.930   5.033   1.849
 9439SOL    HW128621   5.983   5.111   1.831
 9439SOL    HW228622   5.940   5.019   1.943
 9440SOL     OW28623   1.821   5.802   3.707
 9440SOL    HW128624   1.809   5.864   3.779
 9440SOL    HW228625   1.814   5.856   3.628
 9441SOL     OW28626   7.831   6.764   3.838
 9441SOL    HW128627   7.762   6.715   3.884
 9441SOL    HW228628   7.882   6.804   3.908
 9442SOL     OW28629   3.758   5.259   4.284
 9442SOL    HW128630   3.738   5.173   4.247
 9442SOL    HW228631   3.706   5.263   4.365
 9443SOL     OW28632   7.924   0.979   4.563
 9443SOL    HW128633   7.865   1.019   4.499
 9443SOL    HW228634   7.943   0.893   4.527
 9444SOL     OW28635   1.988   7.032   3.453
 9444SOL    HW128636   2.028   6.995   3.374
 9444SOL    HW228637   1.951   6.957   3.499
 9445SOL     OW28638   1.961   8.174   4.260
 9445SOL    HW128639   2.015   8.132   4.327
 9445SOL    HW228640   1.966   8.115   4.185
 9446SOL     OW28641   3.525   7.055   0.579
 9446SOL    HW128642   3.459   7.039   0.646
 9446SOL    HW228643   3.580   6.977   0.581
 9447SOL     OW28644   7.393   4.809   1.832
 9447SOL    HW128645   7.355   4.758   1.760
 9447SOL    HW228646   7.322   4.819   1.895
 9448SOL     OW28647   6.126   8.112   4.516
 9448SOL    HW128648   6.128   8.160   4.599
 9448SOL    HW228649   6.203   8.056   4.519
 9449SOL     OW28650   7.258   6.852   3.911
 9449SOL    HW128651   7.266   6.808   3.826
 9449SOL    HW228652   7.164   6.855   3.928
 9450SOL     OW28653   5.716   5.114   5.160
 9450SOL    HW128654   5.729   5.208   5.175
 9450SOL    HW228655   5.721   5.104   5.065
 9451SOL     OW28656   6.360   2.130   0.184
 9451SOL    HW128657   6.357   2.172   0.270
 9451SOL    HW228658   6.325   2.195   0.124
 9452SOL     OW28659   5.571   6.908   1.364
 9452SOL    HW128660   5.604   6.925   1.452
 9452SOL    HW228661   5.621   6.967   1.307
 9453SOL     OW28662   2.748   3.182   0.997
 9453SOL    HW128663   2.673   3.201   0.941
 9453SOL    HW228664   2.824   3.195   0.940
 9454SOL     OW28665   3.386   0.756   1.422
 9454SOL    HW128666   3.342   0.838   1.443
 9454SOL    HW228667   3.443   0.778   1.348
 9455SOL     OW28668   3.266   6.912   2.573
 9455SOL    HW128669   3.207   6.979   2.609
 9455SOL    HW228670   3.352   6.953   2.574
 9456SOL     OW28671   1.352   3.851   2.177
 9456SOL    HW128672   1.385   3.809   2.097
 9456SOL    HW228673   1.342   3.779   2.239
 9457SOL     OW28674   0.523   1.306   5.127
 9457SOL    HW128675   0.471   1.233   5.093
 9457SOL    HW228676   0.613   1.273   5.127
 9458SOL     OW28677   4.873   0.309   3.884
 9458SOL    HW128678   4.930   0.234   3.901
 9458SOL    HW228679   4.818   0.315   3.962
 9459SOL     OW28680   2.780   4.379   3.847
 9459SOL    HW128681   2.793   4.461   3.894
 9459SOL    HW228682   2.695   4.346   3.878
 9460SOL     OW28683   3.688   5.544   2.128
 9460SOL    HW128684   3.628   5.613   2.158
 9460SOL    HW228685   3.672   5.537   2.034
 9461SOL     OW28686   6.214   2.981   1.198
 9461SOL    HW128687   6.213   2.973   1.103
 9461SOL    HW228688   6.176   3.067   1.215
 9462SOL     OW28689   1.598   8.096   4.141
 9462SOL    HW128690   1.607   8.190   4.159
 9462SOL    HW228691   1.666   8.078   4.077
 9463SOL     OW28692   3.975   5.925   5.368
 9463SOL    HW128693   3.890   5.946   5.405
 9463SOL    HW228694   4.037   5.979   5.417
 9464SOL     OW28695   4.523   2.473   0.814
 9464SOL    HW128696   4.491   2.412   0.748
 9464SOL    HW228697   4.518   2.424   0.896
 9465SOL     OW28698   1.826   5.429   2.396
 9465SOL    HW128699   1.745   5.461   2.436
 9465SOL    HW228700   1.853   5.356   2.452
 9466SOL     OW28701   2.483   2.700   5.723
 9466SOL    HW128702   2.463   2.607   5.734
 9466SOL    HW228703   2.412   2.733   5.668
 9467SOL     OW28704   2.167   3.444   2.478
 9467SOL    HW128705   2.185   3.356   2.445
 9467SOL    HW228706   2.075   3.442   2.503
 9468SOL     OW28707   3.021   3.636   5.121
 9468SOL    HW128708   3.043   3.565   5.060
 9468SOL    HW228709   3.067   3.712   5.086
 9469SOL     OW28710   3.802   4.287   3.128
 9469SOL    HW128711   3.733   4.260   3.188
 9469SOL    HW228712   3.818   4.379   3.150
 9470SOL     OW28713   0.776   1.149   5.180
 9470SOL    HW128714   0.864   1.185   5.168
 9470SOL    HW228715   0.781   1.099   5.261
 9471SOL     OW28716   5.488   5.732   3.524
 9471SOL    HW128717   5.449   5.715   3.610
 9471SOL    HW228718   5.567   5.678   3.522
 9472SOL     OW28719   8.228   2.453   1.976
 9472SOL    HW128720   0.031   2.508   2.047
 9472SOL    HW228721   8.228   2.364   2.012
 9473SOL     OW28722   6.678   0.211   4.129
 9473SOL    HW128723   6.696   0.117   4.133
 9473SOL    HW228724   6.673   0.239   4.220
 9474SOL     OW28725   2.287   5.243   4.104
 9474SOL    HW128726   2.206   5.206   4.069
 9474SOL    HW228727   2.353   5.177   4.084
 9475SOL     OW28728   0.426   6.178   5.117
 9475SOL    HW128729   0.415   6.244   5.185
 9475SOL    HW228730   0.380   6.213   5.041
 9476SOL     OW28731   0.149   4.266   1.654
 9476SOL    HW128732   0.167   4.194   1.715
 9476SOL    HW228733   0.087   4.229   1.592
 9477SOL     OW28734   1.921   3.275   3.113
 9477SOL    HW128735   1.952   3.363   3.134
 9477SOL    HW228736   1.828   3.276   3.136
 9478SOL     OW28737   7.225   2.309   0.043
 9478SOL    HW128738   7.209   2.218   0.018
 9478SOL    HW228739   7.320   2.318   0.041
 9479SOL     OW28740   3.938   3.672   2.809
 9479SOL    HW128741   3.858   3.654   2.760
 9479SOL    HW228742   3.943   3.603   2.875
 9480SOL     OW28743   3.575   7.834   1.208
 9480SOL    HW128744   3.655   7.782   1.210
 9480SOL    HW228745   3.592   7.902   1.143
 9481SOL     OW28746   3.492   7.681   4.216
 9481SOL    HW128747   3.508   7.604   4.271
 9481SOL    HW228748   3.473   7.751   4.278
 9482SOL     OW28749   7.384   0.741   0.301
 9482SOL    HW128750   7.301   0.716   0.341
 9482SOL    HW228751   7.359   0.789   0.222
 9483SOL     OW28752   0.150   1.696   0.922
 9483SOL    HW128753   0.225   1.741   0.882
 9483SOL    HW228754   0.180   1.673   1.010
 9484SOL     OW28755   1.928   4.390   5.782
 9484SOL    HW128756   2.017   4.414   5.806
 9484SOL    HW228757   5.994   0.278   0.045
 9485SOL     OW28758   0.821   1.052   0.588
 9485SOL    HW128759   0.761   1.027   0.518
 9485SOL    HW228760   0.890   1.103   0.545
 9486SOL     OW28761   4.256   3.080   2.704
 9486SOL    HW128762   4.314   3.030   2.646
 9486SOL    HW228763   4.289   3.170   2.700
 9487SOL     OW28764   1.838   7.219   1.180
 9487SOL    HW128765   1.929   7.210   1.207
 9487SOL    HW228766   1.799   7.277   1.245
 9488SOL     OW28767   7.859   0.337   1.609
 9488SOL    HW128768   7.869   0.361   1.517
 9488SOL    HW228769   7.832   0.245   1.607
 9489SOL     OW28770   5.589   2.671   2.843
 9489SOL    HW128771   5.579   2.688   2.749
 9489SOL    HW228772   5.501   2.648   2.873
 9490SOL     OW28773   7.372   4.845   3.514
 9490SOL    HW128774   7.286   4.887   3.522
 9490SOL    HW228775   7.413   4.858   3.600
 9491SOL     OW28776   5.406   5.773   4.570
 9491SOL    HW128777   5.421   5.865   4.548
 9491SOL    HW228778   5.493   5.733   4.564
 9492SOL     OW28779   4.324   7.192   4.597
 9492SOL    HW128780   4.350   7.135   4.524
 9492SOL    HW228781   4.313   7.133   4.671
 9493SOL     OW28782   4.770   1.027   5.402
 9493SOL    HW128783   4.764   1.034   5.307
 9493SOL    HW228784   4.793   1.115   5.431
 9494SOL     OW28785   6.701   6.941   4.420
 9494SOL    HW128786   6.633   6.880   4.392
 9494SOL    HW228787   6.653   7.017   4.454
 9495SOL     OW28788   7.351   5.715   4.190
 9495SOL    HW128789   7.256   5.718   4.201
 9495SOL    HW228790   7.373   5.799   4.149
 9496SOL     OW28791   4.974   6.907   2.603
 9496SOL    HW128792   4.983   6.936   2.512
 9496SOL    HW228793   5.048   6.947   2.649
 9497SOL     OW28794   3.241   4.911   2.901
 9497SOL    HW128795   3.330   4.896   2.869
 9497SOL    HW228796   3.250   4.921   2.996
 9498SOL     OW28797   4.625   3.051   1.316
 9498SOL    HW128798   4.558   3.006   1.264
 9498SOL    HW228799   4.685   2.981   1.343
 9499SOL     OW28800   6.240   1.825   2.345
 9499SOL    HW128801   6.269   1.809   2.435
 9499SOL    HW228802   6.145   1.818   2.350
 9500SOL     OW28803   0.675   6.129   1.675
 9500SOL    HW128804   0.610   6.078   1.723
 9500SOL    HW228805   0.743   6.148   1.739
 9501SOL     OW28806   1.881   5.161   2.637
 9501SOL    HW128807   1.849   5.152   2.547
 9501SOL    HW228808   1.975   5.176   2.627
 9502SOL     OW28809   4.301   4.765   1.679
 9502SOL    HW128810   4.316   4.682   1.724
 9502SOL    HW228811   4.255   4.819   1.743
 9503SOL     OW28812   5.713   5.310   0.208
 9503SOL    HW128813   5.746   5.223   0.185
 9503SOL    HW228814   5.792   5.362   0.226
 9504SOL     OW28815   6.486   3.434   3.294
 9504SOL    HW128816   6.394   3.415   3.313
 9504SOL    HW228817   6.483   3.502   3.227
 9505SOL     OW28818   7.045   3.007   5.227
 9505SOL    HW128819   7.021   2.935   5.168
 9505SOL    HW228820   7.124   3.045   5.188
 9506SOL     OW28821   7.267   3.195   0.486
 9506SOL    HW128822   7.257   3.191   0.391
 9506SOL    HW228823   7.195   3.141   0.520
 9507SOL     OW28824   7.539   2.903   1.804
 9507SOL    HW128825   7.568   2.953   1.728
 9507SOL    HW228826   7.445   2.892   1.792
 9508SOL     OW28827   1.095   7.573   5.041
 9508SOL    HW128828   1.129   7.484   5.052
 9508SOL    HW228829   1.156   7.614   4.979
 9509SOL     OW28830   6.419   7.526   3.778
 9509SOL    HW128831   6.382   7.607   3.743
 9509SOL    HW228832   6.423   7.541   3.872
 9510SOL     OW28833   4.768   0.825   3.457
 9510SOL    HW128834   4.706   0.897   3.464
 9510SOL    HW228835   4.846   0.864   3.417
 9511SOL     OW28836   2.963   6.040   4.497
 9511SOL    HW128837   2.943   5.971   4.560
 9511SOL    HW228838   3.021   6.099   4.544
 9512SOL     OW28839   5.765   6.654   3.114
 9512SOL    HW128840   5.717   6.731   3.146
 9512SOL    HW228841   5.827   6.689   3.050
 9513SOL     OW28842   1.627   4.754   5.434
 9513SOL    HW128843   1.636   4.697   5.510
 9513SOL    HW228844   1.575   4.704   5.372
 9514SOL     OW28845   5.750   0.053   4.539
 9514SOL    HW128846   5.667   0.041   4.493
 9514SOL    HW228847   5.771   0.146   4.527
 9515SOL     OW28848   4.467   7.101   4.358
 9515SOL    HW128849   4.448   7.065   4.271
 9515SOL    HW228850   4.498   7.190   4.340
 9516SOL     OW28851   4.710   2.112   0.837
 9516SOL    HW128852   4.686   2.057   0.763
 9516SOL    HW228853   4.654   2.082   0.909
 9517SOL     OW28854   2.771   5.281   5.642
 9517SOL    HW128855   2.694   5.326   5.678
 9517SOL    HW228856   2.828   5.351   5.611
 9518SOL     OW28857   2.247   7.720   2.221
 9518SOL    HW128858   2.162   7.763   2.211
 9518SOL    HW228859   2.305   7.787   2.257
 9519SOL     OW28860   1.592   3.806   0.605
 9519SOL    HW128861   1.617   3.754   0.681
 9519SOL    HW228862   1.568   3.891   0.641
 9520SOL     OW28863   2.273   2.090   0.765
 9520SOL    HW128864   2.270   2.111   0.672
 9520SOL    HW228865   2.362   2.057   0.779
 9521SOL     OW28866   4.338   4.345   2.757
 9521SOL    HW128867   4.330   4.440   2.753
 9521SOL    HW228868   4.279   4.313   2.689
 9522SOL     OW28869   6.980   0.676   4.772
 9522SOL    HW128870   7.064   0.643   4.804
 9522SOL    HW228871   6.959   0.750   4.830
 9523SOL     OW28872   0.185   4.849   5.102
 9523SOL    HW128873   0.138   4.854   5.185
 9523SOL    HW228874   0.155   4.767   5.062
 9524SOL     OW28875   5.630   0.507   2.279
 9524SOL    HW128876   5.711   0.535   2.322
 9524SOL    HW228877   5.653   0.423   2.238
 9525SOL     OW28878   6.972   3.652   5.231
 9525SOL    HW128879   6.939   3.741   5.243
 9525SOL    HW228880   6.955   3.632   5.139
 9526SOL     OW28881   4.750   5.969   1.870
 9526SOL    HW128882   4.813   5.937   1.935
 9526SOL    HW228883   4.675   5.997   1.922
 9527SOL     OW28884   2.609   1.508   4.885
 9527SOL    HW128885   2.642   1.430   4.841
 9527SOL    HW228886   2.620   1.578   4.821
 9528SOL     OW28887   1.894   2.050   4.591
 9528SOL    HW128888   1.846   2.111   4.535
 9528SOL    HW228889   1.940   2.106   4.654
 9529SOL     OW28890   1.015   4.696   2.734
 9529SOL    HW128891   0.968   4.637   2.675
 9529SOL    HW228892   0.973   4.683   2.819
 9530SOL     OW28893   5.674   7.194   2.175
 9530SOL    HW128894   5.705   7.151   2.255
 9530SOL    HW228895   5.730   7.158   2.106
 9531SOL     OW28896   2.082   5.338   2.281
 9531SOL    HW128897   2.122   5.382   2.356
 9531SOL    HW228898   1.989   5.333   2.303
 9532SOL     OW28899   0.139   7.633   2.924
 9532SOL    HW128900   0.223   7.603   2.889
 9532SOL    HW228901   0.094   7.553   2.952
 9533SOL     OW28902   0.253   6.357   4.280
 9533SOL    HW128903   0.250   6.430   4.342
 9533SOL    HW228904   0.216   6.393   4.199
 9534SOL     OW28905   6.910   5.593   1.794
 9534SOL    HW128906   6.869   5.651   1.730
 9534SOL    HW228907   6.999   5.626   1.804
 9535SOL     OW28908   2.390   6.950   3.108
 9535SOL    HW128909   2.323   7.001   3.153
 9535SOL    HW228910   2.468   6.960   3.162
 9536SOL     OW28911   3.707   6.140   0.936
 9536SOL    HW128912   3.799   6.163   0.921
 9536SOL    HW228913   3.657   6.210   0.894
 9537SOL     OW28914   5.322   0.731   5.069
 9537SOL    HW128915   5.294   0.650   5.112
 9537SOL    HW228916   5.342   0.791   5.141
 9538SOL     OW28917   0.330   3.152   2.401
 9538SOL    HW128918   0.381   3.170   2.480
 9538SOL    HW228919   0.291   3.066   2.417
 9539SOL     OW28920   4.372   0.819   1.483
 9539SOL    HW128921   4.296   0.798   1.538
 9539SOL    HW228922   4.356   0.772   1.401
 9540SOL     OW28923   0.833   7.067   4.914
 9540SOL    HW128924   0.882   7.062   4.996
 9540SOL    HW228925   0.777   7.144   4.924
 9541SOL     OW28926   3.247   3.630   2.255
 9541SOL    HW128927   3.255   3.535   2.261
 9541SOL    HW228928   3.300   3.654   2.179
 9542SOL     OW28929   2.186   2.085   3.967
 9542SOL    HW128930   2.162   2.173   3.938
 9542SOL    HW228931   2.280   2.079   3.949
 9543SOL     OW28932   5.492   1.832   1.228
 9543SOL    HW128933   5.483   1.923   1.201
 9543SOL    HW228934   5.585   1.812   1.216
 9544SOL     OW28935   4.669   6.972   5.372
 9544SOL    HW128936   4.578   6.976   5.344
 9544SOL    HW228937   4.680   7.048   5.430
 9545SOL     OW28938   2.365   6.256   3.268
 9545SOL    HW128939   2.399   6.325   3.325
 9545SOL    HW228940   2.406   6.176   3.301
 9546SOL     OW28941   6.336   1.076   4.943
 9546SOL    HW128942   6.266   1.053   4.881
 9546SOL    HW228943   6.292   1.127   5.011
 9547SOL     OW28944   0.422   1.604   4.486
 9547SOL    HW128945   0.369   1.683   4.473
 9547SOL    HW228946   0.503   1.636   4.525
 9548SOL     OW28947   3.075   4.678   1.545
 9548SOL    HW128948   3.152   4.632   1.579
 9548SOL    HW228949   3.023   4.698   1.623
 9549SOL     OW28950   3.603   4.701   4.332
 9549SOL    HW128951   3.551   4.711   4.411
 9549SOL    HW228952   3.680   4.652   4.360
 9550SOL     OW28953   2.519   6.560   5.131
 9550SOL    HW128954   2.525   6.641   5.182
 9550SOL    HW228955   2.477   6.497   5.190
 9551SOL     OW28956   5.227   3.868   2.651
 9551SOL    HW128957   5.246   3.955   2.614
 9551SOL    HW228958   5.308   3.819   2.638
 9552SOL     OW28959   4.182   4.936   1.871
 9552SOL    HW128960   4.202   4.943   1.964
 9552SOL    HW228961   4.088   4.952   1.865
 9553SOL     OW28962   5.818   7.742   3.260
 9553SOL    HW128963   5.834   7.686   3.184
 9553SOL    HW228964   5.905   7.768   3.289
 9554SOL     OW28965   7.108   5.993   1.319
 9554SOL    HW128966   7.100   6.017   1.411
 9554SOL    HW228967   7.158   5.912   1.319
 9555SOL     OW28968   5.007   0.029   4.205
 9555SOL    HW128969   5.038   0.092   4.270
 9555SOL    HW228970   4.925   8.224   4.241
 9556SOL     OW28971   4.741   1.313   5.427
 9556SOL    HW128972   4.725   1.384   5.489
 9556SOL    HW228973   4.772   1.357   5.348
 9557SOL     OW28974   4.317   3.775   3.339
 9557SOL    HW128975   4.365   3.719   3.278
 9557SOL    HW228976   4.225   3.750   3.328
 9558SOL     OW28977   1.436   3.026   4.412
 9558SOL    HW128978   1.388   3.076   4.346
 9558SOL    HW228979   1.474   3.093   4.470
 9559SOL     OW28980   5.903   6.613   2.151
 9559SOL    HW128981   5.814   6.645   2.166
 9559SOL    HW228982   5.892   6.535   2.096
 9560SOL     OW28983   6.068   4.978   0.368
 9560SOL    HW128984   6.033   5.059   0.331
 9560SOL    HW228985   6.014   4.961   0.445
 9561SOL     OW28986   6.476   2.199   0.557
 9561SOL    HW128987   6.382   2.205   0.576
 9561SOL    HW228988   6.487   2.111   0.522
 9562SOL     OW28989   5.522   1.528   4.465
 9562SOL    HW128990   5.438   1.573   4.470
 9562SOL    HW228991   5.587   1.596   4.483
 9563SOL     OW28992   0.755   6.760   2.498
 9563SOL    HW128993   0.746   6.813   2.577
 9563SOL    HW228994   0.685   6.791   2.441
 9564SOL     OW28995   3.408   3.171   4.744
 9564SOL    HW128996   3.474   3.150   4.678
 9564SOL    HW228997   3.344   3.225   4.698
 9565SOL     OW28998   7.690   1.881   0.695
 9565SOL    HW128999   7.705   1.906   0.604
 9565SOL    HW229000   7.617   1.936   0.723
 9566SOL     OW29001   0.837   4.738   3.650
 9566SOL    HW129002   0.828   4.768   3.740
 9566SOL    HW229003   0.855   4.817   3.600
 9567SOL     OW29004   7.464   5.967   4.109
 9567SOL    HW129005   7.423   6.039   4.156
 9567SOL    HW229006   7.558   5.979   4.124
 9568SOL     OW29007   3.981   2.028   5.076
 9568SOL    HW129008   3.956   2.101   5.019
 9568SOL    HW229009   3.999   2.069   5.161
 9569SOL     OW29010   5.481   2.326   5.726
 9569SOL    HW129011   5.467   2.272   5.649
 9569SOL    HW229012   5.393   2.352   5.754
 9570SOL     OW29013   4.821   0.440   5.077
 9570SOL    HW129014   4.784   0.489   5.004
 9570SOL    HW229015   4.797   0.490   5.155
 9571SOL     OW29016   2.890   5.941   1.363
 9571SOL    HW129017   2.856   6.030   1.362
 9571SOL    HW229018   2.851   5.901   1.440
 9572SOL     OW29019   5.209   5.473   0.522
 9572SOL    HW129020   5.287   5.481   0.577
 9572SOL    HW229021   5.240   5.489   0.433
 9573SOL     OW29022   5.943   1.754   3.508
 9573SOL    HW129023   5.980   1.830   3.552
 9573SOL    HW229024   5.871   1.726   3.565
 9574SOL     OW29025   6.274   0.101   2.910
 9574SOL    HW129026   6.194   0.129   2.955
 9574SOL    HW229027   6.267   0.006   2.904
 9575SOL     OW29028   0.614   1.820   4.997
 9575SOL    HW129029   0.589   1.742   4.947
 9575SOL    HW229030   0.655   1.785   5.076
 9576SOL     OW29031   7.597   4.000   1.687
 9576SOL    HW129032   7.506   4.011   1.659
 9576SOL    HW229033   7.597   4.021   1.780
 9577SOL     OW29034   6.733   7.038   0.675
 9577SOL    HW129035   6.815   6.989   0.682
 9577SOL    HW229036   6.677   7.002   0.743
 9578SOL     OW29037   7.676   1.768   0.950
 9578SOL    HW129038   7.742   1.809   1.005
 9578SOL    HW229039   7.691   1.805   0.863
 9579SOL     OW29040   6.749   6.750   2.959
 9579SOL    HW129041   6.784   6.830   2.920
 9579SOL    HW229042   6.682   6.721   2.898
 9580SOL     OW29043   3.395   4.170   5.075
 9580SOL    HW129044   3.338   4.189   5.150
 9580SOL    HW229045   3.468   4.231   5.084
 9581SOL     OW29046   0.322   6.299   3.608
 9581SOL    HW129047   0.383   6.226   3.597
 9581SOL    HW229048   0.296   6.296   3.700
 9582SOL     OW29049   6.244   6.542   5.494
 9582SOL    HW129050   6.306   6.581   5.433
 9582SOL    HW229051   6.159   6.578   5.469
 9583SOL     OW29052   1.531   0.245   1.095
 9583SOL    HW129053   1.441   0.278   1.098
 9583SOL    HW229054   1.531   0.181   1.024
 9584SOL     OW29055   2.739   2.882   1.159
 9584SOL    HW129056   2.756   2.891   1.065
 9584SOL    HW229057   2.813   2.831   1.192
 9585SOL     OW29058   6.908   2.662   1.398
 9585SOL    HW129059   6.816   2.640   1.413
 9585SOL    HW229060   6.951   2.642   1.481
 9586SOL     OW29061   1.775   0.230   1.216
 9586SOL    HW129062   1.694   0.244   1.167
 9586SOL    HW229063   1.793   0.314   1.258
 9587SOL     OW29064   3.755   4.783   5.036
 9587SOL    HW129065   3.793   4.871   5.029
 9587SOL    HW229066   3.666   4.792   5.002
 9588SOL     OW29067   3.139   7.731   3.052
 9588SOL    HW129068   3.106   7.728   2.962
 9588SOL    HW229069   3.088   7.799   3.095
 9589SOL     OW29070   0.797   3.828   4.732
 9589SOL    HW129071   0.857   3.882   4.680
 9589SOL    HW229072   0.843   3.744   4.742
 9590SOL     OW29073   8.120   4.669   2.748
 9590SOL    HW129074   8.214   4.675   2.764
 9590SOL    HW229075   8.087   4.758   2.762
 9591SOL     OW29076   4.896   4.794   1.856
 9591SOL    HW129077   4.923   4.737   1.784
 9591SOL    HW229078   4.856   4.735   1.920
 9592SOL     OW29079   4.669   3.461   1.484
 9592SOL    HW129080   4.603   3.446   1.552
 9592SOL    HW229081   4.753   3.447   1.529
 9593SOL     OW29082   8.008   1.070   0.815
 9593SOL    HW129083   8.067   1.137   0.850
 9593SOL    HW229084   8.030   0.991   0.865
 9594SOL     OW29085   2.134   3.171   2.453
 9594SOL    HW129086   2.224   3.145   2.435
 9594SOL    HW229087   2.127   3.171   2.548
 9595SOL     OW29088   2.551   1.178   3.371
 9595SOL    HW129089   2.466   1.185   3.327
 9595SOL    HW229090   2.592   1.263   3.357
 9596SOL     OW29091   6.928   2.558   4.030
 9596SOL    HW129092   6.924   2.462   4.033
 9596SOL    HW229093   6.873   2.587   4.102
 9597SOL     OW29094   1.859   5.805   2.025
 9597SOL    HW129095   1.832   5.761   1.944
 9597SOL    HW229096   1.857   5.898   2.003
 9598SOL     OW29097   6.980   5.198   0.805
 9598SOL    HW129098   6.967   5.114   0.761
 9598SOL    HW229099   6.923   5.259   0.758
 9599SOL     OW29100   4.401   2.776   5.814
 9599SOL    HW129101   0.208   6.941   0.016
 9599SOL    HW229102   4.381   2.734   5.730
 9600SOL     OW29103   6.222   2.166   3.334
 9600SOL    HW129104   6.204   2.080   3.295
 9600SOL    HW229105   6.311   2.159   3.369
 9601SOL     OW29106   5.252   3.576   0.343
 9601SOL    HW129107   5.177   3.629   0.368
 9601SOL    HW229108   5.328   3.625   0.376
 9602SOL     OW29109   3.200   7.781   0.008
 9602SOL    HW129110   3.132   7.732   0.054
 9602SOL    HW229111   7.360   3.600   5.775
 9603SOL     OW29112   4.313   3.065   0.442
 9603SOL    HW129113   4.360   3.147   0.457
 9603SOL    HW229114   4.221   3.091   0.435
 9604SOL     OW29115   5.646   3.804   5.187
 9604SOL    HW129116   5.563   3.760   5.169
 9604SOL    HW229117   5.635   3.892   5.151
 9605SOL     OW29118   3.293   3.135   0.590
 9605SOL    HW129119   3.305   3.171   0.502
 9605SOL    HW229120   3.351   3.059   0.593
 9606SOL     OW29121   7.087   6.560   2.043
 9606SOL    HW129122   7.123   6.575   1.956
 9606SOL    HW229123   7.041   6.641   2.064
 9607SOL     OW29124   1.217   6.575   4.537
 9607SOL    HW129125   1.179   6.538   4.457
 9607SOL    HW229126   1.281   6.639   4.506
 9608SOL     OW29127   6.004   2.913   5.464
 9608SOL    HW129128   6.004   2.991   5.519
 9608SOL    HW229129   6.004   2.947   5.374
 9609SOL     OW29130   3.631   0.346   0.183
 9609SOL    HW129131   3.642   0.302   0.268
 9609SOL    HW229132   3.718   0.344   0.144
 9610SOL     OW29133   5.852   6.414   5.531
 9610SOL    HW129134   5.758   6.425   5.514
 9610SOL    HW229135   5.858   6.401   5.626
 9611SOL     OW29136   4.050   2.855   1.072
 9611SOL    HW129137   4.083   2.812   1.151
 9611SOL    HW229138   4.103   2.934   1.064
 9612SOL     OW29139   2.097   0.447   5.601
 9612SOL    HW129140   2.105   0.423   5.693
 9612SOL    HW229141   2.187   0.455   5.570
 9613SOL     OW29142   1.754   6.276   1.977
 9613SOL    HW129143   1.798   6.206   2.026
 9613SOL    HW229144   1.667   6.240   1.957
 9614SOL     OW29145   2.071   3.157   4.500
 9614SOL    HW129146   2.000   3.124   4.445
 9614SOL    HW229147   2.037   3.239   4.536
 9615SOL     OW29148   6.027   4.360   2.280
 9615SOL    HW129149   6.092   4.383   2.346
 9615SOL    HW229150   6.023   4.264   2.282
 9616SOL     OW29151   7.249   1.785   2.899
 9616SOL    HW129152   7.175   1.727   2.884
 9616SOL    HW229153   7.293   1.749   2.976
 9617SOL     OW29154   7.921   6.422   3.437
 9617SOL    HW129155   7.860   6.433   3.510
 9617SOL    HW229156   7.900   6.336   3.401
 9618SOL     OW29157   5.791   8.167   4.794
 9618SOL    HW129158   5.780   8.208   4.708
 9618SOL    HW229159   5.842   0.001   4.844
 9619SOL     OW29160   3.782   2.431   3.304
 9619SOL    HW129161   3.866   2.416   3.261
 9619SOL    HW229162   3.793   2.393   3.391
 9620SOL     OW29163   0.776   7.084   2.023
 9620SOL    HW129164   0.704   7.136   1.988
 9620SOL    HW229165   0.783   7.111   2.114
 9621SOL     OW29166   3.631   5.710   4.788
 9621SOL    HW129167   3.659   5.783   4.734
 9621SOL    HW229168   3.698   5.643   4.774
 9622SOL     OW29169   6.063   6.214   5.444
 9622SOL    HW129170   6.082   6.183   5.533
 9622SOL    HW229171   5.972   6.244   5.448
 9623SOL     OW29172   4.584   6.145   3.913
 9623SOL    HW129173   4.521   6.201   3.959
 9623SOL    HW229174   4.635   6.206   3.860
 9624SOL     OW29175   0.444   1.878   1.688
 9624SOL    HW129176   0.514   1.903   1.628
 9624SOL    HW229177   0.425   1.787   1.667
 9625SOL     OW29178   7.552   4.664   5.662
 9625SOL    HW129179   7.638   4.637   5.630
 9625SOL    HW229180   7.521   4.728   5.597
 9626SOL     OW29181   6.848   7.464   1.814
 9626SOL    HW129182   6.765   7.420   1.796
 9626SOL    HW229183   6.866   7.444   1.906
 9627SOL     OW29184   0.621   1.048   3.400
 9627SOL    HW129185   0.548   1.003   3.443
 9627SOL    HW229186   0.681   1.069   3.471
 9628SOL     OW29187   3.182   5.114   2.378
 9628SOL    HW129188   3.137   5.052   2.321
 9628SOL    HW229189   3.218   5.060   2.448
 9629SOL     OW29190   0.529   0.785   0.653
 9629SOL    HW129191   0.570   0.700   0.640
 9629SOL    HW229192   0.471   0.773   0.728
 9630SOL     OW29193   1.030   8.060   0.796
 9630SOL    HW129194   0.953   8.074   0.852
 9630SOL    HW229195   1.028   7.966   0.776
 9631SOL     OW29196   7.128   4.639   4.186
 9631SOL    HW129197   7.043   4.666   4.151
 9631SOL    HW229198   7.149   4.706   4.251
 9632SOL     OW29199   8.134   7.445   3.899
 9632SOL    HW129200   8.148   7.531   3.859
 9632SOL    HW229201   8.179   7.384   3.840
 9633SOL     OW29202   1.838   2.961   2.713
 9633SOL    HW129203   1.892   3.030   2.750
 9633SOL    HW229204   1.765   2.952   2.774
 9634SOL     OW29205   3.333   3.264   0.334
 9634SOL    HW129206   3.426   3.275   0.314
 9634SOL    HW229207   3.293   3.241   0.250
 9635SOL     OW29208   4.076   7.190   5.338
 9635SOL    HW129209   4.133   7.116   5.359
 9635SOL    HW229210   4.024   7.160   5.263
 9636SOL     OW29211   3.977   3.774   1.219
 9636SOL    HW129212   3.912   3.803   1.155
 9636SOL    HW229213   3.930   3.712   1.275
 9637SOL     OW29214   0.446   4.197   0.659
 9637SOL    HW129215   0.371   4.256   0.660
 9637SOL    HW229216   0.410   4.111   0.681
 9638SOL     OW29217   6.120   7.535   1.385
 9638SOL    HW129218   6.120   7.442   1.361
 9638SOL    HW229219   6.211   7.562   1.375
 9639SOL     OW29220   5.706   6.946   3.103
 9639SOL    HW129221   5.631   6.993   3.140
 9639SOL    HW229222   5.767   6.937   3.176
 9640SOL     OW29223   5.751   0.794   3.412
 9640SOL    HW129224   5.663   0.830   3.416
 9640SOL    HW229225   5.753   0.746   3.329
 9641SOL     OW29226   1.896   3.892   5.183
 9641SOL    HW129227   1.806   3.860   5.174
 9641SOL    HW229228   1.909   3.949   5.107
 9642SOL     OW29229   3.904   5.707   4.498
 9642SOL    HW129230   3.860   5.774   4.445
 9642SOL    HW229231   3.903   5.743   4.587
 9643SOL     OW29232   2.473   7.621   4.388
 9643SOL    HW129233   2.555   7.611   4.436
 9643SOL    HW229234   2.499   7.622   4.296
 9644SOL     OW29235   5.508   0.751   4.852
 9644SOL    HW129236   5.507   0.656   4.844
 9644SOL    HW229237   5.446   0.770   4.923
 9645SOL     OW29238   6.681   6.122   0.606
 9645SOL    HW129239   6.708   6.090   0.520
 9645SOL    HW229240   6.677   6.043   0.660
 9646SOL     OW29241   2.854   3.163   2.535
 9646SOL    HW129242   2.940   3.143   2.498
 9646SOL    HW229243   2.873   3.198   2.622
 9647SOL     OW29244   6.978   6.158   3.379
 9647SOL    HW129245   6.996   6.089   3.315
 9647SOL    HW229246   7.032   6.232   3.351
 9648SOL     OW29247   5.359   7.563   3.090
 9648SOL    HW129248   5.426   7.623   3.123
 9648SOL    HW229249   5.292   7.620   3.052
 9649SOL     OW29250   0.281   0.246   4.629
 9649SOL    HW129251   0.254   0.218   4.542
 9649SOL    HW229252   0.199   0.249   4.679
 9650SOL     OW29253   3.783   7.139   1.681
 9650SOL    HW129254   3.833   7.212   1.645
 9650SOL    HW229255   3.773   7.159   1.774
 9651SOL     OW29256   2.741   1.080   1.892
 9651SOL    HW129257   2.671   1.068   1.956
 9651SOL    HW229258   2.702   1.134   1.823
 9652SOL     OW29259   7.947   1.408   1.390
 9652SOL    HW129260   7.993   1.377   1.468
 9652SOL    HW229261   7.890   1.478   1.422
 9653SOL     OW29262   5.556   6.241   1.029
 9653SOL    HW129263   5.561   6.159   1.079
 9653SOL    HW229264   5.463   6.263   1.027
 9654SOL     OW29265   3.630   6.480   1.166
 9654SOL    HW129266   3.582   6.495   1.084
 9654SOL    HW229267   3.722   6.491   1.142
 9655SOL     OW29268   6.684   4.288   1.767
 9655SOL    HW129269   6.669   4.296   1.673
 9655SOL    HW229270   6.779   4.292   1.777
 9656SOL     OW29271   6.897   2.995   4.931
 9656SOL    HW129272   6.806   2.971   4.912
 9656SOL    HW229273   6.947   2.916   4.913
 9657SOL     OW29274   1.428   0.770   4.639
 9657SOL    HW129275   1.435   0.713   4.716
 9657SOL    HW229276   1.467   0.853   4.667
 9658SOL     OW29277   6.297   0.982   4.334
 9658SOL    HW129278   6.318   1.065   4.376
 9658SOL    HW229279   6.212   0.997   4.293
 9659SOL     OW29280   7.150   2.089   0.684
 9659SOL    HW129281   7.083   2.062   0.747
 9659SOL    HW229282   7.104   2.147   0.624
 9660SOL     OW29283   0.345   3.997   4.065
 9660SOL    HW129284   0.349   4.083   4.023
 9660SOL    HW229285   0.436   3.974   4.082
 9661SOL     OW29286   0.333   2.647   4.267
 9661SOL    HW129287   0.365   2.558   4.252
 9661SOL    HW229288   0.408   2.703   4.245
 9662SOL     OW29289   4.122   3.433   1.444
 9662SOL    HW129290   4.171   3.352   1.434
 9662SOL    HW229291   4.157   3.491   1.376
 9663SOL     OW29292   5.504   7.520   3.433
 9663SOL    HW129293   5.556   7.576   3.491
 9663SOL    HW229294   5.466   7.453   3.490
 9664SOL     OW29295   2.308   6.305   1.889
 9664SOL    HW129296   2.324   6.355   1.809
 9664SOL    HW229297   2.230   6.254   1.870
 9665SOL     OW29298   4.165   1.293   1.951
 9665SOL    HW129299   4.139   1.226   1.888
 9665SOL    HW229300   4.097   1.360   1.944
 9666SOL     OW29301   1.667   7.066   5.150
 9666SOL    HW129302   1.640   7.039   5.062
 9666SOL    HW229303   1.742   7.124   5.136
 9667SOL     OW29304   5.199   4.086   1.900
 9667SOL    HW129305   5.239   4.108   1.816
 9667SOL    HW229306   5.225   3.995   1.915
 9668SOL     OW29307   4.783   7.150   1.649
 9668SOL    HW129308   4.704   7.192   1.615
 9668SOL    HW229309   4.790   7.068   1.600
 9669SOL     OW29310   3.132   6.708   3.093
 9669SOL    HW129311   3.099   6.659   3.168
 9669SOL    HW229312   3.054   6.742   3.050
 9670SOL     OW29313   7.419   7.829   3.922
 9670SOL    HW129314   7.369   7.864   3.848
 9670SOL    HW229315   7.499   7.795   3.882
 9671SOL     OW29316   3.903   1.186   4.065
 9671SOL    HW129317   3.956   1.182   4.145
 9671SOL    HW229318   3.865   1.099   4.057
 9672SOL     OW29319   4.356   7.912   4.162
 9672SOL    HW129320   4.438   7.907   4.113
 9672SOL    HW229321   4.356   7.833   4.217
 9673SOL     OW29322   2.581   3.912   3.793
 9673SOL    HW129323   2.638   3.989   3.787
 9673SOL    HW229324   2.637   3.838   3.769
 9674SOL     OW29325   1.034   6.136   3.861
 9674SOL    HW129326   1.119   6.100   3.837
 9674SOL    HW229327   0.982   6.060   3.887
 9675SOL     OW29328   2.669   4.128   4.179
 9675SOL    HW129329   2.737   4.061   4.190
 9675SOL    HW229330   2.599   4.100   4.238
 9676SOL     OW29331   1.023   5.134   5.223
 9676SOL    HW129332   1.063   5.207   5.270
 9676SOL    HW229333   0.973   5.175   5.153
 9677SOL     OW29334   3.059   8.150   2.742
 9677SOL    HW129335   3.003   8.221   2.711
 9677SOL    HW229336   3.000   8.092   2.790
 9678SOL     OW29337   0.717   0.107   5.548
 9678SOL    HW129338   0.663   0.183   5.567
 9678SOL    HW229339   0.754   0.082   5.633
 9679SOL     OW29340   6.297   3.941   1.842
 9679SOL    HW129341   6.372   3.975   1.890
 9679SOL    HW229342   6.333   3.871   1.788
 9680SOL     OW29343   3.552   7.810   0.336
 9680SOL    HW129344   3.463   7.845   0.337
 9680SOL    HW229345   3.599   7.862   0.402
 9681SOL     OW29346   6.671   2.503   5.730
 9681SOL    HW129347   6.604   2.563   5.762
 9681SOL    HW229348   6.731   2.559   5.680
 9682SOL     OW29349   0.479   3.000   0.856
 9682SOL    HW129350   0.511   3.082   0.894
 9682SOL    HW229351   0.535   2.985   0.780
 9683SOL     OW29352   4.203   4.060   2.785
 9683SOL    HW129353   4.192   4.008   2.865
 9683SOL    HW229354   4.165   4.145   2.806
 9684SOL     OW29355   4.533   1.787   5.741
 9684SOL    HW129356   4.459   1.732   5.767
 9684SOL    HW229357   4.602   1.767   5.805
 9685SOL     OW29358   6.542   6.102   2.832
 9685SOL    HW129359   6.608   6.160   2.869
 9685SOL    HW229360   6.586   6.060   2.758
 9686SOL     OW29361   3.298   3.039   0.858
 9686SOL    HW129362   3.392   3.021   0.856
 9686SOL    HW229363   3.278   3.072   0.770
 9687SOL     OW29364   1.648   3.859   5.005
 9687SOL    HW129365   1.706   3.926   4.970
 9687SOL    HW229366   1.561   3.887   4.977
 9688SOL     OW29367   5.597   3.770   0.929
 9688SOL    HW129368   5.508   3.804   0.942
 9688SOL    HW229369   5.586   3.700   0.864
 9689SOL     OW29370   1.962   3.666   0.285
 9689SOL    HW129371   1.890   3.606   0.305
 9689SOL    HW229372   1.922   3.753   0.289
 9690SOL     OW29373   3.905   3.815   0.356
 9690SOL    HW129374   3.826   3.818   0.301
 9690SOL    HW229375   3.906   3.900   0.400
 9691SOL     OW29376   3.076   6.129   4.240
 9691SOL    HW129377   3.028   6.135   4.322
 9691SOL    HW229378   3.130   6.208   4.238
 9692SOL     OW29379   7.352   7.148   4.005
 9692SOL    HW129380   7.368   7.242   4.016
 9692SOL    HW229381   7.257   7.141   3.992
 9693SOL     OW29382   6.765   4.978   0.850
 9693SOL    HW129383   6.813   4.965   0.768
 9693SOL    HW229384   6.683   5.020   0.823
 9694SOL     OW29385   5.059   1.744   0.824
 9694SOL    HW129386   5.031   1.833   0.805
 9694SOL    HW229387   5.009   1.690   0.764
 9695SOL     OW29388   2.612   5.317   4.052
 9695SOL    HW129389   2.707   5.313   4.042
 9695SOL    HW229390   2.599   5.329   4.146
 9696SOL     OW29391   1.428   4.502   0.805
 9696SOL    HW129392   1.351   4.559   0.801
 9696SOL    HW229393   1.432   4.474   0.896
 9697SOL     OW29394   1.506   7.059   0.545
 9697SOL    HW129395   1.524   7.000   0.472
 9697SOL    HW229396   1.411   7.054   0.556
 9698SOL     OW29397   2.523   8.177   2.615
 9698SOL    HW129398   2.460   8.208   2.680
 9698SOL    HW229399   2.583   8.121   2.664
 9699SOL     OW29400   0.447   2.802   5.584
 9699SOL    HW129401   0.443   2.728   5.524
 9699SOL    HW229402   0.379   2.784   5.649
 9700SOL     OW29403   5.845   0.550   2.455
 9700SOL    HW129404   5.928   0.582   2.419
 9700SOL    HW229405   5.870   0.478   2.513
 9701SOL     OW29406   6.415   6.832   4.009
 9701SOL    HW129407   6.398   6.923   3.985
 9701SOL    HW229408   6.356   6.815   4.082
 9702SOL     OW29409   7.369   3.297   2.949
 9702SOL    HW129410   7.312   3.374   2.950
 9702SOL    HW229411   7.445   3.324   2.897
 9703SOL     OW29412   2.268   4.295   5.660
 9703SOL    HW129413   2.267   4.248   5.743
 9703SOL    HW229414   2.243   4.385   5.682
 9704SOL     OW29415   4.476   5.999   1.000
 9704SOL    HW129416   4.446   6.036   0.917
 9704SOL    HW229417   4.468   5.904   0.989
 9705SOL     OW29418   8.026   5.666   3.702
 9705SOL    HW129419   8.117   5.697   3.702
 9705SOL    HW229420   8.007   5.646   3.610
 9706SOL     OW29421   5.728   7.777   2.130
 9706SOL    HW129422   5.678   7.805   2.053
 9706SOL    HW229423   5.701   7.687   2.145
 9707SOL     OW29424   2.184   3.414   5.459
 9707SOL    HW129425   2.234   3.440   5.537
 9707SOL    HW229426   2.235   3.448   5.385
 9708SOL     OW29427   5.890   8.057   2.827
 9708SOL    HW129428   5.818   8.004   2.862
 9708SOL    HW229429   5.847   8.123   2.772
 9709SOL     OW29430   6.116   4.109   1.464
 9709SOL    HW129431   6.109   4.037   1.526
 9709SOL    HW229432   6.205   4.103   1.430
 9710SOL     OW29433   2.941   7.908   3.823
 9710SOL    HW129434   3.036   7.897   3.830
 9710SOL    HW229435   2.930   7.986   3.768
 9711SOL     OW29436   4.522   7.685   4.711
 9711SOL    HW129437   4.509   7.772   4.749
 9711SOL    HW229438   4.501   7.624   4.782
 9712SOL     OW29439   3.247   1.573   3.321
 9712SOL    HW129440   3.313   1.638   3.347
 9712SOL    HW229441   3.212   1.539   3.404
 9713SOL     OW29442   7.192   4.616   2.881
 9713SOL    HW129443   7.237   4.540   2.918
 9713SOL    HW229444   7.201   4.684   2.948
 9714SOL     OW29445   7.183   1.031   4.880
 9714SOL    HW129446   7.213   1.064   4.965
 9714SOL    HW229447   7.101   1.077   4.865
 9715SOL     OW29448   6.045   0.426   4.757
 9715SOL    HW129449   5.988   0.413   4.833
 9715SOL    HW229450   6.107   0.493   4.785
 9716SOL     OW29451   5.206   7.305   0.633
 9716SOL    HW129452   5.267   7.371   0.600
 9716SOL    HW229453   5.246   7.221   0.610
 9717SOL     OW29454   5.960   4.180   1.782
 9717SOL    HW129455   5.978   4.231   1.861
 9717SOL    HW229456   6.045   4.171   1.740
 9718SOL     OW29457   2.081   4.558   1.812
 9718SOL    HW129458   2.083   4.505   1.732
 9718SOL    HW229459   2.171   4.590   1.822
 9719SOL     OW29460   2.991   1.128   2.369
 9719SOL    HW129461   2.901   1.123   2.337
 9719SOL    HW229462   2.997   1.060   2.436
 9720SOL     OW29463   5.797   7.765   5.817
 9720SOL    HW129464   5.758   7.712   5.748
 9720SOL    HW229465   1.674   3.597   0.077
 9721SOL     OW29466   3.433   6.454   3.293
 9721SOL    HW129467   3.366   6.437   3.227
 9721SOL    HW229468   3.455   6.546   3.282
 9722SOL     OW29469   1.865   3.716   0.627
 9722SOL    HW129470   1.806   3.757   0.563
 9722SOL    HW229471   1.923   3.661   0.574
 9723SOL     OW29472   5.309   2.193   2.106
 9723SOL    HW129473   5.335   2.178   2.197
 9723SOL    HW229474   5.222   2.153   2.099
 9724SOL     OW29475   4.803   1.201   4.782
 9724SOL    HW129476   4.747   1.139   4.735
 9724SOL    HW229477   4.809   1.277   4.724
 9725SOL     OW29478   3.283   2.020   2.543
 9725SOL    HW129479   3.279   2.115   2.531
 9725SOL    HW229480   3.374   2.003   2.567
 9726SOL     OW29481   6.470   4.248   1.216
 9726SOL    HW129482   6.394   4.294   1.181
 9726SOL    HW229483   6.433   4.176   1.267
 9727SOL     OW29484   2.912   7.894   5.181
 9727SOL    HW129485   2.866   7.860   5.104
 9727SOL    HW229486   2.869   7.978   5.199
 9728SOL     OW29487   0.543   0.113   1.694
 9728SOL    HW129488   0.636   0.103   1.673
 9728SOL    HW229489   0.543   0.163   1.776
 9729SOL     OW29490   4.033   1.769   2.011
 9729SOL    HW129491   4.061   1.791   2.100
 9729SOL    HW229492   4.087   1.823   1.954
 9730SOL     OW29493   4.349   3.709   4.169
 9730SOL    HW129494   4.271   3.725   4.116
 9730SOL    HW229495   4.391   3.634   4.127
 9731SOL     OW29496   4.966   7.171   3.548
 9731SOL    HW129497   4.930   7.255   3.521
 9731SOL    HW229498   4.913   7.145   3.623
 9732SOL     OW29499   3.892   7.474   4.212
 9732SOL    HW129500   3.895   7.431   4.298
 9732SOL    HW229501   3.808   7.448   4.175
 9733SOL     OW29502   1.592   2.327   2.122
 9733SOL    HW129503   1.662   2.264   2.136
 9733SOL    HW229504   1.626   2.409   2.158
 9734SOL     OW29505   7.198   2.050   2.615
 9734SOL    HW129506   7.228   1.963   2.589
 9734SOL    HW229507   7.201   2.101   2.534
 9735SOL     OW29508   4.897   2.517   4.555
 9735SOL    HW129509   4.806   2.538   4.532
 9735SOL    HW229510   4.946   2.534   4.475
 9736SOL     OW29511   3.588   2.454   0.377
 9736SOL    HW129512   3.545   2.538   0.358
 9736SOL    HW229513   3.595   2.411   0.292
 9737SOL     OW29514   1.470   6.173   1.874
 9737SOL    HW129515   1.449   6.129   1.956
 9737SOL    HW229516   1.410   6.247   1.870
 9738SOL     OW29517   2.535   5.632   2.999
 9738SOL    HW129518   2.575   5.621   2.913
 9738SOL    HW229519   2.543   5.546   3.040
 9739SOL     OW29520   4.983   6.320   4.175
 9739SOL    HW129521   4.971   6.254   4.106
 9739SOL    HW229522   4.911   6.382   4.162
 9740SOL     OW29523   0.177   2.055   5.334
 9740SOL    HW129524   0.228   2.012   5.265
 9740SOL    HW229525   0.222   2.030   5.415
 9741SOL     OW29526   3.072   2.477   0.159
 9741SOL    HW129527   3.155   2.442   0.190
 9741SOL    HW229528   3.017   2.400   0.145
 9742SOL     OW29529   2.335   4.889   2.049
 9742SOL    HW129530   2.284   4.964   2.078
 9742SOL    HW229531   2.382   4.920   1.971
 9743SOL     OW29532   5.826   3.698   1.782
 9743SOL    HW129533   5.779   3.615   1.770
 9743SOL    HW229534   5.757   3.764   1.785
 9744SOL     OW29535   5.619   7.308   5.742
 9744SOL    HW129536   5.609   7.287   5.649
 9744SOL    HW229537   5.617   7.223   5.786
 9745SOL     OW29538   6.419   5.468   3.886
 9745SOL    HW129539   6.392   5.525   3.958
 9745SOL    HW229540   6.405   5.379   3.919
 9746SOL     OW29541   6.708   1.550   1.049
 9746SOL    HW129542   6.738   1.638   1.070
 9746SOL    HW229543   6.783   1.509   1.005
 9747SOL     OW29544   5.792   7.065   3.633
 9747SOL    HW129545   5.810   7.156   3.656
 9747SOL    HW229546   5.755   7.027   3.713
 9748SOL     OW29547   1.131   7.767   4.138
 9748SOL    HW129548   1.214   7.804   4.167
 9748SOL    HW229549   1.130   7.678   4.173
 9749SOL     OW29550   7.046   1.002   4.313
 9749SOL    HW129551   7.084   1.035   4.232
 9749SOL    HW229552   7.012   0.915   4.290
 9750SOL     OW29553   3.974   7.364   4.450
 9750SOL    HW129554   4.055   7.406   4.478
 9750SOL    HW229555   3.958   7.296   4.516
 9751SOL     OW29556   5.840   2.916   3.318
 9751SOL    HW129557   5.805   2.852   3.255
 9751SOL    HW229558   5.913   2.871   3.360
 9752SOL     OW29559   7.361   2.815   3.500
 9752SOL    HW129560   7.271   2.847   3.499
 9752SOL    HW229561   7.408   2.875   3.442
 9753SOL     OW29562   5.354   3.872   0.934
 9753SOL    HW129563   5.338   3.894   1.026
 9753SOL    HW229564   5.324   3.949   0.886
 9754SOL     OW29565   5.642   1.367   1.083
 9754SOL    HW129566   5.705   1.321   1.138
 9754SOL    HW229567   5.694   1.405   1.013
 9755SOL     OW29568   0.226   5.130   5.068
 9755SOL    HW129569   0.208   5.042   5.101
 9755SOL    HW229570   0.169   5.139   4.992
 9756SOL     OW29571   7.749   0.712   3.342
 9756SOL    HW129572   7.813   0.759   3.395
 9756SOL    HW229573   7.709   0.649   3.402
 9757SOL     OW29574   7.511   2.723   3.989
 9757SOL    HW129575   7.466   2.669   4.053
 9757SOL    HW229576   7.536   2.662   3.919
 9758SOL     OW29577   0.020   7.968   5.725
 9758SOL    HW129578   8.195   8.022   5.782
 9758SOL    HW229579   0.093   8.025   5.700
 9759SOL     OW29580   0.061   4.970   1.776
 9759SOL    HW129581   0.016   5.053   1.789
 9759SOL    HW229582   0.013   4.907   1.830
 9760SOL     OW29583   3.333   7.314   2.546
 9760SOL    HW129584   3.346   7.221   2.563
 9760SOL    HW229585   3.303   7.350   2.629
 9761SOL     OW29586   1.360   0.524   2.927
 9761SOL    HW129587   1.306   0.449   2.953
 9761SOL    HW229588   1.355   0.524   2.831
 9762SOL     OW29589   6.452   7.551   0.922
 9762SOL    HW129590   6.460   7.470   0.973
 9762SOL    HW229591   6.540   7.588   0.922
 9763SOL     OW29592   6.301   8.170   0.944
 9763SOL    HW129593   6.376   8.118   0.915
 9763SOL    HW229594   6.227   8.109   0.940
 9764SOL     OW29595   2.051   2.891   2.554
 9764SOL    HW129596   1.984   2.938   2.603
 9764SOL    HW229597   2.022   2.896   2.463
 9765SOL     OW29598   4.384   4.737   1.417
 9765SOL    HW129599   4.365   4.647   1.391
 9765SOL    HW229600   4.367   4.739   1.511
 9766SOL     OW29601   5.368   3.144   1.758
 9766SOL    HW129602   5.443   3.089   1.781
 9766SOL    HW229603   5.292   3.098   1.794
 9767SOL     OW29604   5.480   5.345   4.364
 9767SOL    HW129605   5.505   5.329   4.455
 9767SOL    HW229606   5.562   5.367   4.320
 9768SOL     OW29607   1.189   4.088   3.021
 9768SOL    HW129608   1.183   4.100   2.926
 9768SOL    HW229609   1.276   4.051   3.034
 9769SOL     OW29610   1.678   2.937   3.604
 9769SOL    HW129611   1.696   2.844   3.621
 9769SOL    HW229612   1.584   2.941   3.588
 9770SOL     OW29613   7.183   1.208   2.176
 9770SOL    HW129614   7.110   1.270   2.174
 9770SOL    HW229615   7.181   1.171   2.264
 9771SOL     OW29616   4.625   2.816   0.409
 9771SOL    HW129617   4.579   2.745   0.363
 9771SOL    HW229618   4.710   2.822   0.364
 9772SOL     OW29619   3.211   4.411   5.513
 9772SOL    HW129620   3.303   4.439   5.514
 9772SOL    HW229621   3.162   4.491   5.493
 9773SOL     OW29622   0.862   7.309   3.015
 9773SOL    HW129623   0.931   7.375   3.012
 9773SOL    HW229624   0.905   7.229   2.985
 9774SOL     OW29625   6.164   4.968   1.653
 9774SOL    HW129626   6.092   4.977   1.715
 9774SOL    HW229627   6.149   4.883   1.611
 9775SOL     OW29628   5.512   3.309   2.283
 9775SOL    HW129629   5.571   3.247   2.327
 9775SOL    HW229630   5.457   3.254   2.227
 9776SOL     OW29631   0.454   5.095   0.482
 9776SOL    HW129632   0.508   5.016   0.474
 9776SOL    HW229633   0.483   5.151   0.410
 9777SOL     OW29634   2.060   4.129   4.309
 9777SOL    HW129635   2.019   4.062   4.254
 9777SOL    HW229636   2.111   4.182   4.248
 9778SOL     OW29637   5.938   3.180   0.146
 9778SOL    HW129638   5.895   3.204   0.228
 9778SOL    HW229639   5.917   3.087   0.134
 9779SOL     OW29640   2.323   7.094   1.231
 9779SOL    HW129641   2.298   7.002   1.239
 9779SOL    HW229642   2.265   7.140   1.291
 9780SOL     OW29643   0.385   3.913   0.716
 9780SOL    HW129644   0.290   3.900   0.713
 9780SOL    HW229645   0.408   3.903   0.808
 9781SOL     OW29646   0.737   3.130   1.185
 9781SOL    HW129647   0.705   3.156   1.271
 9781SOL    HW229648   0.755   3.036   1.194
 9782SOL     OW29649   5.221   3.632   2.473
 9782SOL    HW129650   5.168   3.711   2.467
 9782SOL    HW229651   5.159   3.561   2.458
 9783SOL     OW29652   0.654   1.468   2.833
 9783SOL    HW129653   0.679   1.421   2.913
 9783SOL    HW229654   0.600   1.405   2.785
 9784SOL     OW29655   7.718   8.216   5.133
 9784SOL    HW129656   7.714   8.136   5.186
 9784SOL    HW229657   7.714   0.058   5.197
 9785SOL     OW29658   6.600   1.347   2.348
 9785SOL    HW129659   6.615   1.260   2.311
 9785SOL    HW229660   6.582   1.403   2.272
 9786SOL     OW29661   7.599   0.651   0.951
 9786SOL    HW129662   7.604   0.658   0.856
 9786SOL    HW229663   7.657   0.720   0.983
 9787SOL     OW29664   5.995   3.007   1.836
 9787SOL    HW129665   6.034   3.094   1.834
 9787SOL    HW229666   6.016   2.970   1.750
 9788SOL     OW29667   6.510   6.323   0.731
 9788SOL    HW129668   6.561   6.404   0.730
 9788SOL    HW229669   6.567   6.259   0.688
 9789SOL     OW29670   2.906   5.323   1.517
 9789SOL    HW129671   2.900   5.368   1.433
 9789SOL    HW229672   2.840   5.366   1.572
 9790SOL     OW29673   0.155   0.025   3.980
 9790SOL    HW129674   0.150   0.088   4.052
 9790SOL    HW229675   0.130   8.171   4.019
 9791SOL     OW29676   3.837   3.499   0.036
 9791SOL    HW129677   8.013   7.650   5.791
 9791SOL    HW229678   3.751   3.527   0.005
 9792SOL     OW29679   4.760   1.843   2.881
 9792SOL    HW129680   4.835   1.847   2.821
 9792SOL    HW229681   4.702   1.913   2.852
 9793SOL     OW29682   3.413   6.101   3.290
 9793SOL    HW129683   3.464   6.150   3.355
 9793SOL    HW229684   3.454   6.123   3.206
 9794SOL     OW29685   1.743   0.133   3.290
 9794SOL    HW129686   1.652   0.116   3.266
 9794SOL    HW229687   1.793   0.064   3.247
 9795SOL     OW29688   2.501   0.015   4.842
 9795SOL    HW129689   2.574   0.019   4.904
 9795SOL    HW229690   2.474   0.106   4.831
 9796SOL     OW29691   0.547   4.064   5.384
 9796SOL    HW129692   0.539   4.027   5.472
 9796SOL    HW229693   0.538   3.988   5.326
 9797SOL     OW29694   2.692   3.951   2.823
 9797SOL    HW129695   2.757   3.888   2.853
 9797SOL    HW229696   2.701   3.950   2.728
 9798SOL     OW29697   4.150   7.579   4.166
 9798SOL    HW129698   4.157   7.638   4.241
 9798SOL    HW229699   4.065   7.537   4.177
 9799SOL     OW29700   1.199   7.651   3.692
 9799SOL    HW129701   1.134   7.682   3.755
 9799SOL    HW229702   1.263   7.603   3.744
 9800SOL     OW29703   0.584   2.538   3.246
 9800SOL    HW129704   0.637   2.476   3.195
 9800SOL    HW229705   0.494   2.521   3.219
 9801SOL     OW29706   5.083   2.667   4.050
 9801SOL    HW129707   5.018   2.599   4.033
 9801SOL    HW229708   5.036   2.731   4.104
 9802SOL     OW29709   5.166   2.820   3.838
 9802SOL    HW129710   5.108   2.896   3.843
 9802SOL    HW229711   5.134   2.760   3.906
 9803SOL     OW29712   6.655   3.672   2.224
 9803SOL    HW129713   6.722   3.730   2.188
 9803SOL    HW229714   6.603   3.646   2.148
 9804SOL     OW29715   4.441   6.095   2.549
 9804SOL    HW129716   4.527   6.063   2.577
 9804SOL    HW229717   4.437   6.075   2.455
 9805SOL     OW29718   6.418   7.765   4.515
 9805SOL    HW129719   6.359   7.701   4.556
 9805SOL    HW229720   6.379   7.782   4.429
 9806SOL     OW29721   1.051   1.725   4.153
 9806SOL    HW129722   1.048   1.736   4.058
 9806SOL    HW229723   0.967   1.759   4.184
 9807SOL     OW29724   2.046   7.877   3.325
 9807SOL    HW129725   1.958   7.899   3.357
 9807SOL    HW229726   2.031   7.812   3.257
 9808SOL     OW29727   0.183   7.831   3.100
 9808SOL    HW129728   0.263   7.781   3.115
 9808SOL    HW229729   0.129   7.774   3.045
 9809SOL     OW29730   2.625   5.389   3.119
 9809SOL    HW129731   2.643   5.384   3.213
 9809SOL    HW229732   2.558   5.322   3.104
 9810SOL     OW29733   6.968   7.319   0.682
 9810SOL    HW129734   7.011   7.397   0.647
 9810SOL    HW229735   6.921   7.282   0.607
 9811SOL     OW29736   7.151   6.279   2.446
 9811SOL    HW129737   7.094   6.233   2.384
 9811SOL    HW229738   7.186   6.353   2.396
 9812SOL     OW29739   1.214   5.945   4.469
 9812SOL    HW129740   1.156   6.015   4.500
 9812SOL    HW229741   1.185   5.927   4.380
 9813SOL     OW29742   1.704   4.857   2.656
 9813SOL    HW129743   1.720   4.821   2.569
 9813SOL    HW229744   1.611   4.843   2.671
 9814SOL     OW29745   1.558   0.163   3.663
 9814SOL    HW129746   1.544   0.257   3.649
 9814SOL    HW229747   1.492   0.138   3.728
 9815SOL     OW29748   2.783   6.382   3.889
 9815SOL    HW129749   2.735   6.328   3.826
 9815SOL    HW229750   2.753   6.352   3.975
 9816SOL     OW29751   7.046   3.755   2.528
 9816SOL    HW129752   6.967   3.784   2.482
 9816SOL    HW229753   7.097   3.835   2.540
 9817SOL     OW29754   7.109   6.758   3.245
 9817SOL    HW129755   7.038   6.697   3.226
 9817SOL    HW229756   7.184   6.702   3.267
 9818SOL     OW29757   6.295   0.138   4.181
 9818SOL    HW129758   6.255   0.156   4.096
 9818SOL    HW229759   6.355   0.065   4.164
 9819SOL     OW29760   0.443   2.231   0.020
 9819SOL    HW129761   0.389   2.191   0.088
 9819SOL    HW229762   0.524   2.179   0.021
 9820SOL     OW29763   0.659   5.279   3.756
 9820SOL    HW129764   0.738   5.314   3.797
 9820SOL    HW229765   0.587   5.324   3.801
 9821SOL     OW29766   3.725   0.680   1.916
 9821SOL    HW129767   3.668   0.721   1.981
 9821SOL    HW229768   3.748   0.751   1.856
 9822SOL     OW29769   2.971   2.192   3.497
 9822SOL    HW129770   3.031   2.265   3.484
 9822SOL    HW229771   2.901   2.207   3.433
 9823SOL     OW29772   5.627   3.337   1.970
 9823SOL    HW129773   5.600   3.353   2.061
 9823SOL    HW229774   5.663   3.248   1.971
 9824SOL     OW29775   2.406   7.688   5.457
 9824SOL    HW129776   2.452   7.764   5.421
 9824SOL    HW229777   2.455   7.665   5.536
 9825SOL     OW29778   5.911   3.939   3.357
 9825SOL    HW129779   5.943   4.022   3.321
 9825SOL    HW229780   5.961   3.927   3.438
 9826SOL     OW29781   6.131   5.016   4.656
 9826SOL    HW129782   6.054   5.068   4.680
 9826SOL    HW229783   6.095   4.933   4.626
 9827SOL     OW29784   2.421   5.992   0.509
 9827SOL    HW129785   2.472   6.072   0.498
 9827SOL    HW229786   2.368   6.007   0.587
 9828SOL     OW29787   0.198   2.251   0.677
 9828SOL    HW129788   0.110   2.215   0.685
 9828SOL    HW229789   0.208   2.269   0.583
 9829SOL     OW29790   0.539   6.853   5.369
 9829SOL    HW129791   0.509   6.936   5.332
 9829SOL    HW229792   0.604   6.879   5.434
 9830SOL     OW29793   1.258   1.304   2.698
 9830SOL    HW129794   1.256   1.215   2.663
 9830SOL    HW229795   1.177   1.344   2.667
 9831SOL     OW29796   6.990   1.109   2.635
 9831SOL    HW129797   7.084   1.095   2.649
 9831SOL    HW229798   6.951   1.099   2.722
 9832SOL     OW29799   6.768   2.263   3.668
 9832SOL    HW129800   6.689   2.305   3.702
 9832SOL    HW229801   6.767   2.282   3.574
 9833SOL     OW29802   4.282   4.414   3.547
 9833SOL    HW129803   4.289   4.452   3.459
 9833SOL    HW229804   4.326   4.477   3.604
 9834SOL     OW29805   2.717   0.166   4.969
 9834SOL    HW129806   2.782   0.231   4.996
 9834SOL    HW229807   2.675   0.204   4.892
 9835SOL     OW29808   3.405   1.039   5.498
 9835SOL    HW129809   3.323   1.011   5.457
 9835SOL    HW229810   3.382   1.119   5.545
 9836SOL     OW29811   0.212   7.718   5.371
 9836SOL    HW129812   0.252   7.688   5.452
 9836SOL    HW229813   0.171   7.801   5.394
 9837SOL     OW29814   2.816   1.085   0.850
 9837SOL    HW129815   2.866   1.079   0.769
 9837SOL    HW229816   2.878   1.119   0.914
 9838SOL     OW29817   4.170   5.746   4.901
 9838SOL    HW129818   4.229   5.792   4.961
 9838SOL    HW229819   4.173   5.655   4.929
 9839SOL     OW29820   4.360   1.300   3.206
 9839SOL    HW129821   4.400   1.385   3.188
 9839SOL    HW229822   4.433   1.238   3.204
 9840SOL     OW29823   7.394   7.690   4.149
 9840SOL    HW129824   7.377   7.736   4.067
 9840SOL    HW229825   7.485   7.712   4.170
 9841SOL     OW29826   7.603   6.123   5.731
 9841SOL    HW129827   7.581   6.044   5.781
 9841SOL    HW229828   7.530   6.182   5.747
 9842SOL     OW29829   2.373   5.581   3.478
 9842SOL    HW129830   2.351   5.663   3.433
 9842SOL    HW229831   2.299   5.565   3.536
 9843SOL     OW29832   1.152   6.271   1.015
 9843SOL    HW129833   1.125   6.226   0.935
 9843SOL    HW229834   1.071   6.283   1.064
 9844SOL     OW29835   7.238   2.256   3.527
 9844SOL    HW129836   7.240   2.351   3.536
 9844SOL    HW229837   7.192   2.241   3.444
 9845SOL     OW29838   3.302   4.600   1.682
 9845SOL    HW129839   3.290   4.546   1.760
 9845SOL    HW229840   3.392   4.632   1.688
 9846SOL     OW29841   2.437   2.350   4.513
 9846SOL    HW129842   2.493   2.303   4.575
 9846SOL    HW229843   2.446   2.442   4.538
 9847SOL     OW29844   2.694   2.427   2.113
 9847SOL    HW129845   2.753   2.387   2.177
 9847SOL    HW229846   2.610   2.385   2.128
 9848SOL     OW29847   5.603   2.909   0.128
 9848SOL    HW129848   5.616   3.002   0.109
 9848SOL    HW229849   5.583   2.870   0.043
 9849SOL     OW29850   0.092   1.942   4.088
 9849SOL    HW129851   0.184   1.966   4.076
 9849SOL    HW229852   0.070   1.975   4.175
 9850SOL     OW29853   7.931   2.655   4.163
 9850SOL    HW129854   7.934   2.673   4.069
 9850SOL    HW229855   7.902   2.737   4.203
 9851SOL     OW29856   6.864   2.169   1.428
 9851SOL    HW129857   6.878   2.257   1.394
 9851SOL    HW229858   6.905   2.111   1.363
 9852SOL     OW29859   7.251   0.355   3.771
 9852SOL    HW129860   7.248   0.262   3.794
 9852SOL    HW229861   7.165   0.373   3.733
 9853SOL     OW29862   0.423   7.400   2.557
 9853SOL    HW129863   0.450   7.488   2.583
 9853SOL    HW229864   0.333   7.410   2.525
 9854SOL     OW29865   4.932   6.319   0.299
 9854SOL    HW129866   4.900   6.278   0.380
 9854SOL    HW229867   4.914   6.255   0.231
 9855SOL     OW29868   0.167   7.902   2.304
 9855SOL    HW129869   0.110   7.832   2.272
 9855SOL    HW229870   0.242   7.856   2.341
 9856SOL     OW29871   5.438   2.636   0.050
 9856SOL    HW129872   1.271   6.698   5.809
 9856SOL    HW229873   5.383   2.646   0.128
 9857SOL     OW29874   3.269   3.788   0.721
 9857SOL    HW129875   3.341   3.728   0.741
 9857SOL    HW229876   3.201   3.732   0.684
 9858SOL     OW29877   1.322   0.807   3.802
 9858SOL    HW129878   1.327   0.902   3.814
 9858SOL    HW229879   1.244   0.780   3.850
 9859SOL     OW29880   6.464   3.672   3.610
 9859SOL    HW129881   6.485   3.579   3.599
 9859SOL    HW229882   6.492   3.713   3.528
 9860SOL     OW29883   2.724   1.980   3.650
 9860SOL    HW129884   2.695   1.988   3.741
 9860SOL    HW229885   2.819   1.973   3.655
 9861SOL     OW29886   0.802   1.550   5.771
 9861SOL    HW129887   0.890   1.587   5.773
 9861SOL    HW229888   0.815   1.455   5.778
 9862SOL     OW29889   6.255   5.003   5.348
 9862SOL    HW129890   6.169   5.035   5.321
 9862SOL    HW229891   6.286   4.952   5.273
 9863SOL     OW29892   6.999   0.430   4.965
 9863SOL    HW129893   6.959   0.489   5.029
 9863SOL    HW229894   6.944   0.439   4.887
 9864SOL     OW29895   5.804   7.995   0.160
 9864SOL    HW129896   5.744   7.950   0.219
 9864SOL    HW229897   5.813   7.936   0.085
 9865SOL     OW29898   0.725   1.359   2.531
 9865SOL    HW129899   0.742   1.330   2.621
 9865SOL    HW229900   0.666   1.434   2.541
 9866SOL     OW29901   6.627   0.761   4.982
 9866SOL    HW129902   6.678   0.842   4.986
 9866SOL    HW229903   6.554   0.782   4.923
 9867SOL     OW29904   5.773   0.229   2.242
 9867SOL    HW129905   5.794   0.234   2.149
 9867SOL    HW229906   5.858   0.231   2.285
 9868SOL     OW29907   4.010   2.453   3.979
 9868SOL    HW129908   4.069   2.521   4.013
 9868SOL    HW229909   3.969   2.493   3.903
 9869SOL     OW29910   3.755   6.838   3.895
 9869SOL    HW129911   3.704   6.796   3.826
 9869SOL    HW229912   3.833   6.783   3.903
 9870SOL     OW29913   1.608   4.306   5.106
 9870SOL    HW129914   1.575   4.384   5.061
 9870SOL    HW229915   1.697   4.295   5.071
 9871SOL     OW29916   4.592   8.157   5.794
 9871SOL    HW129917   4.633   0.014   5.803
 9871SOL    HW229918   0.472   4.009   0.065
 9872SOL     OW29919   1.246   7.708   3.420
 9872SOL    HW129920   1.221   7.696   3.512
 9872SOL    HW229921   1.257   7.619   3.386
 9873SOL     OW29922   1.984   3.121   2.065
 9873SOL    HW129923   1.961   3.067   1.989
 9873SOL    HW229924   2.069   3.087   2.094
 9874SOL     OW29925   4.189   6.549   4.831
 9874SOL    HW129926   4.195   6.637   4.868
 9874SOL    HW229927   4.250   6.550   4.758
 9875SOL     OW29928   2.891   3.137   1.508
 9875SOL    HW129929   2.830   3.169   1.441
 9875SOL    HW229930   2.969   3.111   1.459
 9876SOL     OW29931   1.609   5.570   4.257
 9876SOL    HW129932   1.629   5.478   4.237
 9876SOL    HW229933   1.515   5.578   4.244
 9877SOL     OW29934   0.961   2.399   3.279
 9877SOL    HW129935   0.894   2.423   3.214
 9877SOL    HW229936   1.030   2.358   3.228
 9878SOL     OW29937   2.344   2.536   4.019
 9878SOL    HW129938   2.255   2.550   4.051
 9878SOL    HW229939   2.364   2.614   3.968
 9879SOL     OW29940   7.618   3.184   3.741
 9879SOL    HW129941   7.599   3.165   3.649
 9879SOL    HW229942   7.539   3.227   3.774
 9880SOL     OW29943   4.559   5.040   3.083
 9880SOL    HW129944   4.516   5.112   3.129
 9880SOL    HW229945   4.614   4.998   3.149
 9881SOL     OW29946   3.871   5.378   3.055
 9881SOL    HW129947   3.947   5.428   3.024
 9881SOL    HW229948   3.908   5.296   3.088
 9882SOL     OW29949   7.985   7.287   2.334
 9882SOL    HW129950   7.987   7.239   2.251
 9882SOL    HW229951   7.969   7.378   2.308
 9883SOL     OW29952   3.731   6.465   2.915
 9883SOL    HW129953   3.801   6.401   2.907
 9883SOL    HW229954   3.758   6.522   2.987
 9884SOL     OW29955   0.174   3.443   0.012
 9884SOL    HW129956   0.234   3.500   0.061
 9884SOL    HW229957   0.087   3.467   0.045
 9885SOL     OW29958   6.705   6.046   3.144
 9885SOL    HW129959   6.699   6.127   3.093
 9885SOL    HW229960   6.674   5.978   3.084
 9886SOL     OW29961   8.180   5.843   1.179
 9886SOL    HW129962   8.205   5.842   1.087
 9886SOL    HW229963   8.151   5.753   1.196
 9887SOL     OW29964   0.940   7.305   0.169
 9887SOL    HW129965   1.005   7.299   0.099
 9887SOL    HW229966   0.964   7.385   0.216
 9888SOL     OW29967   2.412   6.037   4.086
 9888SOL    HW129968   2.376   5.948   4.091
 9888SOL    HW229969   2.492   6.028   4.034
 9889SOL     OW29970   0.997   6.149   0.708
 9889SOL    HW129971   0.955   6.191   0.783
 9889SOL    HW229972   0.926   6.136   0.645
 9890SOL     OW29973   0.806   2.942   0.841
 9890SOL    HW129974   0.765   3.020   0.804
 9890SOL    HW229975   0.807   2.879   0.769
 9891SOL     OW29976   4.838   4.636   2.064
 9891SOL    HW129977   4.827   4.712   2.122
 9891SOL    HW229978   4.905   4.583   2.107
 9892SOL     OW29979   3.262   4.871   0.892
 9892SOL    HW129980   3.338   4.880   0.834
 9892SOL    HW229981   3.252   4.958   0.932
 9893SOL     OW29982   7.405   5.446   3.957
 9893SOL    HW129983   7.341   5.478   4.021
 9893SOL    HW229984   7.414   5.353   3.977
 9894SOL     OW29985   7.445   0.476   4.029
 9894SOL    HW129986   7.365   0.509   4.071
 9894SOL    HW229987   7.425   0.385   4.008
 9895SOL     OW29988   6.246   8.097   2.109
 9895SOL    HW129989   6.341   8.085   2.102
 9895SOL    HW229990   6.212   8.061   2.027
 9896SOL     OW29991   1.839   3.391   2.481
 9896SOL    HW129992   1.848   3.301   2.449
 9896SOL    HW229993   1.751   3.417   2.453
 9897SOL     OW29994   4.504   1.094   0.831
 9897SOL    HW129995   4.485   1.127   0.919
 9897SOL    HW229996   4.596   1.069   0.834
 9898SOL     OW29997   7.762   3.401   3.091
 9898SOL    HW129998   7.694   3.400   3.024
 9898SOL    HW229999   7.771   3.493   3.114
 9899SOL     OW30000   3.638   2.176   3.184
 9899SOL    HW130001   3.659   2.116   3.256
 9899SOL    HW230002   3.710   2.239   3.184
 9900SOL     OW30003   3.796   4.566   3.637
 9900SOL    HW130004   3.827   4.478   3.659
 9900SOL    HW230005   3.871   4.623   3.654
 9901SOL     OW30006   2.391   1.715   5.459
 9901SOL    HW130007   2.449   1.647   5.426
 9901SOL    HW230008   2.357   1.757   5.380
 9902SOL     OW30009   7.569   3.091   2.312
 9902SOL    HW130010   7.494   3.044   2.349
 9902SOL    HW230011   7.593   3.041   2.234
 9903SOL     OW30012   5.416   0.507   5.342
 9903SOL    HW130013   5.366   0.572   5.391
 9903SOL    HW230014   5.484   0.477   5.403
 9904SOL     OW30015   3.048   7.459   1.437
 9904SOL    HW130016   3.121   7.401   1.418
 9904SOL    HW230017   2.971   7.411   1.408
 9905SOL     OW30018   2.268   2.271   3.436
 9905SOL    HW130019   2.226   2.333   3.376
 9905SOL    HW230020   2.306   2.326   3.504
 9906SOL     OW30021   8.197   0.926   3.373
 9906SOL    HW130022   8.222   0.836   3.354
 9906SOL    HW230023   8.104   0.922   3.394
 9907SOL     OW30024   0.488   7.376   3.775
 9907SOL    HW130025   0.456   7.465   3.757
 9907SOL    HW230026   0.565   7.366   3.719
 9908SOL     OW30027   0.598   5.358   3.405
 9908SOL    HW130028   0.630   5.448   3.397
 9908SOL    HW230029   0.548   5.357   3.486
 9909SOL     OW30030   3.455   1.857   0.490
 9909SOL    HW130031   3.514   1.905   0.432
 9909SOL    HW230032   3.512   1.820   0.557
 9910SOL     OW30033   1.998   0.979   5.346
 9910SOL    HW130034   1.990   1.061   5.395
 9910SOL    HW230035   1.957   0.913   5.402
 9911SOL     OW30036   4.097   8.032   5.410
 9911SOL    HW130037   4.159   8.102   5.431
 9911SOL    HW230038   4.073   7.995   5.495
 9912SOL     OW30039   8.220   0.254   0.223
 9912SOL    HW130040   0.024   0.178   0.176
 9912SOL    HW230041   0.057   0.272   0.290
 9913SOL     OW30042   8.209   3.671   1.749
 9913SOL    HW130043   8.159   3.751   1.764
 9913SOL    HW230044   8.161   3.625   1.680
 9914SOL     OW30045   5.165   4.612   0.776
 9914SOL    HW130046   5.147   4.677   0.708
 9914SOL    HW230047   5.204   4.662   0.847
 9915SOL     OW30048   5.107   7.609   2.970
 9915SOL    HW130049   5.061   7.693   2.967
 9915SOL    HW230050   5.129   7.590   2.879
 9916SOL     OW30051   6.353   0.752   1.329
 9916SOL    HW130052   6.267   0.759   1.370
 9916SOL    HW230053   6.415   0.758   1.402
 9917SOL     OW30054   6.455   2.844   3.077
 9917SOL    HW130055   6.438   2.770   3.018
 9917SOL    HW230056   6.548   2.837   3.098
 9918SOL     OW30057   1.176   6.954   1.700
 9918SOL    HW130058   1.163   6.995   1.615
 9918SOL    HW230059   1.107   6.991   1.755
 9919SOL     OW30060   3.193   4.599   0.960
 9919SOL    HW130061   3.098   4.587   0.956
 9919SOL    HW230062   3.205   4.693   0.950
 9920SOL     OW30063   6.988   4.232   2.515
 9920SOL    HW130064   7.058   4.234   2.581
 9920SOL    HW230065   6.950   4.320   2.518
 9921SOL     OW30066   4.341   6.329   4.605
 9921SOL    HW130067   4.309   6.241   4.624
 9921SOL    HW230068   4.397   6.351   4.680
 9922SOL     OW30069   4.943   3.385   5.430
 9922SOL    HW130070   4.937   3.399   5.524
 9922SOL    HW230071   4.867   3.430   5.394
 9923SOL     OW30072   0.420   7.398   5.052
 9923SOL    HW130073   0.371   7.398   4.970
 9923SOL    HW230074   0.401   7.483   5.091
 9924SOL     OW30075   6.141   5.585   5.684
 9924SOL    HW130076   6.209   5.645   5.654
 9924SOL    HW230077   6.081   5.577   5.609
 9925SOL     OW30078   1.074   3.008   5.623
 9925SOL    HW130079   0.994   3.049   5.590
 9925SOL    HW230080   1.136   3.081   5.631
 9926SOL     OW30081   0.043   1.322   0.483
 9926SOL    HW130082   0.119   1.315   0.426
 9926SOL    HW230083   0.072   1.378   0.555
 9927SOL     OW30084   5.632   7.120   3.892
 9927SOL    HW130085   5.674   7.206   3.890
 9927SOL    HW230086   5.538   7.139   3.898
 9928SOL     OW30087   1.794   5.594   3.417
 9928SOL    HW130088   1.725   5.658   3.437
 9928SOL    HW230089   1.870   5.647   3.394
 9929SOL     OW30090   4.274   5.835   1.517
 9929SOL    HW130091   4.323   5.890   1.578
 9929SOL    HW230092   4.267   5.750   1.561
 9930SOL     OW30093   2.014   3.415   0.947
 9930SOL    HW130094   1.991   3.398   1.038
 9930SOL    HW230095   1.964   3.493   0.924
 9931SOL     OW30096   5.390   6.005   1.886
 9931SOL    HW130097   5.384   5.968   1.798
 9931SOL    HW230098   5.484   6.021   1.899
 9932SOL     OW30099   3.086   2.649   2.333
 9932SOL    HW130100   3.052   2.738   2.342
 9932SOL    HW230101   3.042   2.614   2.255
 9933SOL     OW30102   4.484   4.802   2.951
 9933SOL    HW130103   4.398   4.842   2.939
 9933SOL    HW230104   4.519   4.845   3.029
 9934SOL     OW30105   3.876   6.105   1.235
 9934SOL    HW130106   3.892   6.046   1.161
 9934SOL    HW230107   3.941   6.080   1.300
 9935SOL     OW30108   2.466   2.700   3.536
 9935SOL    HW130109   2.422   2.729   3.456
 9935SOL    HW230110   2.472   2.779   3.590
 9936SOL     OW30111   2.876   3.593   2.383
 9936SOL    HW130112   2.850   3.575   2.473
 9936SOL    HW230113   2.904   3.508   2.349
 9937SOL     OW30114   1.143   5.382   4.042
 9937SOL    HW130115   1.229   5.346   4.019
 9937SOL    HW230116   1.114   5.328   4.115
 9938SOL     OW30117   3.203   8.021   2.480
 9938SOL    HW130118   3.176   8.022   2.572
 9938SOL    HW230119   3.282   7.967   2.479
 9939SOL     OW30120   3.950   3.704   4.424
 9939SOL    HW130121   3.978   3.615   4.446
 9939SOL    HW230122   4.010   3.761   4.471
 9940SOL     OW30123   3.337   1.210   3.634
 9940SOL    HW130124   3.298   1.152   3.700
 9940SOL    HW230125   3.337   1.158   3.554
 9941SOL     OW30126   2.647   4.320   4.850
 9941SOL    HW130127   2.634   4.301   4.943
 9941SOL    HW230128   2.728   4.274   4.828
 9942SOL     OW30129   2.510   4.239   0.402
 9942SOL    HW130130   2.541   4.326   0.427
 9942SOL    HW230131   2.590   4.189   0.384
 9943SOL     OW30132   3.655   5.470   0.152
 9943SOL    HW130133   3.733   5.486   0.205
 9943SOL    HW230134   3.584   5.511   0.201
 9944SOL     OW30135   5.332   0.622   0.737
 9944SOL    HW130136   5.327   0.657   0.648
 9944SOL    HW230137   5.368   0.534   0.726
 9945SOL     OW30138   1.120   3.514   4.354
 9945SOL    HW130139   1.144   3.457   4.281
 9945SOL    HW230140   1.031   3.487   4.377
 9946SOL     OW30141   1.341   2.503   1.298
 9946SOL    HW130142   1.314   2.519   1.388
 9946SOL    HW230143   1.428   2.464   1.305
 9947SOL     OW30144   1.850   2.403   0.648
 9947SOL    HW130145   1.764   2.437   0.624
 9947SOL    HW230146   1.855   2.318   0.604
 9948SOL     OW30147   3.917   4.773   1.808
 9948SOL    HW130148   3.895   4.803   1.896
 9948SOL    HW230149   3.909   4.678   1.813
 9949SOL     OW30150   8.143   4.919   0.187
 9949SOL    HW130151   8.092   4.905   0.107
 9949SOL    HW230152   0.003   4.934   0.156
 9950SOL     OW30153   0.145   7.986   5.426
 9950SOL    HW130154   0.165   8.046   5.354
 9950SOL    HW230155   0.150   8.040   5.505
 9951SOL     OW30156   7.520   8.019   4.108
 9951SOL    HW130157   7.586   8.050   4.047
 9951SOL    HW230158   7.463   7.962   4.055
 9952SOL     OW30159   8.164   6.621   4.716
 9952SOL    HW130160   8.068   6.621   4.711
 9952SOL    HW230161   8.184   6.651   4.805
 9953SOL     OW30162   6.285   6.063   3.863
 9953SOL    HW130163   6.336   6.116   3.802
 9953SOL    HW230164   6.284   6.114   3.944
 9954SOL     OW30165   3.045   5.757   0.641
 9954SOL    HW130166   2.988   5.801   0.577
 9954SOL    HW230167   3.062   5.671   0.603
 9955SOL     OW30168   7.911   7.044   3.282
 9955SOL    HW130169   7.964   6.983   3.230
 9955SOL    HW230170   7.846   7.077   3.220
 9956SOL     OW30171   7.962   6.080   2.509
 9956SOL    HW130172   7.991   6.156   2.559
 9956SOL    HW230173   8.042   6.044   2.471
 9957SOL     OW30174   7.843   7.726   4.473
 9957SOL    HW130175   7.882   7.805   4.437
 9957SOL    HW230176   7.868   7.657   4.412
 9958SOL     OW30177   5.522   5.533   2.527
 9958SOL    HW130178   5.465   5.593   2.479
 9958SOL    HW230179   5.610   5.551   2.494
 9959SOL     OW30180   7.171   5.793   5.563
 9959SOL    HW130181   7.258   5.760   5.540
 9959SOL    HW230182   7.139   5.733   5.631
 9960SOL     OW30183   8.097   0.781   5.759
 9960SOL    HW130184   8.160   0.842   5.721
 9960SOL    HW230185   8.024   0.836   5.787
 9961SOL     OW30186   5.039   2.573   4.345
 9961SOL    HW130187   5.063   2.665   4.336
 9961SOL    HW230188   4.978   2.557   4.273
 9962SOL     OW30189   4.730   2.283   0.185
 9962SOL    HW130190   4.803   2.317   0.236
 9962SOL    HW230191   4.714   2.349   0.118
 9963SOL     OW30192   7.448   1.976   4.701
 9963SOL    HW130193   7.400   2.027   4.636
 9963SOL    HW230194   7.506   2.039   4.743
 9964SOL     OW30195   2.727   0.223   1.957
 9964SOL    HW130196   2.678   0.206   2.037
 9964SOL    HW230197   2.791   0.290   1.981
 9965SOL     OW30198   2.892   7.691   1.458
 9965SOL    HW130199   2.961   7.625   1.454
 9965SOL    HW230200   2.820   7.654   1.407
 9966SOL     OW30201   3.439   4.534   5.557
 9966SOL    HW130202   3.494   4.482   5.616
 9966SOL    HW230203   3.498   4.563   5.488
 9967SOL     OW30204   6.979   4.804   5.723
 9967SOL    HW130205   6.956   4.895   5.705
 9967SOL    HW230206   7.057   4.788   5.670
 9968SOL     OW30207   3.270   6.209   5.429
 9968SOL    HW130208   3.349   6.209   5.374
 9968SOL    HW230209   3.272   6.125   5.475
 9969SOL     OW30210   3.499   6.060   0.538
 9969SOL    HW130211   3.418   6.098   0.571
 9969SOL    HW230212   3.548   6.036   0.617
 9970SOL     OW30213   0.354   0.973   1.435
 9970SOL    HW130214   0.422   1.040   1.443
 9970SOL    HW230215   0.323   0.960   1.525
 9971SOL     OW30216   4.674   2.610   5.681
 9971SOL    HW130217   4.611   2.664   5.633
 9971SOL    HW230218   4.640   2.521   5.673
 9972SOL     OW30219   3.209   7.921   3.901
 9972SOL    HW130220   3.241   7.947   3.988
 9972SOL    HW230221   3.281   7.941   3.842
 9973SOL     OW30222   5.308   1.619   1.860
 9973SOL    HW130223   5.225   1.589   1.898
 9973SOL    HW230224   5.287   1.704   1.821
 9974SOL     OW30225   8.089   0.147   2.636
 9974SOL    HW130226   8.037   0.196   2.699
 9974SOL    HW230227   8.179   0.155   2.667
 9975SOL     OW30228   1.639   2.666   4.756
 9975SOL    HW130229   1.591   2.638   4.678
 9975SOL    HW230230   1.571   2.682   4.821
 9976SOL     OW30231   4.537   7.681   1.162
 9976SOL    HW130232   4.629   7.696   1.139
 9976SOL    HW230233   4.540   7.613   1.230
 9977SOL     OW30234   2.266   6.891   4.928
 9977SOL    HW130235   2.319   6.821   4.890
 9977SOL    HW230236   2.216   6.848   4.998
 9978SOL     OW30237   5.882   6.336   2.416
 9978SOL    HW130238   5.872   6.291   2.332
 9978SOL    HW230239   5.818   6.407   2.412
 9979SOL     OW30240   5.718   4.797   0.353
 9979SOL    HW130241   5.765   4.865   0.402
 9979SOL    HW230242   5.787   4.741   0.318
 9980SOL     OW30243   1.137   0.080   0.671
 9980SOL    HW130244   1.084   0.141   0.721
 9980SOL    HW230245   1.088   8.227   0.673
 9981SOL     OW30246   1.232   1.956   5.203
 9981SOL    HW130247   1.189   2.031   5.244
 9981SOL    HW230248   1.163   1.915   5.151
 9982SOL     OW30249   5.094   6.836   5.278
 9982SOL    HW130250   5.085   6.903   5.346
 9982SOL    HW230251   5.100   6.754   5.326
 9983SOL     OW30252   2.520   0.055   0.418
 9983SOL    HW130253   2.499   0.124   0.481
 9983SOL    HW230254   2.467   0.076   0.341
 9984SOL     OW30255   0.709   5.993   5.190
 9984SOL    HW130256   0.661   5.944   5.124
 9984SOL    HW230257   0.776   6.041   5.141
 9985SOL     OW30258   0.163   7.631   2.230
 9985SOL    HW130259   0.205   7.649   2.146
 9985SOL    HW230260   0.083   7.583   2.207
 9986SOL     OW30261   5.422   0.677   2.191
 9986SOL    HW130262   5.415   0.751   2.251
 9986SOL    HW230263   5.485   0.618   2.233
 9987SOL     OW30264   3.874   1.255   3.334
 9987SOL    HW130265   3.970   1.253   3.332
 9987SOL    HW230266   3.852   1.345   3.357
 9988SOL     OW30267   0.196   2.185   3.272
 9988SOL    HW130268   0.152   2.202   3.189
 9988SOL    HW230269   0.152   2.242   3.335
 9989SOL     OW30270   4.529   2.236   0.575
 9989SOL    HW130271   4.463   2.178   0.614
 9989SOL    HW230272   4.507   2.238   0.482
 9990SOL     OW30273   1.199   3.946   2.703
 9990SOL    HW130274   1.141   3.882   2.662
 9990SOL    HW230275   1.283   3.901   2.711
 9991SOL     OW30276   0.487   6.828   3.370
 9991SOL    HW130277   0.471   6.758   3.433
 9991SOL    HW230278   0.403   6.840   3.325
 9992SOL     OW30279   2.136   2.043   1.681
 9992SOL    HW130280   2.194   1.968   1.668
 9992SOL    HW230281   2.190   2.119   1.660
 9993SOL     OW30282   6.853   5.411   5.461
 9993SOL    HW130283   6.843   5.506   5.469
 9993SOL    HW230284   6.937   5.400   5.416
 9994SOL     OW30285   2.484   1.228   5.435
 9994SOL    HW130286   2.415   1.282   5.474
 9994SOL    HW230287   2.440   1.146   5.413
 9995SOL     OW30288   5.975   3.235   2.999
 9995SOL    HW130289   6.069   3.254   2.999
 9995SOL    HW230290   5.946   3.260   2.911
 9996SOL     OW30291   5.094   6.906   0.583
 9996SOL    HW130292   5.070   6.822   0.543
 9996SOL    HW230293   5.061   6.901   0.673
 9997SOL     OW30294   7.114   3.947   0.542
 9997SOL    HW130295   7.125   4.025   0.488
 9997SOL    HW230296   7.039   3.902   0.503
 9998SOL     OW30297   0.032   2.033   4.338
 9998SOL    HW130298   8.193   1.973   4.368
 9998SOL    HW230299   0.078   2.059   4.418
 9999SOL     OW30300   7.165   8.186   2.993
 9999SOL    HW130301   7.141   8.119   2.929
 9999SOL    HW230302   7.233   0.008   2.949
10000SOL     OW30303   0.475   5.414   3.893
10000SOL    HW130304   0.421   5.463   3.954
10000SOL    HW230305   0.412   5.369   3.836
10001SOL     OW30306   4.620   1.366   1.554
10001SOL    HW130307   4.577   1.316   1.485
10001SOL    HW230308   4.669   1.300   1.604
10002SOL     OW30309   2.965   7.456   4.983
10002SOL    HW130310   2.935   7.542   4.953
10002SOL    HW230311   2.885   7.404   4.991
10003SOL     OW30312   3.923   3.275   0.172
10003SOL    HW130313   3.865   3.222   0.117
10003SOL    HW230314   3.927   3.360   0.128
10004SOL     OW30315   0.900   2.196   1.328
10004SOL    HW130316   0.986   2.214   1.366
10004SOL    HW230317   0.873   2.280   1.291
10005SOL     OW30318   6.772   6.099   2.069
10005SOL    HW130319   6.769   6.174   2.010
10005SOL    HW230320   6.689   6.054   2.053
10006SOL     OW30321   4.785   0.720   4.887
10006SOL    HW130322   4.694   0.698   4.866
10006SOL    HW230323   4.783   0.740   4.981
10007SOL     OW30324   2.998   5.896   0.892
10007SOL    HW130325   2.989   5.843   0.813
10007SOL    HW230326   2.943   5.973   0.876
10008SOL     OW30327   7.700   6.141   2.661
10008SOL    HW130328   7.777   6.178   2.618
10008SOL    HW230329   7.734   6.100   2.740
10009SOL     OW30330   1.450   1.322   5.442
10009SOL    HW130331   1.422   1.245   5.393
10009SOL    HW230332   1.531   1.349   5.399
10010SOL     OW30333   2.554   5.168   3.711
10010SOL    HW130334   2.626   5.229   3.695
10010SOL    HW230335   2.521   5.192   3.797
10011SOL     OW30336   2.552   5.959   3.836
10011SOL    HW130337   2.478   5.913   3.795
10011SOL    HW230338   2.595   5.892   3.889
10012SOL     OW30339   7.771   0.935   0.521
10012SOL    HW130340   7.728   0.993   0.457
10012SOL    HW230341   7.857   0.918   0.484
10013SOL     OW30342   6.012   3.433   5.038
10013SOL    HW130343   5.991   3.521   5.070
10013SOL    HW230344   6.098   3.443   4.997
10014SOL     OW30345   6.044   2.243   0.312
10014SOL    HW130346   6.025   2.302   0.385
10014SOL    HW230347   6.122   2.280   0.271
10015SOL     OW30348   4.572   4.279   3.351
10015SOL    HW130349   4.539   4.260   3.439
10015SOL    HW230350   4.544   4.205   3.298
10016SOL     OW30351   5.482   7.935   3.112
10016SOL    HW130352   5.477   7.864   3.176
10016SOL    HW230353   5.417   7.999   3.141
10017SOL     OW30354   2.763   4.988   4.581
10017SOL    HW130355   2.746   4.899   4.613
10017SOL    HW230356   2.811   4.975   4.499
10018SOL     OW30357   0.338   3.766   4.223
10018SOL    HW130358   0.333   3.843   4.166
10018SOL    HW230359   0.311   3.798   4.309
10019SOL     OW30360   7.544   7.376   1.628
10019SOL    HW130361   7.617   7.371   1.690
10019SOL    HW230362   7.466   7.363   1.681
10020SOL     OW30363   6.405   8.138   5.158
10020SOL    HW130364   6.443   8.123   5.072
10020SOL    HW230365   6.324   8.087   5.157
10021SOL     OW30366   7.734   6.475   2.422
10021SOL    HW130367   7.806   6.532   2.395
10021SOL    HW230368   7.672   6.479   2.349
10022SOL     OW30369   4.694   0.775   0.661
10022SOL    HW130370   4.647   0.798   0.581
10022SOL    HW230371   4.630   0.727   0.713
10023SOL     OW30372   5.270   6.576   3.256
10023SOL    HW130373   5.194   6.518   3.263
10023SOL    HW230374   5.237   6.653   3.210
10024SOL     OW30375   5.251   0.471   3.634
10024SOL    HW130376   5.343   0.444   3.627
10024SOL    HW230377   5.232   0.470   3.728
10025SOL     OW30378   3.056   2.052   3.222
10025SOL    HW130379   3.032   1.972   3.268
10025SOL    HW230380   3.150   2.043   3.206
10026SOL     OW30381   3.473   4.481   0.046
10026SOL    HW130382   7.539   0.424   5.806
10026SOL    HW230383   3.510   4.539   0.112
10027SOL     OW30384   2.456   5.060   3.469
10027SOL    HW130385   2.532   5.068   3.527
10027SOL    HW230386   2.406   5.140   3.483
10028SOL     OW30387   7.549   1.514   3.203
10028SOL    HW130388   7.613   1.563   3.254
10028SOL    HW230389   7.546   1.428   3.244
10029SOL     OW30390   7.711   6.689   0.242
10029SOL    HW130391   7.676   6.663   0.157
10029SOL    HW230392   7.634   6.697   0.299
10030SOL     OW30393   3.098   1.761   2.067
10030SOL    HW130394   3.003   1.747   2.065
10030SOL    HW230395   3.128   1.735   1.980
10031SOL     OW30396   1.135   6.128   1.554
10031SOL    HW130397   1.123   6.111   1.647
10031SOL    HW230398   1.086   6.209   1.538
10032SOL     OW30399   4.502   0.300   5.062
10032SOL    HW130400   4.417   0.341   5.050
10032SOL    HW230401   4.482   0.213   5.096
10033SOL     OW30402   2.460   6.925   0.431
10033SOL    HW130403   2.398   6.960   0.366
10033SOL    HW230404   2.475   6.835   0.404
10034SOL     OW30405   0.449   3.489   2.042
10034SOL    HW130406   0.471   3.396   2.042
10034SOL    HW230407   0.388   3.499   2.115
10035SOL     OW30408   5.180   3.906   0.297
10035SOL    HW130409   5.110   3.930   0.358
10035SOL    HW230410   5.254   3.881   0.353
10036SOL     OW30411   6.982   7.138   5.477
10036SOL    HW130412   7.024   7.056   5.450
10036SOL    HW230413   6.897   7.137   5.432
10037SOL     OW30414   6.484   3.967   3.158
10037SOL    HW130415   6.472   3.907   3.232
10037SOL    HW230416   6.460   3.916   3.081
10038SOL     OW30417   6.634   6.208   4.593
10038SOL    HW130418   6.722   6.246   4.594
10038SOL    HW230419   6.632   6.157   4.512
10039SOL     OW30420   6.283   5.078   0.551
10039SOL    HW130421   6.310   5.015   0.618
10039SOL    HW230422   6.200   5.044   0.518
10040SOL     OW30423   0.175   1.937   3.419
10040SOL    HW130424   0.099   1.987   3.450
10040SOL    HW230425   0.146   1.846   3.420
10041SOL     OW30426   4.677   1.352   4.257
10041SOL    HW130427   4.669   1.419   4.189
10041SOL    HW230428   4.767   1.321   4.250
10042SOL     OW30429   1.692   4.826   1.804
10042SOL    HW130430   1.606   4.798   1.836
10042SOL    HW230431   1.752   4.808   1.876
10043SOL     OW30432   5.384   5.373   5.272
10043SOL    HW130433   5.355   5.464   5.266
10043SOL    HW230434   5.310   5.327   5.312
10044SOL     OW30435   6.365   2.361   0.862
10044SOL    HW130436   6.422   2.323   0.929
10044SOL    HW230437   6.324   2.286   0.819
10045SOL     OW30438   5.952   1.201   2.193
10045SOL    HW130439   5.888   1.185   2.123
10045SOL    HW230440   5.899   1.222   2.270
10046SOL     OW30441   1.088   7.570   1.732
10046SOL    HW130442   1.063   7.525   1.813
10046SOL    HW230443   1.121   7.655   1.760
10047SOL     OW30444   0.645   5.357   5.025
10047SOL    HW130445   0.628   5.363   5.119
10047SOL    HW230446   0.718   5.296   5.018
10048SOL     OW30447   5.703   4.872   1.867
10048SOL    HW130448   5.768   4.941   1.855
10048SOL    HW230449   5.705   4.823   1.785
10049SOL     OW30450   6.478   0.502   4.192
10049SOL    HW130451   6.438   0.508   4.279
10049SOL    HW230452   6.534   0.425   4.197
10050SOL     OW30453   5.516   4.664   5.654
10050SOL    HW130454   5.525   4.743   5.707
10050SOL    HW230455   5.584   4.672   5.587
10051SOL     OW30456   0.570   8.197   0.726
10051SOL    HW130457   0.662   8.223   0.722
10051SOL    HW230458   0.524   0.037   0.678
10052SOL     OW30459   7.989   7.848   2.196
10052SOL    HW130460   8.030   7.834   2.281
10052SOL    HW230461   8.046   7.911   2.152
10053SOL     OW30462   4.487   2.591   4.798
10053SOL    HW130463   4.519   2.643   4.872
10053SOL    HW230464   4.446   2.515   4.839
10054SOL     OW30465   8.154   7.334   3.354
10054SOL    HW130466   8.220   7.403   3.345
10054SOL    HW230467   8.177   7.289   3.435
10055SOL     OW30468   1.572   5.844   1.883
10055SOL    HW130469   1.625   5.806   1.813
10055SOL    HW230470   1.586   5.786   1.958
10056SOL     OW30471   7.411   0.267   1.422
10056SOL    HW130472   7.330   0.247   1.470
10056SOL    HW230473   7.427   0.190   1.368
10057SOL     OW30474   4.291   4.669   0.443
10057SOL    HW130475   4.261   4.672   0.352
10057SOL    HW230476   4.212   4.647   0.493
10058SOL     OW30477   0.091   0.455   3.859
10058SOL    HW130478   0.119   0.433   3.948
10058SOL    HW230479   0.047   0.376   3.828
10059SOL     OW30480   0.999   0.646   2.776
10059SOL    HW130481   1.023   0.642   2.869
10059SOL    HW230482   1.047   0.722   2.742
10060SOL     OW30483   2.553   4.787   2.307
10060SOL    HW130484   2.511   4.864   2.345
10060SOL    HW230485   2.641   4.788   2.344
10061SOL     OW30486   4.175   4.035   3.210
10061SOL    HW130487   4.086   4.045   3.244
10061SOL    HW230488   4.185   4.106   3.147
10062SOL     OW30489   0.652   0.085   2.291
10062SOL    HW130490   0.658   0.140   2.370
10062SOL    HW230491   0.731   0.107   2.241
10063SOL     OW30492   4.358   8.053   0.794
10063SOL    HW130493   4.414   7.994   0.743
10063SOL    HW230494   4.396   8.140   0.779
10064SOL     OW30495   3.653   3.587   3.553
10064SOL    HW130496   3.733   3.622   3.513
10064SOL    HW230497   3.684   3.544   3.633
10065SOL     OW30498   0.426   5.996   4.702
10065SOL    HW130499   0.389   5.914   4.671
10065SOL    HW230500   0.353   6.058   4.701
10066SOL     OW30501   4.645   0.795   2.030
10066SOL    HW130502   4.708   0.866   2.041
10066SOL    HW230503   4.589   0.823   1.958
10067SOL     OW30504   3.723   6.831   2.770
10067SOL    HW130505   3.640   6.853   2.812
10067SOL    HW230506   3.761   6.763   2.826
10068SOL     OW30507   0.316   3.436   1.483
10068SOL    HW130508   0.359   3.522   1.483
10068SOL    HW230509   0.329   3.402   1.394
10069SOL     OW30510   4.086   5.945   4.449
10069SOL    HW130511   4.049   5.858   4.463
10069SOL    HW230512   4.168   5.944   4.498
10070SOL     OW30513   6.871   4.571   4.856
10070SOL    HW130514   6.829   4.603   4.936
10070SOL    HW230515   6.919   4.493   4.883
10071SOL     OW30516   5.474   3.898   2.979
10071SOL    HW130517   5.539   3.923   3.045
10071SOL    HW230518   5.521   3.904   2.896
10072SOL     OW30519   2.183   4.839   2.366
10072SOL    HW130520   2.259   4.891   2.393
10072SOL    HW230521   2.204   4.750   2.392
10073SOL     OW30522   3.354   3.590   4.696
10073SOL    HW130523   3.430   3.615   4.748
10073SOL    HW230524   3.379   3.507   4.656
10074SOL     OW30525   1.504   1.383   2.374
10074SOL    HW130526   1.587   1.388   2.327
10074SOL    HW230527   1.528   1.374   2.466
10075SOL     OW30528   7.890   4.725   2.011
10075SOL    HW130529   7.970   4.722   2.064
10075SOL    HW230530   7.886   4.639   1.969
10076SOL     OW30531   3.858   7.553   4.807
10076SOL    HW130532   3.796   7.515   4.869
10076SOL    HW230533   3.885   7.636   4.847
10077SOL     OW30534   0.375   6.318   5.380
10077SOL    HW130535   0.325   6.398   5.395
10077SOL    HW230536   0.464   6.348   5.360
10078SOL     OW30537   2.060   3.515   0.575
10078SOL    HW130538   2.128   3.529   0.509
10078SOL    HW230539   2.073   3.425   0.604
10079SOL     OW30540   8.222   0.891   0.894
10079SOL    HW130541   0.017   0.910   0.984
10079SOL    HW230542   0.061   0.933   0.841
10080SOL     OW30543   4.277   5.283   0.270
10080SOL    HW130544   4.345   5.302   0.205
10080SOL    HW230545   4.319   5.223   0.331
10081SOL     OW30546   5.598   1.972   3.505
10081SOL    HW130547   5.511   2.012   3.505
10081SOL    HW230548   5.606   1.930   3.591
10082SOL     OW30549   0.932   4.440   5.131
10082SOL    HW130550   0.837   4.434   5.117
10082SOL    HW230551   0.960   4.510   5.073
10083SOL     OW30552   8.128   1.184   5.604
10083SOL    HW130553   8.043   1.149   5.578
10083SOL    HW230554   8.117   1.279   5.599
10084SOL     OW30555   2.680   6.286   2.913
10084SOL    HW130556   2.635   6.311   2.994
10084SOL    HW230557   2.747   6.353   2.902
10085SOL     OW30558   2.716   1.774   0.766
10085SOL    HW130559   2.770   1.775   0.845
10085SOL    HW230560   2.779   1.771   0.694
10086SOL     OW30561   6.684   7.489   0.354
10086SOL    HW130562   6.690   7.420   0.288
10086SOL    HW230563   6.622   7.455   0.419
10087SOL     OW30564   2.502   0.034   0.831
10087SOL    HW130565   2.419   8.228   0.863
10087SOL    HW230566   2.529   8.202   0.763
10088SOL     OW30567   5.456   5.568   3.764
10088SOL    HW130568   5.363   5.552   3.778
10088SOL    HW230569   5.496   5.481   3.767
10089SOL     OW30570   2.469   7.739   1.208
10089SOL    HW130571   2.444   7.795   1.135
10089SOL    HW230572   2.529   7.793   1.260
10090SOL     OW30573   4.415   5.906   4.860
10090SOL    HW130574   4.416   5.965   4.935
10090SOL    HW230575   4.439   5.821   4.896
10091SOL     OW30576   6.168   2.810   0.469
10091SOL    HW130577   6.129   2.790   0.554
10091SOL    HW230578   6.118   2.886   0.438
10092SOL     OW30579   1.253   0.836   5.597
10092SOL    HW130580   1.182   0.780   5.564
10092SOL    HW230581   1.331   0.805   5.551
10093SOL     OW30582   4.496   7.837   0.672
10093SOL    HW130583   4.567   7.801   0.725
10093SOL    HW230584   4.540   7.881   0.599
10094SOL     OW30585   1.584   1.781   4.545
10094SOL    HW130586   1.565   1.703   4.494
10094SOL    HW230587   1.524   1.848   4.511
10095SOL     OW30588   4.320   2.268   1.283
10095SOL    HW130589   4.302   2.350   1.328
10095SOL    HW230590   4.250   2.260   1.218
10096SOL     OW30591   2.928   0.649   5.114
10096SOL    HW130592   2.857   0.674   5.173
10096SOL    HW230593   2.957   0.731   5.075
10097SOL     OW30594   3.513   0.158   2.950
10097SOL    HW130595   3.532   0.202   2.867
10097SOL    HW230596   3.533   0.224   3.017
10098SOL     OW30597   2.665   2.888   3.423
10098SOL    HW130598   2.673   2.852   3.335
10098SOL    HW230599   2.618   2.971   3.411
10099SOL     OW30600   7.757   0.396   4.509
10099SOL    HW130601   7.777   0.388   4.416
10099SOL    HW230602   7.756   0.490   4.525
10100SOL     OW30603   5.742   0.332   3.793
10100SOL    HW130604   5.782   0.246   3.805
10100SOL    HW230605   5.815   0.394   3.801
10101SOL     OW30606   8.118   1.849   4.581
10101SOL    HW130607   8.077   1.802   4.654
10101SOL    HW230608   8.044   1.878   4.527
10102SOL     OW30609   7.970   6.535   0.201
10102SOL    HW130610   8.066   6.542   0.201
10102SOL    HW230611   7.940   6.621   0.231
10103SOL     OW30612   0.413   2.357   4.243
10103SOL    HW130613   0.345   2.360   4.310
10103SOL    HW230614   0.377   2.300   4.175
10104SOL     OW30615   7.077   2.344   4.571
10104SOL    HW130616   7.073   2.274   4.506
10104SOL    HW230617   7.094   2.299   4.654
10105SOL     OW30618   0.674   0.255   3.286
10105SOL    HW130619   0.656   0.276   3.378
10105SOL    HW230620   0.768   0.237   3.283
10106SOL     OW30621   7.507   5.752   2.982
10106SOL    HW130622   7.437   5.777   3.043
10106SOL    HW230623   7.565   5.828   2.979
10107SOL     OW30624   3.130   6.272   0.485
10107SOL    HW130625   3.194   6.202   0.473
10107SOL    HW230626   3.115   6.306   0.397
10108SOL     OW30627   3.764   7.721   0.631
10108SOL    HW130628   3.683   7.671   0.625
10108SOL    HW230629   3.736   7.812   0.626
10109SOL     OW30630   1.043   7.727   3.895
10109SOL    HW130631   1.125   7.731   3.944
10109SOL    HW230632   0.976   7.747   3.960
10110SOL     OW30633   3.412   4.789   5.733
10110SOL    HW130634   3.346   4.732   5.694
10110SOL    HW230635   3.462   4.822   5.658
10111SOL     OW30636   0.955   0.776   1.708
10111SOL    HW130637   0.923   0.790   1.619
10111SOL    HW230638   0.925   0.853   1.757
10112SOL     OW30639   6.911   4.757   4.081
10112SOL    HW130640   6.851   4.682   4.083
10112SOL    HW230641   6.859   4.829   4.046
10113SOL     OW30642   1.267   2.986   3.040
10113SOL    HW130643   1.252   2.977   2.946
10113SOL    HW230644   1.181   2.971   3.080
10114SOL     OW30645   2.390   6.817   0.024
10114SOL    HW130646   2.316   6.877   0.017
10114SOL    HW230647   6.580   2.755   5.816
10115SOL     OW30648   3.543   0.732   5.244
10115SOL    HW130649   3.616   0.789   5.222
10115SOL    HW230650   3.516   0.759   5.332
10116SOL     OW30651   6.020   3.643   1.250
10116SOL    HW130652   6.005   3.596   1.332
10116SOL    HW230653   5.936   3.639   1.204
10117SOL     OW30654   1.493   0.992   4.795
10117SOL    HW130655   1.456   1.078   4.815
10117SOL    HW230656   1.574   1.012   4.747
10118SOL     OW30657   4.856   1.015   1.968
10118SOL    HW130658   4.772   1.058   1.953
10118SOL    HW230659   4.872   0.964   1.889
10119SOL     OW30660   1.371   0.137   1.948
10119SOL    HW130661   1.289   0.149   1.996
10119SOL    HW230662   1.346   0.091   1.868
10120SOL     OW30663   6.713   0.349   3.625
10120SOL    HW130664   6.679   0.367   3.712
10120SOL    HW230665   6.657   0.399   3.566
10121SOL     OW30666   5.803   6.126   1.456
10121SOL    HW130667   5.717   6.152   1.423
10121SOL    HW230668   5.857   6.205   1.448
10122SOL     OW30669   2.084   7.262   4.043
10122SOL    HW130670   1.990   7.258   4.062
10122SOL    HW230671   2.117   7.175   4.066
10123SOL     OW30672   1.819   0.069   2.941
10123SOL    HW130673   1.799   8.205   2.939
10123SOL    HW230674   1.911   0.073   2.966
10124SOL     OW30675   2.637   7.341   5.780
10124SOL    HW130676   6.754   3.265   0.049
10124SOL    HW230677   2.618   7.248   5.795
10125SOL     OW30678   3.347   2.925   2.962
10125SOL    HW130679   3.409   2.884   2.902
10125SOL    HW230680   3.328   3.010   2.922
10126SOL     OW30681   7.183   3.894   3.855
10126SOL    HW130682   7.207   3.980   3.819
10126SOL    HW230683   7.095   3.906   3.890
10127SOL     OW30684   2.172   5.699   3.009
10127SOL    HW130685   2.115   5.685   3.085
10127SOL    HW230686   2.245   5.638   3.022
10128SOL     OW30687   6.013   0.317   1.432
10128SOL    HW130688   5.995   0.314   1.338
10128SOL    HW230689   5.960   0.390   1.464
10129SOL     OW30690   3.556   1.953   0.263
10129SOL    HW130691   3.533   1.881   0.204
10129SOL    HW230692   3.560   2.030   0.207
10130SOL     OW30693   7.644   7.204   5.766
10130SOL    HW130694   7.681   7.150   5.696
10130SOL    HW230695   7.579   7.259   5.723
10131SOL     OW30696   6.937   6.796   2.095
10131SOL    HW130697   6.943   6.864   2.028
10131SOL    HW230698   6.913   6.843   2.175
10132SOL     OW30699   2.842   7.944   1.269
10132SOL    HW130700   2.890   7.862   1.279
10132SOL    HW230701   2.908   8.012   1.283
10133SOL     OW30702   6.098   0.601   3.214
10133SOL    HW130703   6.116   0.685   3.173
10133SOL    HW230704   6.173   0.546   3.190
10134SOL     OW30705   3.761   2.926   1.115
10134SOL    HW130706   3.856   2.914   1.122
10134SOL    HW230707   3.725   2.838   1.129
10135SOL     OW30708   0.289   1.256   0.315
10135SOL    HW130709   0.278   1.163   0.334
10135SOL    HW230710   0.375   1.261   0.274
10136SOL     OW30711   4.031   7.292   3.816
10136SOL    HW130712   4.114   7.311   3.860
10136SOL    HW230713   4.038   7.200   3.792
10137SOL     OW30714   0.427   0.590   5.540
10137SOL    HW130715   0.504   0.575   5.595
10137SOL    HW230716   0.384   0.666   5.579
10138SOL     OW30717   1.314   2.545   0.400
10138SOL    HW130718   1.267   2.615   0.446
10138SOL    HW230719   1.347   2.587   0.320
10139SOL     OW30720   1.798   2.227   3.974
10139SOL    HW130721   1.852   2.212   4.052
10139SOL    HW230722   1.840   2.175   3.905
10140SOL     OW30723   2.794   7.296   3.088
10140SOL    HW130724   2.718   7.312   3.032
10140SOL    HW230725   2.784   7.359   3.160
10141SOL     OW30726   5.626   0.682   0.735
10141SOL    HW130727   5.541   0.663   0.775
10141SOL    HW230728   5.629   0.777   0.729
10142SOL     OW30729   0.960   0.467   2.218
10142SOL    HW130730   0.994   0.504   2.299
10142SOL    HW230731   0.959   0.541   2.157
10143SOL     OW30732   6.481   5.949   5.458
10143SOL    HW130733   6.569   5.912   5.458
10143SOL    HW230734   6.477   6.003   5.537
10144SOL     OW30735   6.653   5.551   3.356
10144SOL    HW130736   6.591   5.620   3.382
10144SOL    HW230737   6.604   5.470   3.367
10145SOL     OW30738   1.237   5.990   5.615
10145SOL    HW130739   1.150   6.010   5.650
10145SOL    HW230740   1.284   5.949   5.688
10146SOL     OW30741   2.393   2.669   5.041
10146SOL    HW130742   2.310   2.717   5.036
10146SOL    HW230743   2.367   2.577   5.050
10147SOL     OW30744   5.093   2.272   1.475
10147SOL    HW130745   5.082   2.189   1.430
10147SOL    HW230746   5.008   2.315   1.468
10148SOL     OW30747   1.967   6.101   3.377
10148SOL    HW130748   1.966   6.154   3.457
10148SOL    HW230749   1.986   6.164   3.307
10149SOL     OW30750   1.991   6.666   1.178
10149SOL    HW130751   1.978   6.626   1.264
10149SOL    HW230752   1.950   6.605   1.117
10150SOL     OW30753   4.548   7.807   5.249
10150SOL    HW130754   4.541   7.880   5.311
10150SOL    HW230755   4.619   7.832   5.190
10151SOL     OW30756   2.714   1.176   5.305
10151SOL    HW130757   2.690   1.182   5.213
10151SOL    HW230758   2.631   1.180   5.352
10152SOL     OW30759   6.533   0.482   3.456
10152SOL    HW130760   6.542   0.519   3.368
10152SOL    HW230761   6.550   0.556   3.515
10153SOL     OW30762   4.101   6.555   4.300
10153SOL    HW130763   4.164   6.488   4.274
10153SOL    HW230764   4.096   6.548   4.395
10154SOL     OW30765   6.573   1.320   0.502
10154SOL    HW130766   6.619   1.394   0.463
10154SOL    HW230767   6.629   1.245   0.483
10155SOL     OW30768   4.807   6.105   1.392
10155SOL    HW130769   4.830   6.078   1.481
10155SOL    HW230770   4.732   6.050   1.369
10156SOL     OW30771   5.061   5.308   1.893
10156SOL    HW130772   5.072   5.341   1.982
10156SOL    HW230773   5.096   5.219   1.896
10157SOL     OW30774   0.548   1.560   1.166
10157SOL    HW130775   0.638   1.564   1.135
10157SOL    HW230776   0.507   1.492   1.112
10158SOL     OW30777   0.584   5.599   0.579
10158SOL    HW130778   0.679   5.591   0.587
10158SOL    HW230779   0.560   5.667   0.641
10159SOL     OW30780   3.378   7.813   2.493
10159SOL    HW130781   3.457   7.792   2.543
10159SOL    HW230782   3.314   7.747   2.521
10160SOL     OW30783   5.856   6.985   5.286
10160SOL    HW130784   5.780   7.040   5.303
10160SOL    HW230785   5.892   7.018   5.204
10161SOL     OW30786   2.796   6.374   1.081
10161SOL    HW130787   2.702   6.392   1.081
10161SOL    HW230788   2.835   6.446   1.032
10162SOL     OW30789   4.846   4.081   1.963
10162SOL    HW130790   4.882   4.024   1.895
10162SOL    HW230791   4.760   4.044   1.982
10163SOL     OW30792   7.135   0.259   4.688
10163SOL    HW130793   7.204   0.292   4.631
10163SOL    HW230794   7.121   0.169   4.659
10164SOL     OW30795   1.572   0.087   0.888
10164SOL    HW130796   1.603   0.011   0.839
10164SOL    HW230797   1.630   0.158   0.861
10165SOL     OW30798   3.296   5.531   5.502
10165SOL    HW130799   3.369   5.561   5.557
10165SOL    HW230800   3.262   5.454   5.547
10166SOL     OW30801   7.563   2.840   4.366
10166SOL    HW130802   7.517   2.862   4.285
10166SOL    HW230803   7.494   2.819   4.429
10167SOL     OW30804   2.464   4.639   2.667
10167SOL    HW130805   2.422   4.619   2.750
10167SOL    HW230806   2.558   4.637   2.687
10168SOL     OW30807   4.387   3.352   0.490
10168SOL    HW130808   4.422   3.391   0.570
10168SOL    HW230809   4.297   3.383   0.485
10169SOL     OW30810   0.820   5.636   0.224
10169SOL    HW130811   0.834   5.667   0.314
10169SOL    HW230812   0.868   5.553   0.220
10170SOL     OW30813   6.384   7.083   4.838
10170SOL    HW130814   6.336   7.001   4.851
10170SOL    HW230815   6.316   7.149   4.823
10171SOL     OW30816   4.826   1.287   0.973
10171SOL    HW130817   4.903   1.299   0.917
10171SOL    HW230818   4.793   1.200   0.949
10172SOL     OW30819   2.140   6.055   4.654
10172SOL    HW130820   2.231   6.080   4.667
10172SOL    HW230821   2.138   5.961   4.673
10173SOL     OW30822   1.334   1.145   2.916
10173SOL    HW130823   1.288   1.158   2.999
10173SOL    HW230824   1.287   1.200   2.853
10174SOL     OW30825   0.825   2.666   5.412
10174SOL    HW130826   0.814   2.625   5.498
10174SOL    HW230827   0.904   2.720   5.420
10175SOL     OW30828   4.727   5.833   4.870
10175SOL    HW130829   4.802   5.879   4.833
10175SOL    HW230830   4.688   5.895   4.931
10176SOL     OW30831   5.877   6.561   3.783
10176SOL    HW130832   5.968   6.562   3.813
10176SOL    HW230833   5.881   6.587   3.691
10177SOL     OW30834   0.859   1.331   3.034
10177SOL    HW130835   0.807   1.264   3.078
10177SOL    HW230836   0.944   1.328   3.077
10178SOL     OW30837   8.130   4.553   3.534
10178SOL    HW130838   8.168   4.504   3.608
10178SOL    HW230839   8.073   4.618   3.575
10179SOL     OW30840   1.046   1.440   4.138
10179SOL    HW130841   1.056   1.534   4.126
10179SOL    HW230842   1.028   1.429   4.231
10180SOL     OW30843   0.085   3.151   5.521
10180SOL    HW130844   0.163   3.202   5.497
10180SOL    HW230845   0.105   3.062   5.494
10181SOL     OW30846   7.367   7.970   5.677
10181SOL    HW130847   7.293   8.002   5.728
10181SOL    HW230848   7.409   8.049   5.643
10182SOL     OW30849   2.533   1.536   0.499
10182SOL    HW130850   2.608   1.593   0.513
10182SOL    HW230851   2.465   1.571   0.556
10183SOL     OW30852   3.134   4.000   5.592
10183SOL    HW130853   3.044   3.967   5.585
10183SOL    HW230854   3.165   4.004   5.502
10184SOL     OW30855   2.569   0.787   1.931
10184SOL    HW130856   2.502   0.735   1.976
10184SOL    HW230857   2.564   0.757   1.840
10185SOL     OW30858   6.052   3.379   0.399
10185SOL    HW130859   6.100   3.417   0.325
10185SOL    HW230860   6.058   3.445   0.468
10186SOL     OW30861   0.558   6.604   2.681
10186SOL    HW130862   0.553   6.554   2.599
10186SOL    HW230863   0.493   6.674   2.670
10187SOL     OW30864   2.153   0.985   4.738
10187SOL    HW130865   2.084   1.011   4.677
10187SOL    HW230866   2.133   0.894   4.758
10188SOL     OW30867   4.219   8.229   5.574
10188SOL    HW130868   4.309   0.033   5.576
10188SOL    HW230869   4.167   0.068   5.616
10189SOL     OW30870   2.101   0.206   4.315
10189SOL    HW130871   2.164   0.144   4.278
10189SOL    HW230872   2.021   0.193   4.265
10190SOL     OW30873   0.376   7.003   0.578
10190SOL    HW130874   0.384   7.012   0.483
10190SOL    HW230875   0.282   7.004   0.595
10191SOL     OW30876   7.419   4.969   1.494
10191SOL    HW130877   7.381   4.929   1.416
10191SOL    HW230878   7.467   4.898   1.537
10192SOL     OW30879   5.146   5.628   4.846
10192SOL    HW130880   5.194   5.709   4.863
10192SOL    HW230881   5.147   5.619   4.751
10193SOL     OW30882   1.877   3.223   0.652
10193SOL    HW130883   1.967   3.245   0.676
10193SOL    HW230884   1.824   3.293   0.690
10194SOL     OW30885   7.484   5.299   2.166
10194SOL    HW130886   7.475   5.205   2.180
10194SOL    HW230887   7.411   5.322   2.109
10195SOL     OW30888   0.231   7.585   4.061
10195SOL    HW130889   0.259   7.674   4.083
10195SOL    HW230890   0.223   7.541   4.146
10196SOL     OW30891   0.350   2.880   2.768
10196SOL    HW130892   0.425   2.902   2.824
10196SOL    HW230893   0.342   2.785   2.775
10197SOL     OW30894   7.447   5.835   1.468
10197SOL    HW130895   7.518   5.774   1.489
10197SOL    HW230896   7.367   5.782   1.471
10198SOL     OW30897   1.503   5.064   1.406
10198SOL    HW130898   1.482   4.978   1.442
10198SOL    HW230899   1.598   5.072   1.415
10199SOL     OW30900   6.762   0.707   1.115
10199SOL    HW130901   6.794   0.797   1.114
10199SOL    HW230902   6.841   0.654   1.113
10200SOL     OW30903   2.994   1.393   0.537
10200SOL    HW130904   2.959   1.353   0.617
10200SOL    HW230905   3.086   1.410   0.557
10201SOL     OW30906   8.016   4.368   2.713
10201SOL    HW130907   8.105   4.360   2.747
10201SOL    HW230908   8.014   4.454   2.671
10202SOL     OW30909   1.621   1.145   1.562
10202SOL    HW130910   1.696   1.088   1.546
10202SOL    HW230911   1.547   1.098   1.524
10203SOL     OW30912   4.199   1.330   0.599
10203SOL    HW130913   4.161   1.386   0.667
10203SOL    HW230914   4.170   1.242   0.623
10204SOL     OW30915   0.432   2.402   2.354
10204SOL    HW130916   0.352   2.374   2.310
10204SOL    HW230917   0.487   2.437   2.284
10205SOL     OW30918   6.126   6.564   3.264
10205SOL    HW130919   6.033   6.566   3.285
10205SOL    HW230920   6.152   6.473   3.277
10206SOL     OW30921   1.767   3.278   2.000
10206SOL    HW130922   1.847   3.241   2.038
10206SOL    HW230923   1.795   3.313   1.916
10207SOL     OW30924   0.106   4.893   4.154
10207SOL    HW130925   0.157   4.825   4.198
10207SOL    HW230926   0.087   4.957   4.223
10208SOL     OW30927   1.092   0.564   0.571
10208SOL    HW130928   1.173   0.525   0.540
10208SOL    HW230929   1.113   0.657   0.581
10209SOL     OW30930   6.458   6.460   3.233
10209SOL    HW130931   6.397   6.391   3.207
10209SOL    HW230932   6.511   6.420   3.302
10210SOL     OW30933   3.334   7.711   2.158
10210SOL    HW130934   3.391   7.682   2.087
10210SOL    HW230935   3.359   7.658   2.233
10211SOL     OW30936   1.488   2.805   3.021
10211SOL    HW130937   1.404   2.841   3.048
10211SOL    HW230938   1.529   2.777   3.103
10212SOL     OW30939   3.405   0.020   5.626
10212SOL    HW130940   3.339   8.191   5.663
10212SOL    HW230941   3.436   8.205   5.547
10213SOL     OW30942   4.129   7.560   2.648
10213SOL    HW130943   4.195   7.604   2.701
10213SOL    HW230944   4.047   7.575   2.694
10214SOL     OW30945   6.302   7.893   1.597
10214SOL    HW130946   6.307   7.972   1.544
10214SOL    HW230947   6.391   7.880   1.629
10215SOL     OW30948   2.971   1.450   1.368
10215SOL    HW130949   2.951   1.357   1.375
10215SOL    HW230950   2.915   1.482   1.297
10216SOL     OW30951   5.315   1.263   3.348
10216SOL    HW130952   5.220   1.272   3.345
10216SOL    HW230953   5.348   1.350   3.325
10217SOL     OW30954   5.449   3.207   0.273
10217SOL    HW130955   5.444   3.296   0.238
10217SOL    HW230956   5.419   3.151   0.201
10218SOL     OW30957   2.890   5.873   4.691
10218SOL    HW130958   2.829   5.799   4.691
10218SOL    HW230959   2.954   5.851   4.759
10219SOL     OW30960   5.724   2.747   1.355
10219SOL    HW130961   5.785   2.673   1.364
10219SOL    HW230962   5.738   2.779   1.266
10220SOL     OW30963   2.599   3.403   2.026
10220SOL    HW130964   2.608   3.498   2.017
10220SOL    HW230965   2.542   3.391   2.102
10221SOL     OW30966   7.754   7.744   5.137
10221SOL    HW130967   7.770   7.780   5.224
10221SOL    HW230968   7.730   7.820   5.084
10222SOL     OW30969   0.585   6.282   2.796
10222SOL    HW130970   0.534   6.346   2.845
10222SOL    HW230971   0.646   6.334   2.744
10223SOL     OW30972   0.474   4.643   0.064
10223SOL    HW130973   0.561   4.660   0.099
10223SOL    HW230974   4.605   0.494   5.795
10224SOL     OW30975   0.683   4.876   3.050
10224SOL    HW130976   0.760   4.877   2.994
10224SOL    HW230977   0.639   4.793   3.029
10225SOL     OW30978   2.445   4.090   1.011
10225SOL    HW130979   2.362   4.060   1.047
10225SOL    HW230980   2.472   4.161   1.069
10226SOL     OW30981   3.578   5.371   3.362
10226SOL    HW130982   3.487   5.374   3.333
10226SOL    HW230983   3.629   5.363   3.281
10227SOL     OW30984   0.843   3.293   3.526
10227SOL    HW130985   0.934   3.273   3.549
10227SOL    HW230986   0.791   3.228   3.573
10228SOL     OW30987   4.300   4.564   3.328
10228SOL    HW130988   4.298   4.543   3.235
10228SOL    HW230989   4.393   4.573   3.349
10229SOL     OW30990   1.997   1.569   5.533
10229SOL    HW130991   2.029   1.651   5.571
10229SOL    HW230992   1.931   1.596   5.469
10230SOL     OW30993   5.131   7.950   0.424
10230SOL    HW130994   5.122   7.920   0.333
10230SOL    HW230995   5.120   8.045   0.419
10231SOL     OW30996   2.650   1.374   2.675
10231SOL    HW130997   2.644   1.379   2.580
10231SOL    HW230998   2.718   1.438   2.698
10232SOL     OW30999   6.635   7.185   0.262
10232SOL    HW131000   6.660   7.133   0.186
10232SOL    HW231001   6.715   7.191   0.315
10233SOL     OW31002   1.236   7.194   3.101
10233SOL    HW131003   1.196   7.278   3.125
10233SOL    HW231004   1.167   7.147   3.054
10234SOL     OW31005   7.315   2.394   0.595
10234SOL    HW131006   7.221   2.381   0.584
10234SOL    HW231007   7.324   2.424   0.686
10235SOL     OW31008   6.192   5.167   3.719
10235SOL    HW131009   6.187   5.087   3.667
10235SOL    HW231010   6.280   5.166   3.756
10236SOL     OW31011   3.124   0.995   2.124
10236SOL    HW131012   3.060   1.057   2.089
10236SOL    HW231013   3.072   0.918   2.146
10237SOL     OW31014   7.742   5.950   5.369
10237SOL    HW131015   7.767   5.986   5.284
10237SOL    HW231016   7.706   6.025   5.417
10238SOL     OW31017   6.228   4.256   1.739
10238SOL    HW131018   6.313   4.237   1.698
10238SOL    HW231019   6.241   4.236   1.832
10239SOL     OW31020   1.539   1.346   2.648
10239SOL    HW131021   1.548   1.441   2.654
10239SOL    HW231022   1.450   1.329   2.679
10240SOL     OW31023   1.521   6.607   3.627
10240SOL    HW131024   1.530   6.697   3.657
10240SOL    HW231025   1.579   6.556   3.684
10241SOL     OW31026   8.157   7.973   1.126
10241SOL    HW131027   8.118   7.895   1.165
10241SOL    HW231028   0.022   7.961   1.135
10242SOL     OW31029   4.750   4.821   2.464
10242SOL    HW131030   4.727   4.833   2.372
10242SOL    HW231031   4.845   4.811   2.463
10243SOL     OW31032   7.035   2.466   0.123
10243SOL    HW131033   7.107   2.410   0.094
10243SOL    HW231034   7.077   2.548   0.148
10244SOL     OW31035   2.780   3.034   0.511
10244SOL    HW131036   2.846   2.967   0.495
10244SOL    HW231037   2.769   3.077   0.426
10245SOL     OW31038   3.215   1.301   2.650
10245SOL    HW131039   3.183   1.212   2.667
10245SOL    HW231040   3.189   1.318   2.559
10246SOL     OW31041   5.572   6.335   2.145
10246SOL    HW131042   5.664   6.351   2.124
10246SOL    HW231043   5.525   6.352   2.063
10247SOL     OW31044   3.243   7.187   2.049
10247SOL    HW131045   3.182   7.120   2.080
10247SOL    HW231046   3.304   7.140   1.993
10248SOL     OW31047   5.742   7.781   4.981
10248SOL    HW131048   5.657   7.819   4.958
10248SOL    HW231049   5.804   7.819   4.918
10249SOL     OW31050   5.554   5.199   2.294
10249SOL    HW131051   5.528   5.197   2.386
10249SOL    HW231052   5.646   5.174   2.295
10250SOL     OW31053   7.207   6.370   4.622
10250SOL    HW131054   7.193   6.370   4.527
10250SOL    HW231055   7.278   6.433   4.636
10251SOL     OW31056   2.304   0.048   5.800
10251SOL    HW131057   6.471   4.185   0.058
10251SOL    HW231058   6.330   4.153   0.015
10252SOL     OW31059   3.292   5.457   1.720
10252SOL    HW131060   3.243   5.450   1.638
10252SOL    HW231061   3.356   5.386   1.716
10253SOL     OW31062   2.608   4.014   1.812
10253SOL    HW131063   2.520   4.001   1.847
10253SOL    HW231064   2.617   3.947   1.744
10254SOL     OW31065   6.995   6.720   5.683
10254SOL    HW131066   6.948   6.792   5.642
10254SOL    HW231067   7.048   6.682   5.613
10255SOL     OW31068   6.373   1.759   4.642
10255SOL    HW131069   6.380   1.804   4.558
10255SOL    HW231070   6.425   1.680   4.631
10256SOL     OW31071   0.888   3.889   0.030
10256SOL    HW131072   0.853   3.930   0.109
10256SOL    HW231073   0.972   3.852   0.058
10257SOL     OW31074   4.318   3.304   5.400
10257SOL    HW131075   4.339   3.301   5.307
10257SOL    HW231076   4.226   3.277   5.405
10258SOL     OW31077   4.307   6.690   3.773
10258SOL    HW131078   4.247   6.615   3.771
10258SOL    HW231079   4.312   6.714   3.866
10259SOL     OW31080   5.078   6.090   3.303
10259SOL    HW131081   5.153   6.145   3.283
10259SOL    HW231082   5.090   6.012   3.249
10260SOL     OW31083   2.681   0.871   0.379
10260SOL    HW131084   2.704   0.850   0.289
10260SOL    HW231085   2.695   0.965   0.387
10261SOL     OW31086   6.734   2.202   2.007
10261SOL    HW131087   6.774   2.275   2.055
10261SOL    HW231088   6.657   2.240   1.965
10262SOL     OW31089   2.750   5.255   4.957
10262SOL    HW131090   2.775   5.345   4.977
10262SOL    HW231091   2.744   5.212   5.042
10263SOL     OW31092   7.983   5.537   2.373
10263SOL    HW131093   8.066   5.496   2.349
10263SOL    HW231094   7.917   5.471   2.352
10264SOL     OW31095   3.721   5.097   1.635
10264SOL    HW131096   3.774   5.170   1.667
10264SOL    HW231097   3.690   5.125   1.549
10265SOL     OW31098   1.958   2.788   0.706
10265SOL    HW131099   1.927   2.809   0.618
10265SOL    HW231100   1.925   2.860   0.760
10266SOL     OW31101   2.137   3.276   0.697
10266SOL    HW131102   2.150   3.259   0.790
10266SOL    HW231103   2.186   3.207   0.652
10267SOL     OW31104   5.062   0.680   3.161
10267SOL    HW131105   5.052   0.633   3.078
10267SOL    HW231106   4.988   0.741   3.164
10268SOL     OW31107   4.493   0.617   0.780
10268SOL    HW131108   4.548   0.547   0.743
10268SOL    HW231109   4.421   0.626   0.718
10269SOL     OW31110   1.718   7.620   2.903
10269SOL    HW131111   1.784   7.681   2.871
10269SOL    HW231112   1.769   7.546   2.937
10270SOL     OW31113   8.069   5.676   5.681
10270SOL    HW131114   8.128   5.735   5.634
10270SOL    HW231115   7.981   5.705   5.655
10271SOL     OW31116   7.667   4.590   2.986
10271SOL    HW131117   7.665   4.527   2.914
10271SOL    HW231118   7.611   4.551   3.053
10272SOL     OW31119   5.209   1.595   3.247
10272SOL    HW131120   5.164   1.679   3.237
10272SOL    HW231121   5.145   1.530   3.219
10273SOL     OW31122   0.838   0.824   4.965
10273SOL    HW131123   0.910   0.818   5.028
10273SOL    HW231124   0.868   0.888   4.900
10274SOL     OW31125   0.752   3.643   0.021
10274SOL    HW131126   4.857   7.753   5.745
10274SOL    HW231127   0.788   3.730   0.037
10275SOL     OW31128   0.933   1.676   3.475
10275SOL    HW131129   0.950   1.660   3.382
10275SOL    HW231130   0.994   1.619   3.521
10276SOL     OW31131   0.295   0.688   1.671
10276SOL    HW131132   0.370   0.628   1.669
10276SOL    HW231133   0.309   0.741   1.749
10277SOL     OW31134   7.847   4.617   0.692
10277SOL    HW131135   7.869   4.702   0.654
10277SOL    HW231136   7.755   4.624   0.716
10278SOL     OW31137   6.265   6.365   3.867
10278SOL    HW131138   6.305   6.442   3.907
10278SOL    HW231139   6.306   6.359   3.781
10279SOL     OW31140   1.408   0.547   2.642
10279SOL    HW131141   1.376   0.612   2.580
10279SOL    HW231142   1.495   0.578   2.668
10280SOL     OW31143   3.140   2.980   1.111
10280SOL    HW131144   3.128   2.892   1.076
10280SOL    HW231145   3.226   3.007   1.078
10281SOL     OW31146   5.884   4.266   3.915
10281SOL    HW131147   5.912   4.227   3.998
10281SOL    HW231148   5.789   4.256   3.914
10282SOL     OW31149   7.594   0.981   3.340
10282SOL    HW131150   7.662   0.920   3.369
10282SOL    HW231151   7.527   0.976   3.408
10283SOL     OW31152   5.296   7.074   2.518
10283SOL    HW131153   5.201   7.068   2.510
10283SOL    HW231154   5.329   7.036   2.437
10284SOL     OW31155   0.809   2.899   0.143
10284SOL    HW131156   0.808   2.809   0.175
10284SOL    HW231157   0.741   2.943   0.194
10285SOL     OW31158   7.305   0.501   1.281
10285SOL    HW131159   7.247   0.547   1.342
10285SOL    HW231160   7.329   0.420   1.327
10286SOL     OW31161   7.542   1.243   3.275
10286SOL    HW131162   7.493   1.164   3.251
10286SOL    HW231163   7.605   1.213   3.340
10287SOL     OW31164   0.088   8.164   2.281
10287SOL    HW131165   0.156   8.100   2.301
10287SOL    HW231166   0.037   8.171   2.362
10288SOL     OW31167   1.694   0.493   4.992
10288SOL    HW131168   1.777   0.533   5.018
10288SOL    HW231169   1.718   0.423   4.931
10289SOL     OW31170   7.079   1.468   3.193
10289SOL    HW131171   7.133   1.529   3.242
10289SOL    HW231172   7.109   1.382   3.221
10290SOL     OW31173   3.374   3.989   1.356
10290SOL    HW131174   3.395   4.016   1.445
10290SOL    HW231175   3.350   3.897   1.363
10291SOL     OW31176   6.963   3.362   2.227
10291SOL    HW131177   7.050   3.400   2.216
10291SOL    HW231178   6.943   3.323   2.142
10292SOL     OW31179   4.087   2.463   2.386
10292SOL    HW131180   4.044   2.534   2.339
10292SOL    HW231181   4.017   2.399   2.402
10293SOL     OW31182   6.130   0.745   1.463
10293SOL    HW131183   6.068   0.725   1.393
10293SOL    HW231184   6.108   0.683   1.533
10294SOL     OW31185   2.084   5.668   2.341
10294SOL    HW131186   2.075   5.609   2.416
10294SOL    HW231187   2.152   5.730   2.367
10295SOL     OW31188   5.348   5.211   0.937
10295SOL    HW131189   5.414   5.143   0.954
10295SOL    HW231190   5.321   5.196   0.847
10296SOL     OW31191   7.121   3.775   5.601
10296SOL    HW131192   7.203   3.758   5.647
10296SOL    HW231193   7.147   3.787   5.510
10297SOL     OW31194   4.207   0.432   4.460
10297SOL    HW131195   4.193   0.353   4.408
10297SOL    HW231196   4.269   0.484   4.409
10298SOL     OW31197   0.728   6.490   3.716
10298SOL    HW131198   0.701   6.569   3.762
10298SOL    HW231199   0.710   6.419   3.778
10299SOL     OW31200   4.250   5.363   3.428
10299SOL    HW131201   4.288   5.394   3.346
10299SOL    HW231202   4.304   5.404   3.496
10300SOL     OW31203   1.244   7.087   4.514
10300SOL    HW131204   1.197   7.086   4.431
10300SOL    HW231205   1.178   7.063   4.579
10301SOL     OW31206   1.160   3.453   2.484
10301SOL    HW131207   1.095   3.446   2.414
10301SOL    HW231208   1.181   3.362   2.507
10302SOL     OW31209   7.962   1.116   4.795
10302SOL    HW131210   8.056   1.118   4.780
10302SOL    HW231211   7.928   1.058   4.727
10303SOL     OW31212   6.574   2.756   0.270
10303SOL    HW131213   6.657   2.776   0.226
10303SOL    HW231214   6.600   2.723   0.356
10304SOL     OW31215   2.279   7.446   5.749
10304SOL    HW131216   2.371   7.423   5.765
10304SOL    HW231217   2.229   7.379   5.796
10305SOL     OW31218   6.027   2.322   2.895
10305SOL    HW131219   5.963   2.299   2.962
10305SOL    HW231220   6.102   2.266   2.913
10306SOL     OW31221   1.641   1.462   4.987
10306SOL    HW131222   1.734   1.442   4.975
10306SOL    HW231223   1.604   1.384   5.029
10307SOL     OW31224   3.431   7.134   5.541
10307SOL    HW131225   3.413   7.090   5.458
10307SOL    HW231226   3.369   7.207   5.543
10308SOL     OW31227   3.205   3.329   4.595
10308SOL    HW131228   3.120   3.327   4.638
10308SOL    HW231229   3.187   3.367   4.509
10309SOL     OW31230   6.771   3.377   1.496
10309SOL    HW131231   6.704   3.344   1.436
10309SOL    HW231232   6.758   3.472   1.496
10310SOL     OW31233   2.781   7.033   0.229
10310SOL    HW131234   2.714   7.067   0.170
10310SOL    HW231235   2.747   7.050   0.317
10311SOL     OW31236   7.329   2.962   4.234
10311SOL    HW131237   7.349   2.920   4.150
10311SOL    HW231238   7.237   2.940   4.251
10312SOL     OW31239   2.148   0.290   3.424
10312SOL    HW131240   2.125   0.283   3.517
10312SOL    HW231241   2.163   0.200   3.396
10313SOL     OW31242   0.830   2.409   0.463
10313SOL    HW131243   0.886   2.380   0.391
10313SOL    HW231244   0.748   2.362   0.450
10314SOL     OW31245   1.202   2.579   3.425
10314SOL    HW131246   1.134   2.626   3.376
10314SOL    HW231247   1.158   2.550   3.505
10315SOL     OW31248   7.437   6.351   3.578
10315SOL    HW131249   7.479   6.365   3.663
10315SOL    HW231250   7.457   6.260   3.556
10316SOL     OW31251   5.394   4.476   2.030
10316SOL    HW131252   5.308   4.481   2.073
10316SOL    HW231253   5.380   4.514   1.943
10317SOL     OW31254   2.406   4.982   5.514
10317SOL    HW131255   2.320   4.994   5.554
10317SOL    HW231256   2.397   4.903   5.460
10318SOL     OW31257   7.353   2.303   1.221
10318SOL    HW131258   7.272   2.262   1.190
10318SOL    HW231259   7.360   2.276   1.312
10319SOL     OW31260   0.183   8.121   0.982
10319SOL    HW131261   0.125   8.068   0.927
10319SOL    HW231262   0.165   8.211   0.955
10320SOL     OW31263   4.500   6.090   5.579
10320SOL    HW131264   4.479   6.182   5.597
10320SOL    HW231265   4.579   6.094   5.525
10321SOL     OW31266   6.625   8.164   3.469
10321SOL    HW131267   6.683   8.228   3.510
10321SOL    HW231268   6.683   8.091   3.446
10322SOL     OW31269   5.237   7.517   4.553
10322SOL    HW131270   5.304   7.529   4.486
10322SOL    HW231271   5.255   7.586   4.617
10323SOL     OW31272   8.185   3.985   0.404
10323SOL    HW131273   8.166   4.072   0.369
10323SOL    HW231274   0.004   4.002   0.485
10324SOL     OW31275   1.514   5.323   1.340
10324SOL    HW131276   1.496   5.234   1.370
10324SOL    HW231277   1.488   5.379   1.414
10325SOL     OW31278   0.683   5.072   2.472
10325SOL    HW131279   0.688   5.038   2.383
10325SOL    HW231280   0.697   5.166   2.462
10326SOL     OW31281   0.555   3.768   2.948
10326SOL    HW131282   0.520   3.682   2.926
10326SOL    HW231283   0.594   3.757   3.035
10327SOL     OW31284   2.892   2.458   5.434
10327SOL    HW131285   2.860   2.543   5.465
10327SOL    HW231286   2.911   2.472   5.341
10328SOL     OW31287   5.554   5.872   0.512
10328SOL    HW131288   5.595   5.797   0.556
10328SOL    HW231289   5.601   5.948   0.546
10329SOL     OW31290   1.168   2.400   3.670
10329SOL    HW131291   1.214   2.316   3.673
10329SOL    HW231292   1.133   2.412   3.758
10330SOL     OW31293   6.255   5.750   2.783
10330SOL    HW131294   6.213   5.700   2.713
10330SOL    HW231295   6.273   5.836   2.744
10331SOL     OW31296   3.000   4.060   2.293
10331SOL    HW131297   3.080   4.109   2.314
10331SOL    HW231298   3.009   3.978   2.341
10332SOL     OW31299   6.247   4.939   5.077
10332SOL    HW131300   6.183   4.868   5.075
10332SOL    HW231301   6.322   4.905   5.028
10333SOL     OW31302   5.182   3.514   5.371
10333SOL    HW131303   5.116   3.580   5.350
10333SOL    HW231304   5.131   3.435   5.391
10334SOL     OW31305   0.678   6.454   4.321
10334SOL    HW131306   0.734   6.408   4.383
10334SOL    HW231307   0.627   6.385   4.279
10335SOL     OW31308   2.499   6.708   1.652
10335SOL    HW131309   2.501   6.752   1.567
10335SOL    HW231310   2.419   6.656   1.650
10336SOL     OW31311   1.987   3.069   2.950
10336SOL    HW131312   1.916   3.011   2.976
10336SOL    HW231313   1.979   3.144   3.008
10337SOL     OW31314   5.034   0.057   5.739
10337SOL    HW131315   5.073   8.210   5.780
10337SOL    HW231316   5.063   0.053   5.648
10338SOL     OW31317   1.541   2.548   5.757
10338SOL    HW131318   1.484   2.492   5.705
10338SOL    HW231319   5.606   6.681   0.018
10339SOL     OW31320   1.119   7.023   1.045
10339SOL    HW131321   1.167   7.098   1.081
10339SOL    HW231322   1.124   6.956   1.113
10340SOL     OW31323   3.710   3.995   1.539
10340SOL    HW131324   3.793   4.042   1.546
10340SOL    HW231325   3.699   3.979   1.445
10341SOL     OW31326   3.711   4.305   1.674
10341SOL    HW131327   3.704   4.369   1.603
10341SOL    HW231328   3.743   4.225   1.631
10342SOL     OW31329   2.745   4.393   2.548
10342SOL    HW131330   2.739   4.373   2.641
10342SOL    HW231331   2.839   4.398   2.531
10343SOL     OW31332   6.974   1.204   4.788
10343SOL    HW131333   6.908   1.169   4.728
10343SOL    HW231334   6.924   1.254   4.852
10344SOL     OW31335   6.129   3.280   5.247
10344SOL    HW131336   6.114   3.187   5.229
10344SOL    HW231337   6.084   3.325   5.176
10345SOL     OW31338   3.214   4.111   0.162
10345SOL    HW131339   3.281   4.175   0.186
10345SOL    HW231340   3.201   4.059   0.241
10346SOL     OW31341   3.829   0.192   2.789
10346SOL    HW131342   3.786   0.108   2.805
10346SOL    HW231343   3.789   0.225   2.709
10347SOL     OW31344   6.554   3.017   3.410
10347SOL    HW131345   6.541   3.078   3.338
10347SOL    HW231346   6.483   2.953   3.401
10348SOL     OW31347   2.781   7.912   4.057
10348SOL    HW131348   2.746   7.992   4.096
10348SOL    HW231349   2.841   7.943   3.989
10349SOL     OW31350   2.163   8.060   0.894
10349SOL    HW131351   2.111   8.133   0.861
10349SOL    HW231352   2.111   7.982   0.874
10350SOL     OW31353   3.783   7.390   3.830
10350SOL    HW131354   3.743   7.354   3.909
10350SOL    HW231355   3.877   7.381   3.844
10351SOL     OW31356   0.613   3.042   2.302
10351SOL    HW131357   0.613   3.027   2.207
10351SOL    HW231358   0.554   2.976   2.337
10352SOL     OW31359   6.518   0.186   0.084
10352SOL    HW131360   6.498   0.245   0.157
10352SOL    HW231361   6.599   0.142   0.111
10353SOL     OW31362   1.830   4.317   3.083
10353SOL    HW131363   1.741   4.339   3.111
10353SOL    HW231364   1.833   4.221   3.084
10354SOL     OW31365   0.452   1.748   2.824
10354SOL    HW131366   0.413   1.660   2.825
10354SOL    HW231367   0.540   1.736   2.858
10355SOL     OW31368   5.379   1.969   1.478
10355SOL    HW131369   5.397   1.942   1.388
10355SOL    HW231370   5.284   1.982   1.481
10356SOL     OW31371   3.325   4.593   1.988
10356SOL    HW131372   3.383   4.540   2.044
10356SOL    HW231373   3.237   4.572   2.018
10357SOL     OW31374   5.300   5.003   4.854
10357SOL    HW131375   5.232   4.945   4.888
10357SOL    HW231376   5.322   5.060   4.928
10358SOL     OW31377   7.120   5.132   4.973
10358SOL    HW131378   7.144   5.053   4.924
10358SOL    HW231379   7.196   5.150   5.029
10359SOL     OW31380   2.315   7.969   2.569
10359SOL    HW131381   2.283   7.940   2.655
10359SOL    HW231382   2.330   8.063   2.579
10360SOL     OW31383   0.959   2.788   2.135
10360SOL    HW131384   0.990   2.792   2.044
10360SOL    HW231385   1.019   2.727   2.178
10361SOL     OW31386   0.998   3.907   0.481
10361SOL    HW131387   0.966   3.962   0.410
10361SOL    HW231388   0.970   3.819   0.457
10362SOL     OW31389   8.011   4.152   4.473
10362SOL    HW131390   8.072   4.210   4.429
10362SOL    HW231391   8.013   4.180   4.565
10363SOL     OW31392   0.705   3.316   1.424
10363SOL    HW131393   0.794   3.348   1.442
10363SOL    HW231394   0.677   3.365   1.347
10364SOL     OW31395   3.837   1.790   5.102
10364SOL    HW131396   3.844   1.883   5.122
10364SOL    HW231397   3.793   1.787   5.017
10365SOL     OW31398   4.321   1.775   2.055
10365SOL    HW131399   4.355   1.783   1.966
10365SOL    HW231400   4.278   1.690   2.056
10366SOL     OW31401   7.896   0.028   1.559
10366SOL    HW131402   7.807   0.057   1.540
10366SOL    HW231403   7.887   8.165   1.581
10367SOL     OW31404   6.541   7.479   1.568
10367SOL    HW131405   6.587   7.401   1.537
10367SOL    HW231406   6.474   7.445   1.628
10368SOL     OW31407   3.231   7.661   0.712
10368SOL    HW131408   3.176   7.615   0.648
10368SOL    HW231409   3.320   7.629   0.694
10369SOL     OW31410   2.512   5.649   2.179
10369SOL    HW131411   2.497   5.667   2.272
10369SOL    HW231412   2.535   5.556   2.177
10370SOL     OW31413   6.121   2.622   5.133
10370SOL    HW131414   6.195   2.659   5.085
10370SOL    HW231415   6.129   2.658   5.221
10371SOL     OW31416   0.285   1.517   5.815
10371SOL    HW131417   0.247   1.429   5.817
10371SOL    HW231418   4.427   5.648   0.086
10372SOL     OW31419   6.104   6.591   2.345
10372SOL    HW131420   6.051   6.536   2.403
10372SOL    HW231421   6.052   6.598   2.265
10373SOL     OW31422   1.579   5.824   4.713
10373SOL    HW131423   1.491   5.805   4.681
10373SOL    HW231424   1.565   5.883   4.787
10374SOL     OW31425   7.185   3.942   2.057
10374SOL    HW131426   7.138   3.920   1.976
10374SOL    HW231427   7.129   4.007   2.100
10375SOL     OW31428   6.602   2.386   0.397
10375SOL    HW131429   6.525   2.425   0.356
10375SOL    HW231430   6.568   2.310   0.444
10376SOL     OW31431   7.999   3.411   1.099
10376SOL    HW131432   8.085   3.418   1.057
10376SOL    HW231433   8.016   3.363   1.180
10377SOL     OW31434   5.652   2.081   1.447
10377SOL    HW131435   5.560   2.079   1.472
10377SOL    HW231436   5.695   2.131   1.517
10378SOL     OW31437   3.211   0.204   5.067
10378SOL    HW131438   3.204   0.295   5.096
10378SOL    HW231439   3.263   0.162   5.135
10379SOL     OW31440   6.988   7.670   1.708
10379SOL    HW131441   6.930   7.594   1.720
10379SOL    HW231442   7.033   7.679   1.792
10380SOL     OW31443   0.412   6.240   0.744
10380SOL    HW131444   0.357   6.199   0.811
10380SOL    HW231445   0.353   6.301   0.699
10381SOL     OW31446   4.547   7.070   3.499
10381SOL    HW131447   4.471   7.088   3.444
10381SOL    HW231448   4.565   7.153   3.544
10382SOL     OW31449   4.474   3.217   2.335
10382SOL    HW131450   4.530   3.274   2.281
10382SOL    HW231451   4.409   3.276   2.372
10383SOL     OW31452   6.056   7.329   5.052
10383SOL    HW131453   6.097   7.348   5.136
10383SOL    HW231454   5.983   7.391   5.046
10384SOL     OW31455   5.137   0.553   4.245
10384SOL    HW131456   5.147   0.520   4.334
10384SOL    HW231457   5.058   0.607   4.248
10385SOL     OW31458   4.659   3.881   2.437
10385SOL    HW131459   4.661   3.861   2.531
10385SOL    HW231460   4.656   3.796   2.394
10386SOL     OW31461   7.125   5.702   5.073
10386SOL    HW131462   7.186   5.638   5.110
10386SOL    HW231463   7.082   5.656   5.001
10387SOL     OW31464   8.009   2.650   4.483
10387SOL    HW131465   8.053   2.735   4.482
10387SOL    HW231466   7.974   2.640   4.395
10388SOL     OW31467   1.663   3.686   5.217
10388SOL    HW131468   1.621   3.602   5.199
10388SOL    HW231469   1.657   3.735   5.135
10389SOL     OW31470   3.742   3.073   1.840
10389SOL    HW131471   3.722   3.093   1.931
10389SOL    HW231472   3.808   3.004   1.844
10390SOL     OW31473   3.571   7.483   4.819
10390SOL    HW131474   3.578   7.469   4.914
10390SOL    HW231475   3.525   7.566   4.810
10391SOL     OW31476   7.682   2.284   2.672
10391SOL    HW131477   7.734   2.364   2.668
10391SOL    HW231478   7.655   2.277   2.764
10392SOL     OW31479   6.720   6.764   2.583
10392SOL    HW131480   6.664   6.718   2.646
10392SOL    HW231481   6.690   6.855   2.587
10393SOL     OW31482   5.681   7.698   2.813
10393SOL    HW131483   5.695   7.677   2.721
10393SOL    HW231484   5.680   7.613   2.857
10394SOL     OW31485   0.652   8.173   0.090
10394SOL    HW131486   0.740   8.190   0.058
10394SOL    HW231487   0.600   0.018   0.059
10395SOL     OW31488   6.453   4.225   3.297
10395SOL    HW131489   6.470   4.141   3.255
10395SOL    HW231490   6.401   4.203   3.375
10396SOL     OW31491   6.421   1.510   4.906
10396SOL    HW131492   6.404   1.466   4.823
10396SOL    HW231493   6.370   1.591   4.901
10397SOL     OW31494   3.931   1.564   0.461
10397SOL    HW131495   3.930   1.469   0.471
10397SOL    HW231496   3.843   1.591   0.485
10398SOL     OW31497   1.599   2.328   5.523
10398SOL    HW131498   1.584   2.251   5.468
10398SOL    HW231499   1.511   2.357   5.549
10399SOL     OW31500   2.716   6.922   1.554
10399SOL    HW131501   2.768   6.842   1.552
10399SOL    HW231502   2.735   6.960   1.640
10400SOL     OW31503   4.166   1.684   4.753
10400SOL    HW131504   4.175   1.670   4.847
10400SOL    HW231505   4.172   1.779   4.743
10401SOL     OW31506   7.439   7.488   3.856
10401SOL    HW131507   7.357   7.485   3.905
10401SOL    HW231508   7.507   7.500   3.923
10402SOL     OW31509   7.397   2.617   0.401
10402SOL    HW131510   7.336   2.674   0.449
10402SOL    HW231511   7.378   2.529   0.434
10403SOL     OW31512   4.803   7.396   0.212
10403SOL    HW131513   4.710   7.397   0.188
10403SOL    HW231514   4.807   7.338   0.288
10404SOL     OW31515   0.369   1.755   3.698
10404SOL    HW131516   0.358   1.756   3.603
10404SOL    HW231517   0.327   1.836   3.727
10405SOL     OW31518   7.940   4.666   3.032
10405SOL    HW131519   7.845   4.657   3.025
10405SOL    HW231520   7.972   4.576   3.037
10406SOL     OW31521   3.294   1.857   0.230
10406SOL    HW131522   3.354   1.820   0.165
10406SOL    HW231523   3.351   1.889   0.300
10407SOL     OW31524   1.698   1.013   0.943
10407SOL    HW131525   1.723   1.059   1.023
10407SOL    HW231526   1.684   1.083   0.879
10408SOL     OW31527   6.606   6.047   4.362
10408SOL    HW131528   6.523   6.015   4.326
10408SOL    HW231529   6.664   5.971   4.361
10409SOL     OW31530   3.267   5.353   2.530
10409SOL    HW131531   3.235   5.415   2.595
10409SOL    HW231532   3.188   5.321   2.486
10410SOL     OW31533   1.199   8.138   4.316
10410SOL    HW131534   1.278   8.084   4.317
10410SOL    HW231535   1.127   8.076   4.328
10411SOL     OW31536   3.734   0.690   4.996
10411SOL    HW131537   3.829   0.702   5.000
10411SOL    HW231538   3.699   0.778   4.984
10412SOL     OW31539   5.474   3.430   2.841
10412SOL    HW131540   5.403   3.445   2.903
10412SOL    HW231541   5.439   3.461   2.757
10413SOL     OW31542   4.079   3.635   0.197
10413SOL    HW131543   4.124   3.711   0.234
10413SOL    HW231544   3.990   3.640   0.233
10414SOL     OW31545   5.417   4.761   4.224
10414SOL    HW131546   5.421   4.841   4.276
10414SOL    HW231547   5.339   4.772   4.170
10415SOL     OW31548   3.967   1.280   5.381
10415SOL    HW131549   4.057   1.288   5.413
10415SOL    HW231550   3.922   1.229   5.448
10416SOL     OW31551   5.421   1.244   2.332
10416SOL    HW131552   5.396   1.233   2.240
10416SOL    HW231553   5.342   1.277   2.375
10417SOL     OW31554   2.571   5.177   4.555
10417SOL    HW131555   2.549   5.205   4.644
10417SOL    HW231556   2.616   5.093   4.567
10418SOL     OW31557   6.207   3.227   0.118
10418SOL    HW131558   6.113   3.209   0.120
10418SOL    HW231559   6.225   3.274   0.199
10419SOL     OW31560   1.408   1.228   3.342
10419SOL    HW131561   1.460   1.302   3.311
10419SOL    HW231562   1.322   1.241   3.303
10420SOL     OW31563   7.679   1.563   2.313
10420SOL    HW131564   7.702   1.476   2.280
10420SOL    HW231565   7.762   1.600   2.344
10421SOL     OW31566   3.555   6.999   3.696
10421SOL    HW131567   3.615   7.017   3.769
10421SOL    HW231568   3.525   6.909   3.711
10422SOL     OW31569   6.296   7.740   3.629
10422SOL    HW131570   6.365   7.803   3.609
10422SOL    HW231571   6.224   7.764   3.571
10423SOL     OW31572   2.355   4.242   2.915
10423SOL    HW131573   2.386   4.331   2.900
10423SOL    HW231574   2.333   4.239   3.008
10424SOL     OW31575   0.101   5.075   4.353
10424SOL    HW131576   0.046   5.024   4.413
10424SOL    HW231577   0.136   5.146   4.407
10425SOL     OW31578   3.774   1.226   2.903
10425SOL    HW131579   3.705   1.250   2.965
10425SOL    HW231580   3.855   1.254   2.946
10426SOL     OW31581   5.859   3.349   4.313
10426SOL    HW131582   5.790   3.378   4.373
10426SOL    HW231583   5.826   3.372   4.226
10427SOL     OW31584   3.903   6.952   5.814
10427SOL    HW131585   3.990   6.916   5.796
10427SOL    HW231586   3.843   6.883   5.785
10428SOL     OW31587   6.554   8.072   0.866
10428SOL    HW131588   6.639   8.084   0.908
10428SOL    HW231589   6.562   7.989   0.819
10429SOL     OW31590   8.022   3.589   1.548
10429SOL    HW131591   8.093   3.596   1.484
10429SOL    HW231592   7.943   3.578   1.495
10430SOL     OW31593   0.336   5.704   5.113
10430SOL    HW131594   0.279   5.703   5.036
10430SOL    HW231595   0.406   5.765   5.091
10431SOL     OW31596   2.859   7.608   3.103
10431SOL    HW131597   2.950   7.637   3.104
10431SOL    HW231598   2.842   7.578   3.192
10432SOL     OW31599   2.134   6.458   3.518
10432SOL    HW131600   2.124   6.471   3.424
10432SOL    HW231601   2.105   6.368   3.532
10433SOL     OW31602   1.179   7.836   3.173
10433SOL    HW131603   1.200   7.768   3.109
10433SOL    HW231604   1.192   7.793   3.258
10434SOL     OW31605   8.121   4.359   1.053
10434SOL    HW131606   8.112   4.266   1.033
10434SOL    HW231607   8.060   4.374   1.126
10435SOL     OW31608   0.808   3.252   0.766
10435SOL    HW131609   0.729   3.295   0.733
10435SOL    HW231610   0.856   3.227   0.687
10436SOL     OW31611   3.613   2.755   2.735
10436SOL    HW131612   3.695   2.706   2.731
10436SOL    HW231613   3.624   2.815   2.809
10437SOL     OW31614   5.276   0.387   4.454
10437SOL    HW131615   5.302   0.367   4.544
10437SOL    HW231616   5.357   0.411   4.410
10438SOL     OW31617   5.981   3.646   4.830
10438SOL    HW131618   5.998   3.580   4.763
10438SOL    HW231619   5.888   3.635   4.851
10439SOL     OW31620   4.429   4.035   2.371
10439SOL    HW131621   4.514   3.997   2.392
10439SOL    HW231622   4.372   4.007   2.443
10440SOL     OW31623   1.649   3.447   1.330
10440SOL    HW131624   1.614   3.516   1.273
10440SOL    HW231625   1.707   3.493   1.391
10441SOL     OW31626   3.595   0.727   3.883
10441SOL    HW131627   3.516   0.690   3.922
10441SOL    HW231628   3.620   0.798   3.942
10442SOL     OW31629   5.387   6.251   4.157
10442SOL    HW131630   5.451   6.194   4.200
10442SOL    HW231631   5.313   6.254   4.218
10443SOL     OW31632   0.310   4.769   2.583
10443SOL    HW131633   0.256   4.762   2.504
10443SOL    HW231634   0.352   4.855   2.576
10444SOL     OW31635   6.726   5.708   2.013
10444SOL    HW131636   6.782   5.680   1.940
10444SOL    HW231637   6.763   5.792   2.041
10445SOL     OW31638   1.021   3.878   3.748
10445SOL    HW131639   0.985   3.789   3.746
10445SOL    HW231640   1.093   3.875   3.685
10446SOL     OW31641   5.335   7.116   5.275
10446SOL    HW131642   5.309   7.160   5.194
10446SOL    HW231643   5.253   7.082   5.311
10447SOL     OW31644   8.214   6.684   1.859
10447SOL    HW131645   8.140   6.640   1.817
10447SOL    HW231646   8.221   6.642   1.945
10448SOL     OW31647   1.422   5.165   2.712
10448SOL    HW131648   1.420   5.081   2.665
10448SOL    HW231649   1.335   5.173   2.751
10449SOL     OW31650   1.271   7.435   1.599
10449SOL    HW131651   1.211   7.488   1.651
10449SOL    HW231652   1.219   7.359   1.572
10450SOL     OW31653   1.992   1.164   0.685
10450SOL    HW131654   2.077   1.148   0.726
10450SOL    HW231655   1.954   1.236   0.736
10451SOL     OW31656   2.739   3.618   5.062
10451SOL    HW131657   2.834   3.621   5.075
10451SOL    HW231658   2.709   3.548   5.120
10452SOL     OW31659   7.239   0.593   2.853
10452SOL    HW131660   7.318   0.640   2.878
10452SOL    HW231661   7.270   0.506   2.826
10453SOL     OW31662   2.107   1.244   2.172
10453SOL    HW131663   2.063   1.268   2.253
10453SOL    HW231664   2.058   1.169   2.139
10454SOL     OW31665   5.780   3.752   3.655
10454SOL    HW131666   5.833   3.777   3.730
10454SOL    HW231667   5.690   3.767   3.684
10455SOL     OW31668   5.274   6.563   5.116
10455SOL    HW131669   5.273   6.564   5.020
10455SOL    HW231670   5.183   6.578   5.142
10456SOL     OW31671   6.162   3.249   1.597
10456SOL    HW131672   6.155   3.204   1.681
10456SOL    HW231673   6.128   3.337   1.613
10457SOL     OW31674   0.013   6.896   0.410
10457SOL    HW131675   8.194   6.910   0.491
10457SOL    HW231676   8.174   6.884   0.343
10458SOL     OW31677   1.719   5.608   5.352
10458SOL    HW131678   1.649   5.657   5.309
10458SOL    HW231679   1.799   5.654   5.328
10459SOL     OW31680   7.746   1.755   3.198
10459SOL    HW131681   7.715   1.831   3.149
10459SOL    HW231682   7.810   1.713   3.140
10460SOL     OW31683   1.477   4.364   1.352
10460SOL    HW131684   1.559   4.344   1.397
10460SOL    HW231685   1.409   4.348   1.418
10461SOL     OW31686   0.388   5.279   3.535
10461SOL    HW131687   0.352   5.235   3.612
10461SOL    HW231688   0.325   5.349   3.516
10462SOL     OW31689   6.862   1.016   0.109
10462SOL    HW131690   6.842   0.937   0.059
10462SOL    HW231691   6.820   1.087   0.060
10463SOL     OW31692   8.124   4.244   2.064
10463SOL    HW131693   8.124   4.340   2.062
10463SOL    HW231694   8.215   4.219   2.051
10464SOL     OW31695   2.462   0.117   5.594
10464SOL    HW131696   2.411   0.091   5.671
10464SOL    HW231697   2.486   0.035   5.552
10465SOL     OW31698   7.468   7.036   3.586
10465SOL    HW131699   7.477   7.107   3.650
10465SOL    HW231700   7.505   7.072   3.505
10466SOL     OW31701   6.590   4.738   0.446
10466SOL    HW131702   6.507   4.744   0.399
10466SOL    HW231703   6.572   4.680   0.520
10467SOL     OW31704   0.399   2.180   3.539
10467SOL    HW131705   0.460   2.251   3.560
10467SOL    HW231706   0.327   2.192   3.601
10468SOL     OW31707   0.943   2.888   4.121
10468SOL    HW131708   0.922   2.963   4.065
10468SOL    HW231709   0.900   2.907   4.205
10469SOL     OW31710   0.712   7.179   0.853
10469SOL    HW131711   0.773   7.173   0.926
10469SOL    HW231712   0.634   7.132   0.882
10470SOL     OW31713   6.445   8.113   4.028
10470SOL    HW131714   6.473   8.117   3.937
10470SOL    HW231715   6.523   8.138   4.078
10471SOL     OW31716   3.339   7.657   4.894
10471SOL    HW131717   3.259   7.708   4.886
10471SOL    HW231718   3.366   7.668   4.985
10472SOL     OW31719   0.660   2.946   5.722
10472SOL    HW131720   0.632   2.936   5.813
10472SOL    HW231721   0.591   2.903   5.671
10473SOL     OW31722   6.099   0.049   1.738
10473SOL    HW131723   6.075   0.100   1.815
10473SOL    HW231724   6.160   8.212   1.771
10474SOL     OW31725   0.512   1.383   0.202
10474SOL    HW131726   0.553   1.336   0.129
10474SOL    HW231727   0.515   1.475   0.176
10475SOL     OW31728   1.556   3.897   2.346
10475SOL    HW131729   1.501   3.897   2.268
10475SOL    HW231730   1.632   3.844   2.322
10476SOL     OW31731   6.918   4.591   5.354
10476SOL    HW131732   6.906   4.577   5.260
10476SOL    HW231733   6.851   4.656   5.377
10477SOL     OW31734   8.221   5.482   3.845
10477SOL    HW131735   8.169   5.441   3.776
10477SOL    HW231736   8.158   5.500   3.915
10478SOL     OW31737   3.877   5.108   5.329
10478SOL    HW131738   3.948   5.171   5.318
10478SOL    HW231739   3.881   5.083   5.421
10479SOL     OW31740   0.338   4.285   5.608
10479SOL    HW131741   0.420   4.299   5.655
10479SOL    HW231742   0.289   4.223   5.662
10480SOL     OW31743   3.611   7.217   1.929
10480SOL    HW131744   3.538   7.266   1.892
10480SOL    HW231745   3.586   7.125   1.920
10481SOL     OW31746   7.882   4.880   0.660
10481SOL    HW131747   7.866   4.929   0.741
10481SOL    HW231748   7.898   4.947   0.594
10482SOL     OW31749   5.532   3.029   2.793
10482SOL    HW131750   5.592   2.963   2.828
10482SOL    HW231751   5.566   3.112   2.826
10483SOL     OW31752   1.107   1.483   3.629
10483SOL    HW131753   1.102   1.552   3.695
10483SOL    HW231754   1.029   1.429   3.644
10484SOL     OW31755   5.139   7.224   3.796
10484SOL    HW131756   5.071   7.223   3.863
10484SOL    HW231757   5.115   7.297   3.739
10485SOL     OW31758   5.652   1.817   2.237
10485SOL    HW131759   5.673   1.757   2.309
10485SOL    HW231760   5.606   1.763   2.173
10486SOL     OW31761   3.729   2.287   1.248
10486SOL    HW131762   3.676   2.330   1.181
10486SOL    HW231763   3.771   2.359   1.295
10487SOL     OW31764   5.379   5.351   3.214
10487SOL    HW131765   5.456   5.304   3.247
10487SOL    HW231766   5.383   5.436   3.258
10488SOL     OW31767   7.906   1.647   2.434
10488SOL    HW131768   7.910   1.589   2.510
10488SOL    HW231769   7.965   1.719   2.455
10489SOL     OW31770   7.962   0.743   0.895
10489SOL    HW131771   7.924   0.813   0.948
10489SOL    HW231772   8.044   0.779   0.863
10490SOL     OW31773   4.138   1.363   5.730
10490SOL    HW131774   4.184   1.323   5.656
10490SOL    HW231775   4.054   1.318   5.733
10491SOL     OW31776   3.128   5.617   3.898
10491SOL    HW131777   3.151   5.526   3.879
10491SOL    HW231778   3.182   5.641   3.974
10492SOL     OW31779   1.636   3.753   5.746
10492SOL    HW131780   1.662   3.794   5.663
10492SOL    HW231781   1.598   3.669   5.721
10493SOL     OW31782   5.082   2.834   4.326
10493SOL    HW131783   5.133   2.877   4.258
10493SOL    HW231784   5.078   2.898   4.397
10494SOL     OW31785   1.445   6.752   3.939
10494SOL    HW131786   1.367   6.697   3.933
10494SOL    HW231787   1.416   6.838   3.907
10495SOL     OW31788   3.556   7.911   2.699
10495SOL    HW131789   3.622   7.881   2.762
10495SOL    HW231790   3.473   7.883   2.736
10496SOL     OW31791   6.924   1.404   0.102
10496SOL    HW131792   6.922   1.497   0.080
10496SOL    HW231793   6.832   1.379   0.110
10497SOL     OW31794   3.894   2.598   3.781
10497SOL    HW131795   3.903   2.689   3.754
10497SOL    HW231796   3.836   2.601   3.857
10498SOL     OW31797   7.680   8.027   3.873
10498SOL    HW131798   7.739   8.034   3.798
10498SOL    HW231799   7.614   8.094   3.858
10499SOL     OW31800   4.949   4.588   5.110
10499SOL    HW131801   4.883   4.643   5.152
10499SOL    HW231802   4.906   4.503   5.101
10500SOL     OW31803   7.020   0.771   3.215
10500SOL    HW131804   7.082   0.839   3.188
10500SOL    HW231805   7.029   0.703   3.149
10501SOL     OW31806   0.699   6.133   2.994
10501SOL    HW131807   0.611   6.114   3.027
10501SOL    HW231808   0.685   6.196   2.923
10502SOL     OW31809   1.864   2.789   1.130
10502SOL    HW131810   1.783   2.743   1.152
10502SOL    HW231811   1.863   2.868   1.185
10503SOL     OW31812   2.662   1.227   5.030
10503SOL    HW131813   2.660   1.322   5.022
10503SOL    HW231814   2.620   1.196   4.950
10504SOL     OW31815   7.348   5.101   0.333
10504SOL    HW131816   7.422   5.100   0.393
10504SOL    HW231817   7.312   5.189   0.341
10505SOL     OW31818   3.931   0.749   1.355
10505SOL    HW131819   4.001   0.749   1.420
10505SOL    HW231820   3.859   0.703   1.398
10506SOL     OW31821   6.683   0.545   2.055
10506SOL    HW131822   6.718   0.564   2.142
10506SOL    HW231823   6.689   0.628   2.008
10507SOL     OW31824   2.529   4.623   1.117
10507SOL    HW131825   2.560   4.598   1.030
10507SOL    HW231826   2.593   4.687   1.147
10508SOL     OW31827   7.967   7.964   4.366
10508SOL    HW131828   7.949   8.027   4.436
10508SOL    HW231829   8.045   7.999   4.322
10509SOL     OW31830   6.416   4.519   1.324
10509SOL    HW131831   6.397   4.443   1.269
10509SOL    HW231832   6.390   4.594   1.271
10510SOL     OW31833   1.486   3.429   4.447
10510SOL    HW131834   1.423   3.368   4.487
10510SOL    HW231835   1.473   3.511   4.494
10511SOL     OW31836   7.204   8.012   2.110
10511SOL    HW131837   7.149   8.035   2.035
10511SOL    HW231838   7.281   7.969   2.072
10512SOL     OW31839   1.875   7.157   5.587
10512SOL    HW131840   1.854   7.130   5.677
10512SOL    HW231841   1.891   7.251   5.593
10513SOL     OW31842   2.415   0.619   2.464
10513SOL    HW131843   2.500   0.651   2.434
10513SOL    HW231844   2.353   0.655   2.400
10514SOL     OW31845   2.708   5.273   4.337
10514SOL    HW131846   2.777   5.210   4.316
10514SOL    HW231847   2.675   5.245   4.422
10515SOL     OW31848   0.429   4.766   4.519
10515SOL    HW131849   0.484   4.704   4.471
10515SOL    HW231850   0.417   4.726   4.605
10516SOL     OW31851   0.576   5.632   1.946
10516SOL    HW131852   0.583   5.710   2.000
10516SOL    HW231853   0.658   5.629   1.897
10517SOL     OW31854   4.677   5.107   3.652
10517SOL    HW131855   4.653   5.136   3.564
10517SOL    HW231856   4.693   5.188   3.700
10518SOL     OW31857   2.363   0.393   3.561
10518SOL    HW131858   2.414   0.461   3.517
10518SOL    HW231859   2.295   0.370   3.498
10519SOL     OW31860   6.476   4.341   5.781
10519SOL    HW131861   2.308   0.294   0.004
10519SOL    HW231862   6.417   4.299   5.719
10520SOL     OW31863   6.394   1.766   1.972
10520SOL    HW131864   6.455   1.778   1.899
10520SOL    HW231865   6.333   1.698   1.942
10521SOL     OW31866   6.569   1.362   3.326
10521SOL    HW131867   6.500   1.428   3.315
10521SOL    HW231868   6.532   1.300   3.389
10522SOL     OW31869   3.760   0.439   0.753
10522SOL    HW131870   3.712   0.410   0.830
10522SOL    HW231871   3.748   0.534   0.751
10523SOL     OW31872   7.499   0.330   0.139
10523SOL    HW131873   7.409   0.317   0.108
10523SOL    HW231874   7.554   0.293   0.070
10524SOL     OW31875   3.391   7.167   3.563
10524SOL    HW131876   3.453   7.098   3.585
10524SOL    HW231877   3.428   7.246   3.603
10525SOL     OW31878   7.778   7.991   3.358
10525SOL    HW131879   7.732   7.961   3.436
10525SOL    HW231880   7.859   7.940   3.357
10526SOL     OW31881   7.902   0.263   4.721
10526SOL    HW131882   7.853   0.215   4.788
10526SOL    HW231883   7.835   0.305   4.667
10527SOL     OW31884   2.896   1.986   0.002
10527SOL    HW131885   2.960   1.926   0.040
10527SOL    HW231886   7.010   6.079   5.728
10528SOL     OW31887   2.885   0.689   4.596
10528SOL    HW131888   2.895   0.763   4.536
10528SOL    HW231889   2.804   0.708   4.643
10529SOL     OW31890   2.290   6.090   3.061
10529SOL    HW131891   2.351   6.018   3.076
10529SOL    HW231892   2.314   6.156   3.126
10530SOL     OW31893   1.691   6.328   1.001
10530SOL    HW131894   1.601   6.361   1.007
10530SOL    HW231895   1.685   6.237   1.030
10531SOL     OW31896   5.280   3.443   1.463
10531SOL    HW131897   5.243   3.446   1.375
10531SOL    HW231898   5.294   3.350   1.480
10532SOL     OW31899   5.363   7.297   4.740
10532SOL    HW131900   5.312   7.321   4.818
10532SOL    HW231901   5.298   7.290   4.670
10533SOL     OW31902   3.984   4.752   0.659
10533SOL    HW131903   3.955   4.842   0.670
10533SOL    HW231904   3.907   4.706   0.624
10534SOL     OW31905   7.997   2.385   4.218
10534SOL    HW131906   7.984   2.470   4.175
10534SOL    HW231907   7.911   2.343   4.214
10535SOL     OW31908   5.365   7.305   3.183
10535SOL    HW131909   5.376   7.397   3.158
10535SOL    HW231910   5.315   7.308   3.264
10536SOL     OW31911   6.213   7.178   4.524
10536SOL    HW131912   6.168   7.185   4.608
10536SOL    HW231913   6.250   7.090   4.523
10537SOL     OW31914   5.532   6.209   5.641
10537SOL    HW131915   5.480   6.141   5.684
10537SOL    HW231916   5.619   6.202   5.680
10538SOL     OW31917   5.004   6.456   1.200
10538SOL    HW131918   5.092   6.494   1.195
10538SOL    HW231919   4.953   6.519   1.250
10539SOL     OW31920   6.016   1.266   3.978
10539SOL    HW131921   6.089   1.207   3.997
10539SOL    HW231922   6.005   1.260   3.883
10540SOL     OW31923   5.946   7.148   2.488
10540SOL    HW131924   5.940   7.121   2.396
10540SOL    HW231925   6.030   7.114   2.517
10541SOL     OW31926   6.358   0.259   4.419
10541SOL    HW131927   6.267   0.282   4.437
10541SOL    HW231928   6.354   0.201   4.343
10542SOL     OW31929   4.581   1.939   4.764
10542SOL    HW131930   4.496   1.979   4.748
10542SOL    HW231931   4.638   1.977   4.697
10543SOL     OW31932   1.300   0.758   2.522
10543SOL    HW131933   1.319   0.823   2.454
10543SOL    HW231934   1.228   0.796   2.572
10544SOL     OW31935   7.062   6.885   5.335
10544SOL    HW131936   7.086   6.801   5.374
10544SOL    HW231937   7.028   6.862   5.249
10545SOL     OW31938   2.131   2.757   5.425
10545SOL    HW131939   2.165   2.682   5.376
10545SOL    HW231940   2.208   2.794   5.468
10546SOL     OW31941   0.511   4.889   5.299
10546SOL    HW131942   0.427   4.923   5.328
10546SOL    HW231943   0.570   4.964   5.302
10547SOL     OW31944   6.497   1.129   2.152
10547SOL    HW131945   6.503   1.036   2.174
10547SOL    HW231946   6.417   1.159   2.195
10548SOL     OW31947   7.057   2.900   4.213
10548SOL    HW131948   6.998   2.925   4.284
10548SOL    HW231949   6.999   2.880   4.140
10549SOL     OW31950   5.190   5.944   0.981
10549SOL    HW131951   5.133   6.010   1.019
10549SOL    HW231952   5.218   5.891   1.056
10550SOL     OW31953   1.421   5.482   2.264
10550SOL    HW131954   1.504   5.485   2.217
10550SOL    HW231955   1.432   5.412   2.328
10551SOL     OW31956   3.909   3.472   3.899
10551SOL    HW131957   3.987   3.461   3.953
10551SOL    HW231958   3.858   3.539   3.944
10552SOL     OW31959   3.745   5.883   3.386
10552SOL    HW131960   3.656   5.905   3.413
10552SOL    HW231961   3.762   5.797   3.425
10553SOL     OW31962   0.652   0.477   0.782
10553SOL    HW131963   0.600   0.397   0.772
10553SOL    HW231964   0.688   0.494   0.695
10554SOL     OW31965   3.321   8.028   1.994
10554SOL    HW131966   3.242   8.077   2.017
10554SOL    HW231967   3.360   8.079   1.923
10555SOL     OW31968   5.086   6.367   3.853
10555SOL    HW131969   5.051   6.378   3.765
10555SOL    HW231970   5.171   6.410   3.850
10556SOL     OW31971   5.411   2.109   3.676
10556SOL    HW131972   5.331   2.083   3.630
10556SOL    HW231973   5.402   2.071   3.763
10557SOL     OW31974   2.471   8.094   4.613
10557SOL    HW131975   2.479   8.164   4.548
10557SOL    HW231976   2.495   8.135   4.696
10558SOL     OW31977   4.527   2.402   2.218
10558SOL    HW131978   4.586   2.389   2.143
10558SOL    HW231979   4.455   2.455   2.183
10559SOL     OW31980   4.138   2.376   5.172
10559SOL    HW131981   4.222   2.340   5.200
10559SOL    HW231982   4.145   2.470   5.190
10560SOL     OW31983   4.909   2.114   4.893
10560SOL    HW131984   4.876   2.026   4.908
10560SOL    HW231985   4.990   2.118   4.943
10561SOL     OW31986   1.336   1.063   3.843
10561SOL    HW131987   1.372   1.043   3.929
10561SOL    HW231988   1.321   1.157   3.844
10562SOL     OW31989   7.050   2.337   0.879
10562SOL    HW131990   6.980   2.383   0.833
10562SOL    HW231991   7.128   2.355   0.827
10563SOL     OW31992   7.517   5.768   5.232
10563SOL    HW131993   7.515   5.760   5.137
10563SOL    HW231994   7.607   5.747   5.256
10564SOL     OW31995   7.924   1.231   4.158
10564SOL    HW131996   7.900   1.256   4.069
10564SOL    HW231997   7.965   1.309   4.195
10565SOL     OW31998   0.974   3.784   0.977
10565SOL    HW131999   1.021   3.837   1.042
10565SOL    HW232000   0.883   3.812   0.984
10566SOL     OW32001   6.741   6.892   5.535
10566SOL    HW132002   6.645   6.898   5.536
10566SOL    HW232003   6.769   6.966   5.482
10567SOL     OW32004   5.629   1.835   2.828
10567SOL    HW132005   5.641   1.930   2.832
10567SOL    HW232006   5.709   1.802   2.787
10568SOL     OW32007   4.294   3.104   2.150
10568SOL    HW132008   4.264   3.187   2.113
10568SOL    HW232009   4.352   3.129   2.221
10569SOL     OW32010   0.841   1.474   1.627
10569SOL    HW132011   0.907   1.528   1.671
10569SOL    HW232012   0.853   1.492   1.534
10570SOL     OW32013   5.447   3.797   0.384
10570SOL    HW132014   5.468   3.855   0.457
10570SOL    HW232015   5.518   3.811   0.321
10571SOL     OW32016   6.173   4.638   4.222
10571SOL    HW132017   6.182   4.547   4.193
10571SOL    HW232018   6.141   4.684   4.145
10572SOL     OW32019   4.186   3.702   5.637
10572SOL    HW132020   4.119   3.689   5.704
10572SOL    HW232021   4.215   3.614   5.614
10573SOL     OW32022   4.214   4.075   0.393
10573SOL    HW132023   4.236   4.001   0.337
10573SOL    HW232024   4.164   4.037   0.465
10574SOL     OW32025   0.219   7.576   5.594
10574SOL    HW132026   0.171   7.615   5.667
10574SOL    HW232027   0.152   7.533   5.541
10575SOL     OW32028   4.538   7.561   2.058
10575SOL    HW132029   4.496   7.509   1.990
10575SOL    HW232030   4.630   7.565   2.031
10576SOL     OW32031   4.651   2.348   4.664
10576SOL    HW132032   4.652   2.429   4.613
10576SOL    HW232033   4.695   2.371   4.746
10577SOL     OW32034   0.174   4.648   2.785
10577SOL    HW132035   0.241   4.601   2.834
10577SOL    HW232036   0.223   4.703   2.724
10578SOL     OW32037   2.522   0.366   2.571
10578SOL    HW132038   2.442   0.415   2.551
10578SOL    HW232039   2.490   0.283   2.607
10579SOL     OW32040   8.170   6.652   4.982
10579SOL    HW132041   0.007   6.583   4.988
10579SOL    HW232042   8.148   6.671   5.073
10580SOL     OW32043   5.663   4.007   3.461
10580SOL    HW132044   5.745   3.969   3.430
10580SOL    HW232045   5.602   3.933   3.463
10581SOL     OW32046   4.864   5.892   1.011
10581SOL    HW132047   4.920   5.970   1.007
10581SOL    HW232048   4.827   5.894   1.099
10582SOL     OW32049   4.179   7.165   1.708
10582SOL    HW132050   4.224   7.235   1.661
10582SOL    HW232051   4.156   7.101   1.641
10583SOL     OW32052   3.015   0.408   3.225
10583SOL    HW132053   3.018   0.501   3.245
10583SOL    HW232054   3.035   0.403   3.132
10584SOL     OW32055   3.608   3.195   0.875
10584SOL    HW132056   3.666   3.157   0.809
10584SOL    HW232057   3.636   3.154   0.957
10585SOL     OW32058   1.446   0.988   2.716
10585SOL    HW132059   1.416   1.026   2.798
10585SOL    HW232060   1.381   1.016   2.651
10586SOL     OW32061   0.180   7.396   4.267
10586SOL    HW132062   0.229   7.432   4.341
10586SOL    HW232063   0.201   7.303   4.268
10587SOL     OW32064   7.015   6.993   3.101
10587SOL    HW132065   6.971   6.971   3.019
10587SOL    HW232066   7.052   6.910   3.131
10588SOL     OW32067   3.060   6.870   3.512
10588SOL    HW132068   3.088   6.958   3.486
10588SOL    HW232069   3.035   6.880   3.604
10589SOL     OW32070   7.294   0.486   4.464
10589SOL    HW132071   7.339   0.405   4.441
10589SOL    HW232072   7.357   0.535   4.516
10590SOL     OW32073   8.218   6.626   0.197
10590SOL    HW132074   0.037   6.612   0.116
10590SOL    HW232075   0.053   6.662   0.258
10591SOL     OW32076   3.110   2.915   5.735
10591SOL    HW132077   3.119   2.820   5.728
10591SOL    HW232078   3.048   2.928   5.806
10592SOL     OW32079   5.842   0.740   4.545
10592SOL    HW132080   5.781   0.768   4.613
10592SOL    HW232081   5.787   0.725   4.468
10593SOL     OW32082   4.869   7.270   0.818
10593SOL    HW132083   4.916   7.218   0.883
10593SOL    HW232084   4.924   7.348   0.806
10594SOL     OW32085   7.944   0.855   3.502
10594SOL    HW132086   7.893   0.924   3.545
10594SOL    HW232087   7.986   0.807   3.574
10595SOL     OW32088   1.851   4.790   2.963
10595SOL    HW132089   1.805   4.713   2.929
10595SOL    HW232090   1.899   4.758   3.039
10596SOL     OW32091   0.446   1.468   2.112
10596SOL    HW132092   0.353   1.486   2.095
10596SOL    HW232093   0.487   1.555   2.113
10597SOL     OW32094   2.187   4.747   3.407
10597SOL    HW132095   2.164   4.789   3.324
10597SOL    HW232096   2.280   4.767   3.420
10598SOL     OW32097   6.106   3.388   0.808
10598SOL    HW132098   6.134   3.390   0.900
10598SOL    HW232099   6.026   3.440   0.806
10599SOL     OW32100   5.449   1.455   3.733
10599SOL    HW132101   5.360   1.475   3.763
10599SOL    HW232102   5.491   1.413   3.808
10600SOL     OW32103   7.769   1.484   2.644
10600SOL    HW132104   7.728   1.400   2.625
10600SOL    HW232105   7.706   1.529   2.700
10601SOL     OW32106   2.817   1.883   0.333
10601SOL    HW132107   2.824   1.972   0.368
10601SOL    HW232108   2.888   1.876   0.270
10602SOL     OW32109   6.858   6.745   0.069
10602SOL    HW132110   6.787   6.803   0.041
10602SOL    HW232111   6.821   6.657   0.062
10603SOL     OW32112   0.758   1.605   0.226
10603SOL    HW132113   0.802   1.528   0.262
10603SOL    HW232114   0.712   1.643   0.301
10604SOL     OW32115   7.453   2.375   2.524
10604SOL    HW132116   7.518   2.422   2.472
10604SOL    HW232117   7.504   2.322   2.585
10605SOL     OW32118   6.996   2.008   5.812
10605SOL    HW132119   2.852   6.080   0.073
10605SOL    HW232120   6.971   1.947   5.742
10606SOL     OW32121   7.554   1.623   2.801
10606SOL    HW132122   7.475   1.576   2.775
10606SOL    HW232123   7.573   1.681   2.727
10607SOL     OW32124   6.606   8.180   3.814
10607SOL    HW132125   6.691   8.213   3.844
10607SOL    HW232126   6.567   0.024   3.766
10608SOL     OW32127   6.942   2.152   2.998
10608SOL    HW132128   7.010   2.099   3.039
10608SOL    HW232129   6.989   2.208   2.937
10609SOL     OW32130   0.914   5.242   2.022
10609SOL    HW132131   0.852   5.288   1.965
10609SOL    HW232132   0.995   5.292   2.016
10610SOL     OW32133   5.499   6.306   2.455
10610SOL    HW132134   5.514   6.287   2.362
10610SOL    HW232135   5.542   6.390   2.470
10611SOL     OW32136   4.890   6.775   1.639
10611SOL    HW132137   4.848   6.829   1.572
10611SOL    HW232138   4.937   6.708   1.590
10612SOL     OW32139   2.113   6.954   0.352
10612SOL    HW132140   2.035   6.934   0.404
10612SOL    HW232141   2.154   6.869   0.337
10613SOL     OW32142   2.566   6.728   5.328
10613SOL    HW132143   2.638   6.731   5.391
10613SOL    HW232144   2.494   6.773   5.372
10614SOL     OW32145   0.445   7.988   0.069
10614SOL    HW132146   0.515   8.047   0.095
10614SOL    HW232147   4.528   3.909   5.805
10615SOL     OW32148   4.660   5.837   2.718
10615SOL    HW132149   4.593   5.787   2.672
10615SOL    HW232150   4.716   5.871   2.648
10616SOL     OW32151   4.258   4.152   3.641
10616SOL    HW132152   4.257   4.243   3.610
10616SOL    HW232153   4.346   4.121   3.621
10617SOL     OW32154   5.686   6.730   5.507
10617SOL    HW132155   5.708   6.730   5.414
10617SOL    HW232156   5.646   6.644   5.522
10618SOL     OW32157   1.931   2.946   4.711
10618SOL    HW132158   1.908   2.965   4.620
10618SOL    HW232159   1.866   2.993   4.762
10619SOL     OW32160   4.549   1.672   4.706
10619SOL    HW132161   4.494   1.686   4.629
10619SOL    HW232162   4.541   1.753   4.757
10620SOL     OW32163   7.786   5.441   4.679
10620SOL    HW132164   7.712   5.402   4.633
10620SOL    HW232165   7.791   5.530   4.645
10621SOL     OW32166   5.933   5.485   3.034
10621SOL    HW132167   5.979   5.567   3.017
10621SOL    HW232168   5.921   5.446   2.947
10622SOL     OW32169   5.900   4.782   3.264
10622SOL    HW132170   5.911   4.875   3.282
10622SOL    HW232171   5.869   4.745   3.347
10623SOL     OW32172   4.954   2.976   3.826
10623SOL    HW132173   4.988   3.035   3.758
10623SOL    HW232174   4.884   3.026   3.868
10624SOL     OW32175   8.172   2.704   2.389
10624SOL    HW132176   8.090   2.675   2.350
10624SOL    HW232177   8.154   2.706   2.483
10625SOL     OW32178   2.727   6.434   1.796
10625SOL    HW132179   2.694   6.516   1.832
10625SOL    HW232180   2.820   6.434   1.817
10626SOL     OW32181   3.486   3.866   2.164
10626SOL    HW132182   3.418   3.932   2.177
10626SOL    HW232183   3.446   3.802   2.105
10627SOL     OW32184   6.237   1.277   1.466
10627SOL    HW132185   6.314   1.226   1.440
10627SOL    HW232186   6.162   1.221   1.445
10628SOL     OW32187   4.444   3.644   0.955
10628SOL    HW132188   4.362   3.647   0.906
10628SOL    HW232189   4.449   3.554   0.987
10629SOL     OW32190   6.274   5.089   1.963
10629SOL    HW132191   6.201   5.144   1.935
10629SOL    HW232192   6.352   5.141   1.943
10630SOL     OW32193   2.036   4.712   3.638
10630SOL    HW132194   2.095   4.647   3.677
10630SOL    HW232195   2.081   4.742   3.559
10631SOL     OW32196   1.376   4.829   2.268
10631SOL    HW132197   1.322   4.763   2.313
10631SOL    HW232198   1.324   4.856   2.193
10632SOL     OW32199   1.615   4.146   2.449
10632SOL    HW132200   1.605   4.058   2.414
10632SOL    HW232201   1.525   4.174   2.468
10633SOL     OW32202   7.765   5.967   5.076
10633SOL    HW132203   7.850   6.008   5.061
10633SOL    HW232204   7.701   6.030   5.043
10634SOL     OW32205   3.904   1.395   1.904
10634SOL    HW132206   3.964   1.468   1.890
10634SOL    HW232207   3.817   1.435   1.906
10635SOL     OW32208   4.988   2.242   5.306
10635SOL    HW132209   5.048   2.187   5.357
10635SOL    HW232210   5.045   2.291   5.247
10636SOL     OW32211   3.796   6.204   3.594
10636SOL    HW132212   3.851   6.282   3.588
10636SOL    HW232213   3.719   6.224   3.541
10637SOL     OW32214   2.620   3.259   0.413
10637SOL    HW132215   2.605   3.345   0.453
10637SOL    HW232216   2.538   3.240   0.367
10638SOL     OW32217   0.896   0.548   5.215
10638SOL    HW132218   0.982   0.561   5.255
10638SOL    HW232219   0.915   0.529   5.123
10639SOL     OW32220   3.109   1.356   5.151
10639SOL    HW132221   3.057   1.397   5.082
10639SOL    HW232222   3.183   1.416   5.164
10640SOL     OW32223   2.019   7.986   0.221
10640SOL    HW132224   2.048   8.008   0.310
10640SOL    HW232225   2.059   7.901   0.203
10641SOL     OW32226   0.454   4.673   3.314
10641SOL    HW132227   0.404   4.692   3.235
10641SOL    HW232228   0.444   4.751   3.368
10642SOL     OW32229   7.342   2.092   2.076
10642SOL    HW132230   7.249   2.090   2.054
10642SOL    HW232231   7.381   2.150   2.011
10643SOL     OW32232   1.446   2.424   1.889
10643SOL    HW132233   1.521   2.402   1.944
10643SOL    HW232234   1.465   2.381   1.805
10644SOL     OW32235   1.928   1.667   5.135
10644SOL    HW132236   1.939   1.762   5.131
10644SOL    HW232237   1.922   1.640   5.043
10645SOL     OW32238   0.915   4.107   3.040
10645SOL    HW132239   1.008   4.087   3.054
10645SOL    HW232240   0.875   4.022   3.019
10646SOL     OW32241   0.300   6.305   2.614
10646SOL    HW132242   0.290   6.342   2.702
10646SOL    HW232243   0.380   6.346   2.580
10647SOL     OW32244   3.287   7.375   5.499
10647SOL    HW132245   3.269   7.467   5.480
10647SOL    HW232246   3.211   7.328   5.465
10648SOL     OW32247   7.297   3.651   2.452
10648SOL    HW132248   7.207   3.678   2.469
10648SOL    HW232249   7.326   3.706   2.380
10649SOL     OW32250   6.222   1.576   2.903
10649SOL    HW132251   6.189   1.566   2.814
10649SOL    HW232252   6.252   1.667   2.907
10650SOL     OW32253   5.006   2.485   3.860
10650SOL    HW132254   5.067   2.517   3.793
10650SOL    HW232255   4.920   2.487   3.817
10651SOL     OW32256   6.949   4.650   4.601
10651SOL    HW132257   6.894   4.630   4.677
10651SOL    HW232258   6.923   4.739   4.576
10652SOL     OW32259   1.982   4.377   3.340
10652SOL    HW132260   1.944   4.392   3.253
10652SOL    HW232261   1.913   4.404   3.401
10653SOL     OW32262   6.873   3.438   1.823
10653SOL    HW132263   6.874   3.365   1.762
10653SOL    HW232264   6.965   3.450   1.848
10654SOL     OW32265   1.785   5.118   1.045
10654SOL    HW132266   1.824   5.092   1.129
10654SOL    HW232267   1.860   5.134   0.988
10655SOL     OW32268   3.835   2.584   4.975
10655SOL    HW132269   3.820   2.677   4.960
10655SOL    HW232270   3.748   2.544   4.969
10656SOL     OW32271   1.621   5.048   2.875
10656SOL    HW132272   1.582   5.095   2.801
10656SOL    HW232273   1.574   5.080   2.952
10657SOL     OW32274   3.906   8.201   0.501
10657SOL    HW132275   3.898   8.115   0.543
10657SOL    HW232276   3.996   8.228   0.519
10658SOL     OW32277   6.172   0.793   0.690
10658SOL    HW132278   6.151   0.886   0.703
10658SOL    HW232279   6.231   0.772   0.762
10659SOL     OW32280   5.333   1.228   4.785
10659SOL    HW132281   5.273   1.282   4.733
10659SOL    HW232282   5.396   1.194   4.721
10660SOL     OW32283   5.949   5.923   2.021
10660SOL    HW132284   5.995   5.849   1.983
10660SOL    HW232285   5.860   5.916   1.987
10661SOL     OW32286   3.444   2.606   3.724
10661SOL    HW132287   3.360   2.624   3.767
10661SOL    HW232288   3.420   2.584   3.634
10662SOL     OW32289   6.931   4.220   0.394
10662SOL    HW132290   6.847   4.188   0.361
10662SOL    HW232291   6.909   4.262   0.477
10663SOL     OW32292   0.584   1.999   2.273
10663SOL    HW132293   0.649   1.930   2.259
10663SOL    HW232294   0.629   2.080   2.248
10664SOL     OW32295   6.056   2.486   4.904
10664SOL    HW132296   5.972   2.442   4.891
10664SOL    HW232297   6.061   2.503   4.998
10665SOL     OW32298   4.447   7.598   4.189
10665SOL    HW132299   4.363   7.561   4.162
10665SOL    HW232300   4.440   7.606   4.284
10666SOL     OW32301   0.609   2.452   0.083
10666SOL    HW132302   0.685   2.422   0.032
10666SOL    HW232303   0.536   2.399   0.050
10667SOL     OW32304   3.491   4.884   2.838
10667SOL    HW132305   3.527   4.834   2.765
10667SOL    HW232306   3.568   4.909   2.890
10668SOL     OW32307   0.015   7.265   3.751
10668SOL    HW132308   0.098   7.219   3.739
10668SOL    HW232309   8.183   7.218   3.694
10669SOL     OW32310   2.647   6.194   3.747
10669SOL    HW132311   2.610   6.128   3.806
10669SOL    HW232312   2.571   6.231   3.703
10670SOL     OW32313   2.637   0.469   0.203
10670SOL    HW132314   2.666   0.395   0.256
10670SOL    HW232315   2.717   0.520   0.189
10671SOL     OW32316   2.225   2.817   1.818
10671SOL    HW132317   2.242   2.772   1.901
10671SOL    HW232318   2.287   2.890   1.817
10672SOL     OW32319   1.478   1.406   1.969
10672SOL    HW132320   1.464   1.319   2.007
10672SOL    HW232321   1.571   1.424   1.983
10673SOL     OW32322   4.565   4.556   2.935
10673SOL    HW132323   4.528   4.644   2.923
10673SOL    HW232324   4.596   4.555   3.025
10674SOL     OW32325   3.270   1.339   1.214
10674SOL    HW132326   3.219   1.277   1.266
10674SOL    HW232327   3.338   1.286   1.173
10675SOL     OW32328   0.040   3.811   3.053
10675SOL    HW132329   0.039   3.748   2.981
10675SOL    HW232330   8.191   3.791   3.104
10676SOL     OW32331   1.835   0.571   3.072
10676SOL    HW132332   1.853   0.477   3.063
10676SOL    HW232333   1.744   0.576   3.100
10677SOL     OW32334   6.358   3.774   5.646
10677SOL    HW132335   6.407   3.856   5.652
10677SOL    HW232336   6.394   3.720   5.717
10678SOL     OW32337   1.816   4.952   5.466
10678SOL    HW132338   1.823   4.966   5.560
10678SOL    HW232339   1.767   4.870   5.457
10679SOL     OW32340   0.046   2.276   1.197
10679SOL    HW132341   8.181   2.289   1.208
10679SOL    HW232342   0.076   2.355   1.151
10680SOL     OW32343   5.003   0.256   4.981
10680SOL    HW132344   4.925   0.300   5.016
10680SOL    HW232345   5.031   0.198   5.051
10681SOL     OW32346   5.831   6.868   0.206
10681SOL    HW132347   5.777   6.895   0.280
10681SOL    HW232348   5.921   6.884   0.235
10682SOL     OW32349   3.875   3.529   0.365
10682SOL    HW132350   3.865   3.619   0.395
10682SOL    HW232351   3.814   3.521   0.292
10683SOL     OW32352   4.027   4.355   5.663
10683SOL    HW132353   4.092   4.410   5.620
10683SOL    HW232354   3.969   4.417   5.707
10684SOL     OW32355   3.694   6.168   4.551
10684SOL    HW132356   3.773   6.164   4.497
10684SOL    HW232357   3.695   6.256   4.589
10685SOL     OW32358   1.212   2.003   2.891
10685SOL    HW132359   1.166   2.047   2.820
10685SOL    HW232360   1.305   2.009   2.868
10686SOL     OW32361   6.601   0.526   0.468
10686SOL    HW132362   6.623   0.586   0.540
10686SOL    HW232363   6.530   0.570   0.421
10687SOL     OW32364   0.173   2.336   5.281
10687SOL    HW132365   0.170   2.241   5.289
10687SOL    HW232366   0.226   2.352   5.203
10688SOL     OW32367   2.395   2.643   1.316
10688SOL    HW132368   2.363   2.732   1.328
10688SOL    HW232369   2.486   2.646   1.345
10689SOL     OW32370   3.293   2.300   2.487
10689SOL    HW132371   3.335   2.323   2.404
10689SOL    HW232372   3.224   2.365   2.497
10690SOL     OW32373   1.554   6.523   4.475
10690SOL    HW132374   1.567   6.610   4.437
10690SOL    HW232375   1.472   6.492   4.437
10691SOL     OW32376   4.399   0.781   2.658
10691SOL    HW132377   4.408   0.696   2.700
10691SOL    HW232378   4.488   0.815   2.654
10692SOL     OW32379   5.569   6.440   3.386
10692SOL    HW132380   5.526   6.360   3.414
10692SOL    HW232381   5.536   6.507   3.446
10693SOL     OW32382   3.207   2.738   4.695
10693SOL    HW132383   3.128   2.708   4.740
10693SOL    HW232384   3.228   2.822   4.737
10694SOL     OW32385   0.418   3.622   0.703
10694SOL    HW132386   0.355   3.666   0.646
10694SOL    HW232387   0.426   3.680   0.779
10695SOL     OW32388   7.461   4.817   4.007
10695SOL    HW132389   7.548   4.798   4.042
10695SOL    HW232390   7.453   4.912   4.015
10696SOL     OW32391   4.976   4.302   3.044
10696SOL    HW132392   4.986   4.397   3.035
10696SOL    HW232393   5.050   4.265   2.995
10697SOL     OW32394   7.492   1.423   0.800
10697SOL    HW132395   7.559   1.432   0.868
10697SOL    HW232396   7.537   1.382   0.727
10698SOL     OW32397   0.304   6.472   1.867
10698SOL    HW132398   0.240   6.402   1.853
10698SOL    HW232399   0.265   6.549   1.825
10699SOL     OW32400   0.598   3.732   3.804
10699SOL    HW132401   0.631   3.648   3.837
10699SOL    HW232402   0.612   3.793   3.877
10700SOL     OW32403   2.472   7.162   4.581
10700SOL    HW132404   2.505   7.213   4.655
10700SOL    HW232405   2.381   7.190   4.572
10701SOL     OW32406   0.007   1.380   3.810
10701SOL    HW132407   0.102   1.376   3.800
10701SOL    HW232408   8.223   1.419   3.897
10702SOL     OW32409   1.935   1.080   2.005
10702SOL    HW132410   1.862   1.119   1.957
10702SOL    HW232411   1.935   0.988   1.978
10703SOL     OW32412   2.165   1.816   0.129
10703SOL    HW132413   2.211   1.800   0.047
10703SOL    HW232414   2.229   1.796   0.197
10704SOL     OW32415   6.378   0.384   3.902
10704SOL    HW132416   6.378   0.462   3.957
10704SOL    HW232417   6.471   0.363   3.890
10705SOL     OW32418   1.165   4.122   1.727
10705SOL    HW132419   1.231   4.175   1.773
10705SOL    HW232420   1.115   4.080   1.797
10706SOL     OW32421   4.281   6.859   4.537
10706SOL    HW132422   4.363   6.905   4.557
10706SOL    HW232423   4.292   6.773   4.578
10707SOL     OW32424   7.143   6.985   5.005
10707SOL    HW132425   7.223   6.933   5.001
10707SOL    HW232426   7.121   7.003   4.913
10708SOL     OW32427   6.383   6.824   1.041
10708SOL    HW132428   6.356   6.820   1.133
10708SOL    HW232429   6.353   6.741   1.003
10709SOL     OW32430   4.159   1.988   5.439
10709SOL    HW132431   4.145   1.895   5.420
10709SOL    HW232432   4.215   1.988   5.517
10710SOL     OW32433   4.147   5.450   4.557
10710SOL    HW132434   4.162   5.363   4.595
10710SOL    HW232435   4.150   5.436   4.462
10711SOL     OW32436   1.549   1.686   0.480
10711SOL    HW132437   1.528   1.707   0.389
10711SOL    HW232438   1.472   1.715   0.529
10712SOL     OW32439   1.926   1.733   1.150
10712SOL    HW132440   1.942   1.721   1.056
10712SOL    HW232441   1.869   1.810   1.155
10713SOL     OW32442   6.394   3.127   1.535
10713SOL    HW132443   6.321   3.186   1.555
10713SOL    HW232444   6.470   3.170   1.574
10714SOL     OW32445   1.670   8.051   2.916
10714SOL    HW132446   1.621   8.128   2.945
10714SOL    HW232447   1.603   7.993   2.879
10715SOL     OW32448   0.776   6.578   2.113
10715SOL    HW132449   0.751   6.559   2.023
10715SOL    HW232450   0.751   6.500   2.162
10716SOL     OW32451   7.754   6.522   1.898
10716SOL    HW132452   7.676   6.577   1.895
10716SOL    HW232453   7.720   6.432   1.897
10717SOL     OW32454   2.276   4.545   1.110
10717SOL    HW132455   2.365   4.565   1.138
10717SOL    HW232456   2.264   4.596   1.030
10718SOL     OW32457   2.549   5.090   2.092
10718SOL    HW132458   2.472   5.098   2.148
10718SOL    HW232459   2.560   4.996   2.080
10719SOL     OW32460   2.901   3.748   1.888
10719SOL    HW132461   2.862   3.718   1.970
10719SOL    HW232462   2.920   3.841   1.903
10720SOL     OW32463   6.459   3.763   1.740
10720SOL    HW132464   6.511   3.687   1.767
10720SOL    HW232465   6.500   3.793   1.659
10721SOL     OW32466   3.712   1.282   5.762
10721SOL    HW132467   3.692   1.292   5.669
10721SOL    HW232468   3.659   1.349   5.805
10722SOL     OW32469   1.398   7.983   0.873
10722SOL    HW132470   1.432   8.031   0.949
10722SOL    HW232471   1.382   8.051   0.807
10723SOL     OW32472   6.026   4.114   2.367
10723SOL    HW132473   6.083   4.093   2.441
10723SOL    HW232474   6.055   4.056   2.297
10724SOL     OW32475   7.636   1.392   5.081
10724SOL    HW132476   7.589   1.386   4.998
10724SOL    HW232477   7.622   1.307   5.123
10725SOL     OW32478   7.404   5.761   2.116
10725SOL    HW132479   7.458   5.682   2.120
10725SOL    HW232480   7.381   5.779   2.207
10726SOL     OW32481   7.497   4.383   5.738
10726SOL    HW132482   7.525   4.469   5.707
10726SOL    HW232483   7.568   4.324   5.713
10727SOL     OW32484   7.220   6.991   2.253
10727SOL    HW132485   7.269   7.058   2.205
10727SOL    HW232486   7.148   7.039   2.295
10728SOL     OW32487   7.293   5.842   3.134
10728SOL    HW132488   7.252   5.928   3.126
10728SOL    HW232489   7.330   5.841   3.222
10729SOL     OW32490   5.082   2.693   0.458
10729SOL    HW132491   5.007   2.636   0.474
10729SOL    HW232492   5.122   2.705   0.544
10730SOL     OW32493   6.725   7.248   2.863
10730SOL    HW132494   6.693   7.242   2.953
10730SOL    HW232495   6.800   7.308   2.868
10731SOL     OW32496   4.518   7.738   1.609
10731SOL    HW132497   4.503   7.825   1.572
10731SOL    HW232498   4.494   7.747   1.701
10732SOL     OW32499   6.009   1.764   5.729
10732SOL    HW132500   5.919   1.744   5.755
10732SOL    HW232501   6.054   1.786   5.811
10733SOL     OW32502   3.545   0.562   0.313
10733SOL    HW132503   3.577   0.473   0.300
10733SOL    HW232504   3.604   0.616   0.261
10734SOL     OW32505   1.101   4.436   2.291
10734SOL    HW132506   1.009   4.417   2.311
10734SOL    HW232507   1.100   4.469   2.201
10735SOL     OW32508   3.842   0.038   5.530
10735SOL    HW132509   3.796   0.108   5.576
10735SOL    HW232510   3.908   0.083   5.478
10736SOL     OW32511   2.411   7.189   0.992
10736SOL    HW132512   2.389   7.163   1.081
10736SOL    HW232513   2.353   7.137   0.937
10737SOL     OW32514   6.453   6.536   1.507
10737SOL    HW132515   6.522   6.564   1.567
10737SOL    HW232516   6.489   6.552   1.420
10738SOL     OW32517   4.772   1.031   0.837
10738SOL    HW132518   4.759   0.940   0.809
10738SOL    HW232519   4.865   1.048   0.819
10739SOL     OW32520   5.915   5.031   0.905
10739SOL    HW132521   6.005   5.003   0.918
10739SOL    HW232522   5.884   4.980   0.830
10740SOL     OW32523   2.773   4.869   2.055
10740SOL    HW132524   2.858   4.885   2.014
10740SOL    HW232525   2.795   4.845   2.145
10741SOL     OW32526   7.635   1.299   4.276
10741SOL    HW132527   7.726   1.274   4.264
10741SOL    HW232528   7.591   1.270   4.196
10742SOL     OW32529   0.588   5.928   1.833
10742SOL    HW132530   0.561   5.848   1.788
10742SOL    HW232531   0.559   5.916   1.923
10743SOL     OW32532   4.300   3.926   1.407
10743SOL    HW132533   4.322   3.945   1.498
10743SOL    HW232534   4.269   3.836   1.408
10744SOL     OW32535   5.958   3.811   4.107
10744SOL    HW132536   5.910   3.844   4.183
10744SOL    HW232537   6.037   3.771   4.144
10745SOL     OW32538   4.434   2.790   5.105
10745SOL    HW132539   4.373   2.804   5.032
10745SOL    HW232540   4.491   2.719   5.075
10746SOL     OW32541   4.905   1.914   2.526
10746SOL    HW132542   4.847   1.863   2.469
10746SOL    HW232543   4.890   2.005   2.500
10747SOL     OW32544   4.163   2.448   4.318
10747SOL    HW132545   4.087   2.393   4.334
10747SOL    HW232546   4.200   2.415   4.236
10748SOL     OW32547   8.084   4.362   4.099
10748SOL    HW132548   8.037   4.333   4.021
10748SOL    HW232549   8.161   4.306   4.102
10749SOL     OW32550   4.780   8.086   4.836
10749SOL    HW132551   4.807   8.098   4.927
10749SOL    HW232552   4.802   7.995   4.817
10750SOL     OW32553   6.834   6.865   2.354
10750SOL    HW132554   6.814   6.838   2.444
10750SOL    HW232555   6.900   6.934   2.364
10751SOL     OW32556   1.019   6.537   2.873
10751SOL    HW132557   1.064   6.608   2.828
10751SOL    HW232558   1.085   6.500   2.932
10752SOL     OW32559   3.514   5.302   0.499
10752SOL    HW132560   3.468   5.236   0.447
10752SOL    HW232561   3.501   5.274   0.590
10753SOL     OW32562   3.331   5.362   3.678
10753SOL    HW132563   3.338   5.295   3.610
10753SOL    HW232564   3.273   5.323   3.743
10754SOL     OW32565   6.888   2.563   4.592
10754SOL    HW132566   6.916   2.471   4.594
10754SOL    HW232567   6.814   2.566   4.652
10755SOL     OW32568   3.455   5.720   5.003
10755SOL    HW132569   3.468   5.807   5.041
10755SOL    HW232570   3.514   5.717   4.928
10756SOL     OW32571   2.718   7.554   1.283
10756SOL    HW132572   2.637   7.603   1.266
10756SOL    HW232573   2.691   7.462   1.282
10757SOL     OW32574   8.184   0.668   5.099
10757SOL    HW132575   0.025   0.615   5.135
10757SOL    HW232576   8.162   0.730   5.169
10758SOL     OW32577   5.043   5.483   2.375
10758SOL    HW132578   4.980   5.470   2.445
10758SOL    HW232579   5.114   5.422   2.395
10759SOL     OW32580   7.107   4.389   0.026
10759SOL    HW132581   2.963   0.359   5.812
10759SOL    HW232582   3.026   0.229   5.768
10760SOL     OW32583   7.378   1.620   0.500
10760SOL    HW132584   7.404   1.528   0.509
10760SOL    HW232585   7.285   1.622   0.523
10761SOL     OW32586   1.954   4.961   5.188
10761SOL    HW132587   1.940   5.056   5.186
10761SOL    HW232588   1.936   4.936   5.279
10762SOL     OW32589   2.031   1.426   5.760
10762SOL    HW132590   6.078   5.565   0.005
10762SOL    HW232591   2.021   1.490   5.689
10763SOL     OW32592   4.453   2.760   2.839
10763SOL    HW132593   4.411   2.723   2.761
10763SOL    HW232594   4.503   2.835   2.806
10764SOL     OW32595   3.291   7.757   1.870
10764SOL    HW132596   3.282   7.839   1.918
10764SOL    HW232597   3.367   7.714   1.910
10765SOL     OW32598   2.325   0.882   0.713
10765SOL    HW132599   2.324   0.963   0.763
10765SOL    HW232600   2.409   0.841   0.735
10766SOL     OW32601   3.205   3.773   0.272
10766SOL    HW132602   3.131   3.806   0.323
10766SOL    HW232603   3.166   3.714   0.207
10767SOL     OW32604   5.683   6.054   4.590
10767SOL    HW132605   5.673   6.136   4.541
10767SOL    HW232606   5.661   6.077   4.680
10768SOL     OW32607   2.154   4.541   5.717
10768SOL    HW132608   2.116   4.612   5.665
10768SOL    HW232609   2.190   4.584   5.795
10769SOL     OW32610   5.695   7.345   5.091
10769SOL    HW132611   5.757   7.319   5.023
10769SOL    HW232612   5.689   7.440   5.082
10770SOL     OW32613   7.494   1.612   3.760
10770SOL    HW132614   7.474   1.594   3.668
10770SOL    HW232615   7.436   1.684   3.784
10771SOL     OW32616   1.938   1.789   4.525
10771SOL    HW132617   1.908   1.879   4.541
10771SOL    HW232618   1.897   1.765   4.442
10772SOL     OW32619   3.343   1.220   4.213
10772SOL    HW132620   3.372   1.273   4.139
10772SOL    HW232621   3.415   1.159   4.228
10773SOL     OW32622   2.830   3.430   1.137
10773SOL    HW132623   2.892   3.380   1.084
10773SOL    HW232624   2.773   3.473   1.073
10774SOL     OW32625   4.338   7.793   3.792
10774SOL    HW132626   4.391   7.872   3.807
10774SOL    HW232627   4.287   7.782   3.872
10775SOL     OW32628   0.708   7.422   1.266
10775SOL    HW132629   0.803   7.433   1.263
10775SOL    HW232630   0.676   7.502   1.307
10776SOL     OW32631   5.803   6.168   3.387
10776SOL    HW132632   5.812   6.147   3.480
10776SOL    HW232633   5.754   6.095   3.350
10777SOL     OW32634   1.398   0.428   0.104
10777SOL    HW132635   1.453   0.368   0.153
10777SOL    HW232636   1.432   0.424   0.015
10778SOL     OW32637   2.685   7.964   3.038
10778SOL    HW132638   2.677   7.886   3.094
10778SOL    HW232639   2.598   7.975   2.999
10779SOL     OW32640   4.797   0.978   2.786
10779SOL    HW132641   4.726   1.039   2.765
10779SOL    HW232642   4.757   0.913   2.844
10780SOL     OW32643   1.034   6.685   3.890
10780SOL    HW132644   0.959   6.653   3.939
10780SOL    HW232645   1.105   6.625   3.913
10781SOL     OW32646   3.022   2.773   4.398
10781SOL    HW132647   2.953   2.802   4.458
10781SOL    HW232648   3.104   2.792   4.444
10782SOL     OW32649   0.097   8.170   3.081
10782SOL    HW132650   0.101   8.126   3.166
10782SOL    HW232651   0.185   8.159   3.045
10783SOL     OW32652   6.773   4.061   0.005
10783SOL    HW132653   6.841   4.046   0.071
10783SOL    HW232654   6.747   4.152   0.017
10784SOL     OW32655   6.259   7.447   2.970
10784SOL    HW132656   6.200   7.470   3.042
10784SOL    HW232657   6.343   7.429   3.013
10785SOL     OW32658   5.299   4.112   3.343
10785SOL    HW132659   5.367   4.045   3.342
10785SOL    HW232660   5.249   4.096   3.263
10786SOL     OW32661   7.283   4.302   0.853
10786SOL    HW132662   7.351   4.366   0.832
10786SOL    HW232663   7.217   4.352   0.901
10787SOL     OW32664   0.988   8.121   5.520
10787SOL    HW132665   0.923   8.052   5.511
10787SOL    HW232666   1.058   8.081   5.572
10788SOL     OW32667   2.929   1.445   3.091
10788SOL    HW132668   2.984   1.405   3.159
10788SOL    HW232669   2.973   1.423   3.009
10789SOL     OW32670   5.491   1.285   4.554
10789SOL    HW132671   5.503   1.378   4.533
10789SOL    HW232672   5.448   1.248   4.477
10790SOL     OW32673   1.058   0.313   0.767
10790SOL    HW132674   1.042   0.367   0.844
10790SOL    HW232675   1.060   0.375   0.694
10791SOL     OW32676   7.174   3.956   5.115
10791SOL    HW132677   7.229   4.025   5.078
10791SOL    HW232678   7.123   3.924   5.041
10792SOL     OW32679   7.100   8.003   0.164
10792SOL    HW132680   7.055   7.970   0.242
10792SOL    HW232681   7.184   8.035   0.197
10793SOL     OW32682   3.839   1.363   1.490
10793SOL    HW132683   3.868   1.306   1.419
10793SOL    HW232684   3.862   1.316   1.570
10794SOL     OW32685   3.114   6.635   0.305
10794SOL    HW132686   3.148   6.663   0.390
10794SOL    HW232687   3.112   6.715   0.253
10795SOL     OW32688   5.595   6.790   3.618
10795SOL    HW132689   5.546   6.717   3.580
10795SOL    HW232690   5.575   6.786   3.712
10796SOL     OW32691   2.830   1.757   5.504
10796SOL    HW132692   2.873   1.682   5.462
10796SOL    HW232693   2.807   1.815   5.432
10797SOL     OW32694   3.685   7.214   2.873
10797SOL    HW132695   3.761   7.198   2.818
10797SOL    HW232696   3.713   7.284   2.933
10798SOL     OW32697   4.919   5.327   0.377
10798SOL    HW132698   4.952   5.267   0.443
10798SOL    HW232699   4.998   5.363   0.335
10799SOL     OW32700   1.386   6.804   4.514
10799SOL    HW132701   1.326   6.870   4.480
10799SOL    HW232702   1.457   6.854   4.554
10800SOL     OW32703   2.324   3.380   0.033
10800SOL    HW132704   2.357   3.445   0.095
10800SOL    HW232705   6.407   7.546   5.778
10801SOL     OW32706   6.601   1.066   4.431
10801SOL    HW132707   6.563   0.988   4.391
10801SOL    HW232708   6.530   1.104   4.483
10802SOL     OW32709   6.134   3.848   4.469
10802SOL    HW132710   6.134   3.891   4.555
10802SOL    HW232711   6.201   3.895   4.419
10803SOL     OW32712   8.117   3.048   4.756
10803SOL    HW132713   8.117   3.035   4.851
10803SOL    HW232714   8.037   3.098   4.739
10804SOL     OW32715   2.648   6.014   4.677
10804SOL    HW132716   2.586   5.946   4.702
10804SOL    HW232717   2.734   5.972   4.683
10805SOL     OW32718   0.236   4.364   0.610
10805SOL    HW132719   0.205   4.390   0.523
10805SOL    HW232720   0.252   4.447   0.655
10806SOL     OW32721   8.067   4.434   2.365
10806SOL    HW132722   8.073   4.468   2.276
10806SOL    HW232723   8.046   4.510   2.419
10807SOL     OW32724   3.534   3.447   4.941
10807SOL    HW132725   3.553   3.360   4.977
10807SOL    HW232726   3.561   3.441   4.849
10808SOL     OW32727   5.406   7.376   2.270
10808SOL    HW132728   5.418   7.387   2.364
10808SOL    HW232729   5.477   7.317   2.243
10809SOL     OW32730   1.010   6.659   0.591
10809SOL    HW132731   0.949   6.599   0.547
10809SOL    HW232732   0.987   6.652   0.684
10810SOL     OW32733   2.908   1.004   0.591
10810SOL    HW132734   2.821   1.012   0.553
10810SOL    HW232735   2.914   0.912   0.618
10811SOL     OW32736   1.709   7.364   4.254
10811SOL    HW132737   1.744   7.276   4.242
10811SOL    HW232738   1.715   7.404   4.167
10812SOL     OW32739   5.245   5.743   0.799
10812SOL    HW132740   5.212   5.679   0.862
10812SOL    HW232741   5.234   5.827   0.843
10813SOL     OW32742   0.394   7.100   5.060
10813SOL    HW132743   0.469   7.040   5.055
10813SOL    HW232744   0.433   7.185   5.081
10814SOL     OW32745   4.347   7.214   1.499
10814SOL    HW132746   4.397   7.230   1.419
10814SOL    HW232747   4.306   7.129   1.485
10815SOL     OW32748   0.980   2.999   3.070
10815SOL    HW132749   0.940   2.996   3.157
10815SOL    HW232750   1.001   3.091   3.057
10816SOL     OW32751   1.794   5.564   3.880
10816SOL    HW132752   1.820   5.622   3.952
10816SOL    HW232753   1.795   5.620   3.802
10817SOL     OW32754   7.663   3.210   4.593
10817SOL    HW132755   7.581   3.167   4.567
10817SOL    HW232756   7.726   3.185   4.525
10818SOL     OW32757   7.308   0.191   4.063
10818SOL    HW132758   7.222   0.233   4.071
10818SOL    HW232759   7.324   0.153   4.149
10819SOL     OW32760   2.483   6.045   3.426
10819SOL    HW132761   2.547   5.979   3.453
10819SOL    HW232762   2.401   6.018   3.467
10820SOL     OW32763   4.252   5.478   2.239
10820SOL    HW132764   4.156   5.481   2.237
10820SOL    HW232765   4.279   5.520   2.158
10821SOL     OW32766   7.155   2.939   2.578
10821SOL    HW132767   7.154   2.884   2.656
10821SOL    HW232768   7.063   2.959   2.562
10822SOL     OW32769   0.963   7.980   2.678
10822SOL    HW132770   1.058   7.966   2.672
10822SOL    HW232771   0.926   7.892   2.675
10823SOL     OW32772   2.346   2.204   0.402
10823SOL    HW132773   2.426   2.249   0.376
10823SOL    HW232774   2.292   2.272   0.442
10824SOL     OW32775   5.658   2.552   3.679
10824SOL    HW132776   5.625   2.553   3.769
10824SOL    HW232777   5.640   2.463   3.648
10825SOL     OW32778   2.478   5.746   0.411
10825SOL    HW132779   2.462   5.828   0.457
10825SOL    HW232780   2.459   5.678   0.476
10826SOL     OW32781   4.981   3.663   5.025
10826SOL    HW132782   5.036   3.741   5.014
10826SOL    HW232783   4.961   3.661   5.119
10827SOL     OW32784   4.184   1.222   1.362
10827SOL    HW132785   4.185   1.306   1.408
10827SOL    HW232786   4.114   1.172   1.404
10828SOL     OW32787   1.382   4.392   1.068
10828SOL    HW132788   1.444   4.373   1.139
10828SOL    HW232789   1.296   4.391   1.111
10829SOL     OW32790   1.666   4.729   0.605
10829SOL    HW132791   1.625   4.774   0.679
10829SOL    HW232792   1.593   4.702   0.549
10830SOL     OW32793   0.005   0.711   3.884
10830SOL    HW132794   0.046   0.630   3.854
10830SOL    HW232795   0.011   0.706   3.979
10831SOL     OW32796   4.737   1.674   0.842
10831SOL    HW132797   4.644   1.694   0.850
10831SOL    HW232798   4.781   1.749   0.882
10832SOL     OW32799   7.983   5.831   4.116
10832SOL    HW132800   8.049   5.896   4.141
10832SOL    HW232801   8.026   5.747   4.128
10833SOL     OW32802   6.719   4.345   3.587
10833SOL    HW132803   6.635   4.381   3.560
10833SOL    HW232804   6.774   4.422   3.603
10834SOL     OW32805   5.728   8.061   2.225
10834SOL    HW132806   5.820   8.044   2.245
10834SOL    HW232807   5.686   7.975   2.232
10835SOL     OW32808   4.513   6.809   1.419
10835SOL    HW132809   4.510   6.728   1.368
10835SOL    HW232810   4.456   6.869   1.371
10836SOL     OW32811   1.046   1.799   2.714
10836SOL    HW132812   1.076   1.887   2.735
10836SOL    HW232813   1.118   1.742   2.740
10837SOL     OW32814   5.541   0.344   3.114
10837SOL    HW132815   5.465   0.376   3.162
10837SOL    HW232816   5.576   0.274   3.168
10838SOL     OW32817   1.159   6.273   4.062
10838SOL    HW132818   1.155   6.219   3.983
10838SOL    HW232819   1.074   6.261   4.104
10839SOL     OW32820   4.807   5.200   0.168
10839SOL    HW132821   4.812   5.266   0.237
10839SOL    HW232822   4.786   5.119   0.214
10840SOL     OW32823   6.400   2.817   3.502
10840SOL    HW132824   6.480   2.780   3.540
10840SOL    HW232825   6.357   2.743   3.460
10841SOL     OW32826   6.924   4.179   2.043
10841SOL    HW132827   7.003   4.197   2.094
10841SOL    HW232828   6.858   4.155   2.108
10842SOL     OW32829   5.216   7.793   1.149
10842SOL    HW132830   5.244   7.708   1.182
10842SOL    HW232831   5.164   7.831   1.220
10843SOL     OW32832   4.107   6.508   3.519
10843SOL    HW132833   4.163   6.468   3.452
10843SOL    HW232834   4.049   6.567   3.470
10844SOL     OW32835   5.290   6.747   2.912
10844SOL    HW132836   5.270   6.809   2.982
10844SOL    HW232837   5.256   6.663   2.943
10845SOL     OW32838   4.207   5.578   5.123
10845SOL    HW132839   4.158   5.497   5.134
10845SOL    HW232840   4.194   5.626   5.205
10846SOL     OW32841   4.536   3.898   4.561
10846SOL    HW132842   4.545   3.990   4.535
10846SOL    HW232843   4.626   3.866   4.566
10847SOL     OW32844   1.117   7.100   4.279
10847SOL    HW132845   1.046   7.122   4.219
10847SOL    HW232846   1.196   7.101   4.224
10848SOL     OW32847   5.254   6.875   3.134
10848SOL    HW132848   5.339   6.851   3.171
10848SOL    HW232849   5.219   6.939   3.196
10849SOL     OW32850   7.974   2.231   0.356
10849SOL    HW132851   7.999   2.304   0.413
10849SOL    HW232852   8.032   2.159   0.382
10850SOL     OW32853   6.440   4.663   5.503
10850SOL    HW132854   6.499   4.615   5.560
10850SOL    HW232855   6.367   4.603   5.488
10851SOL     OW32856   5.947   1.302   1.568
10851SOL    HW132857   5.898   1.363   1.623
10851SOL    HW232858   5.966   1.352   1.488
10852SOL     OW32859   0.838   0.847   3.482
10852SOL    HW132860   0.846   0.911   3.411
10852SOL    HW232861   0.795   0.772   3.442
10853SOL     OW32862   2.182   4.645   1.352
10853SOL    HW132863   2.213   4.613   1.267
10853SOL    HW232864   2.240   4.718   1.374
10854SOL     OW32865   3.415   6.789   4.638
10854SOL    HW132866   3.384   6.706   4.675
10854SOL    HW232867   3.357   6.855   4.677
10855SOL     OW32868   6.808   6.544   5.245
10855SOL    HW132869   6.797   6.481   5.174
10855SOL    HW232870   6.796   6.629   5.203
10856SOL     OW32871   4.767   7.613   1.562
10856SOL    HW132872   4.672   7.622   1.565
10856SOL    HW232873   4.799   7.688   1.611
10857SOL     OW32874   5.705   1.174   4.717
10857SOL    HW132875   5.705   1.080   4.699
10857SOL    HW232876   5.630   1.208   4.669
10858SOL     OW32877   6.408   7.002   3.343
10858SOL    HW132878   6.503   6.996   3.330
10858SOL    HW232879   6.380   6.912   3.361
10859SOL     OW32880   0.531   0.593   1.004
10859SOL    HW132881   0.485   0.515   1.035
10859SOL    HW232882   0.579   0.563   0.927
10860SOL     OW32883   0.810   3.557   5.698
10860SOL    HW132884   0.825   3.645   5.663
10860SOL    HW232885   0.719   3.557   5.726
10861SOL     OW32886   1.142   4.630   0.724
10861SOL    HW132887   1.213   4.644   0.661
10861SOL    HW232888   1.120   4.717   0.756
10862SOL     OW32889   4.879   4.036   2.787
10862SOL    HW132890   4.786   4.012   2.790
10862SOL    HW232891   4.905   4.019   2.696
10863SOL     OW32892   3.899   2.482   5.230
10863SOL    HW132893   3.953   2.416   5.185
10863SOL    HW232894   3.873   2.543   5.161
10864SOL     OW32895   2.083   2.420   2.643
10864SOL    HW132896   2.165   2.459   2.672
10864SOL    HW232897   2.020   2.492   2.646
10865SOL     OW32898   1.586   5.944   0.287
10865SOL    HW132899   1.630   6.022   0.320
10865SOL    HW232900   1.521   5.978   0.225
10866SOL     OW32901   5.691   2.856   5.054
10866SOL    HW132902   5.687   2.771   5.098
10866SOL    HW232903   5.625   2.851   4.985
10867SOL     OW32904   4.781   5.035   0.383
10867SOL    HW132905   4.733   4.952   0.391
10867SOL    HW232906   4.742   5.092   0.449
10868SOL     OW32907   1.155   3.471   0.714
10868SOL    HW132908   1.140   3.565   0.724
10868SOL    HW232909   1.110   3.448   0.632
10869SOL     OW32910   3.604   7.206   0.093
10869SOL    HW132911   3.638   7.211   0.182
10869SOL    HW232912   3.580   7.114   0.082
10870SOL     OW32913   4.718   6.726   0.969
10870SOL    HW132914   4.647   6.729   1.033
10870SOL    HW232915   4.732   6.633   0.954
10871SOL     OW32916   2.775   7.359   2.381
10871SOL    HW132917   2.753   7.429   2.320
10871SOL    HW232918   2.840   7.398   2.440
10872SOL     OW32919   6.643   7.901   3.847
10872SOL    HW132920   6.655   7.883   3.940
10872SOL    HW232921   6.616   7.993   3.843
10873SOL     OW32922   7.167   8.064   5.240
10873SOL    HW132923   7.193   8.074   5.148
10873SOL    HW232924   7.097   8.128   5.253
10874SOL     OW32925   6.063   4.904   0.035
10874SOL    HW132926   1.997   0.813   5.775
10874SOL    HW232927   6.071   4.981   0.092
10875SOL     OW32928   7.546   4.700   5.172
10875SOL    HW132929   7.636   4.689   5.142
10875SOL    HW232930   7.493   4.677   5.096
10876SOL     OW32931   1.233   1.415   1.515
10876SOL    HW132932   1.289   1.384   1.444
10876SOL    HW232933   1.273   1.379   1.594
10877SOL     OW32934   7.629   1.988   3.924
10877SOL    HW132935   7.631   1.920   3.991
10877SOL    HW232936   7.569   2.054   3.959
10878SOL     OW32937   6.601   7.621   5.168
10878SOL    HW132938   6.656   7.550   5.203
10878SOL    HW232939   6.587   7.679   5.242
10879SOL     OW32940   5.730   0.183   0.195
10879SOL    HW132941   5.735   0.117   0.126
10879SOL    HW232942   5.819   0.218   0.201
10880SOL     OW32943   2.327   6.296   4.070
10880SOL    HW132944   2.317   6.299   4.165
10880SOL    HW232945   2.360   6.208   4.052
10881SOL     OW32946   0.375   2.086   1.120
10881SOL    HW132947   0.387   1.995   1.091
10881SOL    HW232948   0.447   2.102   1.181
10882SOL     OW32949   0.297   4.489   3.616
10882SOL    HW132950   0.218   4.487   3.670
10882SOL    HW232951   0.281   4.559   3.553
10883SOL     OW32952   4.474   5.729   2.537
10883SOL    HW132953   4.485   5.779   2.456
10883SOL    HW232954   4.441   5.644   2.509
10884SOL     OW32955   5.362   1.561   0.836
10884SOL    HW132956   5.456   1.546   0.825
10884SOL    HW232957   5.322   1.477   0.815
10885SOL     OW32958   4.442   2.999   4.801
10885SOL    HW132959   4.359   2.969   4.764
10885SOL    HW232960   4.417   3.060   4.870
10886SOL     OW32961   1.008   6.994   2.432
10886SOL    HW132962   1.075   6.926   2.425
10886SOL    HW232963   1.028   7.040   2.514
10887SOL     OW32964   4.471   6.126   1.256
10887SOL    HW132965   4.437   6.072   1.184
10887SOL    HW232966   4.532   6.069   1.302
10888SOL     OW32967   3.973   4.216   4.349
10888SOL    HW132968   4.038   4.168   4.400
10888SOL    HW232969   3.979   4.179   4.261
10889SOL     OW32970   3.507   3.761   4.823
10889SOL    HW132971   3.523   3.819   4.749
10889SOL    HW232972   3.462   3.816   4.887
10890SOL     OW32973   6.768   2.803   5.757
10890SOL    HW132974   6.833   2.741   5.790
10890SOL    HW232975   6.817   2.861   5.699
10891SOL     OW32976   6.417   8.042   3.581
10891SOL    HW132977   6.491   8.093   3.549
10891SOL    HW232978   6.441   8.017   3.670
10892SOL     OW32979   0.336   2.787   5.260
10892SOL    HW132980   0.295   2.852   5.317
10892SOL    HW232981   0.337   2.707   5.312
10893SOL     OW32982   6.984   7.269   4.222
10893SOL    HW132983   7.073   7.251   4.253
10893SOL    HW232984   6.960   7.352   4.264
10894SOL     OW32985   5.926   1.996   3.729
10894SOL    HW132986   5.875   1.990   3.809
10894SOL    HW232987   6.007   1.949   3.749
10895SOL     OW32988   2.216   7.997   3.863
10895SOL    HW132989   2.279   7.971   3.930
10895SOL    HW232990   2.160   8.061   3.907
10896SOL     OW32991   5.435   1.178   1.774
10896SOL    HW132992   5.430   1.105   1.836
10896SOL    HW232993   5.491   1.146   1.703
10897SOL     OW32994   4.791   1.905   0.360
10897SOL    HW132995   4.804   1.943   0.447
10897SOL    HW232996   4.723   1.839   0.373
10898SOL     OW32997   5.636   0.463   4.031
10898SOL    HW132998   5.553   0.496   3.996
10898SOL    HW232999   5.679   0.421   3.956
10899SOL     OW33000   7.533   6.052   1.317
10899SOL    HW133001   7.526   5.971   1.368
10899SOL    HW233002   7.578   6.026   1.237
10900SOL     OW33003   0.763   5.175   1.653
10900SOL    HW133004   0.760   5.266   1.683
10900SOL    HW233005   0.682   5.136   1.687
10901SOL     OW33006   3.989   2.353   0.378
10901SOL    HW133007   3.993   2.295   0.302
10901SOL    HW233008   3.964   2.438   0.342
10902SOL     OW33009   6.003   6.436   2.957
10902SOL    HW133010   6.079   6.466   2.908
10902SOL    HW233011   5.928   6.469   2.908
10903SOL     OW33012   3.871   4.070   2.469
10903SOL    HW133013   3.922   4.005   2.517
10903SOL    HW233014   3.820   4.019   2.406
10904SOL     OW33015   1.787   5.861   5.116
10904SOL    HW133016   1.827   5.871   5.030
10904SOL    HW233017   1.748   5.947   5.134
10905SOL     OW33018   5.136   3.686   3.162
10905SOL    HW133019   5.060   3.716   3.112
10905SOL    HW233020   5.208   3.688   3.099
10906SOL     OW33021   4.252   6.522   0.364
10906SOL    HW133022   4.225   6.512   0.273
10906SOL    HW233023   4.300   6.605   0.366
10907SOL     OW33024   4.419   3.717   2.615
10907SOL    HW133025   4.445   3.697   2.705
10907SOL    HW233026   4.413   3.813   2.613
10908SOL     OW33027   6.719   6.279   2.974
10908SOL    HW133028   6.807   6.299   2.942
10908SOL    HW233029   6.684   6.363   3.004
10909SOL     OW33030   6.470   0.866   4.787
10909SOL    HW133031   6.427   0.941   4.828
10909SOL    HW233032   6.421   0.852   4.706
10910SOL     OW33033   5.547   8.229   2.980
10910SOL    HW133034   5.523   8.193   3.065
10910SOL    HW233035   5.587   0.084   3.000
10911SOL     OW33036   6.391   0.869   2.863
10911SOL    HW133037   6.479   0.847   2.833
10911SOL    HW233038   6.393   0.964   2.873
10912SOL     OW33039   3.142   6.199   3.836
10912SOL    HW133040   3.072   6.169   3.778
10912SOL    HW233041   3.168   6.121   3.885
10913SOL     OW33042   7.123   0.250   3.324
10913SOL    HW133043   7.186   0.185   3.354
10913SOL    HW233044   7.039   0.203   3.322
10914SOL     OW33045   0.057   3.544   1.470
10914SOL    HW133046   0.117   3.513   1.403
10914SOL    HW233047   0.090   3.630   1.494
10915SOL     OW33048   7.050   6.673   2.717
10915SOL    HW133049   7.098   6.740   2.668
10915SOL    HW233050   6.984   6.641   2.656
10916SOL     OW33051   1.957   1.694   0.863
10916SOL    HW133052   1.975   1.604   0.834
10916SOL    HW233053   2.044   1.733   0.877
10917SOL     OW33054   6.204   2.118   5.451
10917SOL    HW133055   6.161   2.184   5.397
10917SOL    HW233056   6.188   2.035   5.406
10918SOL     OW33057   5.399   0.385   1.858
10918SOL    HW133058   5.385   0.463   1.912
10918SOL    HW233059   5.395   0.417   1.768
10919SOL     OW33060   0.495   0.034   4.066
10919SOL    HW133061   0.437   8.190   4.088
10919SOL    HW233062   0.582   8.223   4.059
10920SOL     OW33063   5.346   7.352   2.562
10920SOL    HW133064   5.435   7.377   2.585
10920SOL    HW233065   5.349   7.257   2.554
10921SOL     OW33066   5.387   5.997   3.440
10921SOL    HW133067   5.293   5.997   3.457
10921SOL    HW233068   5.415   5.907   3.459
10922SOL     OW33069   4.373   3.144   2.921
10922SOL    HW133070   4.389   3.066   2.974
10922SOL    HW233071   4.290   3.127   2.877
10923SOL     OW33072   1.624   3.717   0.323
10923SOL    HW133073   1.622   3.760   0.408
10923SOL    HW233074   1.688   3.646   0.334
10924SOL     OW33075   3.679   7.836   2.386
10924SOL    HW133076   3.673   7.916   2.438
10924SOL    HW233077   3.627   7.854   2.308
10925SOL     OW33078   2.197   0.265   1.985
10925SOL    HW133079   2.120   0.319   1.967
10925SOL    HW233080   2.246   0.314   2.051
10926SOL     OW33081   3.695   3.843   1.930
10926SOL    HW133082   3.641   3.851   2.009
10926SOL    HW233083   3.632   3.828   1.859
10927SOL     OW33084   2.725   2.370   1.206
10927SOL    HW133085   2.630   2.373   1.197
10927SOL    HW233086   2.740   2.307   1.277
10928SOL     OW33087   6.307   5.538   1.434
10928SOL    HW133088   6.269   5.622   1.409
10928SOL    HW233089   6.311   5.540   1.530
10929SOL     OW33090   3.530   7.354   0.731
10929SOL    HW133091   3.485   7.277   0.695
10929SOL    HW233092   3.613   7.320   0.763
10930SOL     OW33093   5.113   4.455   2.671
10930SOL    HW133094   5.031   4.501   2.690
10930SOL    HW233095   5.088   4.363   2.666
10931SOL     OW33096   4.338   0.542   5.235
10931SOL    HW133097   4.326   0.503   5.148
10931SOL    HW233098   4.379   0.627   5.218
10932SOL     OW33099   3.073   3.862   1.498
10932SOL    HW133100   3.022   3.783   1.479
10932SOL    HW233101   3.162   3.830   1.513
10933SOL     OW33102   3.301   4.417   0.779
10933SOL    HW133103   3.271   4.501   0.814
10933SOL    HW233104   3.279   4.353   0.847
10934SOL     OW33105   4.860   7.812   4.840
10934SOL    HW133106   4.864   7.800   4.745
10934SOL    HW233107   4.948   7.791   4.870
10935SOL     OW33108   2.369   4.039   2.204
10935SOL    HW133109   2.327   3.954   2.196
10935SOL    HW233110   2.309   4.100   2.160
10936SOL     OW33111   5.506   8.173   4.926
10936SOL    HW133112   5.482   8.221   5.005
10936SOL    HW233113   5.580   8.222   4.889
10937SOL     OW33114   0.425   0.325   1.524
10937SOL    HW133115   0.418   0.348   1.431
10937SOL    HW233116   0.478   0.245   1.524
10938SOL     OW33117   7.341   0.157   2.426
10938SOL    HW133118   7.433   0.169   2.451
10938SOL    HW233119   7.344   0.110   2.343
10939SOL     OW33120   0.734   7.641   4.310
10939SOL    HW133121   0.804   7.583   4.340
10939SOL    HW233122   0.661   7.582   4.289
10940SOL     OW33123   2.211   6.009   3.469
10940SOL    HW133124   2.131   6.055   3.445
10940SOL    HW233125   2.197   5.983   3.560
10941SOL     OW33126   6.089   3.078   0.372
10941SOL    HW133127   6.156   3.093   0.305
10941SOL    HW233128   6.107   3.145   0.438
10942SOL     OW33129   2.193   3.585   3.032
10942SOL    HW133130   2.252   3.586   3.108
10942SOL    HW233131   2.154   3.672   3.031
10943SOL     OW33132   0.566   5.789   0.795
10943SOL    HW133133   0.649   5.750   0.822
10943SOL    HW233134   0.552   5.860   0.858
10944SOL     OW33135   7.044   7.798   4.391
10944SOL    HW133136   7.136   7.771   4.395
10944SOL    HW233137   6.995   7.720   4.416
10945SOL     OW33138   3.924   7.793   5.007
10945SOL    HW133139   3.967   7.799   5.092
10945SOL    HW233140   3.846   7.848   5.015
10946SOL     OW33141   3.494   5.799   5.775
10946SOL    HW133142   3.517   5.714   5.812
10946SOL    HW233143   3.578   5.837   5.748
10947SOL     OW33144   7.603   2.731   1.381
10947SOL    HW133145   7.550   2.678   1.321
10947SOL    HW233146   7.592   2.821   1.349
10948SOL     OW33147   1.771   1.369   1.551
10948SOL    HW133148   1.789   1.388   1.459
10948SOL    HW233149   1.723   1.286   1.549
10949SOL     OW33150   4.971   3.545   4.100
10949SOL    HW133151   4.905   3.600   4.057
10949SOL    HW233152   4.938   3.456   4.091
10950SOL     OW33153   0.846   5.906   1.619
10950SOL    HW133154   0.810   5.920   1.707
10950SOL    HW233155   0.940   5.923   1.628
10951SOL     OW33156   6.715   1.805   1.379
10951SOL    HW133157   6.730   1.734   1.441
10951SOL    HW233158   6.625   1.834   1.396
10952SOL     OW33159   7.359   1.462   2.732
10952SOL    HW133160   7.374   1.404   2.657
10952SOL    HW233161   7.270   1.496   2.719
10953SOL     OW33162   6.338   0.170   1.086
10953SOL    HW133163   6.277   0.224   1.036
10953SOL    HW233164   6.344   0.088   1.037
10954SOL     OW33165   4.795   0.827   4.208
10954SOL    HW133166   4.843   0.776   4.274
10954SOL    HW233167   4.861   0.883   4.168
10955SOL     OW33168   6.990   5.569   0.292
10955SOL    HW133169   6.960   5.652   0.255
10955SOL    HW233170   6.967   5.575   0.385
10956SOL     OW33171   4.995   0.053   3.926
10956SOL    HW133172   4.990   0.035   4.020
10956SOL    HW233173   5.088   0.049   3.905
10957SOL     OW33174   5.137   3.349   2.893
10957SOL    HW133175   5.166   3.438   2.873
10957SOL    HW233176   5.092   3.357   2.977
10958SOL     OW33177   3.507   5.668   1.460
10958SOL    HW133178   3.456   5.747   1.477
10958SOL    HW233179   3.518   5.666   1.365
10959SOL     OW33180   7.054   7.316   5.040
10959SOL    HW133181   6.990   7.365   4.988
10959SOL    HW233182   7.132   7.312   4.985
10960SOL     OW33183   6.434   3.413   2.575
10960SOL    HW133184   6.435   3.508   2.566
10960SOL    HW233185   6.517   3.392   2.618
10961SOL     OW33186   1.208   6.771   2.379
10961SOL    HW133187   1.132   6.774   2.322
10961SOL    HW233188   1.231   6.678   2.384
10962SOL     OW33189   5.445   4.106   1.469
10962SOL    HW133190   5.516   4.152   1.514
10962SOL    HW233191   5.486   4.027   1.433
10963SOL     OW33192   7.867   2.187   2.939
10963SOL    HW133193   7.950   2.170   2.984
10963SOL    HW233194   7.869   2.281   2.920
10964SOL     OW33195   6.347   5.124   3.330
10964SOL    HW133196   6.344   5.112   3.235
10964SOL    HW233197   6.428   5.173   3.345
10965SOL     OW33198   6.565   5.478   2.751
10965SOL    HW133199   6.528   5.535   2.684
10965SOL    HW233200   6.552   5.526   2.833
10966SOL     OW33201   7.946   6.607   2.345
10966SOL    HW133202   8.038   6.612   2.371
10966SOL    HW233203   7.948   6.608   2.249
10967SOL     OW33204   1.129   0.918   3.539
10967SOL    HW133205   1.084   0.902   3.456
10967SOL    HW233206   1.202   0.856   3.539
10968SOL     OW33207   7.307   5.176   5.249
10968SOL    HW133208   7.320   5.088   5.214
10968SOL    HW233209   7.327   5.234   5.176
10969SOL     OW33210   4.229   1.650   5.630
10969SOL    HW133211   4.240   1.560   5.662
10969SOL    HW233212   4.307   1.666   5.577
10970SOL     OW33213   0.877   5.000   3.565
10970SOL    HW133214   0.973   4.998   3.564
10970SOL    HW233215   0.855   5.082   3.520
10971SOL     OW33216   1.428   2.032   5.023
10971SOL    HW133217   1.367   1.999   5.089
10971SOL    HW233218   1.397   1.994   4.941
10972SOL     OW33219   0.188   2.363   2.518
10972SOL    HW133220   0.184   2.359   2.422
10972SOL    HW233221   0.207   2.455   2.537
10973SOL     OW33222   6.667   8.034   4.903
10973SOL    HW133223   6.668   8.022   4.808
10973SOL    HW233224   6.675   7.946   4.939
10974SOL     OW33225   4.870   2.596   1.653
10974SOL    HW133226   4.932   2.644   1.708
10974SOL    HW233227   4.895   2.618   1.563
10975SOL     OW33228   1.370   0.024   1.387
10975SOL    HW133229   1.293   8.202   1.413
10975SOL    HW233230   1.347   0.115   1.408
10976SOL     OW33231   6.345   5.744   5.566
10976SOL    HW133232   6.394   5.756   5.648
10976SOL    HW233233   6.382   5.809   5.507
10977SOL     OW33234   0.160   7.441   0.749
10977SOL    HW133235   0.177   7.430   0.655
10977SOL    HW233236   0.118   7.359   0.775
10978SOL     OW33237   5.486   5.640   5.527
10978SOL    HW133238   5.420   5.574   5.549
10978SOL    HW233239   5.551   5.593   5.475
10979SOL     OW33240   7.826   2.873   4.307
10979SOL    HW133241   7.826   2.962   4.272
10979SOL    HW233242   7.734   2.852   4.321
10980SOL     OW33243   7.107   1.432   2.429
10980SOL    HW133244   7.099   1.467   2.518
10980SOL    HW233245   7.022   1.450   2.388
10981SOL     OW33246   4.977   7.734   0.511
10981SOL    HW133247   4.926   7.734   0.592
10981SOL    HW233248   5.022   7.818   0.511
10982SOL     OW33249   3.431   2.106   5.683
10982SOL    HW133250   3.505   2.153   5.722
10982SOL    HW233251   3.471   2.037   5.630
10983SOL     OW33252   8.162   6.948   4.070
10983SOL    HW133253   8.159   7.044   4.070
10983SOL    HW233254   8.074   6.922   4.044
10984SOL     OW33255   1.240   0.250   5.060
10984SOL    HW133256   1.330   0.282   5.068
10984SOL    HW233257   1.197   0.313   5.002
10985SOL     OW33258   6.131   5.544   2.630
10985SOL    HW133259   6.182   5.592   2.564
10985SOL    HW233260   6.196   5.493   2.678
10986SOL     OW33261   5.271   0.949   4.341
10986SOL    HW133262   5.251   1.027   4.392
10986SOL    HW233263   5.347   0.974   4.288
10987SOL     OW33264   1.472   6.959   5.651
10987SOL    HW133265   1.387   6.997   5.629
10987SOL    HW233266   1.531   6.994   5.584
10988SOL     OW33267   3.262   6.686   1.036
10988SOL    HW133268   3.256   6.605   1.086
10988SOL    HW233269   3.232   6.662   0.948
10989SOL     OW33270   2.549   3.572   4.319
10989SOL    HW133271   2.578   3.663   4.319
10989SOL    HW233272   2.595   3.533   4.245
10990SOL     OW33273   0.720   5.174   3.210
10990SOL    HW133274   0.694   5.092   3.251
10990SOL    HW233275   0.689   5.242   3.270
10991SOL     OW33276   1.855   1.008   2.926
10991SOL    HW133277   1.775   1.061   2.924
10991SOL    HW233278   1.829   0.924   2.888
10992SOL     OW33279   1.294   3.635   3.335
10992SOL    HW133280   1.226   3.699   3.356
10992SOL    HW233281   1.375   3.685   3.334
10993SOL     OW33282   2.200   2.300   4.371
10993SOL    HW133283   2.260   2.322   4.443
10993SOL    HW233284   2.135   2.371   4.371
10994SOL     OW33285   7.386   6.522   1.595
10994SOL    HW133286   7.397   6.535   1.689
10994SOL    HW233287   7.475   6.525   1.560
10995SOL     OW33288   1.310   0.363   5.516
10995SOL    HW133289   1.263   0.377   5.598
10995SOL    HW233290   1.241   0.344   5.452
10996SOL     OW33291   5.525   3.892   0.644
10996SOL    HW133292   5.589   3.919   0.710
10996SOL    HW233293   5.441   3.921   0.679
10997SOL     OW33294   5.882   4.127   0.270
10997SOL    HW133295   5.924   4.139   0.355
10997SOL    HW233296   5.855   4.215   0.244
10998SOL     OW33297   7.072   0.299   4.081
10998SOL    HW133298   7.061   0.346   3.998
10998SOL    HW233299   7.012   0.342   4.141
10999SOL     OW33300   3.670   7.877   4.755
10999SOL    HW133301   3.658   7.861   4.849
10999SOL    HW233302   3.715   7.961   4.750
11000SOL     OW33303   6.226   0.332   2.490
11000SOL    HW133304   6.249   0.250   2.533
11000SOL    HW233305   6.172   0.378   2.554
11001SOL     OW33306   2.209   3.886   4.943
11001SOL    HW133307   2.303   3.905   4.946
11001SOL    HW233308   2.167   3.972   4.932
11002SOL     OW33309   5.578   0.761   1.114
11002SOL    HW133310   5.662   0.779   1.071
11002SOL    HW233311   5.602   0.729   1.201
11003SOL     OW33312   4.630   6.152   1.671
11003SOL    HW133313   4.673   6.217   1.615
11003SOL    HW233314   4.700   6.091   1.694
11004SOL     OW33315   3.605   6.797   1.298
11004SOL    HW133316   3.642   6.710   1.283
11004SOL    HW233317   3.620   6.813   1.391
11005SOL     OW33318   1.514   4.896   4.558
11005SOL    HW133319   1.532   4.985   4.587
11005SOL    HW233320   1.454   4.861   4.624
11006SOL     OW33321   2.016   4.452   2.103
11006SOL    HW133322   1.972   4.470   2.186
11006SOL    HW233323   2.082   4.521   2.095
11007SOL     OW33324   4.226   1.966   5.749
11007SOL    HW133325   0.121   6.030   0.011
11007SOL    HW233326   4.133   1.961   5.729
11008SOL     OW33327   3.852   6.359   3.892
11008SOL    HW133328   3.791   6.299   3.936
11008SOL    HW233329   3.933   6.309   3.884
11009SOL     OW33330   1.002   7.180   5.148
11009SOL    HW133331   1.063   7.219   5.085
11009SOL    HW233332   0.970   7.254   5.200
11010SOL     OW33333   5.296   4.565   4.886
11010SOL    HW133334   5.249   4.494   4.929
11010SOL    HW233335   5.319   4.530   4.800
11011SOL     OW33336   0.840   5.234   5.534
11011SOL    HW133337   0.799   5.318   5.557
11011SOL    HW233338   0.787   5.200   5.462
11012SOL     OW33339   4.676   2.166   3.675
11012SOL    HW133340   4.596   2.147   3.725
11012SOL    HW233341   4.651   2.238   3.617
11013SOL     OW33342   3.227   1.274   0.222
11013SOL    HW133343   3.273   1.205   0.175
11013SOL    HW233344   3.180   1.228   0.292
11014SOL     OW33345   5.325   2.458   2.221
11014SOL    HW133346   5.320   2.415   2.136
11014SOL    HW233347   5.242   2.505   2.229
11015SOL     OW33348   1.853   6.944   4.872
11015SOL    HW133349   1.771   6.993   4.870
11015SOL    HW233350   1.919   7.006   4.839
11016SOL     OW33351   6.037   6.598   0.846
11016SOL    HW133352   5.942   6.586   0.849
11016SOL    HW233353   6.058   6.597   0.753
11017SOL     OW33354   6.446   5.208   4.250
11017SOL    HW133355   6.385   5.198   4.323
11017SOL    HW233356   6.527   5.167   4.280
11018SOL     OW33357   7.765   6.463   0.042
11018SOL    HW133358   7.719   6.541   0.011
11018SOL    HW233359   7.827   6.496   0.107
11019SOL     OW33360   6.906   7.371   2.063
11019SOL    HW133361   6.985   7.419   2.085
11019SOL    HW233362   6.853   7.373   2.143
11020SOL     OW33363   5.604   7.262   0.886
11020SOL    HW133364   5.675   7.322   0.909
11020SOL    HW233365   5.583   7.285   0.795
11021SOL     OW33366   6.978   7.785   1.465
11021SOL    HW133367   6.891   7.793   1.426
11021SOL    HW233368   6.966   7.724   1.537
11022SOL     OW33369   1.594   4.358   0.354
11022SOL    HW133370   1.636   4.287   0.402
11022SOL    HW233371   1.660   4.427   0.350
11023SOL     OW33372   3.990   7.902   4.409
11023SOL    HW133373   3.907   7.860   4.432
11023SOL    HW233374   4.028   7.845   4.342
11024SOL     OW33375   1.841   2.020   1.079
11024SOL    HW133376   1.928   2.010   1.041
11024SOL    HW233377   1.848   2.097   1.135
11025SOL     OW33378   4.759   4.872   2.171
11025SOL    HW133379   4.668   4.902   2.174
11025SOL    HW233380   4.811   4.953   2.168
11026SOL     OW33381   2.358   6.121   4.868
11026SOL    HW133382   2.415   6.045   4.858
11026SOL    HW233383   2.328   6.117   4.959
11027SOL     OW33384   5.025   1.279   3.315
11027SOL    HW133385   4.999   1.327   3.237
11027SOL    HW233386   4.964   1.205   3.319
11028SOL     OW33387   8.059   8.211   1.217
11028SOL    HW133388   7.980   8.178   1.174
11028SOL    HW233389   8.124   8.142   1.204
11029SOL     OW33390   2.300   6.452   2.126
11029SOL    HW133391   2.342   6.388   2.068
11029SOL    HW233392   2.247   6.506   2.068
11030SOL     OW33393   5.827   5.561   4.487
11030SOL    HW133394   5.786   5.625   4.545
11030SOL    HW233395   5.889   5.612   4.435
11031SOL     OW33396   6.808   7.892   2.435
11031SOL    HW133397   6.870   7.959   2.464
11031SOL    HW233398   6.739   7.941   2.390
11032SOL     OW33399   7.979   6.382   4.526
11032SOL    HW133400   7.937   6.468   4.518
11032SOL    HW233401   7.942   6.345   4.606
11033SOL     OW33402   3.707   8.019   4.299
11033SOL    HW133403   3.653   8.081   4.349
11033SOL    HW233404   3.710   7.940   4.353
11034SOL     OW33405   6.214   4.072   0.149
11034SOL    HW133406   6.138   4.019   0.124
11034SOL    HW233407   6.179   4.161   0.158
11035SOL     OW33408   0.978   7.068   1.836
11035SOL    HW133409   0.895   7.111   1.817
11035SOL    HW233410   0.990   7.081   1.930
11036SOL     OW33411   6.631   5.599   1.300
11036SOL    HW133412   6.558   5.562   1.350
11036SOL    HW233413   6.651   5.681   1.344
11037SOL     OW33414   6.802   5.856   2.381
11037SOL    HW133415   6.803   5.760   2.387
11037SOL    HW233416   6.859   5.885   2.453
11038SOL     OW33417   7.327   4.804   1.263
11038SOL    HW133418   7.302   4.712   1.251
11038SOL    HW233419   7.401   4.816   1.204
11039SOL     OW33420   7.338   7.510   3.092
11039SOL    HW133421   7.309   7.493   3.182
11039SOL    HW233422   7.409   7.573   3.101
11040SOL     OW33423   1.367   1.020   4.362
11040SOL    HW133424   1.322   0.938   4.340
11040SOL    HW233425   1.296   1.082   4.379
11041SOL     OW33426   2.485   7.397   3.270
11041SOL    HW133427   2.451   7.473   3.223
11041SOL    HW233428   2.442   7.322   3.229
11042SOL     OW33429   2.764   0.825   2.116
11042SOL    HW133430   2.712   0.821   2.196
11042SOL    HW233431   2.703   0.855   2.049
11043SOL     OW33432   3.144   3.836   3.416
11043SOL    HW133433   3.224   3.888   3.412
11043SOL    HW233434   3.171   3.753   3.455
11044SOL     OW33435   0.490   2.309   5.435
11044SOL    HW133436   0.556   2.338   5.498
11044SOL    HW233437   0.540   2.270   5.363
11045SOL     OW33438   1.955   6.533   1.612
11045SOL    HW133439   2.008   6.464   1.652
11045SOL    HW233440   1.937   6.594   1.684
11046SOL     OW33441   4.488   2.415   2.490
11046SOL    HW133442   4.580   2.432   2.511
11046SOL    HW233443   4.486   2.404   2.395
11047SOL     OW33444   5.218   4.489   5.206
11047SOL    HW133445   5.129   4.519   5.187
11047SOL    HW233446   5.259   4.563   5.250
11048SOL     OW33447   4.997   7.573   0.149
11048SOL    HW133448   4.933   7.504   0.163
11048SOL    HW233449   4.995   7.588   0.054
11049SOL     OW33450   5.959   1.810   4.989
11049SOL    HW133451   5.876   1.763   4.995
11049SOL    HW233452   5.972   1.846   5.077
11050SOL     OW33453   0.231   7.324   3.287
11050SOL    HW133454   0.233   7.261   3.359
11050SOL    HW233455   0.315   7.312   3.243
11051SOL     OW33456   4.760   1.460   3.596
11051SOL    HW133457   4.794   1.487   3.511
11051SOL    HW233458   4.708   1.382   3.578
11052SOL     OW33459   3.074   1.987   1.886
11052SOL    HW133460   3.155   1.936   1.892
11052SOL    HW233461   3.005   1.926   1.912
11053SOL     OW33462   2.345   0.411   4.458
11053SOL    HW133463   2.334   0.385   4.550
11053SOL    HW233464   2.256   0.420   4.425
11054SOL     OW33465   2.365   6.074   2.319
11054SOL    HW133466   2.330   5.997   2.363
11054SOL    HW233467   2.301   6.093   2.250
11055SOL     OW33468   6.446   6.332   5.516
11055SOL    HW133469   6.376   6.349   5.453
11055SOL    HW233470   6.502   6.409   5.510
11056SOL     OW33471   6.549   1.364   5.512
11056SOL    HW133472   6.530   1.319   5.429
11056SOL    HW233473   6.587   1.296   5.568
11057SOL     OW33474   4.572   3.099   1.897
11057SOL    HW133475   4.586   3.182   1.943
11057SOL    HW233476   4.506   3.119   1.831
11058SOL     OW33477   6.150   1.032   4.685
11058SOL    HW133478   6.099   0.997   4.612
11058SOL    HW233479   6.089   1.090   4.731
11059SOL     OW33480   4.966   7.165   4.156
11059SOL    HW133481   5.010   7.239   4.197
11059SOL    HW233482   4.930   7.201   4.075
11060SOL     OW33483   2.697   1.141   0.380
11060SOL    HW133484   2.711   1.148   0.286
11060SOL    HW233485   2.604   1.161   0.392
11061SOL     OW33486   1.713   4.928   3.172
11061SOL    HW133487   1.753   4.888   3.094
11061SOL    HW233488   1.661   5.000   3.138
11062SOL     OW33489   2.741   6.269   3.471
11062SOL    HW133490   2.761   6.196   3.413
11062SOL    HW233491   2.695   6.229   3.545
11063SOL     OW33492   3.784   4.135   2.125
11063SOL    HW133493   3.838   4.204   2.164
11063SOL    HW233494   3.776   4.069   2.194
11064SOL     OW33495   1.944   6.828   3.823
11064SOL    HW133496   1.961   6.735   3.838
11064SOL    HW233497   2.019   6.858   3.771
11065SOL     OW33498   6.696   4.929   1.715
11065SOL    HW133499   6.607   4.963   1.713
11065SOL    HW233500   6.696   4.859   1.649
11066SOL     OW33501   0.074   2.757   0.001
11066SOL    HW133502   0.098   2.744   0.093
11066SOL    HW233503   4.226   6.796   5.775
11067SOL     OW33504   6.673   7.565   1.274
11067SOL    HW133505   6.755   7.521   1.299
11067SOL    HW233506   6.616   7.494   1.244
11068SOL     OW33507   5.728   1.748   5.138
11068SOL    HW133508   5.765   1.708   5.217
11068SOL    HW233509   5.634   1.752   5.155
11069SOL     OW33510   6.842   0.275   0.391
11069SOL    HW133511   6.860   0.246   0.301
11069SOL    HW233512   6.752   0.246   0.408
11070SOL     OW33513   7.502   0.825   2.201
11070SOL    HW133514   7.453   0.749   2.233
11070SOL    HW233515   7.483   0.828   2.107
11071SOL     OW33516   2.624   1.810   1.479
11071SOL    HW133517   2.667   1.838   1.398
11071SOL    HW233518   2.623   1.714   1.474
11072SOL     OW33519   4.337   2.629   3.046
11072SOL    HW133520   4.391   2.647   2.969
11072SOL    HW233521   4.307   2.715   3.075
11073SOL     OW33522   7.914   5.960   1.077
11073SOL    HW133523   7.990   5.918   1.117
11073SOL    HW233524   7.912   6.048   1.116
11074SOL     OW33525   4.044   4.977   1.354
11074SOL    HW133526   3.972   4.978   1.291
11074SOL    HW233527   4.011   4.923   1.426
11075SOL     OW33528   2.763   2.243   0.630
11075SOL    HW133529   2.716   2.285   0.702
11075SOL    HW233530   2.701   2.245   0.557
11076SOL     OW33531   4.705   6.571   2.085
11076SOL    HW133532   4.622   6.607   2.054
11076SOL    HW233533   4.772   6.621   2.037
11077SOL     OW33534   7.030   1.299   5.135
11077SOL    HW133535   6.946   1.259   5.158
11077SOL    HW233536   7.009   1.391   5.120
11078SOL     OW33537   4.549   4.935   4.902
11078SOL    HW133538   4.629   4.883   4.911
11078SOL    HW233539   4.517   4.947   4.992
11079SOL     OW33540   5.665   3.884   1.971
11079SOL    HW133541   5.676   3.971   1.934
11079SOL    HW233542   5.742   3.872   2.027
11080SOL     OW33543   5.161   4.237   4.785
11080SOL    HW133544   5.222   4.281   4.725
11080SOL    HW233545   5.080   4.229   4.735
11081SOL     OW33546   2.535   2.851   5.160
11081SOL    HW133547   2.486   2.933   5.155
11081SOL    HW233548   2.471   2.784   5.136
11082SOL     OW33549   4.033   6.498   5.053
11082SOL    HW133550   4.088   6.512   4.976
11082SOL    HW233551   4.095   6.494   5.126
11083SOL     OW33552   4.296   5.302   4.911
11083SOL    HW133553   4.330   5.285   4.999
11083SOL    HW233554   4.221   5.244   4.902
11084SOL     OW33555   2.266   8.007   4.328
11084SOL    HW133556   2.174   8.006   4.355
11084SOL    HW233557   2.309   7.946   4.388
11085SOL     OW33558   3.721   3.340   3.732
11085SOL    HW133559   3.772   3.357   3.811
11085SOL    HW233560   3.633   3.369   3.754
11086SOL     OW33561   7.954   0.749   4.960
11086SOL    HW133562   8.042   0.741   4.996
11086SOL    HW233563   7.944   0.673   4.903
11087SOL     OW33564   8.178   8.134   1.487
11087SOL    HW133565   8.094   8.144   1.443
11087SOL    HW233566   8.168   8.184   1.568
11088SOL     OW33567   0.167   4.036   3.022
11088SOL    HW133568   0.239   4.013   2.964
11088SOL    HW233569   0.115   3.956   3.028
11089SOL     OW33570   8.086   8.018   0.844
11089SOL    HW133571   8.098   8.020   0.939
11089SOL    HW233572   8.155   7.959   0.813
11090SOL     OW33573   4.327   4.619   2.729
11090SOL    HW133574   4.282   4.665   2.659
11090SOL    HW233575   4.416   4.654   2.727
11091SOL     OW33576   0.546   2.339   1.448
11091SOL    HW133577   0.458   2.345   1.411
11091SOL    HW233578   0.553   2.414   1.507
11092SOL     OW33579   7.179   1.806   2.478
11092SOL    HW133580   7.253   1.775   2.426
11092SOL    HW233581   7.103   1.792   2.422
11093SOL     OW33582   1.990   1.101   4.562
11093SOL    HW133583   1.927   1.173   4.569
11093SOL    HW233584   1.971   1.062   4.477
11094SOL     OW33585   1.111   5.887   2.930
11094SOL    HW133586   1.150   5.841   2.856
11094SOL    HW233587   1.066   5.818   2.979
11095SOL     OW33588   3.238   8.201   0.923
11095SOL    HW133589   3.214   8.125   0.977
11095SOL    HW233590   3.310   0.013   0.970
11096SOL     OW33591   1.897   0.694   3.326
11096SOL    HW133592   1.931   0.620   3.377
11096SOL    HW233593   1.890   0.660   3.237
11097SOL     OW33594   6.199   5.759   3.455
11097SOL    HW133595   6.116   5.712   3.459
11097SOL    HW233596   6.200   5.812   3.534
11098SOL     OW33597   0.441   2.947   3.943
11098SOL    HW133598   0.385   2.876   3.912
11098SOL    HW233599   0.466   2.995   3.864
11099SOL     OW33600   3.151   6.615   4.654
11099SOL    HW133601   3.208   6.549   4.614
11099SOL    HW233602   3.089   6.565   4.707
11100SOL     OW33603   6.757   7.593   2.326
11100SOL    HW133604   6.712   7.657   2.382
11100SOL    HW233605   6.790   7.527   2.387
11101SOL     OW33606   0.375   7.358   1.732
11101SOL    HW133607   0.439   7.325   1.795
11101SOL    HW233608   0.298   7.379   1.785
11102SOL     OW33609   8.042   7.262   2.652
11102SOL    HW133610   8.112   7.199   2.671
11102SOL    HW233611   8.054   7.284   2.560
11103SOL     OW33612   6.426   0.506   4.469
11103SOL    HW133613   6.503   0.553   4.502
11103SOL    HW233614   6.431   0.421   4.512
11104SOL     OW33615   4.676   7.270   4.495
11104SOL    HW133616   4.717   7.190   4.462
11104SOL    HW233617   4.582   7.251   4.493
11105SOL     OW33618   3.715   0.244   4.361
11105SOL    HW133619   3.681   0.304   4.427
11105SOL    HW233620   3.687   0.157   4.391
11106SOL     OW33621   4.207   5.547   1.475
11106SOL    HW133622   4.285   5.537   1.421
11106SOL    HW233623   4.199   5.464   1.521
11107SOL     OW33624   6.727   4.117   1.236
11107SOL    HW133625   6.667   4.189   1.216
11107SOL    HW233626   6.698   4.045   1.179
11108SOL     OW33627   7.925   6.820   1.527
11108SOL    HW133628   7.905   6.805   1.435
11108SOL    HW233629   8.021   6.820   1.531
11109SOL     OW33630   0.218   6.768   5.043
11109SOL    HW133631   0.198   6.861   5.052
11109SOL    HW233632   0.220   6.753   4.948
11110SOL     OW33633   1.192   4.662   0.347
11110SOL    HW133634   1.243   4.700   0.276
11110SOL    HW233635   1.139   4.735   0.379
11111SOL     OW33636   5.568   3.089   1.371
11111SOL    HW133637   5.654   3.121   1.344
11111SOL    HW233638   5.587   3.029   1.444
11112SOL     OW33639   1.450   1.082   4.099
11112SOL    HW133640   1.539   1.106   4.125
11112SOL    HW233641   1.407   1.056   4.180
11113SOL     OW33642   3.494   6.938   4.199
11113SOL    HW133643   3.572   6.902   4.241
11113SOL    HW233644   3.450   6.987   4.269
11114SOL     OW33645   5.464   4.278   3.034
11114SOL    HW133646   5.404   4.211   3.067
11114SOL    HW233647   5.415   4.322   2.964
11115SOL     OW33648   2.686   3.936   0.654
11115SOL    HW133649   2.662   3.846   0.675
11115SOL    HW233650   2.781   3.933   0.640
11116SOL     OW33651   0.696   5.031   2.205
11116SOL    HW133652   0.629   5.013   2.139
11116SOL    HW233653   0.762   5.084   2.159
11117SOL     OW33654   3.222   7.286   5.047
11117SOL    HW133655   3.228   7.318   4.957
11117SOL    HW233656   3.235   7.364   5.101
11118SOL     OW33657   3.093   2.834   2.995
11118SOL    HW133658   3.171   2.882   2.968
11118SOL    HW233659   3.126   2.764   3.052
11119SOL     OW33660   7.688   5.111   4.760
11119SOL    HW133661   7.606   5.062   4.765
11119SOL    HW233662   7.666   5.189   4.710
11120SOL     OW33663   7.446   1.927   1.144
11120SOL    HW133664   7.511   1.887   1.087
11120SOL    HW233665   7.492   1.999   1.187
11121SOL     OW33666   0.869   8.189   2.125
11121SOL    HW133667   0.877   8.119   2.190
11121SOL    HW233668   0.904   0.037   2.168
11122SOL     OW33669   0.758   5.950   3.174
11122SOL    HW133670   0.749   6.017   3.106
11122SOL    HW233671   0.669   5.938   3.208
11123SOL     OW33672   7.089   2.873   3.556
11123SOL    HW133673   7.033   2.822   3.497
11123SOL    HW233674   7.033   2.944   3.588
11124SOL     OW33675   8.049   1.412   3.063
11124SOL    HW133676   8.000   1.330   3.064
11124SOL    HW233677   8.134   1.388   3.026
11125SOL     OW33678   7.379   5.468   3.318
11125SOL    HW133679   7.427   5.494   3.397
11125SOL    HW233680   7.431   5.503   3.246
11126SOL     OW33681   3.572   3.822   1.680
11126SOL    HW133682   3.480   3.828   1.654
11126SOL    HW233683   3.615   3.893   1.632
11127SOL     OW33684   7.978   0.665   1.650
11127SOL    HW133685   8.020   0.579   1.656
11127SOL    HW233686   7.987   0.702   1.738
11128SOL     OW33687   7.142   4.865   4.844
11128SOL    HW133688   7.189   4.797   4.796
11128SOL    HW233689   7.137   4.832   4.934
11129SOL     OW33690   1.576   3.714   1.290
11129SOL    HW133691   1.489   3.739   1.259
11129SOL    HW233692   1.578   3.745   1.381
11130SOL     OW33693   5.876   0.483   0.672
11130SOL    HW133694   5.807   0.436   0.625
11130SOL    HW233695   5.871   0.572   0.638
11131SOL     OW33696   4.484   3.754   2.911
11131SOL    HW133697   4.399   3.770   2.951
11131SOL    HW233698   4.515   3.673   2.952
11132SOL     OW33699   7.076   2.112   4.385
11132SOL    HW133700   7.025   2.065   4.452
11132SOL    HW233701   7.043   2.078   4.302
11133SOL     OW33702   8.046   7.068   4.800
11133SOL    HW133703   8.133   7.040   4.771
11133SOL    HW233704   8.061   7.148   4.850
11134SOL     OW33705   0.342   5.982   1.548
11134SOL    HW133706   0.248   5.974   1.529
11134SOL    HW233707   0.364   5.901   1.594
11135SOL     OW33708   4.433   5.685   5.031
11135SOL    HW133709   4.363   5.640   5.078
11135SOL    HW233710   4.495   5.711   5.099
11136SOL     OW33711   2.882   4.335   2.230
11136SOL    HW133712   2.873   4.253   2.279
11136SOL    HW233713   2.795   4.375   2.234
11137SOL     OW33714   3.639   0.156   5.073
11137SOL    HW133715   3.629   0.237   5.023
11137SOL    HW233716   3.649   0.184   5.164
11138SOL     OW33717   7.967   0.322   2.805
11138SOL    HW133718   7.874   0.318   2.828
11138SOL    HW233719   8.010   0.358   2.883
11139SOL     OW33720   3.185   0.691   3.714
11139SOL    HW133721   3.092   0.669   3.704
11139SOL    HW233722   3.199   0.690   3.809
11140SOL     OW33723   1.019   7.524   0.326
11140SOL    HW133724   0.957   7.587   0.363
11140SOL    HW233725   1.080   7.577   0.275
11141SOL     OW33726   2.421   7.849   3.707
11141SOL    HW133727   2.366   7.801   3.645
11141SOL    HW233728   2.366   7.922   3.736
11142SOL     OW33729   4.397   6.750   0.310
11142SOL    HW133730   4.411   6.749   0.215
11142SOL    HW233731   4.459   6.816   0.342
11143SOL     OW33732   1.676   4.704   4.426
11143SOL    HW133733   1.622   4.753   4.488
11143SOL    HW233734   1.630   4.621   4.413
11144SOL     OW33735   5.215   7.812   4.158
11144SOL    HW133736   5.261   7.892   4.134
11144SOL    HW233737   5.150   7.840   4.222
11145SOL     OW33738   6.434   6.665   0.698
11145SOL    HW133739   6.481   6.586   0.671
11145SOL    HW233740   6.395   6.641   0.782
11146SOL     OW33741   3.509   6.097   2.375
11146SOL    HW133742   3.541   6.185   2.355
11146SOL    HW233743   3.525   6.047   2.295
11147SOL     OW33744   5.623   0.418   5.619
11147SOL    HW133745   5.685   0.393   5.688
11147SOL    HW233746   5.640   0.511   5.605
11148SOL     OW33747   0.413   3.205   2.957
11148SOL    HW133748   0.408   3.112   2.934
11148SOL    HW233749   0.499   3.215   2.998
11149SOL     OW33750   0.556   5.196   0.265
11149SOL    HW133751   0.502   5.144   0.205
11149SOL    HW233752   0.586   5.270   0.212
11150SOL     OW33753   6.778   1.935   0.768
11150SOL    HW133754   6.861   1.936   0.815
11150SOL    HW233755   6.714   1.969   0.830
11151SOL     OW33756   4.710   1.750   2.049
11151SOL    HW133757   4.696   1.691   1.975
11151SOL    HW233758   4.704   1.838   2.011
11152SOL     OW33759   6.834   2.648   0.941
11152SOL    HW133760   6.744   2.659   0.972
11152SOL    HW233761   6.888   2.697   1.003
11153SOL     OW33762   6.257   6.856   0.560
11153SOL    HW133763   6.240   6.914   0.634
11153SOL    HW233764   6.249   6.768   0.597
11154SOL     OW33765   4.364   4.269   4.981
11154SOL    HW133766   4.356   4.355   4.940
11154SOL    HW233767   4.290   4.265   5.042
11155SOL     OW33768   4.209   2.485   5.769
11155SOL    HW133769   4.175   2.396   5.758
11155SOL    HW233770   4.261   2.501   5.690
11156SOL     OW33771   5.219   1.000   3.394
11156SOL    HW133772   5.228   0.960   3.481
11156SOL    HW233773   5.235   1.093   3.408
11157SOL     OW33774   0.192   4.202   0.853
11157SOL    HW133775   0.142   4.178   0.931
11157SOL    HW233776   0.158   4.144   0.784
11158SOL     OW33777   3.624   5.282   1.254
11158SOL    HW133778   3.554   5.310   1.194
11158SOL    HW233779   3.583   5.282   1.340
11159SOL     OW33780   7.761   5.351   2.012
11159SOL    HW133781   7.836   5.292   2.000
11159SOL    HW233782   7.710   5.311   2.082
11160SOL     OW33783   6.500   4.426   5.014
11160SOL    HW133784   6.583   4.384   4.992
11160SOL    HW233785   6.468   4.377   5.090
11161SOL     OW33786   8.131   7.727   2.450
11161SOL    HW133787   8.078   7.790   2.498
11161SOL    HW233788   8.207   7.712   2.506
11162SOL     OW33789   2.006   7.832   2.229
11162SOL    HW133790   1.953   7.766   2.184
11162SOL    HW233791   2.008   7.906   2.169
11163SOL     OW33792   6.352   1.143   4.547
11163SOL    HW133793   6.362   1.233   4.578
11163SOL    HW233794   6.302   1.099   4.616
11164SOL     OW33795   6.453   3.287   0.834
11164SOL    HW133796   6.530   3.254   0.789
11164SOL    HW233797   6.454   3.242   0.919
11165SOL     OW33798   3.634   3.776   0.272
11165SOL    HW133799   3.593   3.824   0.344
11165SOL    HW233800   3.561   3.747   0.217
11166SOL     OW33801   6.279   4.945   3.547
11166SOL    HW133802   6.248   4.866   3.503
11166SOL    HW233803   6.313   5.000   3.477
11167SOL     OW33804   7.107   4.675   3.714
11167SOL    HW133805   7.174   4.665   3.646
11167SOL    HW233806   7.157   4.683   3.795
11168SOL     OW33807   4.590   1.910   0.629
11168SOL    HW133808   4.579   1.835   0.571
11168SOL    HW233809   4.502   1.931   0.659
11169SOL     OW33810   3.659   8.038   3.054
11169SOL    HW133811   3.567   8.019   3.073
11169SOL    HW233812   3.698   8.055   3.140
11170SOL     OW33813   2.743   7.708   0.713
11170SOL    HW133814   2.782   7.772   0.654
11170SOL    HW233815   2.659   7.685   0.672
11171SOL     OW33816   0.218   2.105   0.249
11171SOL    HW133817   0.141   2.111   0.192
11171SOL    HW233818   0.216   2.186   0.300
11172SOL     OW33819   5.013   3.337   2.129
11172SOL    HW133820   5.024   3.320   2.036
11172SOL    HW233821   5.096   3.376   2.157
11173SOL     OW33822   3.402   7.251   0.381
11173SOL    HW133823   3.345   7.258   0.458
11173SOL    HW233824   3.489   7.272   0.414
11174SOL     OW33825   3.403   0.606   4.053
11174SOL    HW133826   3.411   0.518   4.089
11174SOL    HW233827   3.311   0.614   4.028
11175SOL     OW33828   2.742   6.803   1.281
11175SOL    HW133829   2.669   6.786   1.222
11175SOL    HW233830   2.702   6.849   1.355
11176SOL     OW33831   2.626   0.251   4.693
11176SOL    HW133832   2.611   0.176   4.636
11176SOL    HW233833   2.698   0.299   4.652
11177SOL     OW33834   4.285   4.179   0.037
11177SOL    HW133835   4.210   4.230   0.006
11177SOL    HW233836   4.247   4.102   0.078
11178SOL     OW33837   5.724   2.061   5.108
11178SOL    HW133838   5.675   2.070   5.190
11178SOL    HW233839   5.778   1.983   5.122
11179SOL     OW33840   2.421   4.499   1.915
11179SOL    HW133841   2.495   4.513   1.975
11179SOL    HW233842   2.388   4.587   1.897
11180SOL     OW33843   1.510   1.817   1.625
11180SOL    HW133844   1.416   1.826   1.637
11180SOL    HW233845   1.519   1.745   1.562
11181SOL     OW33846   3.301   3.646   1.580
11181SOL    HW133847   3.248   3.576   1.541
11181SOL    HW233848   3.298   3.628   1.674
11182SOL     OW33849   6.523   7.266   2.688
11182SOL    HW133850   6.585   7.267   2.761
11182SOL    HW233851   6.490   7.356   2.683
11183SOL     OW33852   6.682   3.846   4.650
11183SOL    HW133853   6.720   3.759   4.665
11183SOL    HW233854   6.738   3.905   4.701
11184SOL     OW33855   4.977   6.150   0.986
11184SOL    HW133856   5.035   6.172   0.913
11184SOL    HW233857   4.920   6.227   0.995
11185SOL     OW33858   1.078   2.103   5.442
11185SOL    HW133859   1.122   2.024   5.474
11185SOL    HW233860   1.149   2.163   5.420
11186SOL     OW33861   7.495   0.176   2.710
11186SOL    HW133862   7.475   0.139   2.796
11186SOL    HW233863   7.532   0.103   2.660
11187SOL     OW33864   1.921   3.566   3.158
11187SOL    HW133865   1.847   3.574   3.098
11187SOL    HW233866   1.974   3.644   3.141
11188SOL     OW33867   3.580   6.546   0.570
11188SOL    HW133868   3.522   6.541   0.494
11188SOL    HW233869   3.649   6.482   0.551
11189SOL     OW33870   7.979   0.035   4.537
11189SOL    HW133871   7.957   0.084   4.616
11189SOL    HW233872   8.070   0.009   4.549
11190SOL     OW33873   1.001   0.282   0.447
11190SOL    HW133874   1.051   0.346   0.395
11190SOL    HW233875   1.055   0.203   0.446
11191SOL     OW33876   2.711   4.916   5.194
11191SOL    HW133877   2.799   4.942   5.221
11191SOL    HW233878   2.654   4.984   5.230
11192SOL     OW33879   1.610   4.324   3.226
11192SOL    HW133880   1.545   4.376   3.179
11192SOL    HW233881   1.628   4.374   3.306
11193SOL     OW33882   5.711   3.545   4.810
11193SOL    HW133883   5.666   3.621   4.848
11193SOL    HW233884   5.668   3.469   4.849
11194SOL     OW33885   2.265   4.593   2.435
11194SOL    HW133886   2.330   4.619   2.500
11194SOL    HW233887   2.276   4.498   2.426
11195SOL     OW33888   4.746   5.319   5.278
11195SOL    HW133889   4.715   5.407   5.258
11195SOL    HW233890   4.785   5.327   5.365
11196SOL     OW33891   5.813   7.699   1.566
11196SOL    HW133892   5.908   7.711   1.567
11196SOL    HW233893   5.794   7.652   1.647
11197SOL     OW33894   7.536   5.914   0.288
11197SOL    HW133895   7.628   5.925   0.262
11197SOL    HW233896   7.538   5.847   0.357
11198SOL     OW33897   1.178   7.300   1.016
11198SOL    HW133898   1.240   7.325   1.084
11198SOL    HW233899   1.147   7.383   0.980
11199SOL     OW33900   7.583   5.083   1.685
11199SOL    HW133901   7.555   5.081   1.594
11199SOL    HW233902   7.541   5.007   1.725
11200SOL     OW33903   6.494   4.212   0.654
11200SOL    HW133904   6.405   4.232   0.626
11200SOL    HW233905   6.537   4.180   0.575
11201SOL     OW33906   1.805   4.124   1.412
11201SOL    HW133907   1.736   4.115   1.346
11201SOL    HW233908   1.789   4.209   1.453
11202SOL     OW33909   8.211   1.732   3.953
11202SOL    HW133910   8.196   1.658   4.012
11202SOL    HW233911   0.031   1.795   4.005
11203SOL     OW33912   1.839   1.020   1.495
11203SOL    HW133913   1.887   0.985   1.570
11203SOL    HW233914   1.845   0.951   1.429
11204SOL     OW33915   2.503   0.067   2.050
11204SOL    HW133916   2.504   8.209   2.010
11204SOL    HW233917   2.573   0.064   2.115
11205SOL     OW33918   3.525   6.395   0.126
11205SOL    HW133919   3.576   6.463   0.082
11205SOL    HW233920   3.583   6.319   0.127
11206SOL     OW33921   7.315   2.174   1.484
11206SOL    HW133922   7.279   2.228   1.554
11206SOL    HW233923   7.362   2.104   1.530
11207SOL     OW33924   5.227   0.183   3.578
11207SOL    HW133925   5.207   0.269   3.541
11207SOL    HW233926   5.227   0.196   3.673
11208SOL     OW33927   7.940   6.559   1.083
11208SOL    HW133928   7.920   6.640   1.129
11208SOL    HW233929   8.006   6.516   1.137
11209SOL     OW33930   1.473   3.210   3.734
11209SOL    HW133931   1.552   3.162   3.757
11209SOL    HW233932   1.503   3.299   3.715
11210SOL     OW33933   5.254   1.689   4.327
11210SOL    HW133934   5.235   1.649   4.242
11210SOL    HW233935   5.310   1.764   4.306
11211SOL     OW33936   6.597   2.716   5.492
11211SOL    HW133937   6.538   2.644   5.471
11211SOL    HW233938   6.542   2.781   5.535
11212SOL     OW33939   6.625   1.126   5.660
11212SOL    HW133940   6.710   1.100   5.696
11212SOL    HW233941   6.602   1.056   5.599
11213SOL     OW33942   6.060   6.084   3.025
11213SOL    HW133943   6.147   6.056   2.996
11213SOL    HW233944   6.062   6.075   3.120
11214SOL     OW33945   3.857   3.275   2.634
11214SOL    HW133946   3.915   3.246   2.563
11214SOL    HW233947   3.890   3.230   2.712
11215SOL     OW33948   0.780   4.401   0.982
11215SOL    HW133949   0.733   4.335   1.034
11215SOL    HW233950   0.733   4.404   0.899
11216SOL     OW33951   0.913   1.415   4.372
11216SOL    HW133952   0.838   1.362   4.399
11216SOL    HW233953   0.891   1.504   4.398
11217SOL     OW33954   1.336   2.414   5.580
11217SOL    HW133955   1.285   2.495   5.582
11217SOL    HW233956   1.311   2.371   5.498
11218SOL     OW33957   7.114   0.799   3.978
11218SOL    HW133958   7.059   0.739   4.028
11218SOL    HW233959   7.102   0.773   3.887
11219SOL     OW33960   7.681   4.646   3.373
11219SOL    HW133961   7.728   4.702   3.435
11219SOL    HW233962   7.745   4.579   3.348
11220SOL     OW33963   5.049   1.358   0.321
11220SOL    HW133964   5.052   1.298   0.247
11220SOL    HW233965   5.082   1.307   0.395
11221SOL     OW33966   4.186   3.727   3.765
11221SOL    HW133967   4.256   3.764   3.712
11221SOL    HW233968   4.129   3.682   3.702
11222SOL     OW33969   8.126   1.490   4.057
11222SOL    HW133970   8.164   1.454   4.137
11222SOL    HW233971   8.060   1.552   4.088
11223SOL     OW33972   0.627   1.571   4.836
11223SOL    HW133973   0.637   1.482   4.801
11223SOL    HW233974   0.568   1.561   4.911
11224SOL     OW33975   1.308   5.682   1.965
11224SOL    HW133976   1.383   5.692   2.023
11224SOL    HW233977   1.233   5.672   2.024
11225SOL     OW33978   5.936   5.251   0.695
11225SOL    HW133979   6.030   5.252   0.676
11225SOL    HW233980   5.914   5.158   0.703
11226SOL     OW33981   0.649   3.749   4.354
11226SOL    HW133982   0.697   3.678   4.397
11226SOL    HW233983   0.625   3.713   4.269
11227SOL     OW33984   1.591   0.532   5.522
11227SOL    HW133985   1.513   0.481   5.502
11227SOL    HW233986   1.654   0.508   5.454
11228SOL     OW33987   5.700   3.437   4.533
11228SOL    HW133988   5.684   3.512   4.590
11228SOL    HW233989   5.729   3.368   4.592
11229SOL     OW33990   0.114   7.430   1.814
11229SOL    HW133991   0.134   7.455   1.904
11229SOL    HW233992   0.019   7.419   1.812
11230SOL     OW33993   3.951   3.684   5.809
11230SOL    HW133994   3.862   3.672   5.776
11230SOL    HW233995   3.968   3.777   5.796
11231SOL     OW33996   8.144   5.626   4.229
11231SOL    HW133997   8.142   5.684   4.306
11231SOL    HW233998   8.227   5.647   4.186
11232SOL     OW33999   4.079   5.092   5.678
11232SOL    HW134000   4.071   5.174   5.727
11232SOL    HW234001   4.169   5.092   5.645
11233SOL     OW34002   0.775   1.128   2.368
11233SOL    HW134003   0.839   1.169   2.310
11233SOL    HW234004   0.727   1.201   2.407
11234SOL     OW34005   4.492   2.316   1.028
11234SOL    HW134006   4.399   2.338   1.024
11234SOL    HW234007   4.495   2.222   1.010
11235SOL     OW34008   7.139   7.894   2.364
11235SOL    HW134009   7.079   7.824   2.341
11235SOL    HW234010   7.168   7.930   2.280
11236SOL     OW34011   3.169   1.754   5.569
11236SOL    HW134012   3.079   1.756   5.602
11236SOL    HW234013   3.205   1.671   5.599
11237SOL     OW34014   0.009   5.450   5.661
11237SOL    HW134015   8.210   5.541   5.655
11237SOL    HW234016   0.073   5.449   5.732
11238SOL     OW34017   0.649   1.018   2.758
11238SOL    HW134018   0.651   0.984   2.668
11238SOL    HW234019   0.646   0.940   2.813
11239SOL     OW34020   6.914   7.763   4.156
11239SOL    HW134021   6.955   7.784   4.072
11239SOL    HW234022   6.979   7.787   4.221
11240SOL     OW34023   3.097   5.542   2.338
11240SOL    HW134024   3.034   5.484   2.381
11240SOL    HW234025   3.141   5.487   2.274
11241SOL     OW34026   6.755   3.277   0.697
11241SOL    HW134027   6.821   3.294   0.764
11241SOL    HW234028   6.772   3.187   0.669
11242SOL     OW34029   0.330   0.656   0.786
11242SOL    HW134030   0.276   0.678   0.862
11242SOL    HW234031   0.273   0.672   0.711
11243SOL     OW34032   3.452   3.591   0.733
11243SOL    HW134033   3.395   3.543   0.673
11243SOL    HW234034   3.540   3.559   0.713
11244SOL     OW34035   3.431   5.376   2.000
11244SOL    HW134036   3.371   5.387   2.074
11244SOL    HW234037   3.374   5.360   1.925
11245SOL     OW34038   5.290   2.560   5.806
11245SOL    HW134039   1.237   6.656   0.058
11245SOL    HW234040   1.110   6.733   0.027
11246SOL     OW34041   4.879   2.110   5.739
11246SOL    HW134042   4.809   2.171   5.763
11246SOL    HW234043   4.918   2.148   5.661
11247SOL     OW34044   3.122   1.040   2.637
11247SOL    HW134045   3.071   0.997   2.705
11247SOL    HW234046   3.114   0.982   2.561
11248SOL     OW34047   1.656   3.737   4.328
11248SOL    HW134048   1.708   3.656   4.329
11248SOL    HW234049   1.568   3.710   4.355
11249SOL     OW34050   7.301   5.413   5.710
11249SOL    HW134051   7.354   5.370   5.643
11249SOL    HW234052   7.313   5.507   5.694
11250SOL     OW34053   5.212   4.359   0.884
11250SOL    HW134054   5.193   4.443   0.841
11250SOL    HW234055   5.259   4.383   0.964
11251SOL     OW34056   2.352   6.747   2.141
11251SOL    HW134057   2.338   6.687   2.068
11251SOL    HW234058   2.270   6.795   2.149
11252SOL     OW34059   0.691   0.517   0.301
11252SOL    HW134060   0.728   0.523   0.213
11252SOL    HW234061   0.664   0.606   0.322
11253SOL     OW34062   5.001   5.810   1.354
11253SOL    HW134063   5.087   5.814   1.313
11253SOL    HW234064   4.941   5.791   1.282
11254SOL     OW34065   2.236   8.165   1.150
11254SOL    HW134066   2.155   8.216   1.151
11254SOL    HW234067   2.242   8.132   1.060
11255SOL     OW34068   4.688   4.456   0.982
11255SOL    HW134069   4.776   4.426   0.959
11255SOL    HW234070   4.630   4.388   0.947
11256SOL     OW34071   2.102   5.078   3.285
11256SOL    HW134072   2.129   5.004   3.231
11256SOL    HW234073   2.094   5.041   3.373
11257SOL     OW34074   2.086   6.993   4.162
11257SOL    HW134075   2.117   6.916   4.115
11257SOL    HW234076   2.105   6.974   4.254
11258SOL     OW34077   0.946   3.261   2.672
11258SOL    HW134078   0.911   3.348   2.691
11258SOL    HW234079   1.041   3.274   2.666
11259SOL     OW34080   5.383   2.621   5.064
11259SOL    HW134081   5.458   2.603   5.007
11259SOL    HW234082   5.337   2.693   5.022
11260SOL     OW34083   3.624   7.102   1.133
11260SOL    HW134084   3.602   7.009   1.134
11260SOL    HW234085   3.599   7.133   1.220
11261SOL     OW34086   4.645   6.489   2.339
11261SOL    HW134087   4.704   6.524   2.272
11261SOL    HW234088   4.687   6.512   2.422
11262SOL     OW34089   4.541   6.577   4.009
11262SOL    HW134090   4.613   6.579   3.946
11262SOL    HW234091   4.581   6.548   4.091
11263SOL     OW34092   6.940   7.235   2.629
11263SOL    HW134093   6.976   7.269   2.711
11263SOL    HW234094   6.904   7.312   2.585
11264SOL     OW34095   1.253   6.502   3.430
11264SOL    HW134096   1.290   6.588   3.413
11264SOL    HW234097   1.205   6.480   3.350
11265SOL     OW34098   4.869   3.054   1.066
11265SOL    HW134099   4.888   3.025   0.977
11265SOL    HW234100   4.844   2.974   1.112
11266SOL     OW34101   4.059   0.333   3.993
11266SOL    HW134102   4.094   0.342   3.904
11266SOL    HW234103   3.965   0.322   3.981
11267SOL     OW34104   5.931   0.735   0.580
11267SOL    HW134105   5.949   0.804   0.517
11267SOL    HW234106   6.010   0.730   0.634
11268SOL     OW34107   0.866   4.323   1.976
11268SOL    HW134108   0.812   4.390   2.018
11268SOL    HW234109   0.828   4.313   1.889
11269SOL     OW34110   7.323   7.505   1.125
11269SOL    HW134111   7.299   7.561   1.051
11269SOL    HW234112   7.294   7.553   1.202
11270SOL     OW34113   5.176   2.970   5.205
11270SOL    HW134114   5.154   3.050   5.252
11270SOL    HW234115   5.204   3.000   5.119
11271SOL     OW34116   4.843   5.931   0.621
11271SOL    HW134117   4.778   5.899   0.683
11271SOL    HW234118   4.863   5.855   0.567
11272SOL     OW34119   1.262   0.229   0.998
11272SOL    HW134120   1.237   0.269   1.081
11272SOL    HW234121   1.213   0.147   0.994
11273SOL     OW34122   6.792   2.031   5.234
11273SOL    HW134123   6.882   2.054   5.210
11273SOL    HW234124   6.783   1.940   5.207
11274SOL     OW34125   5.043   4.669   3.776
11274SOL    HW134126   4.997   4.594   3.815
11274SOL    HW234127   4.992   4.691   3.698
11275SOL     OW34128   3.089   7.896   4.426
11275SOL    HW134129   3.148   7.868   4.495
11275SOL    HW234130   3.040   7.817   4.402
11276SOL     OW34131   7.274   8.152   0.646
11276SOL    HW134132   7.345   8.148   0.583
11276SOL    HW234133   7.262   0.016   0.662
11277SOL     OW34134   1.968   2.505   3.540
11277SOL    HW134135   2.029   2.504   3.614
11277SOL    HW234136   1.977   2.419   3.500
11278SOL     OW34137   0.225   0.536   3.647
11278SOL    HW134138   0.307   0.488   3.659
11278SOL    HW234139   0.172   0.512   3.723
11279SOL     OW34140   2.695   2.738   2.562
11279SOL    HW134141   2.632   2.806   2.586
11279SOL    HW234142   2.642   2.670   2.521
11280SOL     OW34143   0.837   2.055   5.008
11280SOL    HW134144   0.825   2.059   5.103
11280SOL    HW234145   0.758   2.013   4.976
11281SOL     OW34146   1.803   4.557   1.226
11281SOL    HW134147   1.761   4.638   1.254
11281SOL    HW234148   1.894   4.581   1.209
11282SOL     OW34149   7.714   4.279   4.905
11282SOL    HW134150   7.695   4.270   4.812
11282SOL    HW234151   7.748   4.193   4.931
11283SOL     OW34152   7.310   2.864   2.176
11283SOL    HW134153   7.354   2.789   2.216
11283SOL    HW234154   7.297   2.838   2.085
11284SOL     OW34155   7.957   2.111   2.492
11284SOL    HW134156   7.964   2.178   2.425
11284SOL    HW234157   7.864   2.106   2.512
11285SOL     OW34158   5.488   0.135   0.595
11285SOL    HW134159   5.532   0.078   0.531
11285SOL    HW234160   5.436   0.075   0.648
11286SOL     OW34161   5.470   2.487   3.245
11286SOL    HW134162   5.408   2.522   3.181
11286SOL    HW234163   5.546   2.461   3.193
11287SOL     OW34164   2.168   2.415   3.225
11287SOL    HW134165   2.128   2.359   3.158
11287SOL    HW234166   2.259   2.423   3.198
11288SOL     OW34167   3.073   0.851   0.341
11288SOL    HW134168   3.145   0.815   0.393
11288SOL    HW234169   2.996   0.803   0.371
11289SOL     OW34170   7.953   4.561   4.653
11289SOL    HW134171   7.927   4.637   4.601
11289SOL    HW234172   7.891   4.493   4.628
11290SOL     OW34173   0.750   1.481   5.344
11290SOL    HW134174   0.808   1.465   5.270
11290SOL    HW234175   0.713   1.395   5.364
11291SOL     OW34176   4.374   6.280   0.443
11291SOL    HW134177   4.348   6.369   0.420
11291SOL    HW234178   4.293   6.229   0.434
11292SOL     OW34179   4.446   1.403   2.468
11292SOL    HW134180   4.430   1.355   2.386
11292SOL    HW234181   4.520   1.357   2.508
11293SOL     OW34182   6.625   1.683   3.037
11293SOL    HW134183   6.704   1.671   3.090
11293SOL    HW234184   6.609   1.597   2.998
11294SOL     OW34185   7.483   4.556   1.356
11294SOL    HW134186   7.572   4.540   1.386
11294SOL    HW234187   7.459   4.640   1.395
11295SOL     OW34188   8.122   0.486   2.616
11295SOL    HW134189   8.040   0.452   2.652
11295SOL    HW234190   8.181   0.488   2.691
11296SOL     OW34191   3.064   0.437   2.953
11296SOL    HW134192   3.021   0.440   2.868
11296SOL    HW234193   3.103   0.350   2.957
11297SOL     OW34194   7.224   4.980   3.130
11297SOL    HW134195   7.312   4.984   3.167
11297SOL    HW234196   7.215   5.062   3.081
11298SOL     OW34197   8.123   7.180   0.224
11298SOL    HW134198   8.068   7.256   0.205
11298SOL    HW234199   8.067   7.105   0.203
11299SOL     OW34200   7.448   1.996   2.350
11299SOL    HW134201   7.442   1.901   2.359
11299SOL    HW234202   7.423   2.013   2.259
11300SOL     OW34203   0.451   0.863   1.032
11300SOL    HW134204   0.486   0.775   1.016
11300SOL    HW234205   0.370   0.866   0.981
11301SOL     OW34206   7.825   4.641   5.216
11301SOL    HW134207   7.911   4.656   5.177
11301SOL    HW234208   7.821   4.546   5.230
11302SOL     OW34209   2.603   6.316   0.790
11302SOL    HW134210   2.647   6.231   0.796
11302SOL    HW234211   2.554   6.323   0.872
11303SOL     OW34212   5.683   7.347   4.500
11303SOL    HW134213   5.705   7.260   4.534
11303SOL    HW234214   5.685   7.336   4.405
11304SOL     OW34215   4.344   7.317   5.171
11304SOL    HW134216   4.330   7.392   5.228
11304SOL    HW234217   4.275   7.323   5.105
11305SOL     OW34218   2.804   2.404   2.599
11305SOL    HW134219   2.839   2.316   2.586
11305SOL    HW234220   2.774   2.405   2.690
11306SOL     OW34221   7.122   4.462   1.030
11306SOL    HW134222   7.092   4.539   1.078
11306SOL    HW234223   7.185   4.420   1.089
11307SOL     OW34224   4.902   6.037   1.643
11307SOL    HW134225   4.906   6.033   1.739
11307SOL    HW234226   4.913   5.946   1.615
11308SOL     OW34227   5.684   1.455   5.137
11308SOL    HW134228   5.639   1.420   5.060
11308SOL    HW234229   5.616   1.504   5.184
11309SOL     OW34230   0.082   0.210   1.908
11309SOL    HW134231   0.122   0.125   1.891
11309SOL    HW234232   0.121   0.239   1.990
11310SOL     OW34233   2.283   2.527   2.801
11310SOL    HW134234   2.356   2.588   2.790
11310SOL    HW234235   2.324   2.447   2.834
11311SOL     OW34236   2.913   0.995   3.887
11311SOL    HW134237   2.989   0.983   3.944
11311SOL    HW234238   2.946   0.974   3.799
11312SOL     OW34239   2.266   5.850   2.447
11312SOL    HW134240   2.286   5.903   2.524
11312SOL    HW234241   2.347   5.802   2.429
11313SOL     OW34242   1.119   5.259   1.746
11313SOL    HW134243   1.130   5.264   1.841
11313SOL    HW234244   1.092   5.347   1.721
11314SOL     OW34245   4.514   8.036   3.814
11314SOL    HW134246   4.469   8.107   3.860
11314SOL    HW234247   4.603   8.038   3.848
11315SOL     OW34248   3.063   4.953   2.711
11315SOL    HW134249   2.975   4.926   2.736
11315SOL    HW234250   3.114   4.949   2.792
11316SOL     OW34251   6.407   7.761   2.360
11316SOL    HW134252   6.438   7.849   2.382
11316SOL    HW234253   6.419   7.755   2.265
11317SOL     OW34254   0.509   6.273   4.178
11317SOL    HW134255   0.518   6.178   4.185
11317SOL    HW234256   0.422   6.292   4.213
11318SOL     OW34257   2.157   0.283   0.923
11318SOL    HW134258   2.098   0.230   0.977
11318SOL    HW234259   2.235   0.296   0.977
11319SOL     OW34260   3.583   5.308   4.603
11319SOL    HW134261   3.523   5.375   4.571
11319SOL    HW234262   3.642   5.356   4.661
11320SOL     OW34263   2.753   5.140   0.860
11320SOL    HW134264   2.811   5.199   0.908
11320SOL    HW234265   2.666   5.158   0.895
11321SOL     OW34266   7.493   7.883   0.424
11321SOL    HW134267   7.506   7.822   0.497
11321SOL    HW234268   7.581   7.899   0.391
11322SOL     OW34269   6.031   1.921   1.791
11322SOL    HW134270   6.074   1.862   1.853
11322SOL    HW234271   6.007   1.997   1.844
11323SOL     OW34272   1.503   5.462   3.511
11323SOL    HW134273   1.520   5.428   3.599
11323SOL    HW234274   1.550   5.545   3.507
11324SOL     OW34275   2.049   4.244   1.353
11324SOL    HW134276   1.970   4.206   1.314
11324SOL    HW234277   2.071   4.184   1.425
11325SOL     OW34278   2.702   3.340   5.192
11325SOL    HW134279   2.751   3.264   5.223
11325SOL    HW234280   2.648   3.366   5.267
11326SOL     OW34281   0.556   5.829   2.911
11326SOL    HW134282   0.523   5.905   2.958
11326SOL    HW234283   0.622   5.864   2.851
11327SOL     OW34284   3.768   2.838   2.059
11327SOL    HW134285   3.852   2.876   2.084
11327SOL    HW234286   3.703   2.895   2.101
11328SOL     OW34287   3.628   5.409   4.917
11328SOL    HW134288   3.579   5.449   4.989
11328SOL    HW234289   3.719   5.435   4.933
11329SOL     OW34290   5.197   5.231   3.059
11329SOL    HW134291   5.267   5.278   3.105
11329SOL    HW234292   5.145   5.300   3.018
11330SOL     OW34293   4.745   8.134   3.070
11330SOL    HW134294   4.698   8.204   3.116
11330SOL    HW234295   4.761   8.067   3.137
11331SOL     OW34296   5.844   2.384   4.130
11331SOL    HW134297   5.810   2.474   4.126
11331SOL    HW234298   5.803   2.347   4.208
11332SOL     OW34299   2.620   3.645   1.800
11332SOL    HW134300   2.684   3.623   1.732
11332SOL    HW234301   2.661   3.717   1.848
11333SOL     OW34302   5.308   3.741   1.530
11333SOL    HW134303   5.236   3.686   1.561
11333SOL    HW234304   5.299   3.742   1.435
11334SOL     OW34305   2.292   2.092   2.336
11334SOL    HW134306   2.331   2.011   2.370
11334SOL    HW234307   2.282   2.076   2.242
11335SOL     OW34308   1.014   6.441   3.231
11335SOL    HW134309   0.925   6.457   3.199
11335SOL    HW234310   1.001   6.391   3.312
11336SOL     OW34311   8.215   0.283   4.433
11336SOL    HW134312   0.065   0.298   4.382
11336SOL    HW234313   8.152   0.248   4.370
11337SOL     OW34314   6.654   3.324   3.095
11337SOL    HW134315   6.630   3.400   3.042
11337SOL    HW234316   6.587   3.321   3.163
11338SOL     OW34317   6.950   2.026   2.373
11338SOL    HW134318   6.914   1.937   2.376
11338SOL    HW234319   6.963   2.050   2.465
11339SOL     OW34320   1.270   7.657   3.014
11339SOL    HW134321   1.359   7.657   3.050
11339SOL    HW234322   1.282   7.657   2.919
11340SOL     OW34323   3.218   3.256   3.326
11340SOL    HW134324   3.299   3.238   3.279
11340SOL    HW234325   3.217   3.193   3.398
11341SOL     OW34326   2.466   0.736   3.510
11341SOL    HW134327   2.387   0.736   3.457
11341SOL    HW234328   2.490   0.828   3.519
11342SOL     OW34329   2.669   5.378   1.651
11342SOL    HW134330   2.667   5.457   1.705
11342SOL    HW234331   2.629   5.310   1.705
11343SOL     OW34332   6.932   5.777   3.182
11343SOL    HW134333   6.876   5.709   3.144
11343SOL    HW234334   6.991   5.730   3.240
11344SOL     OW34335   1.164   5.636   4.135
11344SOL    HW134336   1.124   5.666   4.216
11344SOL    HW234337   1.137   5.545   4.126
11345SOL     OW34338   5.822   6.089   4.008
11345SOL    HW134339   5.738   6.091   4.054
11345SOL    HW234340   5.822   6.168   3.954
11346SOL     OW34341   8.043   7.112   1.273
11346SOL    HW134342   7.996   7.183   1.317
11346SOL    HW234343   7.978   7.042   1.264
11347SOL     OW34344   4.439   6.333   2.687
11347SOL    HW134345   4.414   6.257   2.635
11347SOL    HW234346   4.431   6.407   2.627
11348SOL     OW34347   0.077   5.573   0.153
11348SOL    HW134348   0.150   5.513   0.168
11348SOL    HW234349   0.050   5.555   0.063
11349SOL     OW34350   7.722   4.373   2.788
11349SOL    HW134351   7.817   4.380   2.779
11349SOL    HW234352   7.709   4.329   2.872
11350SOL     OW34353   4.236   3.621   1.879
11350SOL    HW134354   4.258   3.707   1.915
11350SOL    HW234355   4.240   3.633   1.784
11351SOL     OW34356   1.603   2.253   3.166
11351SOL    HW134357   1.665   2.283   3.232
11351SOL    HW234358   1.623   2.305   3.088
11352SOL     OW34359   0.835   3.229   4.730
11352SOL    HW134360   0.759   3.178   4.757
11352SOL    HW234361   0.801   3.316   4.712
11353SOL     OW34362   0.820   0.528   5.582
11353SOL    HW134363   0.748   0.554   5.640
11353SOL    HW234364   0.790   0.550   5.494
11354SOL     OW34365   3.546   1.274   4.759
11354SOL    HW134366   3.477   1.338   4.776
11354SOL    HW234367   3.508   1.190   4.784
11355SOL     OW34368   7.459   8.173   0.441
11355SOL    HW134369   7.506   0.017   0.481
11355SOL    HW234370   7.518   8.098   0.452
11356SOL     OW34371   5.295   6.026   4.491
11356SOL    HW134372   5.250   6.110   4.477
11356SOL    HW234373   5.231   5.960   4.465
11357SOL     OW34374   2.936   7.716   4.199
11357SOL    HW134375   2.905   7.784   4.140
11357SOL    HW234376   2.856   7.678   4.236
11358SOL     OW34377   1.531   1.416   0.143
11358SOL    HW134378   1.506   1.508   0.137
11358SOL    HW234379   1.568   1.396   0.057
11359SOL     OW34380   6.058   7.892   4.057
11359SOL    HW134381   6.052   7.831   4.131
11359SOL    HW234382   5.971   7.931   4.052
11360SOL     OW34383   4.681   8.221   0.706
11360SOL    HW134384   4.721   8.140   0.674
11360SOL    HW234385   4.727   0.061   0.659
11361SOL     OW34386   6.743   0.463   5.225
11361SOL    HW134387   6.767   0.372   5.240
11361SOL    HW234388   6.761   0.507   5.308
11362SOL     OW34389   1.731   1.092   4.175
11362SOL    HW134390   1.825   1.105   4.163
11362SOL    HW234391   1.711   1.011   4.128
11363SOL     OW34392   1.329   2.321   3.057
11363SOL    HW134393   1.399   2.266   3.023
11363SOL    HW234394   1.352   2.335   3.149
11364SOL     OW34395   1.006   0.770   3.826
11364SOL    HW134396   0.965   0.690   3.859
11364SOL    HW234397   1.026   0.820   3.905
11365SOL     OW34398   6.447   7.121   2.352
11365SOL    HW134399   6.476   7.212   2.354
11365SOL    HW234400   6.520   7.073   2.313
11366SOL     OW34401   7.092   5.679   3.407
11366SOL    HW134402   7.153   5.738   3.452
11366SOL    HW234403   7.149   5.617   3.362
11367SOL     OW34404   2.266   6.512   2.412
11367SOL    HW134405   2.330   6.460   2.460
11367SOL    HW234406   2.285   6.494   2.320
11368SOL     OW34407   3.193   5.101   1.262
11368SOL    HW134408   3.184   5.052   1.344
11368SOL    HW234409   3.239   5.181   1.287
11369SOL     OW34410   2.356   7.393   3.775
11369SOL    HW134411   2.441   7.434   3.758
11369SOL    HW234412   2.360   7.309   3.729
11370SOL     OW34413   5.014   4.611   2.469
11370SOL    HW134414   5.067   4.557   2.528
11370SOL    HW234415   4.969   4.548   2.412
11371SOL     OW34416   7.229   0.557   4.770
11371SOL    HW134417   7.175   0.478   4.778
11371SOL    HW234418   7.313   0.525   4.738
11372SOL     OW34419   3.113   1.189   0.762
11372SOL    HW134420   3.118   1.140   0.680
11372SOL    HW234421   3.105   1.122   0.830
11373SOL     OW34422   1.462   6.157   3.863
11373SOL    HW134423   1.432   6.196   3.781
11373SOL    HW234424   1.382   6.145   3.914
11374SOL     OW34425   1.216   0.505   2.356
11374SOL    HW134426   1.291   0.564   2.360
11374SOL    HW234427   1.253   0.422   2.326
11375SOL     OW34428   0.487   3.382   4.247
11375SOL    HW134429   0.511   3.291   4.267
11375SOL    HW234430   0.435   3.410   4.322
11376SOL     OW34431   7.435   4.461   0.492
11376SOL    HW134432   7.457   4.472   0.399
11376SOL    HW234433   7.364   4.397   0.492
11377SOL     OW34434   7.792   2.454   4.837
11377SOL    HW134435   7.714   2.430   4.788
11377SOL    HW234436   7.818   2.373   4.882
11378SOL     OW34437   6.727   4.968   5.003
11378SOL    HW134438   6.729   5.063   4.991
11378SOL    HW234439   6.634   4.947   5.011
11379SOL     OW34440   4.891   5.574   2.173
11379SOL    HW134441   4.929   5.660   2.158
11379SOL    HW234442   4.952   5.531   2.232
11380SOL     OW34443   5.733   3.153   2.447
11380SOL    HW134444   5.793   3.166   2.373
11380SOL    HW234445   5.779   3.092   2.505
11381SOL     OW34446   0.867   1.011   1.788
11381SOL    HW134447   0.942   1.067   1.771
11381SOL    HW234448   0.833   1.041   1.872
11382SOL     OW34449   0.147   3.958   4.417
11382SOL    HW134450   0.129   3.984   4.507
11382SOL    HW234451   0.218   4.016   4.389
11383SOL     OW34452   5.129   1.191   5.325
11383SOL    HW134453   5.069   1.204   5.399
11383SOL    HW234454   5.104   1.106   5.289
11384SOL     OW34455   4.051   5.202   4.408
11384SOL    HW134456   3.983   5.255   4.366
11384SOL    HW234457   4.110   5.178   4.337
11385SOL     OW34458   6.250   4.501   2.136
11385SOL    HW134459   6.234   4.520   2.229
11385SOL    HW234460   6.210   4.575   2.090
11386SOL     OW34461   0.554   3.268   0.511
11386SOL    HW134462   0.626   3.205   0.511
11386SOL    HW234463   0.491   3.232   0.449
11387SOL     OW34464   1.286   3.010   3.727
11387SOL    HW134465   1.349   2.940   3.745
11387SOL    HW234466   1.335   3.091   3.742
11388SOL     OW34467   2.859   8.208   4.742
11388SOL    HW134468   2.879   0.033   4.818
11388SOL    HW234469   2.922   8.136   4.746
11389SOL     OW34470   3.562   6.899   5.415
11389SOL    HW134471   3.642   6.945   5.440
11389SOL    HW234472   3.533   6.856   5.496
11390SOL     OW34473   5.031   1.645   1.789
11390SOL    HW134474   5.072   1.609   1.710
11390SOL    HW234475   5.023   1.570   1.848
11391SOL     OW34476   7.659   1.840   1.658
11391SOL    HW134477   7.639   1.772   1.594
11391SOL    HW234478   7.576   1.854   1.704
11392SOL     OW34479   0.777   0.761   1.484
11392SOL    HW134480   0.844   0.713   1.436
11392SOL    HW234481   0.710   0.780   1.419
11393SOL     OW34482   4.155   7.606   1.419
11393SOL    HW134483   4.149   7.701   1.431
11393SOL    HW234484   4.093   7.587   1.348
11394SOL     OW34485   6.519   0.282   4.710
11394SOL    HW134486   6.600   0.332   4.715
11394SOL    HW234487   6.543   0.194   4.740
11395SOL     OW34488   4.173   2.225   3.212
11395SOL    HW134489   4.239   2.206   3.146
11395SOL    HW234490   4.153   2.140   3.251
11396SOL     OW34491   5.565   5.292   3.492
11396SOL    HW134492   5.589   5.372   3.445
11396SOL    HW234493   5.630   5.284   3.562
11397SOL     OW34494   0.112   2.571   4.649
11397SOL    HW134495   0.064   2.540   4.726
11397SOL    HW234496   0.069   2.528   4.575
11398SOL     OW34497   6.526   6.574   1.246
11398SOL    HW134498   6.496   6.492   1.207
11398SOL    HW234499   6.622   6.569   1.241
11399SOL     OW34500   0.987   4.741   3.393
11399SOL    HW134501   0.905   4.713   3.434
11399SOL    HW234502   1.048   4.751   3.466
11400SOL     OW34503   7.845   5.141   1.649
11400SOL    HW134504   7.892   5.087   1.713
11400SOL    HW234505   7.753   5.116   1.659
11401SOL     OW34506   2.278   7.865   5.043
11401SOL    HW134507   2.347   7.849   4.978
11401SOL    HW234508   2.209   7.909   4.994
11402SOL     OW34509   5.573   0.996   4.281
11402SOL    HW134510   5.600   1.086   4.298
11402SOL    HW234511   5.550   0.961   4.367
11403SOL     OW34512   6.090   2.906   3.485
11403SOL    HW134513   6.161   2.937   3.429
11403SOL    HW234514   6.096   2.811   3.481
11404SOL     OW34515   2.565   6.205   1.327
11404SOL    HW134516   2.548   6.251   1.245
11404SOL    HW234517   2.659   6.186   1.325
11405SOL     OW34518   1.359   4.737   1.863
11405SOL    HW134519   1.324   4.826   1.869
11405SOL    HW234520   1.427   4.733   1.930
11406SOL     OW34521   0.471   5.766   1.632
11406SOL    HW134522   0.563   5.757   1.606
11406SOL    HW234523   0.447   5.679   1.665
11407SOL     OW34524   5.042   6.271   5.591
11407SOL    HW134525   5.116   6.241   5.538
11407SOL    HW234526   4.997   6.190   5.616
11408SOL     OW34527   5.674   0.611   2.973
11408SOL    HW134528   5.609   0.550   3.008
11408SOL    HW234529   5.703   0.571   2.891
11409SOL     OW34530   1.294   4.983   4.366
11409SOL    HW134531   1.275   4.989   4.272
11409SOL    HW234532   1.388   5.001   4.372
11410SOL     OW34533   6.743   0.814   1.945
11410SOL    HW134534   6.688   0.870   1.890
11410SOL    HW234535   6.769   0.870   2.018
11411SOL     OW34536   3.609   6.948   4.446
11411SOL    HW134537   3.572   6.910   4.526
11411SOL    HW234538   3.661   6.878   4.408
11412SOL     OW34539   4.202   1.956   4.003
11412SOL    HW134540   4.182   2.022   3.937
11412SOL    HW234541   4.157   1.986   4.082
11413SOL     OW34542   3.143   7.826   4.870
11413SOL    HW134543   3.134   7.901   4.929
11413SOL    HW234544   3.053   7.800   4.850
11414SOL     OW34545   4.354   0.408   5.646
11414SOL    HW134546   4.386   0.498   5.643
11414SOL    HW234547   4.429   0.357   5.675
11415SOL     OW34548   5.106   4.169   2.825
11415SOL    HW134549   5.167   4.135   2.760
11415SOL    HW234550   5.027   4.117   2.813
11416SOL     OW34551   2.871   4.645   1.851
11416SOL    HW134552   2.961   4.675   1.866
11416SOL    HW234553   2.838   4.701   1.781
11417SOL     OW34554   7.286   2.347   3.951
11417SOL    HW134555   7.211   2.306   3.908
11417SOL    HW234556   7.352   2.352   3.882
11418SOL     OW34557   2.263   0.966   2.156
11418SOL    HW134558   2.197   0.984   2.223
11418SOL    HW234559   2.282   0.873   2.166
11419SOL     OW34560   6.038   2.637   2.716
11419SOL    HW134561   6.083   2.670   2.794
11419SOL    HW234562   6.041   2.542   2.726
11420SOL     OW34563   7.028   5.284   1.490
11420SOL    HW134564   6.964   5.310   1.556
11420SOL    HW234565   7.100   5.247   1.540
11421SOL     OW34566   0.814   1.483   1.355
11421SOL    HW134567   0.867   1.555   1.322
11421SOL    HW234568   0.810   1.421   1.282
11422SOL     OW34569   7.820   5.668   5.258
11422SOL    HW134570   7.828   5.596   5.321
11422SOL    HW234571   7.897   5.722   5.273
11423SOL     OW34572   6.970   7.549   4.524
11423SOL    HW134573   6.887   7.517   4.488
11423SOL    HW234574   7.033   7.481   4.501
11424SOL     OW34575   7.579   5.696   4.955
11424SOL    HW134576   7.565   5.604   4.977
11424SOL    HW234577   7.670   5.714   4.980
11425SOL     OW34578   5.110   3.417   3.155
11425SOL    HW134579   5.202   3.394   3.143
11425SOL    HW234580   5.112   3.506   3.189
11426SOL     OW34581   6.375   7.649   1.368
11426SOL    HW134582   6.425   7.690   1.297
11426SOL    HW234583   6.441   7.624   1.433
11427SOL     OW34584   3.084   2.758   4.116
11427SOL    HW134585   3.163   2.812   4.117
11427SOL    HW234586   3.050   2.764   4.205
11428SOL     OW34587   8.131   1.864   2.876
11428SOL    HW134588   8.061   1.802   2.897
11428SOL    HW234589   8.191   1.814   2.820
11429SOL     OW34590   0.367   1.038   4.623
11429SOL    HW134591   0.355   0.952   4.583
11429SOL    HW234592   0.332   1.028   4.712
11430SOL     OW34593   4.994   1.600   3.673
11430SOL    HW134594   5.048   1.667   3.630
11430SOL    HW234595   4.906   1.615   3.639
11431SOL     OW34596   4.446   5.460   2.436
11431SOL    HW134597   4.376   5.482   2.498
11431SOL    HW234598   4.402   5.453   2.351
11432SOL     OW34599   2.498   4.462   1.437
11432SOL    HW134600   2.410   4.474   1.472
11432SOL    HW234601   2.488   4.394   1.371
11433SOL     OW34602   0.444   7.787   2.355
11433SOL    HW134603   0.535   7.764   2.374
11433SOL    HW234604   0.419   7.727   2.284
11434SOL     OW34605   2.400   0.791   2.994
11434SOL    HW134606   2.429   0.787   2.903
11434SOL    HW234607   2.396   0.885   3.014
11435SOL     OW34608   6.022   7.573   5.271
11435SOL    HW134609   6.023   7.548   5.363
11435SOL    HW234610   6.104   7.620   5.258
11436SOL     OW34611   4.470   1.059   2.996
11436SOL    HW134612   4.487   1.069   2.902
11436SOL    HW234613   4.510   0.975   3.019
11437SOL     OW34614   7.388   0.783   4.911
11437SOL    HW134615   7.425   0.868   4.934
11437SOL    HW234616   7.437   0.755   4.834
11438SOL     OW34617   1.280   3.935   0.744
11438SOL    HW134618   1.248   4.007   0.798
11438SOL    HW234619   1.339   3.977   0.681
11439SOL     OW34620   5.498   3.449   0.920
11439SOL    HW134621   5.412   3.430   0.958
11439SOL    HW234622   5.479   3.470   0.828
11440SOL     OW34623   2.070   3.111   1.689
11440SOL    HW134624   2.164   3.094   1.684
11440SOL    HW234625   2.059   3.196   1.647
11441SOL     OW34626   3.107   0.118   1.236
11441SOL    HW134627   3.135   0.146   1.149
11441SOL    HW234628   3.187   0.122   1.289
11442SOL     OW34629   0.894   6.232   1.863
11442SOL    HW134630   0.987   6.245   1.845
11442SOL    HW234631   0.861   6.319   1.885
11443SOL     OW34632   1.375   7.241   3.827
11443SOL    HW134633   1.362   7.261   3.734
11443SOL    HW234634   1.461   7.279   3.847
11444SOL     OW34635   6.502   8.135   3.229
11444SOL    HW134636   6.529   8.135   3.321
11444SOL    HW234637   6.479   8.226   3.211
11445SOL     OW34638   1.557   5.090   5.262
11445SOL    HW134639   1.584   5.168   5.310
11445SOL    HW234640   1.638   5.040   5.249
11446SOL     OW34641   4.516   6.736   2.628
11446SOL    HW134642   4.433   6.781   2.610
11446SOL    HW234643   4.581   6.806   2.630
11447SOL     OW34644   5.017   7.830   4.416
11447SOL    HW134645   4.944   7.838   4.355
11447SOL    HW234646   4.979   7.791   4.495
11448SOL     OW34647   3.615   4.238   4.823
11448SOL    HW134648   3.678   4.169   4.842
11448SOL    HW234649   3.548   4.196   4.769
11449SOL     OW34650   2.800   2.599   0.883
11449SOL    HW134651   2.777   2.692   0.881
11449SOL    HW234652   2.847   2.588   0.966
11450SOL     OW34653   5.869   2.447   2.476
11450SOL    HW134654   5.863   2.539   2.450
11450SOL    HW234655   5.798   2.435   2.539
11451SOL     OW34656   1.799   6.499   3.441
11451SOL    HW134657   1.758   6.559   3.503
11451SOL    HW234658   1.870   6.458   3.490
11452SOL     OW34659   1.742   1.178   0.472
11452SOL    HW134660   1.822   1.222   0.500
11452SOL    HW234661   1.756   1.086   0.494
11453SOL     OW34662   2.857   1.746   2.517
11453SOL    HW134663   2.947   1.775   2.532
11453SOL    HW234664   2.860   1.703   2.431
11454SOL     OW34665   1.050   7.640   2.544
11454SOL    HW134666   1.023   7.555   2.578
11454SOL    HW234667   1.133   7.623   2.500
11455SOL     OW34668   7.316   5.756   4.817
11455SOL    HW134669   7.370   5.794   4.748
11455SOL    HW234670   7.378   5.710   4.874
11456SOL     OW34671   4.456   4.362   1.941
11456SOL    HW134672   4.537   4.412   1.930
11456SOL    HW234673   4.387   4.422   1.912
11457SOL     OW34674   3.031   0.931   1.238
11457SOL    HW134675   3.041   0.856   1.179
11457SOL    HW234676   3.078   0.906   1.317
11458SOL     OW34677   6.644   2.901   4.170
11458SOL    HW134678   6.635   2.991   4.201
11458SOL    HW234679   6.560   2.860   4.192
11459SOL     OW34680   5.409   0.113   5.249
11459SOL    HW134681   5.422   0.201   5.214
11459SOL    HW234682   5.345   0.125   5.319
11460SOL     OW34683   2.986   0.137   2.211
11460SOL    HW134684   2.993   0.068   2.277
11460SOL    HW234685   3.002   0.218   2.259
11461SOL     OW34686   5.919   5.409   3.297
11461SOL    HW134687   5.986   5.345   3.321
11461SOL    HW234688   5.931   5.422   3.203
11462SOL     OW34689   4.394   4.084   0.639
11462SOL    HW134690   4.363   4.073   0.549
11462SOL    HW234691   4.470   4.026   0.646
11463SOL     OW34692   1.163   4.716   1.605
11463SOL    HW134693   1.241   4.696   1.657
11463SOL    HW234694   1.191   4.786   1.546
11464SOL     OW34695   6.070   6.611   4.651
11464SOL    HW134696   6.106   6.536   4.699
11464SOL    HW234697   6.041   6.671   4.719
11465SOL     OW34698   7.824   7.144   4.633
11465SOL    HW134699   7.771   7.197   4.693
11465SOL    HW234700   7.891   7.105   4.689
11466SOL     OW34701   2.360   3.610   1.892
11466SOL    HW134702   2.426   3.600   1.823
11466SOL    HW234703   2.279   3.629   1.845
11467SOL     OW34704   1.968   0.576   5.022
11467SOL    HW134705   1.923   0.637   5.081
11467SOL    HW234706   2.045   0.547   5.071
11468SOL     OW34707   1.755   5.558   4.633
11468SOL    HW134708   1.778   5.650   4.622
11468SOL    HW234709   1.660   5.559   4.647
11469SOL     OW34710   3.571   7.948   2.141
11469SOL    HW134711   3.481   7.958   2.110
11469SOL    HW234712   3.624   7.943   2.061
11470SOL     OW34713   7.361   4.210   5.048
11470SOL    HW134714   7.384   4.130   5.001
11470SOL    HW234715   7.440   4.233   5.096
11471SOL     OW34716   7.981   6.578   2.048
11471SOL    HW134717   7.978   6.674   2.052
11471SOL    HW234718   7.902   6.554   2.000
11472SOL     OW34719   6.984   6.105   2.217
11472SOL    HW134720   6.908   6.135   2.166
11472SOL    HW234721   7.033   6.049   2.156
11473SOL     OW34722   0.110   3.171   4.682
11473SOL    HW134723   0.175   3.115   4.724
11473SOL    HW234724   0.026   3.142   4.718
11474SOL     OW34725   5.972   2.410   0.511
11474SOL    HW134726   6.018   2.453   0.583
11474SOL    HW234727   5.897   2.466   0.493
11475SOL     OW34728   1.747   2.749   5.285
11475SOL    HW134729   1.792   2.665   5.290
11475SOL    HW234730   1.753   2.785   5.374
11476SOL     OW34731   8.047   0.045   0.244
11476SOL    HW134732   8.008   0.020   0.328
11476SOL    HW234733   8.108   0.116   0.266
11477SOL     OW34734   1.502   4.495   4.384
11477SOL    HW134735   1.433   4.431   4.367
11477SOL    HW234736   1.507   4.500   4.479
11478SOL     OW34737   5.212   0.693   3.394
11478SOL    HW134738   5.163   0.677   3.314
11478SOL    HW234739   5.184   0.624   3.454
11479SOL     OW34740   5.372   5.169   1.684
11479SOL    HW134741   5.376   5.260   1.654
11479SOL    HW234742   5.397   5.173   1.776
11480SOL     OW34743   6.510   8.006   2.364
11480SOL    HW134744   6.450   8.068   2.404
11480SOL    HW234745   6.509   8.029   2.271
11481SOL     OW34746   6.189   3.141   3.741
11481SOL    HW134747   6.098   3.116   3.726
11481SOL    HW234748   6.240   3.062   3.721
11482SOL     OW34749   1.076   2.468   5.271
11482SOL    HW134750   1.081   2.560   5.245
11482SOL    HW234751   1.028   2.426   5.200
11483SOL     OW34752   5.476   1.975   0.508
11483SOL    HW134753   5.555   1.943   0.551
11483SOL    HW234754   5.404   1.931   0.553
11484SOL     OW34755   3.316   5.750   2.366
11484SOL    HW134756   3.317   5.724   2.458
11484SOL    HW234757   3.223   5.764   2.346
11485SOL     OW34758   1.116   4.042   1.468
11485SOL    HW134759   1.120   4.068   1.560
11485SOL    HW234760   1.039   4.087   1.434
11486SOL     OW34761   5.242   8.016   0.982
11486SOL    HW134762   5.228   7.952   1.052
11486SOL    HW234763   5.315   8.070   1.012
11487SOL     OW34764   1.019   4.798   2.286
11487SOL    HW134765   1.034   4.759   2.372
11487SOL    HW234766   1.068   4.742   2.226
11488SOL     OW34767   4.924   5.621   3.394
11488SOL    HW134768   4.939   5.682   3.322
11488SOL    HW234769   4.975   5.656   3.467
11489SOL     OW34770   1.152   4.072   0.172
11489SOL    HW134771   1.207   4.106   0.242
11489SOL    HW234772   1.179   4.121   0.094
11490SOL     OW34773   2.587   7.932   4.374
11490SOL    HW134774   2.606   7.868   4.306
11490SOL    HW234775   2.642   8.008   4.353
11491SOL     OW34776   4.665   3.236   0.899
11491SOL    HW134777   4.709   3.201   0.976
11491SOL    HW234778   4.624   3.160   0.858
11492SOL     OW34779   2.684   4.661   2.841
11492SOL    HW134780   2.777   4.638   2.835
11492SOL    HW234781   2.683   4.755   2.861
11493SOL     OW34782   3.484   6.742   3.731
11493SOL    HW134783   3.397   6.731   3.693
11493SOL    HW234784   3.514   6.653   3.747
11494SOL     OW34785   2.888   3.034   4.413
11494SOL    HW134786   2.983   3.042   4.412
11494SOL    HW234787   2.868   2.998   4.500
11495SOL     OW34788   5.292   0.715   4.570
11495SOL    HW134789   5.318   0.623   4.565
11495SOL    HW234790   5.232   0.719   4.644
11496SOL     OW34791   2.831   6.549   4.731
11496SOL    HW134792   2.894   6.502   4.785
11496SOL    HW234793   2.748   6.542   4.779
11497SOL     OW34794   4.913   5.115   2.169
11497SOL    HW134795   4.967   5.158   2.236
11497SOL    HW234796   4.859   5.185   2.133
11498SOL     OW34797   2.925   6.509   5.184
11498SOL    HW134798   3.019   6.512   5.165
11498SOL    HW234799   2.889   6.589   5.146
11499SOL     OW34800   4.285   4.940   3.717
11499SOL    HW134801   4.303   4.934   3.623
11499SOL    HW234802   4.274   5.034   3.733
11500SOL     OW34803   3.883   3.984   3.263
11500SOL    HW134804   3.862   3.994   3.170
11500SOL    HW234805   3.924   3.898   3.269
11501SOL     OW34806   5.169   5.776   3.201
11501SOL    HW134807   5.225   5.809   3.131
11501SOL    HW234808   5.141   5.690   3.171
11502SOL     OW34809   3.896   0.494   1.725
11502SOL    HW134810   3.887   0.435   1.799
11502SOL    HW234811   3.886   0.581   1.763
11503SOL     OW34812   4.086   2.212   1.737
11503SOL    HW134813   4.056   2.237   1.824
11503SOL    HW234814   4.128   2.291   1.702
11504SOL     OW34815   0.312   6.707   5.490
11504SOL    HW134816   0.372   6.766   5.445
11504SOL    HW234817   0.268   6.660   5.419
11505SOL     OW34818   7.560   2.672   3.232
11505SOL    HW134819   7.634   2.658   3.290
11505SOL    HW234820   7.532   2.762   3.249
11506SOL     OW34821   1.085   4.457   3.500
11506SOL    HW134822   1.083   4.433   3.593
11506SOL    HW234823   1.137   4.388   3.458
11507SOL     OW34824   7.137   6.953   1.219
11507SOL    HW134825   7.205   6.885   1.214
11507SOL    HW234826   7.059   6.911   1.184
11508SOL     OW34827   0.757   4.479   5.504
11508SOL    HW134828   0.754   4.543   5.575
11508SOL    HW234829   0.771   4.395   5.548
11509SOL     OW34830   7.079   3.013   0.567
11509SOL    HW134831   7.003   2.962   0.539
11509SOL    HW234832   7.070   3.018   0.662
11510SOL     OW34833   5.977   7.397   2.198
11510SOL    HW134834   6.023   7.460   2.142
11510SOL    HW234835   6.041   7.373   2.265
11511SOL     OW34836   2.549   1.057   0.812
11511SOL    HW134837   2.522   1.146   0.834
11511SOL    HW234838   2.644   1.061   0.806
11512SOL     OW34839   7.202   0.249   0.680
11512SOL    HW134840   7.107   0.259   0.675
11512SOL    HW234841   7.237   0.325   0.634
11513SOL     OW34842   1.299   5.457   4.386
11513SOL    HW134843   1.248   5.386   4.425
11513SOL    HW234844   1.246   5.536   4.399
11514SOL     OW34845   4.764   7.280   2.525
11514SOL    HW134846   4.812   7.266   2.607
11514SOL    HW234847   4.744   7.374   2.524
11515SOL     OW34848   2.132   0.789   3.095
11515SOL    HW134849   2.076   0.754   3.026
11515SOL    HW234850   2.218   0.799   3.054
11516SOL     OW34851   1.196   0.169   4.401
11516SOL    HW134852   1.217   0.080   4.372
11516SOL    HW234853   1.102   0.166   4.420
11517SOL     OW34854   8.140   2.302   2.589
11517SOL    HW134855   0.001   2.285   2.564
11517SOL    HW234856   8.090   2.229   2.552
11518SOL     OW34857   5.328   2.986   0.105
11518SOL    HW134858   5.296   2.964   0.017
11518SOL    HW234859   5.412   2.940   0.112
11519SOL     OW34860   1.591   5.768   1.558
11519SOL    HW134861   1.652   5.838   1.535
11519SOL    HW234862   1.525   5.771   1.489
11520SOL     OW34863   6.412   3.963   4.473
11520SOL    HW134864   6.440   4.021   4.544
11520SOL    HW234865   6.440   4.008   4.393
11521SOL     OW34866   0.645   7.374   2.868
11521SOL    HW134867   0.728   7.348   2.908
11521SOL    HW234868   0.591   7.295   2.871
11522SOL     OW34869   7.120   5.370   3.243
11522SOL    HW134870   7.125   5.367   3.339
11522SOL    HW234871   7.204   5.406   3.216
11523SOL     OW34872   1.205   0.043   3.054
11523SOL    HW134873   1.182   0.061   3.145
11523SOL    HW234874   1.124   0.012   3.014
11524SOL     OW34875   5.252   1.293   0.746
11524SOL    HW134876   5.214   1.208   0.725
11524SOL    HW234877   5.333   1.296   0.694
11525SOL     OW34878   1.418   1.161   5.756
11525SOL    HW134879   1.427   1.080   5.806
11525SOL    HW234880   1.334   1.153   5.711
11526SOL     OW34881   6.218   5.646   1.675
11526SOL    HW134882   6.161   5.570   1.666
11526SOL    HW234883   6.194   5.703   1.602
11527SOL     OW34884   4.478   7.551   4.470
11527SOL    HW134885   4.496   7.639   4.502
11527SOL    HW234886   4.543   7.496   4.514
11528SOL     OW34887   6.868   0.264   2.064
11528SOL    HW134888   6.880   0.355   2.038
11528SOL    HW234889   6.907   0.213   1.993
11529SOL     OW34890   1.786   3.006   0.161
11529SOL    HW134891   1.733   2.966   0.092
11529SOL    HW234892   1.723   3.042   0.223
11530SOL     OW34893   6.969   4.998   2.607
11530SOL    HW134894   7.063   4.988   2.592
11530SOL    HW234895   6.928   4.952   2.534
11531SOL     OW34896   2.233   4.468   5.430
11531SOL    HW134897   2.181   4.511   5.498
11531SOL    HW234898   2.269   4.390   5.473
11532SOL     OW34899   0.912   7.217   1.083
11532SOL    HW134900   0.942   7.300   1.120
11532SOL    HW234901   0.990   7.162   1.082
11533SOL     OW34902   0.041   3.269   2.340
11533SOL    HW134903   0.130   3.263   2.375
11533SOL    HW234904   8.214   3.245   2.413
11534SOL     OW34905   3.294   0.801   0.787
11534SOL    HW134906   3.231   0.861   0.828
11534SOL    HW234907   3.379   0.826   0.824
11535SOL     OW34908   4.050   3.856   1.646
11535SOL    HW134909   3.961   3.821   1.648
11535SOL    HW234910   4.106   3.779   1.638
11536SOL     OW34911   3.578   0.676   4.376
11536SOL    HW134912   3.615   0.598   4.334
11536SOL    HW234913   3.513   0.642   4.437
11537SOL     OW34914   0.354   5.532   4.592
11537SOL    HW134915   0.358   5.461   4.528
11537SOL    HW234916   0.395   5.496   4.671
11538SOL     OW34917   0.123   3.076   2.704
11538SOL    HW134918   0.215   3.052   2.713
11538SOL    HW234919   0.077   2.993   2.694
11539SOL     OW34920   7.876   3.703   0.235
11539SOL    HW134921   7.940   3.763   0.198
11539SOL    HW234922   7.837   3.659   0.159
11540SOL     OW34923   2.219   3.894   5.755
11540SOL    HW134924   2.129   3.904   5.786
11540SOL    HW234925   6.384   7.986   0.014
11541SOL     OW34926   3.082   1.669   1.814
11541SOL    HW134927   2.986   1.669   1.821
11541SOL    HW234928   3.103   1.581   1.784
11542SOL     OW34929   7.556   1.177   5.221
11542SOL    HW134930   7.566   1.090   5.260
11542SOL    HW234931   7.488   1.220   5.274
11543SOL     OW34932   5.310   5.410   4.856
11543SOL    HW134933   5.230   5.372   4.820
11543SOL    HW234934   5.287   5.501   4.875
11544SOL     OW34935   1.591   1.404   5.683
11544SOL    HW134936   1.542   1.380   5.604
11544SOL    HW234937   1.605   1.321   5.728
11545SOL     OW34938   5.024   3.115   3.065
11545SOL    HW134939   5.041   3.105   3.159
11545SOL    HW234940   5.110   3.133   3.027
11546SOL     OW34941   5.483   1.142   5.250
11546SOL    HW134942   5.454   1.137   5.159
11546SOL    HW234943   5.425   1.082   5.297
11547SOL     OW34944   2.057   7.526   3.641
11547SOL    HW134945   2.099   7.610   3.622
11547SOL    HW234946   2.072   7.512   3.734
11548SOL     OW34947   1.412   6.389   2.821
11548SOL    HW134948   1.368   6.447   2.883
11548SOL    HW234949   1.433   6.446   2.747
11549SOL     OW34950   7.127   7.531   3.823
11549SOL    HW134951   7.109   7.503   3.733
11549SOL    HW234952   7.074   7.472   3.877
11550SOL     OW34953   7.546   7.024   5.199
11550SOL    HW134954   7.535   7.033   5.104
11550SOL    HW234955   7.463   7.053   5.236
11551SOL     OW34956   3.173   5.284   3.921
11551SOL    HW134957   3.230   5.313   3.992
11551SOL    HW234958   3.127   5.208   3.956
11552SOL     OW34959   0.412   3.883   1.836
11552SOL    HW134960   0.390   3.843   1.920
11552SOL    HW234961   0.459   3.963   1.859
11553SOL     OW34962   2.856   2.188   1.060
11553SOL    HW134963   2.822   2.266   1.104
11553SOL    HW234964   2.778   2.135   1.043
11554SOL     OW34965   3.422   0.518   4.869
11554SOL    HW134966   3.343   0.521   4.815
11554SOL    HW234967   3.391   0.486   4.954
11555SOL     OW34968   2.656   3.189   2.244
11555SOL    HW134969   2.725   3.256   2.242
11555SOL    HW234970   2.605   3.205   2.164
11556SOL     OW34971   2.820   0.902   0.133
11556SOL    HW134972   2.879   0.975   0.114
11556SOL    HW234973   2.741   0.922   0.082
11557SOL     OW34974   6.715   1.091   0.375
11557SOL    HW134975   6.708   1.000   0.347
11557SOL    HW234976   6.723   1.140   0.293
11558SOL     OW34977   3.963   5.115   4.652
11558SOL    HW134978   3.871   5.101   4.632
11558SOL    HW234979   4.003   5.136   4.568
11559SOL     OW34980   6.367   4.570   4.589
11559SOL    HW134981   6.407   4.624   4.520
11559SOL    HW234982   6.409   4.484   4.579
11560SOL     OW34983   5.928   6.875   1.496
11560SOL    HW134984   5.908   6.968   1.502
11560SOL    HW234985   5.893   6.848   1.411
11561SOL     OW34986   0.341   3.322   4.956
11561SOL    HW134987   0.335   3.353   5.046
11561SOL    HW234988   0.327   3.228   4.962
11562SOL     OW34989   4.978   0.734   5.519
11562SOL    HW134990   4.954   0.814   5.565
11562SOL    HW234991   4.980   0.667   5.587
11563SOL     OW34992   6.234   0.834   3.402
11563SOL    HW134993   6.264   0.829   3.311
11563SOL    HW234994   6.154   0.887   3.398
11564SOL     OW34995   4.597   2.132   2.540
11564SOL    HW134996   4.530   2.199   2.554
11564SOL    HW234997   4.560   2.053   2.579
11565SOL     OW34998   0.399   6.321   4.859
11565SOL    HW134999   0.364   6.405   4.887
11565SOL    HW235000   0.481   6.312   4.908
11566SOL     OW35001   4.769   4.145   0.019
11566SOL    HW135002   4.808   4.071   0.065
11566SOL    HW235003   4.742   4.205   0.089
11567SOL     OW35004   6.084   0.070   4.715
11567SOL    HW135005   6.047   0.122   4.786
11567SOL    HW235006   6.102   0.134   4.646
11568SOL     OW35007   7.630   4.265   2.286
11568SOL    HW135008   7.661   4.339   2.339
11568SOL    HW235009   7.700   4.250   2.222
11569SOL     OW35010   4.781   4.793   4.918
11569SOL    HW135011   4.789   4.745   5.001
11569SOL    HW235012   4.811   4.731   4.852
11570SOL     OW35013   2.411   6.342   4.693
11570SOL    HW135014   2.383   6.294   4.771
11570SOL    HW235015   2.487   6.294   4.661
11571SOL     OW35016   4.323   4.817   3.462
11571SOL    HW135017   4.286   4.734   3.432
11571SOL    HW235018   4.410   4.794   3.494
11572SOL     OW35019   1.143   2.996   2.292
11572SOL    HW135020   1.198   2.919   2.278
11572SOL    HW235021   1.133   3.001   2.387
11573SOL     OW35022   4.345   4.443   5.231
11573SOL    HW135023   4.317   4.477   5.146
11573SOL    HW235024   4.264   4.419   5.275
11574SOL     OW35025   7.502   8.215   4.889
11574SOL    HW135026   7.553   8.179   4.817
11574SOL    HW235027   7.565   0.037   4.940
11575SOL     OW35028   7.281   7.044   3.309
11575SOL    HW135029   7.338   6.995   3.369
11575SOL    HW235030   7.312   7.020   3.222
11576SOL     OW35031   5.678   3.534   2.310
11576SOL    HW135032   5.614   3.598   2.278
11576SOL    HW235033   5.626   3.457   2.331
11577SOL     OW35034   6.098   4.783   4.504
11577SOL    HW135035   6.042   4.837   4.448
11577SOL    HW235036   6.135   4.718   4.444
11578SOL     OW35037   5.986   0.242   2.399
11578SOL    HW135038   6.070   0.280   2.426
11578SOL    HW235039   5.991   0.150   2.426
11579SOL     OW35040   0.414   7.838   5.597
11579SOL    HW135041   0.467   7.913   5.626
11579SOL    HW235042   0.366   7.810   5.675
11580SOL     OW35043   7.625   7.835   5.416
11580SOL    HW135044   7.549   7.790   5.453
11580SOL    HW235045   7.695   7.769   5.416
11581SOL     OW35046   1.445   7.814   0.386
11581SOL    HW135047   1.529   7.843   0.351
11581SOL    HW235048   1.428   7.731   0.342
11582SOL     OW35049   5.172   1.017   0.125
11582SOL    HW135050   5.162   0.930   0.087
11582SOL    HW235051   5.254   1.050   0.088
11583SOL     OW35052   3.283   1.678   2.263
11583SOL    HW135053   3.255   1.713   2.179
11583SOL    HW235054   3.283   1.583   2.250
11584SOL     OW35055   2.907   3.306   3.533
11584SOL    HW135056   2.948   3.220   3.540
11584SOL    HW235057   2.817   3.288   3.506
11585SOL     OW35058   8.153   3.692   3.514
11585SOL    HW135059   8.193   3.620   3.465
11585SOL    HW235060   8.223   3.723   3.572
11586SOL     OW35061   7.593   6.926   2.519
11586SOL    HW135062   7.675   6.954   2.478
11586SOL    HW235063   7.620   6.876   2.596
11587SOL     OW35064   4.148   3.988   1.098
11587SOL    HW135065   4.104   3.947   1.172
11587SOL    HW235066   4.199   4.059   1.137
11588SOL     OW35067   2.706   6.819   3.761
11588SOL    HW135068   2.785   6.862   3.729
11588SOL    HW235069   2.734   6.772   3.839
11589SOL     OW35070   4.228   4.965   2.156
11589SOL    HW135071   4.239   4.948   2.250
11589SOL    HW235072   4.246   5.059   2.146
11590SOL     OW35073   0.795   5.314   0.388
11590SOL    HW135074   0.712   5.275   0.362
11590SOL    HW235075   0.861   5.250   0.363
11591SOL     OW35076   2.418   3.310   5.046
11591SOL    HW135077   2.404   3.241   4.981
11591SOL    HW235078   2.460   3.381   4.997
11592SOL     OW35079   4.753   0.397   4.506
11592SOL    HW135080   4.837   0.390   4.551
11592SOL    HW235081   4.703   0.321   4.537
11593SOL     OW35082   1.103   3.878   1.242
11593SOL    HW135083   1.122   3.962   1.283
11593SOL    HW235084   1.026   3.846   1.288
11594SOL     OW35085   4.677   3.300   1.247
11594SOL    HW135086   4.637   3.218   1.276
11594SOL    HW235087   4.671   3.358   1.323
11595SOL     OW35088   5.280   0.711   1.787
11595SOL    HW135089   5.366   0.701   1.747
11595SOL    HW235090   5.219   0.709   1.713
11596SOL     OW35091   1.031   1.248   1.545
11596SOL    HW135092   0.961   1.302   1.581
11596SOL    HW235093   1.095   1.311   1.512
11597SOL     OW35094   1.366   5.676   5.400
11597SOL    HW135095   1.323   5.761   5.401
11597SOL    HW235096   1.439   5.687   5.339
11598SOL     OW35097   7.813   4.102   0.848
11598SOL    HW135098   7.773   4.187   0.866
11598SOL    HW235099   7.752   4.059   0.789
11599SOL     OW35100   5.023   2.719   2.310
11599SOL    HW135101   5.021   2.736   2.216
11599SOL    HW235102   5.089   2.779   2.344
11600SOL     OW35103   5.273   3.470   2.049
11600SOL    HW135104   5.296   3.465   1.956
11600SOL    HW235105   5.335   3.411   2.093
11601SOL     OW35106   0.253   6.945   3.907
11601SOL    HW135107   0.253   7.035   3.874
11601SOL    HW235108   0.341   6.932   3.942
11602SOL     OW35109   3.941   7.254   1.410
11602SOL    HW135110   4.014   7.273   1.351
11602SOL    HW235111   3.951   7.317   1.482
11603SOL     OW35112   6.395   1.143   1.166
11603SOL    HW135113   6.454   1.196   1.112
11603SOL    HW235114   6.409   1.175   1.255
11604SOL     OW35115   1.045   2.828   1.861
11604SOL    HW135116   1.127   2.876   1.851
11604SOL    HW235117   0.989   2.863   1.791
11605SOL     OW35118   6.977   2.743   5.159
11605SOL    HW135119   6.889   2.769   5.132
11605SOL    HW235120   6.971   2.732   5.254
11606SOL     OW35121   4.732   6.016   2.266
11606SOL    HW135122   4.701   6.103   2.239
11606SOL    HW235123   4.652   5.969   2.289
11607SOL     OW35124   4.858   3.395   3.272
11607SOL    HW135125   4.863   3.350   3.356
11607SOL    HW235126   4.948   3.397   3.240
11608SOL     OW35127   0.029   5.015   0.517
11608SOL    HW135128   0.073   4.934   0.491
11608SOL    HW235129   0.091   5.084   0.495
11609SOL     OW35130   7.389   1.160   0.222
11609SOL    HW135131   7.460   1.096   0.218
11609SOL    HW235132   7.314   1.116   0.182
11610SOL     OW35133   1.664   6.370   1.570
11610SOL    HW135134   1.580   6.399   1.605
11610SOL    HW235135   1.729   6.426   1.614
11611SOL     OW35136   7.390   6.880   4.161
11611SOL    HW135137   7.387   6.864   4.067
11611SOL    HW235138   7.334   6.957   4.174
11612SOL     OW35139   6.636   3.566   1.833
11612SOL    HW135140   6.725   3.532   1.841
11612SOL    HW235141   6.585   3.515   1.895
11613SOL     OW35142   3.642   5.792   0.214
11613SOL    HW135143   3.734   5.780   0.236
11613SOL    HW235144   3.638   5.784   0.119
11614SOL     OW35145   4.730   8.166   5.289
11614SOL    HW135146   4.673   8.151   5.364
11614SOL    HW235147   4.757   0.028   5.297
11615SOL     OW35148   4.121   0.625   1.964
11615SOL    HW135149   4.075   0.555   1.917
11615SOL    HW235150   4.065   0.644   2.039
11616SOL     OW35151   5.995   4.635   2.219
11616SOL    HW135152   6.002   4.551   2.264
11616SOL    HW235153   6.032   4.699   2.280
11617SOL     OW35154   2.396   3.788   1.241
11617SOL    HW135155   2.401   3.702   1.283
11617SOL    HW235156   2.471   3.790   1.181
11618SOL     OW35157   6.097   5.489   1.047
11618SOL    HW135158   6.055   5.568   1.081
11618SOL    HW235159   6.189   5.498   1.073
11619SOL     OW35160   8.093   5.334   3.630
11619SOL    HW135161   8.125   5.318   3.541
11619SOL    HW235162   8.090   5.247   3.670
11620SOL     OW35163   7.123   4.330   3.533
11620SOL    HW135164   7.161   4.413   3.503
11620SOL    HW235165   7.098   4.347   3.624
11621SOL     OW35166   0.772   1.703   5.529
11621SOL    HW135167   0.771   1.640   5.601
11621SOL    HW235168   0.796   1.652   5.452
11622SOL     OW35169   3.063   6.375   4.849
11622SOL    HW135170   2.997   6.328   4.900
11622SOL    HW235171   3.143   6.368   4.902
11623SOL     OW35172   0.748   7.284   3.252
11623SOL    HW135173   0.783   7.264   3.165
11623SOL    HW235174   0.783   7.216   3.309
11624SOL     OW35175   0.542   6.346   0.034
11624SOL    HW135176   4.591   2.185   5.801
11624SOL    HW235177   0.508   6.435   0.042
11625SOL     OW35178   5.901   7.897   4.788
11625SOL    HW135179   5.867   7.986   4.775
11625SOL    HW235180   5.996   7.908   4.795
11626SOL     OW35181   4.293   5.849   2.149
11626SOL    HW135182   4.234   5.869   2.076
11626SOL    HW235183   4.262   5.904   2.221
11627SOL     OW35184   6.277   1.515   1.915
11627SOL    HW135185   6.304   1.455   1.845
11627SOL    HW235186   6.203   1.471   1.957
11628SOL     OW35187   1.506   2.222   5.199
11628SOL    HW135188   1.503   2.168   5.120
11628SOL    HW235189   1.557   2.299   5.174
11629SOL     OW35190   6.536   0.377   1.857
11629SOL    HW135191   6.569   0.441   1.919
11629SOL    HW235192   6.596   0.382   1.782
11630SOL     OW35193   2.942   2.922   2.299
11630SOL    HW135194   2.974   3.000   2.344
11630SOL    HW235195   2.952   2.942   2.206
11631SOL     OW35196   0.447   2.452   2.633
11631SOL    HW135197   0.438   2.370   2.681
11631SOL    HW235198   0.433   2.428   2.541
11632SOL     OW35199   7.401   0.710   3.856
11632SOL    HW135200   7.473   0.698   3.794
11632SOL    HW235201   7.402   0.631   3.910
11633SOL     OW35202   7.884   2.863   2.358
11633SOL    HW135203   7.818   2.863   2.289
11633SOL    HW235204   7.931   2.946   2.347
11634SOL     OW35205   8.129   5.564   4.979
11634SOL    HW135206   8.167   5.652   4.973
11634SOL    HW235207   8.193   5.507   4.936
11635SOL     OW35208   2.447   6.085   5.218
11635SOL    HW135209   2.460   6.178   5.236
11635SOL    HW235210   2.353   6.071   5.232
11636SOL     OW35211   6.237   8.045   1.233
11636SOL    HW135212   6.287   8.067   1.154
11636SOL    HW235213   6.189   7.966   1.210
11637SOL     OW35214   4.144   6.141   1.413
11637SOL    HW135215   4.211   6.144   1.482
11637SOL    HW235216   4.118   6.049   1.408
11638SOL     OW35217   5.097   4.921   5.437
11638SOL    HW135218   5.124   4.963   5.355
11638SOL    HW235219   5.140   4.836   5.435
11639SOL     OW35220   5.725   7.238   2.878
11639SOL    HW135221   5.815   7.215   2.857
11639SOL    HW235222   5.681   7.154   2.890
11640SOL     OW35223   4.334   0.704   3.203
11640SOL    HW135224   4.309   0.757   3.127
11640SOL    HW235225   4.308   0.757   3.279
11641SOL     OW35226   5.502   4.895   3.689
11641SOL    HW135227   5.422   4.927   3.731
11641SOL    HW235228   5.573   4.922   3.748
11642SOL     OW35229   1.195   1.685   4.753
11642SOL    HW135230   1.128   1.629   4.791
11642SOL    HW235231   1.190   1.668   4.659
11643SOL     OW35232   6.367   4.053   4.018
11643SOL    HW135233   6.401   3.977   3.971
11643SOL    HW235234   6.323   4.105   3.951
11644SOL     OW35235   6.036   5.738   1.165
11644SOL    HW135236   6.052   5.727   1.259
11644SOL    HW235237   5.941   5.736   1.156
11645SOL     OW35238   4.980   6.687   3.664
11645SOL    HW135239   4.966   6.770   3.619
11645SOL    HW235240   5.063   6.698   3.710
11646SOL     OW35241   7.526   5.975   0.007
11646SOL    HW135242   7.479   5.954   0.088
11646SOL    HW235243   3.404   1.955   5.818
11647SOL     OW35244   6.604   1.629   0.350
11647SOL    HW135245   6.626   1.722   0.359
11647SOL    HW235246   6.621   1.610   0.258
11648SOL     OW35247   1.372   7.908   2.428
11648SOL    HW135248   1.355   7.982   2.487
11648SOL    HW235249   1.288   7.893   2.384
11649SOL     OW35250   6.031   2.011   0.142
11649SOL    HW135251   6.095   2.056   0.197
11649SOL    HW235252   5.952   2.065   0.147
11650SOL     OW35253   6.714   6.058   5.802
11650SOL    HW135254   6.688   6.150   5.810
11650SOL    HW235255   6.809   6.061   5.793
11651SOL     OW35256   5.879   2.389   1.239
11651SOL    HW135257   5.941   2.432   1.298
11651SOL    HW235258   5.802   2.371   1.293
11652SOL     OW35259   1.772   6.888   4.039
11652SOL    HW135260   1.749   6.964   4.093
11652SOL    HW235261   1.861   6.906   4.009
11653SOL     OW35262   2.135   2.791   5.031
11653SOL    HW135263   2.111   2.751   4.948
11653SOL    HW235264   2.061   2.847   5.054
11654SOL     OW35265   0.627   1.743   4.606
11654SOL    HW135266   0.596   1.828   4.636
11654SOL    HW235267   0.641   1.693   4.687
11655SOL     OW35268   0.715   3.706   5.348
11655SOL    HW135269   0.752   3.731   5.433
11655SOL    HW235270   0.791   3.683   5.295
11656SOL     OW35271   2.936   6.966   1.136
11656SOL    HW135272   2.937   6.954   1.041
11656SOL    HW235273   2.848   6.940   1.162
11657SOL     OW35274   0.141   4.419   2.398
11657SOL    HW135275   0.174   4.335   2.430
11657SOL    HW235276   0.049   4.402   2.376
11658SOL     OW35277   6.246   3.829   0.712
11658SOL    HW135278   6.265   3.777   0.790
11658SOL    HW235279   6.191   3.772   0.658
11659SOL     OW35280   0.162   4.025   1.795
11659SOL    HW135281   0.253   3.999   1.808
11659SOL    HW235282   0.112   3.968   1.854
11660SOL     OW35283   5.725   2.465   5.779
11660SOL    HW135284   5.753   2.529   5.714
11660SOL    HW235285   5.648   2.424   5.741
11661SOL     OW35286   0.701   7.811   4.508
11661SOL    HW135287   0.745   7.777   4.586
11661SOL    HW235288   0.724   7.749   4.439
11662SOL     OW35289   5.222   0.320   1.552
11662SOL    HW135290   5.270   0.239   1.569
11662SOL    HW235291   5.286   0.390   1.566
11663SOL     OW35292   5.270   1.189   3.043
11663SOL    HW135293   5.362   1.164   3.056
11663SOL    HW235294   5.230   1.112   3.003
11664SOL     OW35295   3.009   4.005   4.815
11664SOL    HW135296   3.091   3.983   4.770
11664SOL    HW235297   2.981   4.087   4.775
11665SOL     OW35298   6.761   6.519   3.788
11665SOL    HW135299   6.817   6.534   3.712
11665SOL    HW235300   6.784   6.590   3.848
11666SOL     OW35301   7.192   5.632   1.958
11666SOL    HW135302   7.246   5.689   2.013
11666SOL    HW235303   7.216   5.655   1.868
11667SOL     OW35304   4.102   3.056   1.785
11667SOL    HW135305   4.056   3.128   1.741
11667SOL    HW235306   4.135   3.094   1.866
11668SOL     OW35307   2.705   1.368   1.816
11668SOL    HW135308   2.655   1.421   1.878
11668SOL    HW235309   2.661   1.382   1.732
11669SOL     OW35310   5.219   4.514   2.276
11669SOL    HW135311   5.140   4.534   2.226
11669SOL    HW235312   5.272   4.593   2.269
11670SOL     OW35313   0.599   6.425   4.651
11670SOL    HW135314   0.589   6.380   4.735
11670SOL    HW235315   0.565   6.363   4.587
11671SOL     OW35316   2.035   2.843   0.041
11671SOL    HW135317   1.952   2.871   0.081
11671SOL    HW235318   2.066   2.772   0.098
11672SOL     OW35319   6.674   6.762   3.906
11672SOL    HW135320   6.609   6.723   3.847
11672SOL    HW235321   6.623   6.816   3.966
11673SOL     OW35322   0.520   3.606   4.100
11673SOL    HW135323   0.496   3.522   4.138
11673SOL    HW235324   0.459   3.669   4.139
11674SOL     OW35325   0.987   8.166   2.921
11674SOL    HW135326   0.891   8.168   2.925
11674SOL    HW235327   1.007   8.117   2.841
11675SOL     OW35328   5.694   6.359   0.747
11675SOL    HW135329   5.737   6.432   0.792
11675SOL    HW235330   5.765   6.297   0.730
11676SOL     OW35331   4.950   3.764   3.742
11676SOL    HW135332   4.965   3.848   3.698
11676SOL    HW235333   4.921   3.705   3.672
11677SOL     OW35334   7.626   7.381   4.251
11677SOL    HW135335   7.586   7.414   4.171
11677SOL    HW235336   7.627   7.286   4.240
11678SOL     OW35337   2.978   7.025   0.603
11678SOL    HW135338   3.066   7.013   0.568
11678SOL    HW235339   2.941   6.937   0.605
11679SOL     OW35340   5.935   6.852   2.449
11679SOL    HW135341   6.028   6.834   2.462
11679SOL    HW235342   5.931   6.901   2.367
11680SOL     OW35343   0.583   3.910   5.645
11680SOL    HW135344   0.556   3.988   5.694
11680SOL    HW235345   0.514   3.846   5.663
11681SOL     OW35346   6.265   3.270   2.417
11681SOL    HW135347   6.181   3.314   2.404
11681SOL    HW235348   6.315   3.329   2.473
11682SOL     OW35349   7.634   1.841   4.519
11682SOL    HW135350   7.574   1.776   4.482
11682SOL    HW235351   7.583   1.883   4.589
11683SOL     OW35352   5.596   1.379   2.930
11683SOL    HW135353   5.516   1.410   2.973
11683SOL    HW235354   5.658   1.451   2.942
11684SOL     OW35355   3.529   6.924   5.114
11684SOL    HW135356   3.501   6.897   5.201
11684SOL    HW235357   3.522   6.845   5.061
11685SOL     OW35358   7.085   4.958   3.993
11685SOL    HW135359   7.126   4.993   4.072
11685SOL    HW235360   7.014   4.902   4.026
11686SOL     OW35361   3.392   1.622   5.666
11686SOL    HW135362   3.399   1.698   5.724
11686SOL    HW235363   3.457   1.638   5.598
11687SOL     OW35364   1.347   1.097   5.085
11687SOL    HW135365   1.327   1.129   5.173
11687SOL    HW235366   1.269   1.117   5.033
11688SOL     OW35367   7.218   0.796   2.273
11688SOL    HW135368   7.235   0.779   2.365
11688SOL    HW235369   7.251   0.718   2.228
11689SOL     OW35370   4.247   2.387   0.632
11689SOL    HW135371   4.284   2.333   0.562
11689SOL    HW235372   4.209   2.462   0.586
11690SOL     OW35373   4.181   3.099   1.050
11690SOL    HW135374   4.201   3.095   0.957
11690SOL    HW235375   4.181   3.192   1.071
11691SOL     OW35376   5.413   5.490   4.084
11691SOL    HW135377   5.392   5.413   4.137
11691SOL    HW235378   5.435   5.455   3.998
11692SOL     OW35379   6.393   5.044   4.783
11692SOL    HW135380   6.431   4.975   4.837
11692SOL    HW235381   6.305   5.013   4.763
11693SOL     OW35382   1.918   0.579   1.512
11693SOL    HW135383   1.981   0.507   1.516
11693SOL    HW235384   1.834   0.537   1.493
11694SOL     OW35385   7.343   5.957   3.427
11694SOL    HW135386   7.426   5.991   3.460
11694SOL    HW235387   7.301   5.917   3.503
11695SOL     OW35388   0.061   2.591   2.996
11695SOL    HW135389   0.136   2.602   2.937
11695SOL    HW235390   0.045   2.679   3.031
11696SOL     OW35391   1.459   4.606   0.419
11696SOL    HW135392   1.478   4.513   0.404
11696SOL    HW235393   1.366   4.616   0.397
11697SOL     OW35394   2.577   1.065   4.161
11697SOL    HW135395   2.538   1.002   4.222
11697SOL    HW235396   2.595   1.142   4.215
11698SOL     OW35397   6.052   2.089   4.026
11698SOL    HW135398   5.959   2.066   4.025
11698SOL    HW235399   6.063   2.148   3.952
11699SOL     OW35400   4.238   3.057   0.778
11699SOL    HW135401   4.213   3.019   0.694
11699SOL    HW235402   4.333   3.048   0.781
11700SOL     OW35403   1.154   6.138   2.824
11700SOL    HW135404   1.142   6.204   2.892
11700SOL    HW235405   1.123   6.057   2.864
11701SOL     OW35406   0.538   5.007   4.358
11701SOL    HW135407   0.498   4.988   4.273
11701SOL    HW235408   0.492   4.950   4.420
11702SOL     OW35409   6.164   2.798   3.106
11702SOL    HW135410   6.162   2.832   3.017
11702SOL    HW235411   6.255   2.808   3.134
11703SOL     OW35412   0.539   7.867   1.162
11703SOL    HW135413   0.626   7.900   1.184
11703SOL    HW235414   0.488   7.945   1.140
11704SOL     OW35415   8.122   6.373   1.155
11704SOL    HW135416   8.163   6.420   1.227
11704SOL    HW235417   8.180   6.299   1.138
11705SOL     OW35418   4.518   5.344   0.178
11705SOL    HW135419   4.588   5.402   0.207
11705SOL    HW235420   4.563   5.276   0.128
11706SOL     OW35421   3.917   7.174   4.631
11706SOL    HW135422   3.947   7.139   4.715
11706SOL    HW235423   3.822   7.182   4.641
11707SOL     OW35424   3.066   4.319   4.967
11707SOL    HW135425   3.121   4.241   4.975
11707SOL    HW235426   3.004   4.298   4.897
11708SOL     OW35427   7.295   4.026   0.813
11708SOL    HW135428   7.308   4.121   0.815
11708SOL    HW235429   7.287   4.005   0.720
11709SOL     OW35430   2.967   1.148   4.755
11709SOL    HW135431   3.056   1.127   4.728
11709SOL    HW235432   2.970   1.148   4.851
11710SOL     OW35433   4.047   6.550   4.561
11710SOL    HW135434   3.953   6.569   4.554
11710SOL    HW235435   4.063   6.544   4.655
11711SOL     OW35436   0.992   2.699   3.304
11711SOL    HW135437   0.919   2.755   3.332
11711SOL    HW235438   0.975   2.682   3.211
11712SOL     OW35439   6.206   3.379   3.310
11712SOL    HW135440   6.234   3.325   3.384
11712SOL    HW235441   6.112   3.389   3.322
11713SOL     OW35442   2.833   2.932   4.881
11713SOL    HW135443   2.858   2.977   4.962
11713SOL    HW235444   2.751   2.888   4.902
11714SOL     OW35445   0.743   5.449   2.816
11714SOL    HW135446   0.648   5.436   2.813
11714SOL    HW235447   0.776   5.378   2.872
11715SOL     OW35448   3.817   3.153   4.256
11715SOL    HW135449   3.845   3.200   4.335
11715SOL    HW235450   3.742   3.202   4.224
11716SOL     OW35451   1.996   7.576   2.437
11716SOL    HW135452   1.919   7.588   2.381
11716SOL    HW235453   1.961   7.574   2.526
11717SOL     OW35454   3.230   4.245   0.997
11717SOL    HW135455   3.208   4.157   1.027
11717SOL    HW235456   3.315   4.264   1.036
11718SOL     OW35457   3.475   5.895   3.456
11718SOL    HW135458   3.450   5.923   3.544
11718SOL    HW235459   3.401   5.920   3.401
11719SOL     OW35460   1.486   4.557   5.300
11719SOL    HW135461   1.523   4.542   5.213
11719SOL    HW235462   1.397   4.589   5.283
11720SOL     OW35463   2.233   4.097   5.261
11720SOL    HW135464   2.209   4.009   5.289
11720SOL    HW235465   2.301   4.125   5.323
11721SOL     OW35466   7.611   3.461   2.841
11721SOL    HW135467   7.691   3.512   2.830
11721SOL    HW235468   7.569   3.462   2.755
11722SOL     OW35469   8.209   5.282   3.389
11722SOL    HW135470   8.213   5.337   3.311
11722SOL    HW235471   8.129   5.231   3.378
11723SOL     OW35472   3.611   6.796   0.911
11723SOL    HW135473   3.695   6.842   0.912
11723SOL    HW235474   3.566   6.826   0.990
11724SOL     OW35475   6.210   0.640   4.780
11724SOL    HW135476   6.235   0.718   4.731
11724SOL    HW235477   6.281   0.578   4.765
11725SOL     OW35478   6.094   3.717   1.901
11725SOL    HW135479   6.006   3.693   1.928
11725SOL    HW235480   6.143   3.728   1.983
11726SOL     OW35481   2.516   5.508   0.604
11726SOL    HW135482   2.567   5.539   0.679
11726SOL    HW235483   2.581   5.473   0.543
11727SOL     OW35484   7.064   2.545   2.590
11727SOL    HW135485   7.129   2.599   2.545
11727SOL    HW235486   7.110   2.510   2.666
11728SOL     OW35487   0.416   2.918   1.788
11728SOL    HW135488   0.361   2.996   1.791
11728SOL    HW235489   0.381   2.860   1.856
11729SOL     OW35490   0.013   2.921   0.750
11729SOL    HW135491   0.020   2.937   0.656
11729SOL    HW235492   0.033   2.828   0.760
11730SOL     OW35493   7.009   5.601   5.769
11730SOL    HW135494   7.045   5.512   5.765
11730SOL    HW235495   2.918   1.518   0.037
11731SOL     OW35496   2.811   5.607   1.065
11731SOL    HW135497   2.716   5.602   1.060
11731SOL    HW235498   2.842   5.580   0.979
11732SOL     OW35499   7.788   6.134   1.644
11732SOL    HW135500   7.770   6.047   1.608
11732SOL    HW235501   7.725   6.192   1.601
11733SOL     OW35502   5.641   5.231   3.198
11733SOL    HW135503   5.680   5.190   3.121
11733SOL    HW235504   5.645   5.325   3.181
11734SOL     OW35505   1.554   1.725   3.347
11734SOL    HW135506   1.582   1.637   3.323
11734SOL    HW235507   1.462   1.716   3.370
11735SOL     OW35508   0.142   3.984   4.695
11735SOL    HW135509   0.117   4.064   4.740
11735SOL    HW235510   0.077   3.920   4.723
11736SOL     OW35511   3.941   7.431   1.617
11736SOL    HW135512   3.932   7.399   1.707
11736SOL    HW235513   3.955   7.525   1.627
11737SOL     OW35514   7.399   1.675   0.881
11737SOL    HW135515   7.482   1.721   0.871
11737SOL    HW235516   7.419   1.584   0.859
11738SOL     OW35517   5.424   0.231   3.820
11738SOL    HW135518   5.406   0.144   3.856
11738SOL    HW235519   5.515   0.249   3.844
11739SOL     OW35520   7.897   1.824   4.379
11739SOL    HW135521   7.890   1.915   4.349
11739SOL    HW235522   7.818   1.810   4.431
11740SOL     OW35523   3.141   5.588   4.355
11740SOL    HW135524   3.070   5.652   4.361
11740SOL    HW235525   3.099   5.507   4.327
11741SOL     OW35526   6.166   6.678   3.008
11741SOL    HW135527   6.170   6.659   3.102
11741SOL    HW235528   6.080   6.717   2.995
11742SOL     OW35529   2.856   0.711   0.935
11742SOL    HW135530   2.777   0.762   0.951
11742SOL    HW235531   2.884   0.682   1.022
11743SOL     OW35532   6.758   4.342   5.167
11743SOL    HW135533   6.760   4.247   5.177
11743SOL    HW235534   6.825   4.360   5.102
11744SOL     OW35535   3.488   3.944   3.827
11744SOL    HW135536   3.567   3.981   3.867
11744SOL    HW235537   3.510   3.936   3.734
11745SOL     OW35538   6.215   2.636   3.421
11745SOL    HW135539   6.149   2.571   3.443
11745SOL    HW235540   6.228   2.627   3.327
11746SOL     OW35541   6.470   2.665   4.983
11746SOL    HW135542   6.388   2.691   4.942
11746SOL    HW235543   6.473   2.570   4.974
11747SOL     OW35544   7.567   7.391   5.524
11747SOL    HW135545   7.474   7.412   5.531
11747SOL    HW235546   7.594   7.429   5.441
11748SOL     OW35547   1.501   3.669   4.564
11748SOL    HW135548   1.518   3.759   4.593
11748SOL    HW235549   1.462   3.626   4.640
11749SOL     OW35550   5.366   7.036   0.871
11749SOL    HW135551   5.447   7.036   0.922
11749SOL    HW235552   5.325   7.120   0.890
11750SOL     OW35553   4.154   0.785   2.997
11750SOL    HW135554   4.122   0.875   3.008
11750SOL    HW235555   4.080   0.738   2.959
11751SOL     OW35556   2.699   2.028   2.466
11751SOL    HW135557   2.610   2.042   2.499
11751SOL    HW235558   2.718   1.936   2.485
11752SOL     OW35559   1.806   3.879   3.369
11752SOL    HW135560   1.891   3.853   3.404
11752SOL    HW235561   1.826   3.950   3.308
11753SOL     OW35562   6.891   3.951   5.636
11753SOL    HW135563   6.935   4.036   5.641
11753SOL    HW235564   6.961   3.887   5.647
11754SOL     OW35565   4.143   6.117   0.468
11754SOL    HW135566   4.149   6.066   0.387
11754SOL    HW235567   4.093   6.061   0.528
11755SOL     OW35568   6.270   2.445   0.278
11755SOL    HW135569   6.279   2.466   0.371
11755SOL    HW235570   6.323   2.511   0.233
11756SOL     OW35571   1.140   3.052   5.124
11756SOL    HW135572   1.053   3.044   5.163
11756SOL    HW235573   1.143   2.982   5.059
11757SOL     OW35574   5.999   1.883   5.487
11757SOL    HW135575   5.992   1.977   5.504
11757SOL    HW235576   6.032   1.847   5.569
11758SOL     OW35577   5.948   1.272   4.318
11758SOL    HW135578   5.911   1.213   4.383
11758SOL    HW235579   5.872   1.307   4.271
11759SOL     OW35580   3.137   5.208   1.613
11759SOL    HW135581   3.071   5.266   1.576
11759SOL    HW235582   3.117   5.122   1.575
11760SOL     OW35583   2.232   5.324   3.290
11760SOL    HW135584   2.178   5.255   3.329
11760SOL    HW235585   2.275   5.366   3.365
11761SOL     OW35586   5.390   3.667   1.273
11761SOL    HW135587   5.407   3.573   1.282
11761SOL    HW235588   5.468   3.701   1.228
11762SOL     OW35589   5.303   7.166   0.050
11762SOL    HW135590   5.251   7.207   0.119
11762SOL    HW235591   5.268   7.077   0.044
11763SOL     OW35592   1.927   2.081   0.087
11763SOL    HW135593   1.956   2.039   0.168
11763SOL    HW235594   2.008   2.104   0.042
11764SOL     OW35595   0.578   3.518   1.788
11764SOL    HW135596   0.551   3.525   1.880
11764SOL    HW235597   0.539   3.436   1.758
11765SOL     OW35598   8.040   7.733   3.666
11765SOL    HW135599   8.025   7.694   3.580
11765SOL    HW235600   8.129   7.769   3.661
11766SOL     OW35601   2.836   7.627   5.758
11766SOL    HW135602   7.006   3.506   0.017
11766SOL    HW235603   2.850   7.544   5.712
11767SOL     OW35604   3.176   4.251   4.042
11767SOL    HW135605   3.198   4.335   4.001
11767SOL    HW235606   3.199   4.185   3.976
11768SOL     OW35607   6.197   4.416   2.471
11768SOL    HW135608   6.208   4.353   2.542
11768SOL    HW235609   6.283   4.456   2.461
11769SOL     OW35610   7.348   6.241   1.227
11769SOL    HW135611   7.306   6.255   1.312
11769SOL    HW235612   7.419   6.179   1.245
11770SOL     OW35613   2.278   0.012   2.697
11770SOL    HW135614   2.231   0.095   2.703
11770SOL    HW235615   2.225   8.179   2.747
11771SOL     OW35616   2.354   4.333   1.692
11771SOL    HW135617   2.274   4.372   1.657
11771SOL    HW235618   2.378   4.389   1.765
11772SOL     OW35619   4.343   0.582   3.587
11772SOL    HW135620   4.310   0.655   3.535
11772SOL    HW235621   4.341   0.614   3.677
11773SOL     OW35622   0.996   2.091   4.767
11773SOL    HW135623   0.946   2.026   4.717
11773SOL    HW235624   0.946   2.102   4.848
11774SOL     OW35625   5.397   6.455   0.759
11774SOL    HW135626   5.408   6.494   0.846
11774SOL    HW235627   5.482   6.414   0.740
11775SOL     OW35628   0.538   3.517   5.786
11775SOL    HW135629   0.473   3.505   5.717
11775SOL    HW235630   4.646   7.553   0.021
11776SOL     OW35631   8.033   5.092   1.293
11776SOL    HW135632   8.078   5.116   1.212
11776SOL    HW235633   8.103   5.074   1.355
11777SOL     OW35634   1.986   6.218   3.996
11777SOL    HW135635   1.993   6.273   4.074
11777SOL    HW235636   1.892   6.211   3.981
11778SOL     OW35637   5.924   3.179   2.168
11778SOL    HW135638   5.939   3.265   2.129
11778SOL    HW235639   5.842   3.149   2.129
11779SOL     OW35640   2.546   3.333   5.453
11779SOL    HW135641   2.539   3.239   5.471
11779SOL    HW235642   2.592   3.369   5.529
11780SOL     OW35643   3.999   4.614   2.727
11780SOL    HW135644   3.985   4.550   2.797
11780SOL    HW235645   4.035   4.563   2.655
11781SOL     OW35646   2.866   6.344   1.544
11781SOL    HW135647   2.878   6.249   1.552
11781SOL    HW235648   2.781   6.361   1.584
11782SOL     OW35649   3.792   4.730   4.681
11782SOL    HW135650   3.736   4.655   4.703
11782SOL    HW235651   3.748   4.805   4.720
11783SOL     OW35652   5.699   7.065   4.543
11783SOL    HW135653   5.777   7.031   4.587
11783SOL    HW235654   5.628   7.048   4.605
11784SOL     OW35655   0.846   4.517   3.926
11784SOL    HW135656   0.821   4.591   3.982
11784SOL    HW235657   0.845   4.441   3.985
11785SOL     OW35658   2.921   2.313   4.758
11785SOL    HW135659   2.832   2.347   4.761
11785SOL    HW235660   2.948   2.323   4.666
11786SOL     OW35661   3.053   3.545   0.924
11786SOL    HW135662   2.988   3.565   0.857
11786SOL    HW235663   3.082   3.456   0.904
11787SOL     OW35664   0.115   2.019   2.190
11787SOL    HW135665   0.065   2.099   2.175
11787SOL    HW235666   0.053   1.948   2.173
11788SOL     OW35667   4.921   5.835   5.320
11788SOL    HW135668   5.009   5.866   5.340
11788SOL    HW235669   4.930   5.790   5.236
11789SOL     OW35670   6.255   7.301   0.462
11789SOL    HW135671   6.291   7.389   0.473
11789SOL    HW235672   6.246   7.268   0.551
11790SOL     OW35673   0.070   6.938   2.100
11790SOL    HW135674   0.160   6.969   2.109
11790SOL    HW235675   0.044   6.968   2.013
11791SOL     OW35676   0.318   5.785   2.704
11791SOL    HW135677   0.313   5.748   2.792
11791SOL    HW235678   0.398   5.838   2.705
11792SOL     OW35679   7.450   2.195   4.469
11792SOL    HW135680   7.384   2.162   4.408
11792SOL    HW235681   7.492   2.267   4.422
11793SOL     OW35682   5.552   3.526   3.576
11793SOL    HW135683   5.615   3.591   3.609
11793SOL    HW235684   5.589   3.497   3.493
11794SOL     OW35685   0.029   0.670   3.316
11794SOL    HW135686   0.040   0.595   3.375
11794SOL    HW235687   0.055   0.636   3.230
11795SOL     OW35688   0.551   2.990   0.271
11795SOL    HW135689   0.497   3.044   0.329
11795SOL    HW235690   0.505   2.992   0.187
11796SOL     OW35691   3.388   7.087   2.295
11796SOL    HW135692   3.306   7.039   2.286
11796SOL    HW235693   3.389   7.148   2.221
11797SOL     OW35694   7.882   2.128   5.205
11797SOL    HW135695   7.965   2.082   5.218
11797SOL    HW235696   7.888   2.205   5.262
11798SOL     OW35697   3.880   0.324   0.045
11798SOL    HW135698   3.925   0.240   0.036
11798SOL    HW235699   3.944   0.381   0.087
11799SOL     OW35700   3.760   1.751   5.389
11799SOL    HW135701   3.843   1.754   5.437
11799SOL    HW235702   3.786   1.738   5.298
11800SOL     OW35703   2.264   6.833   1.184
11800SOL    HW135704   2.305   6.816   1.099
11800SOL    HW235705   2.176   6.865   1.162
11801SOL     OW35706   3.584   3.124   1.152
11801SOL    HW135707   3.517   3.066   1.188
11801SOL    HW235708   3.664   3.072   1.153
11802SOL     OW35709   1.043   3.790   3.099
11802SOL    HW135710   0.960   3.818   3.061
11802SOL    HW235711   1.109   3.843   3.055
11803SOL     OW35712   3.072   6.183   1.676
11803SOL    HW135713   3.098   6.207   1.587
11803SOL    HW235714   2.996   6.126   1.665
11804SOL     OW35715   4.984   0.417   5.360
11804SOL    HW135716   5.038   0.460   5.294
11804SOL    HW235717   5.029   0.435   5.443
11805SOL     OW35718   1.005   1.091   3.856
11805SOL    HW135719   1.098   1.101   3.877
11805SOL    HW235720   0.960   1.126   3.933
11806SOL     OW35721   5.313   1.917   2.757
11806SOL    HW135722   5.305   1.844   2.818
11806SOL    HW235723   5.232   1.967   2.768
11807SOL     OW35724   7.742   0.207   2.182
11807SOL    HW135725   7.732   0.151   2.259
11807SOL    HW235726   7.677   0.175   2.120
11808SOL     OW35727   5.079   2.235   3.983
11808SOL    HW135728   5.036   2.320   3.995
11808SOL    HW235729   5.162   2.256   3.940
11809SOL     OW35730   1.946   5.214   0.436
11809SOL    HW135731   2.038   5.222   0.412
11809SOL    HW235732   1.931   5.287   0.497
11810SOL     OW35733   0.071   5.348   5.192
11810SOL    HW135734   0.048   5.259   5.218
11810SOL    HW235735   0.039   5.403   5.263
11811SOL     OW35736   1.491   2.315   0.054
11811SOL    HW135737   5.566   6.367   5.812
11811SOL    HW235738   1.585   2.307   0.039
11812SOL     OW35739   0.175   4.085   0.586
11812SOL    HW135740   0.197   4.177   0.598
11812SOL    HW235741   0.209   4.062   0.500
11813SOL     OW35742   6.693   5.711   4.055
11813SOL    HW135743   6.771   5.657   4.049
11813SOL    HW235744   6.629   5.656   4.101
11814SOL     OW35745   4.433   4.830   0.611
11814SOL    HW135746   4.503   4.842   0.547
11814SOL    HW235747   4.367   4.778   0.565
11815SOL     OW35748   1.106   1.566   0.355
11815SOL    HW135749   1.140   1.636   0.299
11815SOL    HW235750   1.101   1.490   0.297
11816SOL     OW35751   4.092   7.656   3.905
11816SOL    HW135752   4.050   7.742   3.907
11816SOL    HW235753   4.114   7.638   3.996
11817SOL     OW35754   0.764   6.133   4.683
11817SOL    HW135755   0.799   6.184   4.756
11817SOL    HW235756   0.779   6.042   4.708
11818SOL     OW35757   2.452   4.584   3.578
11818SOL    HW135758   2.369   4.600   3.623
11818SOL    HW235759   2.465   4.489   3.585
11819SOL     OW35760   4.408   7.960   5.452
11819SOL    HW135761   4.444   7.887   5.503
11819SOL    HW235762   4.315   7.962   5.476
11820SOL     OW35763   2.820   8.140   3.243
11820SOL    HW135764   2.897   8.190   3.216
11820SOL    HW235765   2.801   8.083   3.169
11821SOL     OW35766   6.719   1.034   1.356
11821SOL    HW135767   6.796   1.078   1.391
11821SOL    HW235768   6.750   0.990   1.277
11822SOL     OW35769   7.652   4.464   3.870
11822SOL    HW135770   7.612   4.425   3.793
11822SOL    HW235771   7.610   4.421   3.944
11823SOL     OW35772   4.586   4.217   5.769
11823SOL    HW135773   4.648   4.290   5.767
11823SOL    HW235774   4.505   4.253   5.734
11824SOL     OW35775   7.673   0.691   1.995
11824SOL    HW135776   7.601   0.750   1.971
11824SOL    HW235777   7.641   0.645   2.073
11825SOL     OW35778   0.090   0.265   3.296
11825SOL    HW135779   0.058   0.239   3.209
11825SOL    HW235780   0.185   0.268   3.287
11826SOL     OW35781   2.716   8.111   0.354
11826SOL    HW135782   2.638   8.166   0.359
11826SOL    HW235783   2.759   8.122   0.439
11827SOL     OW35784   7.171   4.629   3.225
11827SOL    HW135785   7.198   4.609   3.315
11827SOL    HW235786   7.252   4.625   3.174
11828SOL     OW35787   1.671   8.200   5.643
11828SOL    HW135788   1.645   0.059   5.615
11828SOL    HW235789   1.589   8.151   5.647
11829SOL     OW35790   6.811   4.048   4.781
11829SOL    HW135791   6.739   4.103   4.812
11829SOL    HW235792   6.867   4.108   4.731
11830SOL     OW35793   7.742   1.774   1.278
11830SOL    HW135794   7.680   1.759   1.350
11830SOL    HW235795   7.779   1.688   1.260
11831SOL     OW35796   2.783   6.381   5.690
11831SOL    HW135797   2.835   6.365   5.611
11831SOL    HW235798   2.835   6.343   5.761
11832SOL     OW35799   0.684   0.490   2.107
11832SOL    HW135800   0.637   0.545   2.044
11832SOL    HW235801   0.686   0.542   2.187
11833SOL     OW35802   6.677   2.619   3.374
11833SOL    HW135803   6.688   2.621   3.279
11833SOL    HW235804   6.597   2.567   3.388
11834SOL     OW35805   5.531   0.745   0.022
11834SOL    HW135806   1.413   4.854   5.746
11834SOL    HW235807   5.609   0.695   0.046
11835SOL     OW35808   3.600   4.943   4.237
11835SOL    HW135809   3.684   4.942   4.190
11835SOL    HW235810   3.594   4.856   4.276
11836SOL     OW35811   4.659   3.386   1.908
11836SOL    HW135812   4.566   3.408   1.908
11836SOL    HW235813   4.697   3.445   1.842
11837SOL     OW35814   6.704   0.334   0.896
11837SOL    HW135815   6.636   0.279   0.857
11837SOL    HW235816   6.669   0.357   0.982
11838SOL     OW35817   1.402   2.313   0.622
11838SOL    HW135818   1.448   2.318   0.706
11838SOL    HW235819   1.309   2.318   0.646
11839SOL     OW35820   1.189   3.087   0.284
11839SOL    HW135821   1.208   3.177   0.258
11839SOL    HW235822   1.191   3.088   0.380
11840SOL     OW35823   6.771   3.750   3.586
11840SOL    HW135824   6.756   3.686   3.516
11840SOL    HW235825   6.773   3.698   3.666
11841SOL     OW35826   4.620   1.517   0.276
11841SOL    HW135827   4.542   1.462   0.267
11841SOL    HW235828   4.656   1.494   0.361
11842SOL     OW35829   5.874   2.307   0.070
11842SOL    HW135830   5.898   2.346   0.154
11842SOL    HW235831   5.918   2.362   0.005
11843SOL     OW35832   7.433   3.194   5.333
11843SOL    HW135833   7.397   3.116   5.375
11843SOL    HW235834   7.363   3.259   5.339
11844SOL     OW35835   0.477   5.940   4.990
11844SOL    HW135836   0.461   6.029   5.020
11844SOL    HW235837   0.470   5.946   4.895
11845SOL     OW35838   0.629   6.332   2.185
11845SOL    HW135839   0.540   6.352   2.156
11845SOL    HW235840   0.672   6.295   2.108
11846SOL     OW35841   3.657   1.265   3.184
11846SOL    HW135842   3.733   1.242   3.238
11846SOL    HW235843   3.594   1.301   3.246
11847SOL     OW35844   1.702   6.180   3.698
11847SOL    HW135845   1.665   6.146   3.779
11847SOL    HW235846   1.628   6.218   3.651
11848SOL     OW35847   4.677   2.524   2.854
11848SOL    HW135848   4.707   2.464   2.786
11848SOL    HW235849   4.581   2.520   2.849
11849SOL     OW35850   5.047   1.539   5.002
11849SOL    HW135851   5.012   1.627   5.017
11849SOL    HW235852   5.068   1.537   4.909
11850SOL     OW35853   1.143   6.067   1.852
11850SOL    HW135854   1.171   6.149   1.893
11850SOL    HW235855   1.221   6.034   1.807
11851SOL     OW35856   5.701   4.906   3.139
11851SOL    HW135857   5.619   4.865   3.167
11851SOL    HW235858   5.770   4.850   3.175
11852SOL     OW35859   4.654   3.307   5.151
11852SOL    HW135860   4.600   3.332   5.076
11852SOL    HW235861   4.735   3.273   5.113
11853SOL     OW35862   3.357   5.343   4.777
11853SOL    HW135863   3.445   5.379   4.787
11853SOL    HW235864   3.365   5.279   4.706
11854SOL     OW35865   8.038   5.484   1.960
11854SOL    HW135866   8.074   5.555   2.014
11854SOL    HW235867   7.943   5.492   1.971
11855SOL     OW35868   3.586   5.630   4.273
11855SOL    HW135869   3.585   5.722   4.245
11855SOL    HW235870   3.671   5.597   4.244
11856SOL     OW35871   7.746   2.366   3.951
11856SOL    HW135872   7.773   2.313   4.026
11856SOL    HW235873   7.662   2.329   3.925
11857SOL     OW35874   6.249   4.985   2.225
11857SOL    HW135875   6.272   5.071   2.259
11857SOL    HW235876   6.243   4.997   2.130
11858SOL     OW35877   0.994   3.709   2.008
11858SOL    HW135878   1.078   3.747   2.033
11858SOL    HW235879   1.014   3.618   1.986
11859SOL     OW35880   6.185   3.045   3.271
11859SOL    HW135881   6.158   2.971   3.216
11859SOL    HW235882   6.260   3.083   3.224
11860SOL     OW35883   6.260   6.830   1.855
11860SOL    HW135884   6.261   6.924   1.837
11860SOL    HW235885   6.168   6.809   1.872
11861SOL     OW35886   5.906   5.121   2.161
11861SOL    HW135887   5.983   5.064   2.163
11861SOL    HW235888   5.940   5.208   2.182
11862SOL     OW35889   1.234   6.473   3.713
11862SOL    HW135890   1.151   6.425   3.718
11862SOL    HW235891   1.256   6.472   3.620
11863SOL     OW35892   3.997   5.553   1.042
11863SOL    HW135893   4.052   5.597   0.977
11863SOL    HW235894   4.009   5.604   1.122
11864SOL     OW35895   3.042   0.421   2.294
11864SOL    HW135896   3.103   0.373   2.350
11864SOL    HW235897   3.074   0.511   2.296
11865SOL     OW35898   0.131   4.591   5.452
11865SOL    HW135899   0.074   4.663   5.425
11865SOL    HW235900   0.219   4.628   5.452
11866SOL     OW35901   0.386   3.150   2.123
11866SOL    HW135902   0.441   3.075   2.103
11866SOL    HW235903   0.392   3.160   2.218
11867SOL     OW35904   4.176   3.496   3.269
11867SOL    HW135905   4.266   3.504   3.237
11867SOL    HW235906   4.185   3.451   3.353
11868SOL     OW35907   6.023   0.117   4.222
11868SOL    HW135908   6.113   0.139   4.245
11868SOL    HW235909   5.970   0.182   4.268
11869SOL     OW35910   0.664   0.194   2.538
11869SOL    HW135911   0.709   0.111   2.551
11869SOL    HW235912   0.602   0.199   2.611
11870SOL     OW35913   4.587   4.274   5.249
11870SOL    HW135914   4.625   4.284   5.162
11870SOL    HW235915   4.508   4.327   5.247
11871SOL     OW35916   6.418   1.254   0.789
11871SOL    HW135917   6.429   1.325   0.852
11871SOL    HW235918   6.497   1.201   0.800
11872SOL     OW35919   7.855   2.441   2.869
11872SOL    HW135920   7.814   2.492   2.799
11872SOL    HW235921   7.841   2.493   2.948
11873SOL     OW35922   4.214   2.376   5.464
11873SOL    HW135923   4.171   2.303   5.509
11873SOL    HW235924   4.271   2.334   5.399
11874SOL     OW35925   7.225   3.120   0.962
11874SOL    HW135926   7.133   3.130   0.985
11874SOL    HW235927   7.248   3.202   0.918
11875SOL     OW35928   6.962   2.716   1.691
11875SOL    HW135929   6.911   2.688   1.767
11875SOL    HW235930   7.036   2.655   1.688
11876SOL     OW35931   1.603   1.195   5.111
11876SOL    HW135932   1.665   1.162   5.046
11876SOL    HW235933   1.517   1.174   5.075
11877SOL     OW35934   6.908   4.501   5.741
11877SOL    HW135935   6.954   4.469   5.818
11877SOL    HW235936   6.951   4.584   5.720
11878SOL     OW35937   2.915   1.724   0.542
11878SOL    HW135938   2.970   1.647   0.528
11878SOL    HW235939   2.891   1.754   0.454
11879SOL     OW35940   1.370   3.303   0.175
11879SOL    HW135941   1.378   3.243   0.101
11879SOL    HW235942   1.401   3.387   0.142
11880SOL     OW35943   0.734   4.825   1.513
11880SOL    HW135944   0.653   4.876   1.521
11880SOL    HW235945   0.802   4.890   1.496
11881SOL     OW35946   7.833   0.576   2.490
11881SOL    HW135947   7.815   0.669   2.501
11881SOL    HW235948   7.916   0.573   2.442
11882SOL     OW35949   4.738   7.867   1.342
11882SOL    HW135950   4.738   7.774   1.320
11882SOL    HW235951   4.767   7.911   1.262
11883SOL     OW35952   6.344   2.062   5.166
11883SOL    HW135953   6.409   2.091   5.102
11883SOL    HW235954   6.374   1.976   5.194
11884SOL     OW35955   4.188   5.112   5.258
11884SOL    HW135956   4.239   5.095   5.337
11884SOL    HW235957   4.172   5.025   5.221
11885SOL     OW35958   5.055   5.538   5.303
11885SOL    HW135959   5.011   5.502   5.380
11885SOL    HW235960   4.984   5.567   5.246
11886SOL     OW35961   1.508   4.064   0.678
11886SOL    HW135962   1.472   4.134   0.624
11886SOL    HW235963   1.548   4.109   0.752
11887SOL     OW35964   7.754   0.312   5.121
11887SOL    HW135965   7.678   0.272   5.079
11887SOL    HW235966   7.829   0.279   5.071
11888SOL     OW35967   3.529   0.654   1.631
11888SOL    HW135968   3.463   0.721   1.611
11888SOL    HW235969   3.511   0.630   1.722
11889SOL     OW35970   7.486   0.510   4.660
11889SOL    HW135971   7.512   0.418   4.666
11889SOL    HW235972   7.562   0.559   4.691
11890SOL     OW35973   2.167   5.327   4.961
11890SOL    HW135974   2.199   5.318   4.871
11890SOL    HW235975   2.238   5.293   5.016
11891SOL     OW35976   8.186   4.331   4.395
11891SOL    HW135977   8.225   4.413   4.426
11891SOL    HW235978   0.001   4.314   4.312
11892SOL     OW35979   2.576   6.937   2.670
11892SOL    HW135980   2.493   6.893   2.651
11892SOL    HW235981   2.618   6.881   2.736
11893SOL     OW35982   0.179   2.217   3.678
11893SOL    HW135983   0.132   2.245   3.600
11893SOL    HW235984   0.112   2.212   3.746
11894SOL     OW35985   1.429   2.117   1.998
11894SOL    HW135986   1.476   2.087   1.920
11894SOL    HW235987   1.484   2.187   2.033
11895SOL     OW35988   3.252   0.069   2.577
11895SOL    HW135989   3.344   0.047   2.562
11895SOL    HW235990   3.220   0.002   2.638
11896SOL     OW35991   0.322   3.576   3.520
11896SOL    HW135992   0.388   3.517   3.555
11896SOL    HW235993   0.351   3.663   3.547
11897SOL     OW35994   7.133   0.415   1.761
11897SOL    HW135995   7.041   0.439   1.753
11897SOL    HW235996   7.170   0.483   1.817
11898SOL     OW35997   4.260   6.076   4.703
11898SOL    HW135998   4.180   6.099   4.750
11898SOL    HW235999   4.301   6.008   4.757
11899SOL     OW36000   3.814   0.999   3.369
11899SOL    HW136001   3.734   1.040   3.403
11899SOL    HW236002   3.877   1.071   3.363
11900SOL     OW36003   2.544   0.779   1.229
11900SOL    HW136004   2.622   0.783   1.285
11900SOL    HW236005   2.511   0.869   1.228
11901SOL     OW36006   1.743   2.538   1.991
11901SOL    HW136007   1.773   2.611   1.937
11901SOL    HW236008   1.716   2.579   2.073
11902SOL     OW36009   3.760   4.992   3.789
11902SOL    HW136010   3.824   4.928   3.757
11902SOL    HW236011   3.678   4.967   3.746
11903SOL     OW36012   6.789   1.886   2.121
11903SOL    HW136013   6.803   1.980   2.130
11903SOL    HW236014   6.794   1.852   2.210
11904SOL     OW36015   1.104   3.516   0.990
11904SOL    HW136016   1.135   3.490   0.903
11904SOL    HW236017   1.060   3.600   0.976
11905SOL     OW36018   3.029   6.037   5.675
11905SOL    HW136019   2.986   6.034   5.761
11905SOL    HW236020   3.072   5.952   5.666
11906SOL     OW36021   4.990   4.586   1.712
11906SOL    HW136022   5.039   4.581   1.630
11906SOL    HW236023   4.968   4.495   1.733
11907SOL     OW36024   0.149   2.926   0.509
11907SOL    HW136025   0.209   2.852   0.498
11907SOL    HW236026   0.199   3.002   0.479
11908SOL     OW36027   1.757   2.140   4.353
11908SOL    HW136028   1.723   2.053   4.330
11908SOL    HW236029   1.836   2.149   4.300
11909SOL     OW36030   3.491   2.650   2.994
11909SOL    HW136031   3.555   2.593   2.952
11909SOL    HW236032   3.537   2.733   3.004
11910SOL     OW36033   3.346   3.324   1.204
11910SOL    HW136034   3.329   3.363   1.118
11910SOL    HW236035   3.402   3.249   1.185
11911SOL     OW36036   3.307   0.674   1.050
11911SOL    HW136037   3.355   0.747   1.089
11911SOL    HW236038   3.274   0.709   0.967
11912SOL     OW36039   1.945   5.087   3.003
11912SOL    HW136040   2.034   5.096   2.970
11912SOL    HW236041   1.954   5.087   3.098
11913SOL     OW36042   3.693   4.618   3.909
11913SOL    HW136043   3.781   4.591   3.883
11913SOL    HW236044   3.635   4.576   3.846
11914SOL     OW36045   0.570   6.740   2.301
11914SOL    HW136046   0.617   6.657   2.300
11914SOL    HW236047   0.558   6.762   2.209
11915SOL     OW36048   4.713   6.332   2.838
11915SOL    HW136049   4.716   6.238   2.857
11915SOL    HW236050   4.670   6.338   2.753
11916SOL     OW36051   4.109   2.916   3.541
11916SOL    HW136052   4.057   2.849   3.496
11916SOL    HW236053   4.134   2.977   3.472
11917SOL     OW36054   5.966   4.499   3.823
11917SOL    HW136055   5.929   4.424   3.870
11917SOL    HW236056   5.935   4.489   3.733
11918SOL     OW36057   3.600   2.180   2.168
11918SOL    HW136058   3.608   2.148   2.078
11918SOL    HW236059   3.689   2.177   2.203
11919SOL     OW36060   5.740   2.356   1.989
11919SOL    HW136061   5.705   2.402   1.913
11919SOL    HW236062   5.697   2.396   2.064
11920SOL     OW36063   7.205   2.669   0.202
11920SOL    HW136064   7.282   2.653   0.257
11920SOL    HW236065   7.229   2.744   0.148
11921SOL     OW36066   5.237   5.776   1.207
11921SOL    HW136067   5.258   5.692   1.167
11921SOL    HW236068   5.318   5.827   1.202
11922SOL     OW36069   7.827   5.315   5.402
11922SOL    HW136070   7.885   5.257   5.451
11922SOL    HW236071   7.878   5.341   5.325
11923SOL     OW36072   6.166   6.070   3.518
11923SOL    HW136073   6.106   6.026   3.578
11923SOL    HW236074   6.239   6.098   3.573
11924SOL     OW36075   7.741   7.276   5.035
11924SOL    HW136076   7.684   7.201   5.022
11924SOL    HW236077   7.698   7.348   4.988
11925SOL     OW36078   1.666   5.022   2.124
11925SOL    HW136079   1.610   5.099   2.118
11925SOL    HW236080   1.729   5.032   2.052
11926SOL     OW36081   3.145   5.513   2.989
11926SOL    HW136082   3.145   5.606   3.012
11926SOL    HW236083   3.075   5.476   3.043
11927SOL     OW36084   1.193   3.729   5.096
11927SOL    HW136085   1.129   3.784   5.050
11927SOL    HW236086   1.250   3.695   5.027
11928SOL     OW36087   7.904   2.708   3.488
11928SOL    HW136088   7.849   2.754   3.552
11928SOL    HW236089   7.933   2.776   3.428
11929SOL     OW36090   6.466   2.881   1.467
11929SOL    HW136091   6.388   2.840   1.429
11929SOL    HW236092   6.440   2.972   1.482
11930SOL     OW36093   6.945   2.811   2.925
11930SOL    HW136094   7.024   2.765   2.897
11930SOL    HW236095   6.921   2.865   2.850
11931SOL     OW36096   5.573   6.414   4.017
11931SOL    HW136097   5.658   6.424   4.060
11931SOL    HW236098   5.522   6.359   4.076
11932SOL     OW36099   6.195   1.572   2.583
11932SOL    HW136100   6.239   1.656   2.592
11932SOL    HW236101   6.258   1.517   2.536
11933SOL     OW36102   8.011   1.843   3.192
11933SOL    HW136103   8.039   1.789   3.118
11933SOL    HW236104   8.024   1.933   3.162
11934SOL     OW36105   6.645   6.271   4.214
11934SOL    HW136106   6.563   6.305   4.178
11934SOL    HW236107   6.623   6.184   4.247
11935SOL     OW36108   7.244   1.958   5.516
11935SOL    HW136109   7.227   2.051   5.529
11935SOL    HW236110   7.159   1.921   5.491
11936SOL     OW36111   1.448   5.866   2.457
11936SOL    HW136112   1.497   5.835   2.533
11936SOL    HW236113   1.414   5.951   2.484
11937SOL     OW36114   1.250   1.341   0.205
11937SOL    HW136115   1.215   1.368   0.120
11937SOL    HW236116   1.345   1.352   0.196
11938SOL     OW36117   1.994   3.124   0.273
11938SOL    HW136118   2.041   3.174   0.207
11938SOL    HW236119   1.921   3.085   0.226
11939SOL     OW36120   5.188   2.796   3.519
11939SOL    HW136121   5.260   2.823   3.576
11939SOL    HW236122   5.126   2.752   3.578
11940SOL     OW36123   6.922   2.369   4.268
11940SOL    HW136124   7.001   2.423   4.262
11940SOL    HW236125   6.954   2.282   4.293
11941SOL     OW36126   0.196   4.808   5.715
11941SOL    HW136127   0.209   4.902   5.702
11941SOL    HW236128   0.241   4.767   5.641
11942SOL     OW36129   7.099   8.128   3.433
11942SOL    HW136130   7.172   8.069   3.449
11942SOL    HW236131   7.125   8.178   3.356
11943SOL     OW36132   4.823   2.990   2.584
11943SOL    HW136133   4.886   2.952   2.523
11943SOL    HW236134   4.858   2.970   2.671
11944SOL     OW36135   6.787   6.385   2.310
11944SOL    HW136136   6.743   6.303   2.289
11944SOL    HW236137   6.771   6.441   2.234
11945SOL     OW36138   2.620   3.025   2.590
11945SOL    HW136139   2.599   3.065   2.674
11945SOL    HW236140   2.699   3.070   2.560
11946SOL     OW36141   8.204   2.830   4.567
11946SOL    HW136142   0.005   2.746   4.602
11946SOL    HW236143   8.202   2.888   4.643
11947SOL     OW36144   5.288   2.225   0.215
11947SOL    HW136145   5.315   2.194   0.129
11947SOL    HW236146   5.199   2.192   0.225
11948SOL     OW36147   7.583   6.284   1.995
11948SOL    HW136148   7.654   6.238   1.950
11948SOL    HW236149   7.594   6.260   2.087
11949SOL     OW36150   6.761   5.903   3.368
11949SOL    HW136151   6.752   5.965   3.296
11949SOL    HW236152   6.819   5.835   3.335
11950SOL     OW36153   0.450   0.003   5.528
11950SOL    HW136154   0.510   0.062   5.573
11950SOL    HW236155   0.506   8.160   5.499
11951SOL     OW36156   5.936   1.645   4.437
11951SOL    HW136157   5.901   1.619   4.352
11951SOL    HW236158   5.942   1.740   4.432
11952SOL     OW36159   7.797   4.042   2.768
11952SOL    HW136160   7.881   4.069   2.806
11952SOL    HW236161   7.796   4.083   2.681
11953SOL     OW36162   4.970   3.762   2.521
11953SOL    HW136163   4.916   3.714   2.459
11953SOL    HW236164   4.952   3.720   2.605
11954SOL     OW36165   3.608   4.678   0.353
11954SOL    HW136166   3.671   4.739   0.392
11954SOL    HW236167   3.547   4.734   0.305
11955SOL     OW36168   3.061   4.678   1.267
11955SOL    HW136169   3.116   4.608   1.231
11955SOL    HW236170   3.063   4.663   1.362
11956SOL     OW36171   7.403   1.699   5.035
11956SOL    HW136172   7.405   1.652   5.119
11956SOL    HW236173   7.326   1.756   5.041
11957SOL     OW36174   7.732   7.073   0.752
11957SOL    HW136175   7.719   6.986   0.790
11957SOL    HW236176   7.739   7.131   0.828
11958SOL     OW36177   7.598   5.529   3.134
11958SOL    HW136178   7.564   5.568   3.054
11958SOL    HW236179   7.609   5.603   3.194
11959SOL     OW36180   6.182   6.099   0.555
11959SOL    HW136181   6.191   6.092   0.460
11959SOL    HW236182   6.174   6.193   0.571
11960SOL     OW36183   5.152   6.068   2.336
11960SOL    HW136184   5.209   5.993   2.321
11960SOL    HW236185   5.130   6.100   2.248
11961SOL     OW36186   2.804   4.712   1.155
11961SOL    HW136187   2.836   4.751   1.074
11961SOL    HW236188   2.883   4.698   1.208
11962SOL     OW36189   7.919   4.822   1.188
11962SOL    HW136190   7.906   4.760   1.116
11962SOL    HW236191   8.007   4.804   1.220
11963SOL     OW36192   0.978   1.336   3.425
11963SOL    HW136193   1.063   1.366   3.458
11963SOL    HW236194   0.996   1.307   3.335
11964SOL     OW36195   3.629   6.627   1.612
11964SOL    HW136196   3.622   6.722   1.610
11964SOL    HW236197   3.560   6.599   1.672
11965SOL     OW36198   3.620   4.663   0.981
11965SOL    HW136199   3.707   4.702   0.983
11965SOL    HW236200   3.574   4.703   1.054
11966SOL     OW36201   2.964   2.085   4.864
11966SOL    HW136202   2.965   2.173   4.826
11966SOL    HW236203   2.925   2.030   4.797
11967SOL     OW36204   7.107   5.312   4.322
11967SOL    HW136205   7.189   5.354   4.298
11967SOL    HW236206   7.112   5.225   4.282
11968SOL     OW36207   4.715   5.416   2.494
11968SOL    HW136208   4.651   5.473   2.452
11968SOL    HW236209   4.675   5.329   2.493
11969SOL     OW36210   5.793   7.802   0.985
11969SOL    HW136211   5.753   7.830   1.067
11969SOL    HW236212   5.859   7.738   1.011
11970SOL     OW36213   8.194   3.183   5.265
11970SOL    HW136214   0.034   3.163   5.328
11970SOL    HW236215   8.149   3.259   5.303
11971SOL     OW36216   4.851   2.639   3.366
11971SOL    HW136217   4.897   2.693   3.302
11971SOL    HW236218   4.760   2.641   3.338
11972SOL     OW36219   4.946   2.587   1.371
11972SOL    HW136220   5.040   2.588   1.355
11972SOL    HW236221   4.910   2.540   1.296
11973SOL     OW36222   6.569   2.132   2.279
11973SOL    HW136223   6.505   2.067   2.252
11973SOL    HW236224   6.633   2.083   2.330
11974SOL     OW36225   5.326   2.843   1.136
11974SOL    HW136226   5.360   2.787   1.066
11974SOL    HW236227   5.285   2.916   1.090
11975SOL     OW36228   2.246   4.638   2.142
11975SOL    HW136229   2.284   4.717   2.104
11975SOL    HW236230   2.285   4.633   2.229
11976SOL     OW36231   1.861   0.305   5.587
11976SOL    HW136232   1.944   0.340   5.555
11976SOL    HW236233   1.827   0.253   5.514
11977SOL     OW36234   7.172   8.100   3.846
11977SOL    HW136235   7.101   8.158   3.821
11977SOL    HW236236   7.148   8.015   3.809
11978SOL     OW36237   6.028   5.136   5.222
11978SOL    HW136238   6.039   5.174   5.135
11978SOL    HW236239   5.974   5.199   5.269
11979SOL     OW36240   4.569   5.214   3.414
11979SOL    HW136241   4.495   5.175   3.367
11979SOL    HW236242   4.581   5.300   3.373
11980SOL     OW36243   4.010   5.893   1.070
11980SOL    HW136244   4.063   5.964   1.034
11980SOL    HW236245   4.072   5.821   1.084
11981SOL     OW36246   2.595   7.273   4.304
11981SOL    HW136247   2.500   7.263   4.312
11981SOL    HW236248   2.614   7.246   4.214
11982SOL     OW36249   2.030   6.802   0.866
11982SOL    HW136250   1.989   6.852   0.937
11982SOL    HW236251   2.036   6.713   0.900
11983SOL     OW36252   2.701   6.331   0.107
11983SOL    HW136253   2.647   6.346   0.030
11983SOL    HW236254   2.756   6.256   0.084
11984SOL     OW36255   6.089   1.537   4.633
11984SOL    HW136256   6.026   1.563   4.700
11984SOL    HW236257   6.058   1.579   4.553
11985SOL     OW36258   6.997   6.133   0.221
11985SOL    HW136259   6.905   6.143   0.198
11985SOL    HW236260   7.023   6.218   0.256
11986SOL     OW36261   4.665   0.822   3.827
11986SOL    HW136262   4.759   0.828   3.812
11986SOL    HW236263   4.647   0.728   3.830
11987SOL     OW36264   5.388   7.000   2.249
11987SOL    HW136265   5.482   6.986   2.263
11987SOL    HW236266   5.357   6.920   2.206
11988SOL     OW36267   4.498   1.317   0.075
11988SOL    HW136268   4.465   1.405   0.058
11988SOL    HW236269   4.590   1.321   0.049
11989SOL     OW36270   5.674   0.707   5.342
11989SOL    HW136271   5.596   0.663   5.307
11989SOL    HW236272   5.698   0.771   5.275
11990SOL     OW36273   1.144   0.621   3.599
11990SOL    HW136274   1.076   0.676   3.639
11990SOL    HW236275   1.135   0.637   3.505
11991SOL     OW36276   1.277   5.175   3.008
11991SOL    HW136277   1.284   5.092   2.960
11991SOL    HW236278   1.268   5.149   3.100
11992SOL     OW36279   5.185   5.166   0.271
11992SOL    HW136280   5.272   5.201   0.293
11992SOL    HW236281   5.198   5.118   0.189
11993SOL     OW36282   3.205   7.654   3.841
11993SOL    HW136283   3.256   7.607   3.907
11993SOL    HW236284   3.202   7.744   3.873
11994SOL     OW36285   3.708   0.929   4.733
11994SOL    HW136286   3.636   0.957   4.676
11994SOL    HW236287   3.693   0.975   4.816
11995SOL     OW36288   7.924   4.922   3.097
11995SOL    HW136289   8.004   4.956   3.136
11995SOL    HW236290   7.947   4.834   3.067
11996SOL     OW36291   5.230   4.999   5.797
11996SOL    HW136292   5.218   4.905   5.813
11996SOL    HW236293   5.285   5.003   5.719
11997SOL     OW36294   1.485   3.172   1.887
11997SOL    HW136295   1.491   3.154   1.793
11997SOL    HW236296   1.573   3.154   1.920
11998SOL     OW36297   3.659   5.227   1.920
11998SOL    HW136298   3.603   5.303   1.933
11998SOL    HW236299   3.625   5.161   1.981
11999SOL     OW36300   1.873   0.692   4.717
11999SOL    HW136301   1.917   0.607   4.710
11999SOL    HW236302   1.852   0.716   4.627
12000SOL     OW36303   3.253   1.650   5.090
12000SOL    HW136304   3.348   1.658   5.098
12000SOL    HW236305   3.238   1.630   4.998
12001SOL     OW36306   7.466   2.711   5.333
12001SOL    HW136307   7.543   2.749   5.375
12001SOL    HW236308   7.435   2.644   5.395
12002SOL     OW36309   1.090   8.054   1.930
12002SOL    HW136310   1.003   8.015   1.927
12002SOL    HW236311   1.093   8.111   1.853
12003SOL     OW36312   0.420   2.047   0.643
12003SOL    HW136313   0.482   2.103   0.596
12003SOL    HW236314   0.362   2.108   0.688
12004SOL     OW36315   6.989   0.262   1.174
12004SOL    HW136316   6.897   0.236   1.185
12004SOL    HW236317   7.016   0.293   1.260
12005SOL     OW36318   5.581   4.600   4.368
12005SOL    HW136319   5.670   4.601   4.334
12005SOL    HW236320   5.530   4.649   4.304
12006SOL     OW36321   5.748   5.476   5.710
12006SOL    HW136322   5.761   5.394   5.663
12006SOL    HW236323   5.779   5.544   5.650
12007SOL     OW36324   0.489   7.625   2.129
12007SOL    HW136325   0.471   7.531   2.120
12007SOL    HW236326   0.484   7.659   2.040
12008SOL     OW36327   1.636   3.970   3.851
12008SOL    HW136328   1.571   3.954   3.782
12008SOL    HW236329   1.620   3.901   3.915
12009SOL     OW36330   3.880   0.693   4.036
12009SOL    HW136331   3.902   0.673   4.127
12009SOL    HW236332   3.861   0.608   3.996
12010SOL     OW36333   8.024   0.581   2.189
12010SOL    HW136334   8.118   0.578   2.209
12010SOL    HW236335   8.005   0.496   2.150
12011SOL     OW36336   3.116   7.312   5.739
12011SOL    HW136337   3.129   7.366   5.817
12011SOL    HW236338   3.079   7.372   5.674
12012SOL     OW36339   3.577   5.562   2.676
12012SOL    HW136340   3.597   5.518   2.593
12012SOL    HW236341   3.612   5.504   2.743
12013SOL     OW36342   0.164   5.074   5.688
12013SOL    HW136343   0.086   5.071   5.632
12013SOL    HW236344   0.223   5.136   5.644
12014SOL     OW36345   5.821   4.352   1.544
12014SOL    HW136346   5.903   4.392   1.573
12014SOL    HW236347   5.848   4.272   1.499
12015SOL     OW36348   3.637   7.215   4.763
12015SOL    HW136349   3.614   7.305   4.739
12015SOL    HW236350   3.700   7.224   4.835
12016SOL     OW36351   2.679   6.307   4.167
12016SOL    HW136352   2.707   6.322   4.257
12016SOL    HW236353   2.664   6.213   4.162
12017SOL     OW36354   5.130   2.028   2.219
12017SOL    HW136355   5.047   1.982   2.205
12017SOL    HW236356   5.192   1.958   2.241
12018SOL     OW36357   6.602   6.407   2.602
12018SOL    HW136358   6.540   6.354   2.552
12018SOL    HW236359   6.678   6.414   2.544
12019SOL     OW36360   7.723   1.402   0.051
12019SOL    HW136361   3.674   5.543   5.805
12019SOL    HW236362   7.752   1.316   0.081
12020SOL     OW36363   6.903   5.863   0.621
12020SOL    HW136364   6.959   5.844   0.546
12020SOL    HW236365   6.958   5.913   0.681
12021SOL     OW36366   8.094   1.319   2.431
12021SOL    HW136367   8.095   1.344   2.339
12021SOL    HW236368   8.002   1.303   2.450
12022SOL     OW36369   0.244   8.075   4.720
12022SOL    HW136370   0.306   8.003   4.711
12022SOL    HW236371   0.172   8.039   4.771
12023SOL     OW36372   4.121   1.392   3.308
12023SOL    HW136373   4.198   1.342   3.283
12023SOL    HW236374   4.156   1.472   3.347
12024SOL     OW36375   7.106   2.519   5.416
12024SOL    HW136376   7.059   2.590   5.459
12024SOL    HW236377   7.188   2.511   5.465
12025SOL     OW36378   7.534   3.631   4.083
12025SOL    HW136379   7.573   3.643   4.170
12025SOL    HW236380   7.609   3.634   4.023
12026SOL     OW36381   5.616   5.909   2.861
12026SOL    HW136382   5.684   5.971   2.887
12026SOL    HW236383   5.663   5.827   2.845
12027SOL     OW36384   5.532   2.847   5.484
12027SOL    HW136385   5.582   2.901   5.422
12027SOL    HW236386   5.461   2.810   5.431
12028SOL     OW36387   2.876   1.912   1.615
12028SOL    HW136388   2.960   1.869   1.599
12028SOL    HW236389   2.824   1.846   1.661
12029SOL     OW36390   2.497   5.257   4.810
12029SOL    HW136391   2.560   5.250   4.882
12029SOL    HW236392   2.422   5.206   4.839
12030SOL     OW36393   5.195   0.020   5.388
12030SOL    HW136394   5.255   8.205   5.328
12030SOL    HW236395   5.159   8.179   5.442
12031SOL     OW36396   1.504   1.693   2.379
12031SOL    HW136397   1.517   1.709   2.286
12031SOL    HW236398   1.576   1.739   2.422
12032SOL     OW36399   5.154   3.098   2.790
12032SOL    HW136400   5.171   3.115   2.697
12032SOL    HW236401   5.171   3.182   2.833
12033SOL     OW36402   7.010   8.037   1.365
12033SOL    HW136403   6.971   8.028   1.278
12033SOL    HW236404   7.044   7.950   1.386
12034SOL     OW36405   6.983   3.369   3.077
12034SOL    HW136406   6.912   3.413   3.124
12034SOL    HW236407   7.025   3.314   3.143
12035SOL     OW36408   0.669   6.740   3.895
12035SOL    HW136409   0.667   6.672   3.963
12035SOL    HW236410   0.599   6.800   3.920
12036SOL     OW36411   3.300   0.616   3.479
12036SOL    HW136412   3.222   0.647   3.433
12036SOL    HW236413   3.284   0.637   3.571
12037SOL     OW36414   4.075   2.604   3.573
12037SOL    HW136415   4.004   2.603   3.637
12037SOL    HW236416   4.151   2.635   3.622
12038SOL     OW36417   5.282   2.210   2.872
12038SOL    HW136418   5.225   2.135   2.889
12038SOL    HW236419   5.340   2.180   2.802
12039SOL     OW36420   2.549   7.292   1.992
12039SOL    HW136421   2.550   7.231   2.065
12039SOL    HW236422   2.641   7.306   1.971
12040SOL     OW36423   7.642   3.288   1.653
12040SOL    HW136424   7.578   3.340   1.604
12040SOL    HW236425   7.631   3.199   1.620
12041SOL     OW36426   1.157   0.695   3.030
12041SOL    HW136427   1.248   0.664   3.028
12041SOL    HW236428   1.162   0.784   2.995
12042SOL     OW36429   5.857   1.652   0.715
12042SOL    HW136430   5.939   1.661   0.666
12042SOL    HW236431   5.871   1.705   0.794
12043SOL     OW36432   3.329   7.829   5.660
12043SOL    HW136433   3.420   7.858   5.660
12043SOL    HW236434   3.286   7.885   5.725
12044SOL     OW36435   5.931   3.610   3.470
12044SOL    HW136436   5.901   3.535   3.521
12044SOL    HW236437   5.919   3.685   3.529
12045SOL     OW36438   1.492   6.813   1.152
12045SOL    HW136439   1.539   6.896   1.163
12045SOL    HW236440   1.561   6.748   1.138
12046SOL     OW36441   6.833   5.595   2.456
12046SOL    HW136442   6.803   5.521   2.404
12046SOL    HW236443   6.928   5.587   2.457
12047SOL     OW36444   5.843   0.117   5.651
12047SOL    HW136445   5.905   0.169   5.703
12047SOL    HW236446   5.763   0.116   5.703
12048SOL     OW36447   7.296   3.161   3.604
12048SOL    HW136448   7.381   3.143   3.565
12048SOL    HW236449   7.274   3.081   3.651
12049SOL     OW36450   1.783   7.555   0.538
12049SOL    HW136451   1.696   7.595   0.539
12049SOL    HW236452   1.771   7.470   0.581
12050SOL     OW36453   2.447   1.018   5.701
12050SOL    HW136454   2.483   1.017   5.612
12050SOL    HW236455   2.352   1.018   5.689
12051SOL     OW36456   0.826   2.935   4.390
12051SOL    HW136457   0.909   2.924   4.436
12051SOL    HW236458   0.760   2.897   4.448
12052SOL     OW36459   4.540   3.397   2.923
12052SOL    HW136460   4.508   3.463   2.984
12052SOL    HW236461   4.556   3.320   2.978
12053SOL     OW36462   5.804   2.621   0.449
12053SOL    HW136463   5.754   2.625   0.368
12053SOL    HW236464   5.843   2.708   0.457
12054SOL     OW36465   5.141   0.428   4.000
12054SOL    HW136466   5.162   0.339   4.027
12054SOL    HW236467   5.135   0.477   4.082
12055SOL     OW36468   3.452   6.546   4.302
12055SOL    HW136469   3.519   6.507   4.358
12055SOL    HW236470   3.464   6.503   4.217
12056SOL     OW36471   1.179   5.995   3.219
12056SOL    HW136472   1.125   5.923   3.252
12056SOL    HW236473   1.147   6.010   3.130
12057SOL     OW36474   5.584   7.630   2.373
12057SOL    HW136475   5.622   7.578   2.302
12057SOL    HW236476   5.491   7.635   2.352
12058SOL     OW36477   0.779   2.451   1.893
12058SOL    HW136478   0.784   2.412   1.806
12058SOL    HW236479   0.723   2.528   1.882
12059SOL     OW36480   7.646   0.525   1.765
12059SOL    HW136481   7.708   0.470   1.717
12059SOL    HW236482   7.701   0.582   1.818
12060SOL     OW36483   0.145   3.097   1.580
12060SOL    HW136484   0.240   3.088   1.572
12060SOL    HW236485   0.133   3.163   1.649
12061SOL     OW36486   6.670   6.785   1.036
12061SOL    HW136487   6.682   6.722   1.107
12061SOL    HW236488   6.576   6.782   1.017
12062SOL     OW36489   6.816   1.495   2.462
12062SOL    HW136490   6.771   1.412   2.448
12062SOL    HW236491   6.772   1.534   2.537
12063SOL     OW36492   4.722   4.293   2.908
12063SOL    HW136493   4.752   4.377   2.943
12063SOL    HW236494   4.801   4.251   2.874
12064SOL     OW36495   5.158   5.302   5.795
12064SOL    HW136496   5.223   5.324   5.729
12064SOL    HW236497   5.077   5.289   5.746
12065SOL     OW36498   0.089   0.927   4.634
12065SOL    HW136499   0.060   0.940   4.544
12065SOL    HW236500   0.065   0.837   4.655
12066SOL     OW36501   3.660   2.771   5.153
12066SOL    HW136502   3.687   2.854   5.192
12066SOL    HW236503   3.649   2.712   5.227
12067SOL     OW36504   5.118   7.048   2.816
12067SOL    HW136505   5.131   7.008   2.902
12067SOL    HW236506   5.151   7.137   2.825
12068SOL     OW36507   5.186   2.456   4.755
12068SOL    HW136508   5.236   2.466   4.674
12068SOL    HW236509   5.125   2.530   4.756
12069SOL     OW36510   5.262   3.108   4.655
12069SOL    HW136511   5.295   3.198   4.649
12069SOL    HW236512   5.341   3.054   4.657
12070SOL     OW36513   5.448   1.725   0.013
12070SOL    HW136514   5.488   1.638   0.013
12070SOL    HW236515   5.477   1.764   0.096
12071SOL     OW36516   1.696   6.990   3.109
12071SOL    HW136517   1.739   6.947   3.035
12071SOL    HW236518   1.604   6.994   3.084
12072SOL     OW36519   6.451   3.197   4.822
12072SOL    HW136520   6.460   3.265   4.889
12072SOL    HW236521   6.475   3.240   4.740
12073SOL     OW36522   1.837   5.832   2.304
12073SOL    HW136523   1.824   5.839   2.209
12073SOL    HW236524   1.926   5.797   2.314
12074SOL     OW36525   5.361   4.193   2.120
12074SOL    HW136526   5.299   4.147   2.063
12074SOL    HW236527   5.395   4.264   2.065
12075SOL     OW36528   5.960   0.361   2.903
12075SOL    HW136529   5.876   0.317   2.913
12075SOL    HW236530   6.025   0.294   2.924
12076SOL     OW36531   0.105   7.733   3.592
12076SOL    HW136532   0.121   7.766   3.680
12076SOL    HW236533   0.112   7.638   3.600
12077SOL     OW36534   3.136   1.017   0.961
12077SOL    HW136535   3.202   1.016   1.030
12077SOL    HW236536   3.058   1.054   1.002
12078SOL     OW36537   3.931   2.867   3.838
12078SOL    HW136538   3.888   2.894   3.757
12078SOL    HW236539   3.866   2.884   3.906
12079SOL     OW36540   0.883   7.680   3.097
12079SOL    HW136541   0.789   7.676   3.114
12079SOL    HW236542   0.892   7.738   3.022
12080SOL     OW36543   0.312   1.918   5.528
12080SOL    HW136544   0.322   1.934   5.622
12080SOL    HW236545   0.343   1.828   5.516
12081SOL     OW36546   1.632   8.120   3.651
12081SOL    HW136547   1.628   8.073   3.568
12081SOL    HW236548   1.606   8.209   3.629
12082SOL     OW36549   7.252   3.555   3.395
12082SOL    HW136550   7.186   3.621   3.373
12082SOL    HW236551   7.210   3.500   3.461
12083SOL     OW36552   5.952   0.889   2.230
12083SOL    HW136553   5.979   0.862   2.318
12083SOL    HW236554   6.019   0.852   2.172
12084SOL     OW36555   3.825   5.026   4.091
12084SOL    HW136556   3.910   5.070   4.095
12084SOL    HW236557   3.797   5.036   4.000
12085SOL     OW36558   0.621   6.888   3.155
12085SOL    HW136559   0.645   6.797   3.137
12085SOL    HW236560   0.554   6.882   3.223
12086SOL     OW36561   2.467   1.252   0.505
12086SOL    HW136562   2.475   1.347   0.500
12086SOL    HW236563   2.465   1.233   0.599
12087SOL     OW36564   0.019   1.173   3.468
12087SOL    HW136565   0.061   1.138   3.547
12087SOL    HW236566   8.217   1.095   3.421
12088SOL     OW36567   5.872   3.837   5.382
12088SOL    HW136568   5.800   3.837   5.319
12088SOL    HW236569   5.887   3.930   5.401
12089SOL     OW36570   1.147   5.334   0.838
12089SOL    HW136571   1.194   5.289   0.767
12089SOL    HW236572   1.061   5.353   0.801
12090SOL     OW36573   4.960   1.773   5.131
12090SOL    HW136574   4.897   1.813   5.190
12090SOL    HW236575   5.004   1.847   5.089
12091SOL     OW36576   7.144   0.905   3.501
12091SOL    HW136577   7.146   0.828   3.558
12091SOL    HW236578   7.061   0.898   3.454
12092SOL     OW36579   2.790   3.829   3.127
12092SOL    HW136580   2.879   3.859   3.110
12092SOL    HW236581   2.786   3.741   3.089
12093SOL     OW36582   1.403   5.370   5.612
12093SOL    HW136583   1.469   5.376   5.543
12093SOL    HW236584   1.406   5.455   5.655
12094SOL     OW36585   0.910   3.061   2.102
12094SOL    HW136586   0.869   2.975   2.114
12094SOL    HW236587   0.990   3.056   2.154
12095SOL     OW36588   5.675   7.669   3.587
12095SOL    HW136589   5.619   7.719   3.646
12095SOL    HW236590   5.764   7.697   3.608
12096SOL     OW36591   4.284   4.938   2.437
12096SOL    HW136592   4.196   4.930   2.474
12096SOL    HW236593   4.320   5.017   2.477
12097SOL     OW36594   3.814   4.758   1.305
12097SOL    HW136595   3.844   4.784   1.392
12097SOL    HW236596   3.766   4.677   1.320
12098SOL     OW36597   7.068   6.609   4.166
12098SOL    HW136598   6.984   6.575   4.136
12098SOL    HW236599   7.129   6.586   4.096
12099SOL     OW36600   2.776   2.985   4.158
12099SOL    HW136601   2.819   2.981   4.244
12099SOL    HW236602   2.844   3.016   4.099
12100SOL     OW36603   6.254   6.904   4.569
12100SOL    HW136604   6.201   6.905   4.649
12100SOL    HW236605   6.230   6.822   4.525
12101SOL     OW36606   7.164   7.210   3.052
12101SOL    HW136607   7.119   7.126   3.062
12101SOL    HW236608   7.201   7.207   2.964
12102SOL     OW36609   7.502   3.212   3.187
12102SOL    HW136610   7.488   3.300   3.222
12102SOL    HW236611   7.474   3.217   3.096
12103SOL     OW36612   5.800   1.329   4.087
12103SOL    HW136613   5.871   1.327   4.023
12103SOL    HW236614   5.721   1.310   4.036
12104SOL     OW36615   4.072   7.415   2.413
12104SOL    HW136616   4.125   7.343   2.380
12104SOL    HW236617   4.119   7.447   2.490
12105SOL     OW36618   3.927   3.014   0.851
12105SOL    HW136619   4.006   3.016   0.797
12105SOL    HW236620   3.956   2.977   0.935
12106SOL     OW36621   2.617   5.069   0.629
12106SOL    HW136622   2.679   5.108   0.691
12106SOL    HW236623   2.532   5.104   0.654
12107SOL     OW36624   6.906   3.146   2.397
12107SOL    HW136625   6.954   3.199   2.333
12107SOL    HW236626   6.829   3.114   2.350
12108SOL     OW36627   2.009   1.332   1.691
12108SOL    HW136628   1.938   1.334   1.627
12108SOL    HW236629   1.993   1.254   1.744
12109SOL     OW36630   7.152   6.365   3.613
12109SOL    HW136631   7.243   6.364   3.584
12109SOL    HW236632   7.135   6.275   3.642
12110SOL     OW36633   7.152   3.395   3.585
12110SOL    HW136634   7.200   3.313   3.600
12110SOL    HW236635   7.089   3.399   3.657
12111SOL     OW36636   5.233   2.736   2.059
12111SOL    HW136637   5.193   2.650   2.066
12111SOL    HW236638   5.161   2.797   2.075
12112SOL     OW36639   6.972   6.082   4.422
12112SOL    HW136640   7.067   6.070   4.426
12112SOL    HW236641   6.950   6.069   4.330
12113SOL     OW36642   4.500   5.026   1.338
12113SOL    HW136643   4.579   5.036   1.391
12113SOL    HW236644   4.430   5.061   1.393
12114SOL     OW36645   4.039   6.140   1.876
12114SOL    HW136646   3.979   6.072   1.844
12114SOL    HW236647   4.124   6.097   1.879
12115SOL     OW36648   2.911   4.589   0.880
12115SOL    HW136649   2.856   4.516   0.909
12115SOL    HW236650   2.952   4.558   0.799
12116SOL     OW36651   0.322   6.036   4.401
12116SOL    HW136652   0.282   6.111   4.445
12116SOL    HW236653   0.296   5.961   4.455
12117SOL     OW36654   0.574   7.410   4.254
12117SOL    HW136655   0.569   7.325   4.298
12117SOL    HW236656   0.508   7.463   4.298
12118SOL     OW36657   7.796   3.399   3.957
12118SOL    HW136658   7.771   3.404   4.049
12118SOL    HW236659   7.747   3.324   3.923
12119SOL     OW36660   6.204   4.659   2.772
12119SOL    HW136661   6.286   4.652   2.723
12119SOL    HW236662   6.213   4.595   2.843
12120SOL     OW36663   3.129   7.170   4.508
12120SOL    HW136664   3.139   7.083   4.547
12120SOL    HW236665   3.081   7.220   4.574
12121SOL     OW36666   6.374   4.521   3.255
12121SOL    HW136667   6.400   4.466   3.329
12121SOL    HW236668   6.431   4.493   3.184
12122SOL     OW36669   4.037   1.255   3.656
12122SOL    HW136670   4.118   1.227   3.613
12122SOL    HW236671   4.029   1.348   3.634
12123SOL     OW36672   5.498   1.845   0.908
12123SOL    HW136673   5.497   1.804   0.994
12123SOL    HW236674   5.445   1.924   0.918
12124SOL     OW36675   6.771   1.931   3.157
12124SOL    HW136676   6.835   1.988   3.113
12124SOL    HW236677   6.809   1.843   3.151
12125SOL     OW36678   3.749   0.943   5.267
12125SOL    HW136679   3.700   1.025   5.261
12125SOL    HW236680   3.836   0.964   5.234
12126SOL     OW36681   6.446   7.144   0.654
12126SOL    HW136682   6.371   7.195   0.684
12126SOL    HW236683   6.441   7.062   0.703
12127SOL     OW36684   4.306   0.161   2.730
12127SOL    HW136685   4.323   0.072   2.698
12127SOL    HW236686   4.232   0.151   2.790
12128SOL     OW36687   4.071   2.736   4.037
12128SOL    HW136688   4.054   2.806   3.974
12128SOL    HW236689   4.062   2.778   4.123
12129SOL     OW36690   5.453   1.915   5.681
12129SOL    HW136691   5.483   1.953   5.763
12129SOL    HW236692   5.472   1.982   5.615
12130SOL     OW36693   7.402   2.144   2.792
12130SOL    HW136694   7.451   2.080   2.844
12130SOL    HW236695   7.339   2.092   2.743
12131SOL     OW36696   7.341   6.373   0.681
12131SOL    HW136697   7.374   6.414   0.761
12131SOL    HW236698   7.323   6.446   0.622
12132SOL     OW36699   3.322   7.031   3.305
12132SOL    HW136700   3.350   7.099   3.244
12132SOL    HW236701   3.348   7.064   3.391
12133SOL     OW36702   5.545   0.631   3.659
12133SOL    HW136703   5.545   0.547   3.613
12133SOL    HW236704   5.580   0.693   3.596
12134SOL     OW36705   6.249   7.620   0.261
12134SOL    HW136706   6.207   7.704   0.241
12134SOL    HW236707   6.250   7.616   0.357
12135SOL     OW36708   2.504   0.534   3.065
12135SOL    HW136709   2.449   0.605   3.032
12135SOL    HW236710   2.583   0.577   3.096
12136SOL     OW36711   3.233   6.766   1.405
12136SOL    HW136712   3.151   6.723   1.380
12136SOL    HW236713   3.301   6.702   1.384
12137SOL     OW36714   7.953   7.141   5.524
12137SOL    HW136715   7.863   7.109   5.530
12137SOL    HW236716   7.963   7.167   5.432
12138SOL     OW36717   5.859   6.347   0.057
12138SOL    HW136718   5.882   6.418   0.117
12138SOL    HW236719   5.938   6.294   0.051
12139SOL     OW36720   7.406   4.468   1.775
12139SOL    HW136721   7.424   4.469   1.869
12139SOL    HW236722   7.491   4.452   1.734
12140SOL     OW36723   6.578   4.952   4.302
12140SOL    HW136724   6.538   4.984   4.383
12140SOL    HW236725   6.662   4.916   4.330
12141SOL     OW36726   5.659   3.588   5.360
12141SOL    HW136727   5.650   3.659   5.296
12141SOL    HW236728   5.572   3.579   5.398
12142SOL     OW36729   0.451   6.041   0.361
12142SOL    HW136730   0.396   6.005   0.431
12142SOL    HW236731   0.409   6.124   0.338
12143SOL     OW36732   6.523   6.916   0.796
12143SOL    HW136733   6.460   6.897   0.865
12143SOL    HW236734   6.501   6.854   0.726
12144SOL     OW36735   2.143   4.105   1.593
12144SOL    HW136736   2.123   4.179   1.650
12144SOL    HW236737   2.230   4.076   1.621
12145SOL     OW36738   0.280   1.870   4.685
12145SOL    HW136739   0.337   1.894   4.758
12145SOL    HW236740   0.220   1.805   4.722
12146SOL     OW36741   7.072   1.969   4.788
12146SOL    HW136742   7.073   1.882   4.749
12146SOL    HW236743   6.981   1.983   4.815
12147SOL     OW36744   3.553   4.915   1.782
12147SOL    HW136745   3.555   4.820   1.772
12147SOL    HW236746   3.623   4.946   1.725
12148SOL     OW36747   4.226   3.639   1.608
12148SOL    HW136748   4.304   3.646   1.553
12148SOL    HW236749   4.165   3.587   1.556
12149SOL     OW36750   1.120   0.882   2.714
12149SOL    HW136751   1.131   0.911   2.804
12149SOL    HW236752   1.049   0.936   2.679
12150SOL     OW36753   5.648   2.310   1.091
12150SOL    HW136754   5.725   2.335   1.142
12150SOL    HW236755   5.635   2.382   1.030
12151SOL     OW36756   7.239   5.675   1.146
12151SOL    HW136757   7.319   5.717   1.115
12151SOL    HW236758   7.169   5.715   1.095
12152SOL     OW36759   3.533   2.682   4.325
12152SOL    HW136760   3.471   2.634   4.380
12152SOL    HW236761   3.481   2.710   4.249
12153SOL     OW36762   5.709   5.817   1.846
12153SOL    HW136763   5.648   5.852   1.781
12153SOL    HW236764   5.654   5.796   1.921
12154SOL     OW36765   3.936   4.820   4.288
12154SOL    HW136766   3.909   4.876   4.361
12154SOL    HW236767   3.891   4.857   4.212
12155SOL     OW36768   6.614   0.444   1.134
12155SOL    HW136769   6.525   0.465   1.164
12155SOL    HW236770   6.651   0.528   1.108
12156SOL     OW36771   5.437   3.633   4.590
12156SOL    HW136772   5.450   3.615   4.683
12156SOL    HW236773   5.524   3.653   4.557
12157SOL     OW36774   1.919   2.966   1.871
12157SOL    HW136775   1.972   2.995   1.797
12157SOL    HW236776   1.829   2.981   1.843
12158SOL     OW36777   1.333   7.655   2.475
12158SOL    HW136778   1.370   7.595   2.410
12158SOL    HW236779   1.363   7.742   2.448
12159SOL     OW36780   7.051   5.233   2.206
12159SOL    HW136781   7.051   5.314   2.154
12159SOL    HW236782   7.023   5.261   2.293
12160SOL     OW36783   6.021   5.527   3.717
12160SOL    HW136784   5.991   5.602   3.666
12160SOL    HW236785   6.108   5.508   3.682
12161SOL     OW36786   8.081   7.647   3.392
12161SOL    HW136787   8.169   7.612   3.381
12161SOL    HW236788   8.080   7.726   3.338
12162SOL     OW36789   6.356   4.614   4.892
12162SOL    HW136790   6.385   4.547   4.954
12162SOL    HW236791   6.362   4.572   4.806
12163SOL     OW36792   1.504   0.622   2.304
12163SOL    HW136793   1.597   0.638   2.286
12163SOL    HW236794   1.491   0.650   2.395
12164SOL     OW36795   2.074   1.175   3.895
12164SOL    HW136796   1.989   1.219   3.889
12164SOL    HW236797   2.124   1.209   3.821
12165SOL     OW36798   1.337   2.490   2.588
12165SOL    HW136799   1.293   2.405   2.592
12165SOL    HW236800   1.307   2.537   2.666
12166SOL     OW36801   8.184   5.907   0.915
12166SOL    HW136802   8.121   5.970   0.881
12166SOL    HW236803   8.214   5.859   0.838
12167SOL     OW36804   2.962   6.968   4.123
12167SOL    HW136805   2.928   6.882   4.148
12167SOL    HW236806   3.035   6.949   4.064
12168SOL     OW36807   7.926   3.841   4.056
12168SOL    HW136808   7.869   3.804   3.988
12168SOL    HW236809   7.982   3.903   4.009
12169SOL     OW36810   3.905   1.679   4.642
12169SOL    HW136811   3.985   1.656   4.690
12169SOL    HW236812   3.905   1.622   4.565
12170SOL     OW36813   7.688   7.408   1.953
12170SOL    HW136814   7.606   7.363   1.975
12170SOL    HW236815   7.680   7.494   1.994
12171SOL     OW36816   5.054   4.382   3.294
12171SOL    HW136817   5.018   4.384   3.205
12171SOL    HW236818   4.981   4.355   3.349
12172SOL     OW36819   3.929   7.294   3.299
12172SOL    HW136820   3.902   7.369   3.352
12172SOL    HW236821   3.939   7.222   3.362
12173SOL     OW36822   1.789   4.230   4.646
12173SOL    HW136823   1.864   4.240   4.587
12173SOL    HW236824   1.814   4.158   4.704
12174SOL     OW36825   6.324   1.496   0.397
12174SOL    HW136826   6.374   1.566   0.354
12174SOL    HW236827   6.258   1.470   0.332
12175SOL     OW36828   7.455   4.360   3.533
12175SOL    HW136829   7.413   4.311   3.603
12175SOL    HW236830   7.542   4.320   3.525
12176SOL     OW36831   5.156   0.995   3.686
12176SOL    HW136832   5.226   1.054   3.659
12176SOL    HW236833   5.084   1.053   3.711
12177SOL     OW36834   6.331   0.429   3.105
12177SOL    HW136835   6.420   0.460   3.123
12177SOL    HW236836   6.316   0.452   3.013
12178SOL     OW36837   7.377   4.932   5.133
12178SOL    HW136838   7.449   4.904   5.189
12178SOL    HW236839   7.304   4.874   5.157
12179SOL     OW36840   2.462   0.948   3.684
12179SOL    HW136841   2.495   0.978   3.769
12179SOL    HW236842   2.378   0.993   3.674
12180SOL     OW36843   3.160   7.629   5.521
12180SOL    HW136844   3.138   7.680   5.443
12180SOL    HW236845   3.236   7.673   5.558
12181SOL     OW36846   7.844   0.042   3.569
12181SOL    HW136847   7.879   0.050   3.480
12181SOL    HW236848   7.902   8.208   3.612
12182SOL     OW36849   2.288   1.388   5.559
12182SOL    HW136850   2.219   1.330   5.527
12182SOL    HW236851   2.258   1.476   5.536
12183SOL     OW36852   1.707   4.829   4.148
12183SOL    HW136853   1.679   4.772   4.220
12183SOL    HW236854   1.797   4.852   4.170
12184SOL     OW36855   7.620   3.380   1.928
12184SOL    HW136856   7.593   3.342   1.845
12184SOL    HW236857   7.714   3.361   1.934
12185SOL     OW36858   6.248   8.017   3.153
12185SOL    HW136859   6.319   8.055   3.205
12185SOL    HW236860   6.278   7.928   3.133
12186SOL     OW36861   2.590   6.870   2.265
12186SOL    HW136862   2.655   6.810   2.302
12186SOL    HW236863   2.522   6.813   2.230
12187SOL     OW36864   0.972   4.026   4.143
12187SOL    HW136865   1.040   3.970   4.107
12187SOL    HW236866   0.946   3.982   4.224
12188SOL     OW36867   2.496   3.728   3.003
12188SOL    HW136868   2.441   3.721   2.925
12188SOL    HW236869   2.434   3.741   3.075
12189SOL     OW36870   2.822   7.244   2.739
12189SOL    HW136871   2.873   7.315   2.778
12189SOL    HW236872   2.805   7.185   2.812
12190SOL     OW36873   7.328   5.141   1.073
12190SOL    HW136874   7.408   5.163   1.120
12190SOL    HW236875   7.311   5.217   1.017
12191SOL     OW36876   4.523   1.016   5.086
12191SOL    HW136877   4.614   1.033   5.111
12191SOL    HW236878   4.524   1.017   4.990
12192SOL     OW36879   0.322   4.816   0.680
12192SOL    HW136880   0.297   4.803   0.588
12192SOL    HW236881   0.350   4.907   0.685
12193SOL     OW36882   3.353   0.435   1.442
12193SOL    HW136883   3.379   0.517   1.484
12193SOL    HW236884   3.320   0.462   1.356
12194SOL     OW36885   0.364   5.227   4.126
12194SOL    HW136886   0.272   5.253   4.132
12194SOL    HW236887   0.362   5.134   4.103
12195SOL     OW36888   1.644   0.073   1.425
12195SOL    HW136889   1.556   0.059   1.390
12195SOL    HW236890   1.690   0.120   1.355
12196SOL     OW36891   8.216   4.469   4.666
12196SOL    HW136892   8.188   4.384   4.631
12196SOL    HW236893   8.135   4.511   4.694
12197SOL     OW36894   2.637   6.950   5.147
12197SOL    HW136895   2.590   6.869   5.168
12197SOL    HW236896   2.570   7.018   5.146
12198SOL     OW36897   3.266   7.235   0.636
12198SOL    HW136898   3.251   7.328   0.622
12198SOL    HW236899   3.191   7.206   0.689
12199SOL     OW36900   8.016   6.832   0.942
12199SOL    HW136901   7.970   6.835   1.026
12199SOL    HW236902   8.073   6.756   0.950
12200SOL     OW36903   8.058   6.342   5.346
12200SOL    HW136904   8.088   6.336   5.255
12200SOL    HW236905   7.966   6.367   5.340
12201SOL     OW36906   6.998   0.422   2.333
12201SOL    HW136907   6.941   0.347   2.349
12201SOL    HW236908   7.074   0.385   2.288
12202SOL     OW36909   4.587   6.868   3.238
12202SOL    HW136910   4.609   6.950   3.281
12202SOL    HW236911   4.651   6.860   3.168
12203SOL     OW36912   4.248   5.716   3.117
12203SOL    HW136913   4.237   5.696   3.210
12203SOL    HW236914   4.228   5.809   3.110
12204SOL     OW36915   7.513   0.260   4.980
12204SOL    HW136916   7.509   0.243   4.886
12204SOL    HW236917   7.421   0.262   5.008
12205SOL     OW36918   3.166   3.956   2.054
12205SOL    HW136919   3.173   3.942   2.148
12205SOL    HW236920   3.173   4.051   2.043
12206SOL     OW36921   4.248   7.904   4.572
12206SOL    HW136922   4.294   7.924   4.654
12206SOL    HW236923   4.155   7.915   4.594
12207SOL     OW36924   1.230   3.236   2.735
12207SOL    HW136925   1.316   3.236   2.693
12207SOL    HW236926   1.224   3.322   2.776
12208SOL     OW36927   5.600   1.674   0.280
12208SOL    HW136928   5.594   1.756   0.231
12208SOL    HW236929   5.689   1.643   0.265
12209SOL     OW36930   4.156   4.837   0.162
12209SOL    HW136931   4.116   4.798   0.240
12209SOL    HW236932   4.083   4.848   0.101
12210SOL     OW36933   3.663   1.507   2.487
12210SOL    HW136934   3.700   1.426   2.523
12210SOL    HW236935   3.738   1.553   2.449
12211SOL     OW36936   6.072   6.447   2.571
12211SOL    HW136937   6.011   6.378   2.545
12211SOL    HW236938   6.016   6.519   2.601
12212SOL     OW36939   4.966   3.314   1.871
12212SOL    HW136940   4.989   3.343   1.783
12212SOL    HW236941   4.875   3.286   1.864
12213SOL     OW36942   2.967   6.251   5.498
12213SOL    HW136943   2.924   6.214   5.421
12213SOL    HW236944   2.991   6.175   5.552
12214SOL     OW36945   0.578   7.242   0.241
12214SOL    HW136946   0.616   7.329   0.227
12214SOL    HW236947   0.641   7.182   0.200
12215SOL     OW36948   0.739   4.766   5.613
12215SOL    HW136949   0.741   4.849   5.660
12215SOL    HW236950   0.822   4.764   5.566
12216SOL     OW36951   1.001   7.955   4.299
12216SOL    HW136952   0.999   7.888   4.368
12216SOL    HW236953   1.038   7.910   4.223
12217SOL     OW36954   0.303   7.667   5.136
12217SOL    HW136955   0.342   7.746   5.099
12217SOL    HW236956   0.284   7.690   5.227
12218SOL     OW36957   1.821   4.635   1.590
12218SOL    HW136958   1.782   4.563   1.639
12218SOL    HW236959   1.806   4.712   1.645
12219SOL     OW36960   4.443   3.746   3.586
12219SOL    HW136961   4.402   3.763   3.501
12219SOL    HW236962   4.537   3.747   3.568
12220SOL     OW36963   5.371   1.143   0.538
12220SOL    HW136964   5.391   1.050   0.534
12220SOL    HW236965   5.297   1.154   0.478
12221SOL     OW36966   6.905   6.283   4.612
12221SOL    HW136967   6.924   6.232   4.533
12221SOL    HW236968   6.990   6.297   4.653
12222SOL     OW36969   3.558   3.306   0.134
12222SOL    HW136970   3.578   3.394   0.104
12222SOL    HW236971   3.551   3.254   0.054
12223SOL     OW36972   1.805   5.877   4.567
12223SOL    HW136973   1.714   5.888   4.595
12223SOL    HW236974   1.800   5.826   4.486
12224SOL     OW36975   3.198   3.804   5.742
12224SOL    HW136976   3.175   3.889   5.705
12224SOL    HW236977   7.307   7.931   0.018
12225SOL     OW36978   0.210   4.693   2.333
12225SOL    HW136979   0.299   4.707   2.300
12225SOL    HW236980   0.211   4.603   2.365
12226SOL     OW36981   6.494   2.019   5.457
12226SOL    HW136982   6.462   2.105   5.429
12226SOL    HW236983   6.432   1.957   5.419
12227SOL     OW36984   3.433   6.982   0.820
12227SOL    HW136985   3.457   6.893   0.845
12227SOL    HW236986   3.377   7.013   0.892
12228SOL     OW36987   0.015   2.734   0.294
12228SOL    HW136988   8.152   2.760   0.292
12228SOL    HW236989   0.062   2.812   0.323
12229SOL     OW36990   4.037   2.583   4.813
12229SOL    HW136991   4.003   2.535   4.738
12229SOL    HW236992   3.980   2.557   4.886
12230SOL     OW36993   0.788   7.663   4.028
12230SOL    HW136994   0.745   7.578   4.035
12230SOL    HW236995   0.793   7.695   4.118
12231SOL     OW36996   5.967   3.048   3.938
12231SOL    HW136997   5.971   3.069   3.845
12231SOL    HW236998   5.876   3.025   3.954
12232SOL     OW36999   6.276   4.874   3.113
12232SOL    HW137000   6.363   4.849   3.083
12232SOL    HW237001   6.228   4.897   3.033
12233SOL     OW37002   0.786   3.280   2.116
12233SOL    HW137003   0.814   3.190   2.102
12233SOL    HW237004   0.818   3.302   2.204
12234SOL     OW37005   7.767   3.970   3.770
12234SOL    HW137006   7.780   4.023   3.849
12234SOL    HW237007   7.690   3.917   3.789
12235SOL     OW37008   7.734   2.291   4.207
12235SOL    HW137009   7.694   2.204   4.215
12235SOL    HW237010   7.680   2.347   4.262
12236SOL     OW37011   7.092   0.717   3.710
12236SOL    HW137012   7.166   0.660   3.730
12236SOL    HW237013   7.019   0.681   3.760
12237SOL     OW37014   0.337   5.555   1.694
12237SOL    HW137015   0.270   5.564   1.626
12237SOL    HW237016   0.289   5.525   1.771
12238SOL     OW37017   5.717   0.681   4.333
12238SOL    HW137018   5.688   0.751   4.274
12238SOL    HW237019   5.675   0.602   4.299
12239SOL     OW37020   4.151   0.907   0.988
12239SOL    HW137021   4.195   0.987   1.018
12239SOL    HW237022   4.160   0.909   0.893
12240SOL     OW37023   7.807   7.607   3.421
12240SOL    HW137024   7.785   7.514   3.413
12240SOL    HW237025   7.903   7.609   3.419
12241SOL     OW37026   7.450   1.159   5.665
12241SOL    HW137027   7.395   1.092   5.707
12241SOL    HW237028   7.492   1.204   5.738
12242SOL     OW37029   1.545   1.584   1.481
12242SOL    HW137030   1.576   1.515   1.540
12242SOL    HW237031   1.486   1.539   1.421
12243SOL     OW37032   1.323   2.924   1.066
12243SOL    HW137033   1.377   2.988   1.020
12243SOL    HW237034   1.237   2.965   1.074
12244SOL     OW37035   7.177   0.797   5.474
12244SOL    HW137036   7.150   0.874   5.424
12244SOL    HW237037   7.202   0.733   5.408
12245SOL     OW37038   2.450   3.492   1.281
12245SOL    HW137039   2.538   3.463   1.305
12245SOL    HW237040   2.414   3.420   1.229
12246SOL     OW37041   4.429   6.389   3.588
12246SOL    HW137042   4.370   6.440   3.532
12246SOL    HW237043   4.412   6.298   3.564
12247SOL     OW37044   7.404   8.038   0.208
12247SOL    HW137045   7.469   7.988   0.257
12247SOL    HW237046   7.382   8.112   0.265
12248SOL     OW37047   7.322   2.461   0.873
12248SOL    HW137048   7.408   2.419   0.876
12248SOL    HW237049   7.339   2.546   0.833
12249SOL     OW37050   8.181   4.000   2.386
12249SOL    HW137051   8.147   3.948   2.314
12249SOL    HW237052   0.045   3.977   2.391
12250SOL     OW37053   2.271   2.033   2.040
12250SOL    HW137054   2.179   2.009   2.053
12250SOL    HW237055   2.267   2.115   1.990
12251SOL     OW37056   6.978   4.212   0.927
12251SOL    HW137057   6.884   4.228   0.937
12251SOL    HW237058   7.020   4.285   0.973
12252SOL     OW37059   1.603   0.765   2.925
12252SOL    HW137060   1.604   0.684   2.976
12252SOL    HW237061   1.540   0.821   2.971
12253SOL     OW37062   7.653   4.217   1.881
12253SOL    HW137063   7.642   4.232   1.787
12253SOL    HW237064   7.747   4.227   1.896
12254SOL     OW37065   6.659   4.002   4.054
12254SOL    HW137066   6.644   3.948   4.132
12254SOL    HW237067   6.591   3.974   3.993
12255SOL     OW37068   5.525   7.879   3.708
12255SOL    HW137069   5.491   7.935   3.639
12255SOL    HW237070   5.579   7.937   3.762
12256SOL     OW37071   2.456   2.735   2.751
12256SOL    HW137072   2.536   2.773   2.787
12256SOL    HW237073   2.396   2.809   2.743
12257SOL     OW37074   4.913   5.065   0.955
12257SOL    HW137075   4.884   5.036   0.869
12257SOL    HW237076   4.870   5.149   0.968
12258SOL     OW37077   5.312   4.303   3.638
12258SOL    HW137078   5.332   4.335   3.550
12258SOL    HW237079   5.227   4.260   3.629
12259SOL     OW37080   5.323   3.821   5.359
12259SOL    HW137081   5.291   3.868   5.282
12259SOL    HW237082   5.373   3.748   5.323
12260SOL     OW37083   7.781   2.147   5.691
12260SOL    HW137084   7.834   2.114   5.763
12260SOL    HW237085   7.753   2.068   5.644
12261SOL     OW37086   1.967   2.094   3.280
12261SOL    HW137087   1.904   2.022   3.286
12261SOL    HW237088   1.916   2.172   3.304
12262SOL     OW37089   2.663   5.534   2.463
12262SOL    HW137090   2.740   5.478   2.463
12262SOL    HW237091   2.589   5.473   2.465
12263SOL     OW37092   8.182   3.467   2.743
12263SOL    HW137093   8.163   3.560   2.754
12263SOL    HW237094   8.118   3.422   2.799
12264SOL     OW37095   1.827   6.903   4.516
12264SOL    HW137096   1.900   6.855   4.556
12264SOL    HW237097   1.751   6.848   4.532
12265SOL     OW37098   0.079   7.087   1.866
12265SOL    HW137099   0.007   7.112   1.808
12265SOL    HW237100   0.150   7.061   1.807
12266SOL     OW37101   6.179   0.820   3.065
12266SOL    HW137102   6.263   0.851   3.030
12266SOL    HW237103   6.117   0.832   2.993
12267SOL     OW37104   6.000   3.024   2.431
12267SOL    HW137105   6.065   3.045   2.364
12267SOL    HW237106   6.052   2.997   2.507
12268SOL     OW37107   3.301   1.142   5.128
12268SOL    HW137108   3.212   1.171   5.107
12268SOL    HW237109   3.350   1.223   5.141
12269SOL     OW37110   6.160   3.403   4.651
12269SOL    HW137111   6.194   3.408   4.740
12269SOL    HW237112   6.113   3.486   4.638
12270SOL     OW37113   0.500   3.975   3.173
12270SOL    HW137114   0.497   3.903   3.110
12270SOL    HW237115   0.416   3.971   3.219
12271SOL     OW37116   3.189   2.602   3.485
12271SOL    HW137117   3.275   2.644   3.480
12271SOL    HW237118   3.208   2.508   3.482
12272SOL     OW37119   0.875   5.234   2.956
12272SOL    HW137120   0.837   5.225   3.043
12272SOL    HW237121   0.877   5.145   2.922
12273SOL     OW37122   6.798   0.068   4.613
12273SOL    HW137123   6.770   0.048   4.702
12273SOL    HW237124   6.893   0.058   4.615
12274SOL     OW37125   4.787   5.617   1.218
12274SOL    HW137126   4.803   5.527   1.247
12274SOL    HW237127   4.693   5.620   1.201
12275SOL     OW37128   7.895   1.636   1.559
12275SOL    HW137129   7.989   1.617   1.555
12275SOL    HW237130   7.884   1.689   1.638
12276SOL     OW37131   3.061   4.739   5.799
12276SOL    HW137132   3.115   4.660   5.798
12276SOL    HW237133   7.096   0.600   0.027
12277SOL     OW37134   7.926   5.584   2.933
12277SOL    HW137135   7.900   5.626   3.015
12277SOL    HW237136   7.982   5.511   2.960
12278SOL     OW37137   7.157   0.123   3.589
12278SOL    HW137138   7.104   0.203   3.590
12278SOL    HW237139   7.106   0.061   3.537
12279SOL     OW37140   7.745   1.917   3.429
12279SOL    HW137141   7.687   1.946   3.358
12279SOL    HW237142   7.690   1.919   3.507
12280SOL     OW37143   3.211   6.429   0.755
12280SOL    HW137144   3.164   6.486   0.694
12280SOL    HW237145   3.204   6.342   0.716
12281SOL     OW37146   3.942   4.719   5.514
12281SOL    HW137147   3.899   4.803   5.498
12281SOL    HW237148   4.010   4.739   5.578
12282SOL     OW37149   4.581   7.626   0.392
12282SOL    HW137150   4.512   7.565   0.418
12282SOL    HW237151   4.661   7.587   0.427
12283SOL     OW37152   8.006   4.583   4.217
12283SOL    HW137153   8.006   4.493   4.186
12283SOL    HW237154   8.057   4.580   4.298
12284SOL     OW37155   4.098   5.701   1.270
12284SOL    HW137156   4.116   5.658   1.353
12284SOL    HW237157   4.004   5.719   1.273
12285SOL     OW37158   0.306   0.947   2.768
12285SOL    HW137159   0.211   0.960   2.773
12285SOL    HW237160   0.328   0.968   2.677
12286SOL     OW37161   0.089   0.510   1.799
12286SOL    HW137162   0.027   0.579   1.821
12286SOL    HW237163   0.167   0.556   1.768
12287SOL     OW37164   1.946   1.630   0.135
12287SOL    HW137165   1.940   1.605   0.043
12287SOL    HW237166   2.037   1.656   0.147
12288SOL     OW37167   6.850   1.970   4.495
12288SOL    HW137168   6.797   1.897   4.526
12288SOL    HW237169   6.791   2.046   4.498
12289SOL     OW37170   1.262   1.185   3.579
12289SOL    HW137171   1.222   1.099   3.593
12289SOL    HW237172   1.327   1.170   3.510
12290SOL     OW37173   2.192   7.749   0.204
12290SOL    HW137174   2.275   7.711   0.234
12290SOL    HW237175   2.138   7.673   0.181
12291SOL     OW37176   7.731   3.460   0.651
12291SOL    HW137177   7.779   3.378   0.664
12291SOL    HW237178   7.784   3.509   0.587
12292SOL     OW37179   4.220   7.110   5.654
12292SOL    HW137180   4.213   7.038   5.716
12292SOL    HW237181   4.202   7.070   5.569
12293SOL     OW37182   1.829   6.483   0.567
12293SOL    HW137183   1.806   6.397   0.603
12293SOL    HW237184   1.816   6.474   0.473
12294SOL     OW37185   5.691   3.964   1.321
12294SOL    HW137186   5.750   3.889   1.327
12294SOL    HW237187   5.749   4.040   1.314
12295SOL     OW37188   3.744   6.638   1.944
12295SOL    HW137189   3.807   6.631   1.873
12295SOL    HW237190   3.795   6.671   2.018
12296SOL     OW37191   4.402   5.454   1.307
12296SOL    HW137192   4.471   5.412   1.359
12296SOL    HW237193   4.381   5.390   1.239
12297SOL     OW37194   6.847   0.347   1.673
12297SOL    HW137195   6.785   0.418   1.692
12297SOL    HW237196   6.815   0.308   1.591
12298SOL     OW37197   2.930   0.612   1.574
12298SOL    HW137198   3.001   0.632   1.635
12298SOL    HW237199   2.974   0.574   1.498
12299SOL     OW37200   0.492   0.095   4.380
12299SOL    HW137201   0.404   0.132   4.372
12299SOL    HW237202   0.547   0.150   4.325
12300SOL     OW37203   3.452   2.233   4.997
12300SOL    HW137204   3.382   2.273   5.048
12300SOL    HW237205   3.492   2.170   5.056
12301SOL     OW37206   1.738   3.311   0.177
12301SOL    HW137207   1.703   3.237   0.227
12301SOL    HW237208   1.709   3.296   0.087
12302SOL     OW37209   4.033   4.013   0.109
12302SOL    HW137210   4.017   3.943   0.172
12302SOL    HW237211   3.954   4.068   0.113
12303SOL     OW37212   1.693   3.028   4.865
12303SOL    HW137213   1.641   2.969   4.810
12303SOL    HW237214   1.651   3.023   4.951
12304SOL     OW37215   6.960   4.751   2.351
12304SOL    HW137216   6.945   4.726   2.260
12304SOL    HW237217   6.873   4.753   2.390
12305SOL     OW37218   2.274   6.237   0.265
12305SOL    HW137219   2.341   6.294   0.303
12305SOL    HW237220   2.274   6.258   0.172
12306SOL     OW37221   0.772   6.810   0.895
12306SOL    HW137222   0.840   6.811   0.962
12306SOL    HW237223   0.708   6.747   0.928
12307SOL     OW37224   7.927   6.090   2.235
12307SOL    HW137225   7.928   6.087   2.331
12307SOL    HW237226   7.952   6.180   2.214
12308SOL     OW37227   6.215   4.753   1.970
12308SOL    HW137228   6.302   4.730   1.937
12308SOL    HW237229   6.177   4.806   1.900
12309SOL     OW37230   1.237   6.838   1.261
12309SOL    HW137231   1.332   6.851   1.264
12309SOL    HW237232   1.226   6.746   1.238
12310SOL     OW37233   2.723   3.589   2.970
12310SOL    HW137234   2.658   3.655   2.946
12310SOL    HW237235   2.674   3.507   2.976
12311SOL     OW37236   1.563   2.850   4.065
12311SOL    HW137237   1.514   2.824   3.987
12311SOL    HW237238   1.544   2.943   4.076
12312SOL     OW37239   6.051   7.159   1.077
12312SOL    HW137240   6.003   7.144   0.995
12312SOL    HW237241   6.081   7.072   1.103
12313SOL     OW37242   1.179   7.970   0.076
12313SOL    HW137243   5.329   3.814   5.816
12313SOL    HW237244   1.253   8.019   0.112
12314SOL     OW37245   7.759   4.071   2.459
12314SOL    HW137246   7.850   4.096   2.476
12314SOL    HW237247   7.726   4.140   2.401
12315SOL     OW37248   0.814   6.498   4.052
12315SOL    HW137249   0.725   6.500   4.086
12315SOL    HW237250   0.843   6.408   4.067
12316SOL     OW37251   4.827   1.492   5.226
12316SOL    HW137252   4.795   1.469   5.139
12316SOL    HW237253   4.907   1.541   5.209
12317SOL     OW37254   3.147   7.742   5.253
12317SOL    HW137255   3.093   7.797   5.196
12317SOL    HW237256   3.100   7.659   5.259
12318SOL     OW37257   4.107   0.555   0.430
12318SOL    HW137258   4.193   0.550   0.389
12318SOL    HW237259   4.076   0.643   0.410
12319SOL     OW37260   4.555   7.777   5.615
12319SOL    HW137261   4.547   7.787   5.710
12319SOL    HW237262   4.649   7.767   5.600
12320SOL     OW37263   4.644   2.398   1.240
12320SOL    HW137264   4.723   2.403   1.186
12320SOL    HW237265   4.575   2.369   1.180
12321SOL     OW37266   3.321   3.715   4.446
12321SOL    HW137267   3.317   3.671   4.531
12321SOL    HW237268   3.258   3.786   4.454
12322SOL     OW37269   2.001   4.170   5.619
12322SOL    HW137270   1.972   4.247   5.668
12322SOL    HW237271   2.096   4.180   5.613
12323SOL     OW37272   8.187   3.683   2.437
12323SOL    HW137273   0.044   3.723   2.424
12323SOL    HW237274   8.139   3.746   2.492
12324SOL     OW37275   7.320   2.126   3.227
12324SOL    HW137276   7.414   2.140   3.216
12324SOL    HW237277   7.312   2.069   3.304
12325SOL     OW37278   3.789   4.449   2.100
12325SOL    HW137279   3.756   4.536   2.122
12325SOL    HW237280   3.715   4.391   2.115
12326SOL     OW37281   3.518   2.697   0.282
12326SOL    HW137282   3.427   2.721   0.263
12326SOL    HW237283   3.569   2.773   0.255
12327SOL     OW37284   4.139   6.518   0.103
12327SOL    HW137285   4.090   6.447   0.062
12327SOL    HW237286   4.072   6.571   0.147
12328SOL     OW37287   7.866   6.245   1.203
12328SOL    HW137288   7.796   6.227   1.140
12328SOL    HW237289   7.931   6.293   1.153
12329SOL     OW37290   7.594   7.040   2.057
12329SOL    HW137291   7.559   7.126   2.082
12329SOL    HW237292   7.532   6.977   2.095
12330SOL     OW37293   7.839   1.913   4.704
12330SOL    HW137294   7.775   1.847   4.677
12330SOL    HW237295   7.845   1.973   4.630
12331SOL     OW37296   1.014   1.281   5.056
12331SOL    HW137297   1.036   1.208   4.999
12331SOL    HW237298   0.958   1.337   5.003
12332SOL     OW37299   6.339   6.080   2.238
12332SOL    HW137300   6.357   6.075   2.332
12332SOL    HW237301   6.315   5.991   2.213
12333SOL     OW37302   3.751   5.310   5.686
12333SOL    HW137303   3.837   5.301   5.728
12333SOL    HW237304   3.742   5.231   5.633
12334SOL     OW37305   8.137   4.520   2.017
12334SOL    HW137306   8.168   4.558   1.935
12334SOL    HW237307   8.154   4.587   2.083
12335SOL     OW37308   4.920   4.025   4.052
12335SOL    HW137309   5.008   4.043   4.020
12335SOL    HW237310   4.929   3.946   4.106
12336SOL     OW37311   4.726   7.241   0.433
12336SOL    HW137312   4.632   7.260   0.429
12336SOL    HW237313   4.730   7.146   0.444
12337SOL     OW37314   2.566   1.681   3.718
12337SOL    HW137315   2.652   1.647   3.744
12337SOL    HW237316   2.532   1.615   3.658
12338SOL     OW37317   5.149   0.455   5.566
12338SOL    HW137318   5.205   0.381   5.589
12338SOL    HW237319   5.169   0.522   5.631
12339SOL     OW37320   0.023   6.986   0.080
12339SOL    HW137321   8.183   6.939   0.127
12339SOL    HW237322   0.026   7.072   0.123
12340SOL     OW37323   0.380   0.946   3.206
12340SOL    HW137324   0.340   1.003   3.141
12340SOL    HW237325   0.380   0.998   3.287
12341SOL     OW37326   0.352   4.567   4.014
12341SOL    HW137327   0.392   4.510   3.948
12341SOL    HW237328   0.373   4.525   4.097
12342SOL     OW37329   5.978   5.253   1.167
12342SOL    HW137330   6.034   5.325   1.139
12342SOL    HW237331   5.938   5.221   1.086
12343SOL     OW37332   4.253   0.836   3.431
12343SOL    HW137333   4.192   0.856   3.502
12343SOL    HW237334   4.333   0.883   3.454
12344SOL     OW37335   6.849   1.383   1.249
12344SOL    HW137336   6.904   1.390   1.171
12344SOL    HW237337   6.760   1.394   1.216
12345SOL     OW37338   5.839   6.062   1.185
12345SOL    HW137339   5.848   6.074   1.280
12345SOL    HW237340   5.750   6.028   1.173
12346SOL     OW37341   2.478   7.213   0.329
12346SOL    HW137342   2.509   7.182   0.244
12346SOL    HW237343   2.554   7.206   0.386
12347SOL     OW37344   6.997   4.422   0.689
12347SOL    HW137345   7.004   4.493   0.753
12347SOL    HW237346   6.948   4.354   0.734
12348SOL     OW37347   5.064   4.505   1.122
12348SOL    HW137348   5.150   4.525   1.086
12348SOL    HW237349   5.010   4.581   1.098
12349SOL     OW37350   3.433   7.672   4.627
12349SOL    HW137351   3.517   7.717   4.631
12349SOL    HW237352   3.394   7.685   4.713
12350SOL     OW37353   8.082   1.597   5.003
12350SOL    HW137354   8.120   1.540   4.936
12350SOL    HW237355   7.996   1.620   4.969
12351SOL     OW37356   7.433   2.619   2.726
12351SOL    HW137357   7.444   2.543   2.668
12351SOL    HW237358   7.478   2.594   2.807
12352SOL     OW37359   1.270   3.570   5.292
12352SOL    HW137360   1.243   3.639   5.232
12352SOL    HW237361   1.255   3.489   5.243
12353SOL     OW37362   7.404   6.790   1.264
12353SOL    HW137363   7.454   6.849   1.321
12353SOL    HW237364   7.463   6.716   1.249
12354SOL     OW37365   3.389   1.545   4.763
12354SOL    HW137366   3.398   1.634   4.797
12354SOL    HW237367   3.438   1.546   4.681
12355SOL     OW37368   6.194   7.894   0.180
12355SOL    HW137369   6.126   7.958   0.202
12355SOL    HW237370   6.276   7.943   0.186
12356SOL     OW37371   0.714   7.722   3.773
12356SOL    HW137372   0.623   7.693   3.778
12356SOL    HW237373   0.748   7.709   3.862
12357SOL     OW37374   1.534   7.557   0.653
12357SOL    HW137375   1.444   7.560   0.622
12357SOL    HW237376   1.568   7.474   0.620
12358SOL     OW37377   6.196   1.767   0.326
12358SOL    HW137378   6.167   1.858   0.323
12358SOL    HW237379   6.161   1.728   0.246
12359SOL     OW37380   1.483   0.321   3.261
12359SOL    HW137381   1.431   0.399   3.278
12359SOL    HW237382   1.545   0.348   3.193
12360SOL     OW37383   6.205   6.407   0.191
12360SOL    HW137384   6.178   6.463   0.118
12360SOL    HW237385   6.287   6.367   0.162
12361SOL     OW37386   2.465   0.938   2.417
12361SOL    HW137387   2.428   1.007   2.472
12361SOL    HW237388   2.389   0.896   2.377
12362SOL     OW37389   7.694   4.428   0.279
12362SOL    HW137390   7.724   4.420   0.369
12362SOL    HW237391   7.759   4.483   0.237
12363SOL     OW37392   4.966   8.160   2.526
12363SOL    HW137393   4.886   8.126   2.567
12363SOL    HW237394   4.965   0.025   2.544
12364SOL     OW37395   7.646   0.053   2.393
12364SOL    HW137396   7.674   0.056   2.484
12364SOL    HW237397   7.646   8.189   2.371
12365SOL     OW37398   4.990   2.497   3.529
12365SOL    HW137399   4.953   2.562   3.469
12365SOL    HW237400   4.924   2.488   3.598
12366SOL     OW37401   4.798   5.481   0.639
12366SOL    HW137402   4.860   5.446   0.703
12366SOL    HW237403   4.852   5.532   0.579
12367SOL     OW37404   3.054   2.262   5.069
12367SOL    HW137405   3.090   2.183   5.109
12367SOL    HW237406   3.035   2.236   4.979
12368SOL     OW37407   6.133   8.153   5.667
12368SOL    HW137408   6.136   8.126   5.575
12368SOL    HW237409   6.049   8.120   5.698
12369SOL     OW37410   0.824   0.564   1.788
12369SOL    HW137411   0.784   0.531   1.708
12369SOL    HW237412   0.881   0.635   1.759
12370SOL     OW37413   2.477   4.014   4.842
12370SOL    HW137414   2.516   3.957   4.908
12370SOL    HW237415   2.449   4.092   4.891
12371SOL     OW37416   0.495   6.320   3.318
12371SOL    HW137417   0.571   6.306   3.374
12371SOL    HW237418   0.421   6.286   3.369
12372SOL     OW37419   5.357   5.827   1.627
12372SOL    HW137420   5.429   5.809   1.566
12372SOL    HW237421   5.300   5.888   1.580
12373SOL     OW37422   2.516   1.775   1.128
12373SOL    HW137423   2.589   1.828   1.159
12373SOL    HW237424   2.440   1.833   1.134
12374SOL     OW37425   5.091   3.087   2.286
12374SOL    HW137426   4.996   3.086   2.299
12374SOL    HW237427   5.106   3.154   2.219
12375SOL     OW37428   4.055   0.160   4.990
12375SOL    HW137429   4.018   0.248   4.982
12375SOL    HW237430   3.983   0.102   4.968
12376SOL     OW37431   7.277   5.971   5.052
12376SOL    HW137432   7.224   5.902   5.092
12376SOL    HW237433   7.305   5.934   4.968
12377SOL     OW37434   0.653   1.162   3.132
12377SOL    HW137435   0.662   1.147   3.226
12377SOL    HW237436   0.560   1.149   3.114
12378SOL     OW37437   4.653   6.324   1.905
12378SOL    HW137438   4.612   6.277   1.832
12378SOL    HW237439   4.584   6.329   1.972
12379SOL     OW37440   2.275   1.916   1.169
12379SOL    HW137441   2.298   1.978   1.238
12379SOL    HW237442   2.227   1.846   1.214
12380SOL     OW37443   1.611   6.104   1.618
12380SOL    HW137444   1.568   6.120   1.702
12380SOL    HW237445   1.656   6.186   1.599
12381SOL     OW37446   2.264   7.339   0.721
12381SOL    HW137447   2.240   7.366   0.632
12381SOL    HW237448   2.230   7.250   0.729
12382SOL     OW37449   7.550   2.980   1.281
12382SOL    HW137450   7.598   3.001   1.201
12382SOL    HW237451   7.470   2.937   1.251
12383SOL     OW37452   4.166   0.951   4.444
12383SOL    HW137453   4.148   0.860   4.466
12383SOL    HW237454   4.229   0.980   4.510
12384SOL     OW37455   3.247   3.402   0.696
12384SOL    HW137456   3.287   3.324   0.657
12384SOL    HW237457   3.153   3.384   0.693
12385SOL     OW37458   1.003   5.839   3.356
12385SOL    HW137459   0.938   5.845   3.286
12385SOL    HW237460   1.024   5.746   3.360
12386SOL     OW37461   4.347   1.421   2.125
12386SOL    HW137462   4.377   1.352   2.184
12386SOL    HW237463   4.296   1.375   2.058
12387SOL     OW37464   3.831   4.296   3.782
12387SOL    HW137465   3.882   4.278   3.703
12387SOL    HW237466   3.881   4.363   3.828
12388SOL     OW37467   7.432   3.083   4.516
12388SOL    HW137468   7.400   3.003   4.557
12388SOL    HW237469   7.408   3.074   4.424
12389SOL     OW37470   7.067   3.278   3.308
12389SOL    HW137471   7.137   3.264   3.372
12389SOL    HW237472   7.035   3.366   3.327
12390SOL     OW37473   6.150   3.431   1.084
12390SOL    HW137474   6.223   3.406   1.140
12390SOL    HW237475   6.078   3.447   1.145
12391SOL     OW37476   4.758   1.306   0.028
12391SOL    HW137477   0.685   5.436   5.762
12391SOL    HW237478   4.829   1.274   0.084
12392SOL     OW37479   0.682   7.308   2.543
12392SOL    HW137480   0.595   7.337   2.570
12392SOL    HW237481   0.699   7.354   2.461
12393SOL     OW37482   6.284   6.718   2.138
12393SOL    HW137483   6.300   6.809   2.111
12393SOL    HW237484   6.300   6.667   2.059
12394SOL     OW37485   1.987   0.101   1.133
12394SOL    HW137486   1.967   0.076   1.043
12394SOL    HW237487   1.916   0.159   1.158
12395SOL     OW37488   0.447   3.236   3.369
12395SOL    HW137489   0.486   3.155   3.401
12395SOL    HW237490   0.519   3.298   3.367
12396SOL     OW37491   1.591   2.020   0.611
12396SOL    HW137492   1.601   2.031   0.516
12396SOL    HW237493   1.678   1.995   0.642
12397SOL     OW37494   2.798   7.848   0.488
12397SOL    HW137495   2.891   7.828   0.476
12397SOL    HW237496   2.768   7.875   0.401
12398SOL     OW37497   6.685   2.832   1.319
12398SOL    HW137498   6.612   2.865   1.372
12398SOL    HW237499   6.643   2.789   1.245
12399SOL     OW37500   1.246   3.013   0.783
12399SOL    HW137501   1.191   2.987   0.857
12399SOL    HW237502   1.329   3.039   0.823
12400SOL     OW37503   4.665   5.693   2.101
12400SOL    HW137504   4.726   5.639   2.152
12400SOL    HW237505   4.714   5.717   2.022
12401SOL     OW37506   1.576   2.820   1.970
12401SOL    HW137507   1.643   2.876   2.008
12401SOL    HW237508   1.515   2.804   2.042
12402SOL     OW37509   5.538   3.063   1.058
12402SOL    HW137510   5.470   3.095   1.117
12402SOL    HW237511   5.549   2.971   1.081
12403SOL     OW37512   3.769   4.107   3.495
12403SOL    HW137513   3.829   4.079   3.426
12403SOL    HW237514   3.709   4.167   3.452
12404SOL     OW37515   0.638   4.325   5.732
12404SOL    HW137516   0.700   4.307   5.802
12404SOL    HW237517   0.676   4.282   5.655
12405SOL     OW37518   6.525   0.410   2.747
12405SOL    HW137519   6.517   0.340   2.682
12405SOL    HW237520   6.569   0.368   2.821
12406SOL     OW37521   4.638   3.305   3.669
12406SOL    HW137522   4.594   3.389   3.654
12406SOL    HW237523   4.594   3.243   3.611
12407SOL     OW37524   3.498   0.154   2.031
12407SOL    HW137525   3.439   0.180   2.102
12407SOL    HW237526   3.482   0.218   1.961
12408SOL     OW37527   2.471   5.872   3.123
12408SOL    HW137528   2.493   5.794   3.072
12408SOL    HW237529   2.556   5.911   3.146
12409SOL     OW37530   6.468   6.906   5.519
12409SOL    HW137531   6.404   6.952   5.573
12409SOL    HW237532   6.419   6.877   5.442
12410SOL     OW37533   3.302   6.032   4.944
12410SOL    HW137534   3.379   6.020   5.000
12410SOL    HW237535   3.328   5.997   4.859
12411SOL     OW37536   7.594   7.662   2.879
12411SOL    HW137537   7.619   7.657   2.971
12411SOL    HW237538   7.645   7.594   2.836
12412SOL     OW37539   6.440   1.877   1.428
12412SOL    HW137540   6.403   1.951   1.381
12412SOL    HW237541   6.386   1.868   1.506
12413SOL     OW37542   3.924   7.581   2.025
12413SOL    HW137543   4.010   7.619   2.009
12413SOL    HW237544   3.917   7.579   2.120
12414SOL     OW37545   1.672   7.633   5.645
12414SOL    HW137546   1.742   7.698   5.651
12414SOL    HW237547   1.617   7.664   5.573
12415SOL     OW37548   5.753   4.731   5.511
12415SOL    HW137549   5.770   4.667   5.441
12415SOL    HW237550   5.791   4.813   5.479
12416SOL     OW37551   3.426   6.520   0.340
12416SOL    HW137552   3.474   6.461   0.281
12416SOL    HW237553   3.338   6.525   0.302
12417SOL     OW37554   5.618   1.500   4.788
12417SOL    HW137555   5.599   1.492   4.694
12417SOL    HW237556   5.548   1.557   4.821
12418SOL     OW37557   4.873   3.329   0.521
12418SOL    HW137558   4.912   3.365   0.441
12418SOL    HW237559   4.813   3.261   0.490
12419SOL     OW37560   0.010   5.974   4.177
12419SOL    HW137561   0.001   6.049   4.236
12419SOL    HW237562   0.037   6.012   4.093
12420SOL     OW37563   3.910   0.656   2.134
12420SOL    HW137564   3.913   0.611   2.219
12420SOL    HW237565   3.835   0.618   2.089
12421SOL     OW37566   6.562   5.539   1.810
12421SOL    HW137567   6.573   5.599   1.884
12421SOL    HW237568   6.562   5.596   1.733
12422SOL     OW37569   6.787   6.471   0.041
12422SOL    HW137570   2.718   2.337   5.778
12422SOL    HW237571   6.719   6.404   0.047
12423SOL     OW37572   7.147   5.393   5.278
12423SOL    HW137573   7.198   5.313   5.294
12423SOL    HW237574   7.210   5.464   5.289
12424SOL     OW37575   7.518   0.887   4.582
12424SOL    HW137576   7.429   0.852   4.575
12424SOL    HW237577   7.508   0.971   4.626
12425SOL     OW37578   6.356   1.558   3.730
12425SOL    HW137579   6.391   1.474   3.701
12425SOL    HW237580   6.306   1.590   3.655
12426SOL     OW37581   8.073   1.295   2.063
12426SOL    HW137582   8.031   1.362   2.117
12426SOL    HW237583   8.038   1.212   2.096
12427SOL     OW37584   2.825   5.935   3.460
12427SOL    HW137585   2.842   5.979   3.543
12427SOL    HW237586   2.765   5.864   3.482
12428SOL     OW37587   7.278   0.671   0.675
12428SOL    HW137588   7.330   0.593   0.696
12428SOL    HW237589   7.325   0.743   0.717
12429SOL     OW37590   3.776   1.666   0.134
12429SOL    HW137591   3.704   1.668   0.071
12429SOL    HW237592   3.843   1.723   0.096
12430SOL     OW37593   3.295   1.953   3.584
12430SOL    HW137594   3.310   2.044   3.611
12430SOL    HW237595   3.202   1.938   3.601
12431SOL     OW37596   6.621   7.352   0.598
12431SOL    HW137597   6.568   7.274   0.615
12431SOL    HW237598   6.700   7.318   0.556
12432SOL     OW37599   4.503   3.398   4.885
12432SOL    HW137600   4.513   3.316   4.837
12432SOL    HW237601   4.451   3.454   4.827
12433SOL     OW37602   5.154   5.988   3.615
12433SOL    HW137603   5.082   6.032   3.570
12433SOL    HW237604   5.121   5.899   3.631
12434SOL     OW37605   2.564   6.830   1.076
12434SOL    HW137606   2.517   6.763   1.026
12434SOL    HW237607   2.578   6.901   1.013
12435SOL     OW37608   4.413   2.595   5.574
12435SOL    HW137609   4.396   2.652   5.499
12435SOL    HW237610   4.437   2.511   5.536
12436SOL     OW37611   4.868   1.571   1.109
12436SOL    HW137612   4.839   1.659   1.085
12436SOL    HW237613   4.876   1.525   1.026
12437SOL     OW37614   5.742   4.520   2.349
12437SOL    HW137615   5.750   4.614   2.334
12437SOL    HW237616   5.763   4.480   2.265
12438SOL     OW37617   1.882   7.390   2.867
12438SOL    HW137618   1.912   7.309   2.907
12438SOL    HW237619   1.957   7.421   2.816
12439SOL     OW37620   2.982   6.672   1.279
12439SOL    HW137621   2.903   6.722   1.299
12439SOL    HW237622   2.982   6.665   1.183
12440SOL     OW37623   1.744   5.750   1.117
12440SOL    HW137624   1.762   5.661   1.146
12440SOL    HW237625   1.658   5.745   1.075
12441SOL     OW37626   2.041   5.595   5.007
12441SOL    HW137627   2.085   5.528   5.060
12441SOL    HW237628   1.955   5.605   5.047
12442SOL     OW37629   6.153   5.707   5.261
12442SOL    HW137630   6.244   5.721   5.235
12442SOL    HW237631   6.138   5.771   5.331
12443SOL     OW37632   6.375   4.821   0.053
12443SOL    HW137633   6.352   4.729   0.042
12443SOL    HW237634   6.471   4.822   0.048
12444SOL     OW37635   4.118   1.573   1.177
12444SOL    HW137636   4.116   1.523   1.095
12444SOL    HW237637   4.197   1.626   1.171
12445SOL     OW37638   0.572   1.131   4.165
12445SOL    HW137639   0.593   1.049   4.121
12445SOL    HW237640   0.513   1.106   4.236
12446SOL     OW37641   1.932   6.577   4.581
12446SOL    HW137642   1.921   6.536   4.495
12446SOL    HW237643   1.996   6.522   4.626
12447SOL     OW37644   0.546   2.585   4.655
12447SOL    HW137645   0.539   2.608   4.748
12447SOL    HW237646   0.535   2.668   4.609
12448SOL     OW37647   6.065   6.025   4.191
12448SOL    HW137648   6.043   6.082   4.117
12448SOL    HW237649   6.059   6.081   4.268
12449SOL     OW37650   5.550   2.921   1.825
12449SOL    HW137651   5.585   2.897   1.739
12449SOL    HW237652   5.530   2.837   1.867
12450SOL     OW37653   4.327   8.080   2.052
12450SOL    HW137654   4.394   8.018   2.082
12450SOL    HW237655   4.364   8.118   1.972
12451SOL     OW37656   4.800   7.842   5.112
12451SOL    HW137657   4.778   7.822   5.021
12451SOL    HW237658   4.830   7.933   5.111
12452SOL     OW37659   0.287   5.409   2.333
12452SOL    HW137660   0.273   5.481   2.394
12452SOL    HW237661   0.324   5.450   2.255
12453SOL     OW37662   8.177   6.946   2.354
12453SOL    HW137663   8.173   7.026   2.407
12453SOL    HW237664   8.205   6.976   2.268
12454SOL     OW37665   5.628   6.635   0.559
12454SOL    HW137666   5.656   6.726   0.564
12454SOL    HW237667   5.697   6.592   0.508
12455SOL     OW37668   1.470   4.639   1.283
12455SOL    HW137669   1.482   4.544   1.280
12455SOL    HW237670   1.558   4.674   1.299
12456SOL     OW37671   4.909   0.991   5.705
12456SOL    HW137672   4.979   0.965   5.765
12456SOL    HW237673   4.954   1.036   5.633
12457SOL     OW37674   6.433   7.554   3.421
12457SOL    HW137675   6.439   7.649   3.413
12457SOL    HW237676   6.383   7.540   3.501
12458SOL     OW37677   1.166   2.901   4.910
12458SOL    HW137678   1.086   2.929   4.866
12458SOL    HW237679   1.217   2.858   4.842
12459SOL     OW37680   2.347   4.732   5.354
12459SOL    HW137681   2.365   4.656   5.299
12459SOL    HW237682   2.323   4.801   5.292
12460SOL     OW37683   4.366   6.608   4.614
12460SOL    HW137684   4.352   6.515   4.596
12460SOL    HW237685   4.457   6.625   4.588
12461SOL     OW37686   0.812   7.134   2.295
12461SOL    HW137687   0.866   7.058   2.318
12461SOL    HW237688   0.860   7.209   2.330
12462SOL     OW37689   5.592   6.516   1.559
12462SOL    HW137690   5.532   6.557   1.496
12462SOL    HW237691   5.535   6.481   1.627
12463SOL     OW37692   7.059   4.972   2.865
12463SOL    HW137693   7.074   5.050   2.919
12463SOL    HW237694   7.046   5.006   2.776
12464SOL     OW37695   0.305   2.476   0.844
12464SOL    HW137696   0.368   2.434   0.903
12464SOL    HW237697   0.267   2.404   0.793
12465SOL     OW37698   3.420   1.022   0.486
12465SOL    HW137699   3.411   0.928   0.473
12465SOL    HW237700   3.500   1.046   0.439
12466SOL     OW37701   1.432   5.290   1.866
12466SOL    HW137702   1.455   5.214   1.812
12466SOL    HW237703   1.399   5.355   1.803
12467SOL     OW37704   7.787   5.663   4.535
12467SOL    HW137705   7.738   5.741   4.563
12467SOL    HW237706   7.804   5.678   4.442
12468SOL     OW37707   7.672   5.726   3.360
12468SOL    HW137708   7.689   5.818   3.338
12468SOL    HW237709   7.616   5.729   3.437
12469SOL     OW37710   4.363   7.605   4.952
12469SOL    HW137711   4.278   7.599   4.908
12469SOL    HW237712   4.345   7.652   5.033
12470SOL     OW37713   1.544   2.122   3.593
12470SOL    HW137714   1.451   2.144   3.596
12470SOL    HW237715   1.557   2.081   3.508
12471SOL     OW37716   6.590   4.926   2.515
12471SOL    HW137717   6.624   4.958   2.599
12471SOL    HW237718   6.564   5.005   2.468
12472SOL     OW37719   3.898   4.353   0.969
12472SOL    HW137720   3.881   4.331   1.061
12472SOL    HW237721   3.811   4.354   0.929
12473SOL     OW37722   5.163   7.596   3.980
12473SOL    HW137723   5.195   7.661   4.043
12473SOL    HW237724   5.108   7.537   4.031
12474SOL     OW37725   7.254   1.252   4.324
12474SOL    HW137726   7.208   1.320   4.274
12474SOL    HW237727   7.268   1.182   4.261
12475SOL     OW37728   4.790   4.537   0.650
12475SOL    HW137729   4.818   4.505   0.564
12475SOL    HW237730   4.694   4.535   0.646
12476SOL     OW37731   4.865   4.584   2.731
12476SOL    HW137732   4.807   4.525   2.683
12476SOL    HW237733   4.807   4.651   2.767
12477SOL     OW37734   4.105   0.830   1.550
12477SOL    HW137735   4.116   0.922   1.527
12477SOL    HW237736   4.047   0.831   1.626
12478SOL     OW37737   6.327   1.765   5.701
12478SOL    HW137738   6.353   1.815   5.778
12478SOL    HW237739   6.387   1.690   5.700
12479SOL     OW37740   0.825   7.961   2.292
12479SOL    HW137741   0.771   7.952   2.214
12479SOL    HW237742   0.808   7.881   2.342
12480SOL     OW37743   3.536   4.830   3.981
12480SOL    HW137744   3.587   4.749   3.978
12480SOL    HW237745   3.549   4.864   4.069
12481SOL     OW37746   2.103   1.397   1.357
12481SOL    HW137747   2.159   1.474   1.355
12481SOL    HW237748   2.163   1.324   1.375
12482SOL     OW37749   5.154   3.819   1.162
12482SOL    HW137750   5.235   3.784   1.198
12482SOL    HW237751   5.124   3.883   1.227
12483SOL     OW37752   8.082   7.552   3.033
12483SOL    HW137753   8.073   7.631   3.086
12483SOL    HW237754   8.165   7.513   3.060
12484SOL     OW37755   5.087   4.293   5.340
12484SOL    HW137756   5.150   4.345   5.291
12484SOL    HW237757   5.078   4.339   5.424
12485SOL     OW37758   7.598   2.375   1.589
12485SOL    HW137759   7.622   2.291   1.549
12485SOL    HW237760   7.680   2.424   1.593
12486SOL     OW37761   4.667   7.563   5.353
12486SOL    HW137762   4.626   7.523   5.430
12486SOL    HW237763   4.605   7.631   5.326
12487SOL     OW37764   1.656   8.124   0.709
12487SOL    HW137765   1.669   8.029   0.703
12487SOL    HW237766   1.688   8.158   0.626
12488SOL     OW37767   2.088   4.257   1.819
12488SOL    HW137768   2.100   4.209   1.901
12488SOL    HW237769   2.083   4.349   1.845
12489SOL     OW37770   5.246   2.859   3.107
12489SOL    HW137771   5.327   2.832   3.151
12489SOL    HW237772   5.190   2.782   3.111
12490SOL     OW37773   3.243   1.085   2.371
12490SOL    HW137774   3.163   1.131   2.396
12490SOL    HW237775   3.224   1.050   2.284
12491SOL     OW37776   8.008   1.922   4.942
12491SOL    HW137777   8.019   1.886   5.030
12491SOL    HW237778   7.947   1.862   4.899
12492SOL     OW37779   1.719   3.810   1.557
12492SOL    HW137780   1.678   3.863   1.626
12492SOL    HW237781   1.811   3.837   1.558
12493SOL     OW37782   5.627   5.012   4.922
12493SOL    HW137783   5.665   5.022   4.835
12493SOL    HW237784   5.574   5.091   4.935
12494SOL     OW37785   0.336   7.011   1.757
12494SOL    HW137786   0.388   7.086   1.786
12494SOL    HW237787   0.341   7.015   1.661
12495SOL     OW37788   7.009   0.111   5.332
12495SOL    HW137789   7.000   0.124   5.426
12495SOL    HW237790   7.068   0.181   5.304
12496SOL     OW37791   7.238   0.828   4.658
12496SOL    HW137792   7.209   0.885   4.729
12496SOL    HW237793   7.222   0.739   4.691
12497SOL     OW37794   6.764   1.619   5.731
12497SOL    HW137795   6.757   1.567   5.651
12497SOL    HW237796   6.707   1.694   5.717
12498SOL     OW37797   3.502   2.937   4.424
12498SOL    HW137798   3.490   2.865   4.486
12498SOL    HW237799   3.469   2.902   4.341
12499SOL     OW37800   2.650   3.305   3.018
12499SOL    HW137801   2.599   3.264   2.949
12499SOL    HW237802   2.585   3.343   3.077
12500SOL     OW37803   2.237   7.998   1.416
12500SOL    HW137804   2.289   8.020   1.493
12500SOL    HW237805   2.211   8.082   1.379
12501SOL     OW37806   7.148   1.631   4.856
12501SOL    HW137807   7.240   1.647   4.837
12501SOL    HW237808   7.104   1.641   4.772
12502SOL     OW37809   6.738   2.041   4.025
12502SOL    HW137810   6.657   1.993   4.007
12502SOL    HW237811   6.709   2.117   4.075
12503SOL     OW37812   4.236   7.054   4.834
12503SOL    HW137813   4.238   7.110   4.912
12503SOL    HW237814   4.219   6.966   4.868
12504SOL     OW37815   1.518   6.255   2.262
12504SOL    HW137816   1.607   6.225   2.280
12504SOL    HW237817   1.485   6.194   2.196
12505SOL     OW37818   6.330   6.077   2.997
12505SOL    HW137819   6.409   6.072   2.943
12505SOL    HW237820   6.354   6.034   3.079
12506SOL     OW37821   1.969   0.040   0.055
12506SOL    HW137822   1.936   0.115   0.104
12506SOL    HW237823   1.929   8.194   0.098
12507SOL     OW37824   6.290   6.029   2.728
12507SOL    HW137825   6.379   6.057   2.750
12507SOL    HW237826   6.243   6.032   2.811
12508SOL     OW37827   3.585   7.193   5.073
12508SOL    HW137828   3.565   7.099   5.071
12508SOL    HW237829   3.506   7.234   5.108
12509SOL     OW37830   2.962   2.654   4.860
12509SOL    HW137831   2.929   2.744   4.867
12509SOL    HW237832   2.884   2.601   4.843
12510SOL     OW37833   5.280   4.533   3.796
12510SOL    HW137834   5.278   4.458   3.737
12510SOL    HW237835   5.210   4.590   3.764
12511SOL     OW37836   4.111   3.392   0.447
12511SOL    HW137837   4.108   3.434   0.533
12511SOL    HW237838   4.040   3.433   0.397
12512SOL     OW37839   5.209   5.013   5.222
12512SOL    HW137840   5.197   4.946   5.154
12512SOL    HW237841   5.273   5.074   5.184
12513SOL     OW37842   5.428   6.455   3.010
12513SOL    HW137843   5.334   6.472   3.008
12513SOL    HW237844   5.450   6.430   2.920
12514SOL     OW37845   1.066   0.621   0.031
12514SOL    HW137846   5.253   4.696   5.802
12514SOL    HW237847   1.074   0.587   0.120
12515SOL     OW37848   3.440   4.820   5.067
12515SOL    HW137849   3.361   4.869   5.087
12515SOL    HW237850   3.427   4.790   4.977
12516SOL     OW37851   5.215   5.408   1.680
12516SOL    HW137852   5.268   5.480   1.715
12516SOL    HW237853   5.160   5.381   1.754
12517SOL     OW37854   7.852   3.017   3.204
12517SOL    HW137855   7.891   2.981   3.283
12517SOL    HW237856   7.923   3.065   3.161
12518SOL     OW37857   4.845   2.297   1.655
12518SOL    HW137858   4.823   2.388   1.634
12518SOL    HW237859   4.920   2.304   1.714
12519SOL     OW37860   4.947   6.487   0.644
12519SOL    HW137861   5.016   6.430   0.610
12519SOL    HW237862   4.984   6.526   0.723
12520SOL     OW37863   4.225   3.354   1.090
12520SOL    HW137864   4.193   3.434   1.131
12520SOL    HW237865   4.320   3.362   1.094
12521SOL     OW37866   7.330   2.445   5.264
12521SOL    HW137867   7.279   2.507   5.316
12521SOL    HW237868   7.265   2.396   5.214
12522SOL     OW37869   8.180   3.946   5.336
12522SOL    HW137870   0.044   3.929   5.345
12522SOL    HW237871   8.147   3.872   5.284
12523SOL     OW37872   2.180   1.457   0.995
12523SOL    HW137873   2.142   1.370   0.982
12523SOL    HW237874   2.194   1.490   0.906
12524SOL     OW37875   6.533   0.968   0.124
12524SOL    HW137876   6.560   0.907   0.055
12524SOL    HW237877   6.563   1.054   0.093
12525SOL     OW37878   6.610   8.010   2.750
12525SOL    HW137879   6.600   8.006   2.845
12525SOL    HW237880   6.657   8.092   2.735
12526SOL     OW37881   7.416   8.218   5.554
12526SOL    HW137882   7.368   0.060   5.596
12526SOL    HW237883   7.403   0.002   5.460
12527SOL     OW37884   2.548   6.555   4.098
12527SOL    HW137885   2.562   6.460   4.098
12527SOL    HW237886   2.544   6.579   4.191
12528SOL     OW37887   4.445   6.988   1.786
12528SOL    HW137888   4.468   7.069   1.740
12528SOL    HW237889   4.422   6.927   1.716
12529SOL     OW37890   2.310   2.236   1.579
12529SOL    HW137891   2.266   2.320   1.593
12529SOL    HW237892   2.400   2.250   1.608
12530SOL     OW37893   7.565   6.775   3.580
12530SOL    HW137894   7.525   6.861   3.595
12530SOL    HW237895   7.599   6.749   3.666
12531SOL     OW37896   2.508   3.242   0.874
12531SOL    HW137897   2.421   3.202   0.880
12531SOL    HW237898   2.492   3.336   0.880
12532SOL     OW37899   0.280   1.989   3.811
12532SOL    HW137900   0.309   2.028   3.894
12532SOL    HW237901   0.254   2.064   3.758
12533SOL     OW37902   5.552   7.319   0.608
12533SOL    HW137903   5.570   7.229   0.582
12533SOL    HW237904   5.501   7.355   0.535
12534SOL     OW37905   5.812   0.839   0.970
12534SOL    HW137906   5.857   0.755   0.969
12534SOL    HW237907   5.779   0.850   0.881
12535SOL     OW37908   3.162   4.035   0.441
12535SOL    HW137909   3.135   4.001   0.526
12535SOL    HW237910   3.215   4.112   0.462
12536SOL     OW37911   1.851   6.500   1.359
12536SOL    HW137912   1.892   6.529   1.441
12536SOL    HW237913   1.824   6.410   1.377
12537SOL     OW37914   4.795   6.215   5.392
12537SOL    HW137915   4.816   6.292   5.445
12537SOL    HW237916   4.803   6.141   5.452
12538SOL     OW37917   5.868   6.991   4.333
12538SOL    HW137918   5.824   6.948   4.260
12538SOL    HW237919   5.797   7.019   4.391
12539SOL     OW37920   2.107   3.476   4.595
12539SOL    HW137921   2.148   3.458   4.680
12539SOL    HW237922   2.135   3.565   4.574
12540SOL     OW37923   5.087   1.834   3.225
12540SOL    HW137924   5.031   1.897   3.180
12540SOL    HW237925   5.095   1.868   3.314
12541SOL     OW37926   1.738   0.488   1.282
12541SOL    HW137927   1.720   0.494   1.376
12541SOL    HW237928   1.656   0.514   1.240
12542SOL     OW37929   4.423   1.558   5.292
12542SOL    HW137930   4.398   1.554   5.200
12542SOL    HW237931   4.480   1.635   5.298
12543SOL     OW37932   7.364   6.188   1.857
12543SOL    HW137933   7.320   6.270   1.836
12543SOL    HW237934   7.436   6.214   1.914
12544SOL     OW37935   7.747   3.234   0.494
12544SOL    HW137936   7.657   3.241   0.524
12544SOL    HW237937   7.781   3.155   0.535
12545SOL     OW37938   2.134   5.813   4.364
12545SOL    HW137939   2.142   5.720   4.385
12545SOL    HW237940   2.166   5.858   4.442
12546SOL     OW37941   0.086   3.043   4.396
12546SOL    HW137942   0.103   2.953   4.422
12546SOL    HW237943   0.068   3.089   4.478
12547SOL     OW37944   3.892   1.470   4.125
12547SOL    HW137945   3.899   1.378   4.100
12547SOL    HW237946   3.803   1.479   4.159
12548SOL     OW37947   1.892   4.592   0.665
12548SOL    HW137948   1.807   4.632   0.648
12548SOL    HW237949   1.872   4.517   0.721
12549SOL     OW37950   1.086   5.429   1.479
12549SOL    HW137951   0.997   5.403   1.455
12549SOL    HW237952   1.100   5.512   1.433
12550SOL     OW37953   3.661   5.233   2.700
12550SOL    HW137954   3.628   5.208   2.614
12550SOL    HW237955   3.710   5.314   2.684
12551SOL     OW37956   5.076   0.908   4.589
12551SOL    HW137957   5.115   0.908   4.677
12551SOL    HW237958   5.139   0.860   4.535
12552SOL     OW37959   4.726   0.582   5.392
12552SOL    HW137960   4.681   0.534   5.461
12552SOL    HW237961   4.809   0.535   5.381
12553SOL     OW37962   4.320   6.404   5.174
12553SOL    HW137963   4.364   6.460   5.109
12553SOL    HW237964   4.385   6.392   5.243
12554SOL     OW37965   2.583   1.233   0.110
12554SOL    HW137966   2.581   1.324   0.139
12554SOL    HW237967   2.495   1.200   0.129
12555SOL     OW37968   6.241   3.800   3.114
12555SOL    HW137969   6.159   3.754   3.133
12555SOL    HW237970   6.215   3.890   3.095
12556SOL     OW37971   2.087   6.408   3.234
12556SOL    HW137972   2.042   6.341   3.183
12556SOL    HW237973   2.177   6.406   3.201
12557SOL     OW37974   7.425   4.758   5.414
12557SOL    HW137975   7.331   4.739   5.410
12557SOL    HW237976   7.462   4.718   5.335
12558SOL     OW37977   7.736   4.651   2.240
12558SOL    HW137978   7.727   4.572   2.294
12558SOL    HW237979   7.780   4.621   2.161
12559SOL     OW37980   6.492   5.968   3.631
12559SOL    HW137981   6.432   5.914   3.683
12559SOL    HW237982   6.458   6.057   3.639
12560SOL     OW37983   5.009   7.500   3.398
12560SOL    HW137984   4.954   7.516   3.475
12560SOL    HW237985   5.070   7.573   3.397
12561SOL     OW37986   1.023   8.175   1.307
12561SOL    HW137987   1.071   8.161   1.225
12561SOL    HW237988   1.088   8.158   1.376
12562SOL     OW37989   2.257   1.145   0.819
12562SOL    HW137990   2.341   1.173   0.855
12562SOL    HW237991   2.198   1.144   0.894
12563SOL     OW37992   1.721   7.834   0.707
12563SOL    HW137993   1.778   7.838   0.783
12563SOL    HW237994   1.669   7.754   0.720
12564SOL     OW37995   5.643   6.090   1.935
12564SOL    HW137996   5.681   6.155   1.876
12564SOL    HW237997   5.641   6.134   2.020
12565SOL     OW37998   4.919   3.558   4.402
12565SOL    HW137999   4.890   3.589   4.316
12565SOL    HW238000   5.004   3.601   4.416
12566SOL     OW38001   0.633   6.601   5.293
12566SOL    HW138002   0.604   6.692   5.300
12566SOL    HW238003   0.643   6.586   5.199
12567SOL     OW38004   4.725   1.617   3.849
12567SOL    HW138005   4.712   1.674   3.773
12567SOL    HW238006   4.763   1.537   3.813
12568SOL     OW38007   2.122   3.177   1.305
12568SOL    HW138008   2.204   3.211   1.269
12568SOL    HW238009   2.072   3.149   1.229
12569SOL     OW38010   5.648   5.009   3.414
12569SOL    HW138011   5.602   5.091   3.395
12569SOL    HW238012   5.724   5.010   3.356
12570SOL     OW38013   7.364   6.120   0.343
12570SOL    HW138014   7.361   6.179   0.267
12570SOL    HW238015   7.440   6.064   0.327
12571SOL     OW38016   1.532   5.098   0.937
12571SOL    HW138017   1.531   5.147   0.855
12571SOL    HW238018   1.620   5.112   0.972
12572SOL     OW38019   6.608   0.132   1.973
12572SOL    HW138020   6.572   0.218   1.950
12572SOL    HW238021   6.649   0.146   2.058
12573SOL     OW38022   7.195   4.825   4.443
12573SOL    HW138023   7.205   4.784   4.529
12573SOL    HW238024   7.266   4.889   4.438
12574SOL     OW38025   1.267   1.587   3.945
12574SOL    HW138026   1.329   1.624   3.881
12574SOL    HW238027   1.181   1.610   3.911
12575SOL     OW38028   0.861   1.149   5.539
12575SOL    HW138029   0.840   1.094   5.614
12575SOL    HW238030   0.908   1.224   5.576
12576SOL     OW38031   0.794   2.854   1.374
12576SOL    HW138032   0.874   2.835   1.325
12576SOL    HW238033   0.785   2.780   1.434
12577SOL     OW38034   1.665   4.326   1.125
12577SOL    HW138035   1.718   4.404   1.111
12577SOL    HW238036   1.670   4.310   1.219
12578SOL     OW38037   1.407   8.113   0.471
12578SOL    HW138038   1.403   8.149   0.559
12578SOL    HW238039   1.500   8.113   0.449
12579SOL     OW38040   2.760   6.745   5.525
12579SOL    HW138041   2.852   6.734   5.547
12579SOL    HW238042   2.714   6.686   5.585
12580SOL     OW38043   3.809   4.556   3.164
12580SOL    HW138044   3.876   4.615   3.198
12580SOL    HW238045   3.787   4.592   3.078
12581SOL     OW38046   3.071   7.920   1.754
12581SOL    HW138047   3.158   7.881   1.746
12581SOL    HW238048   3.043   7.935   1.664
12582SOL     OW38049   6.746   0.609   4.201
12582SOL    HW138050   6.786   0.595   4.115
12582SOL    HW238051   6.658   0.640   4.181
12583SOL     OW38052   5.707   7.117   0.344
12583SOL    HW138053   5.615   7.119   0.371
12583SOL    HW238054   5.704   7.108   0.249
12584SOL     OW38055   0.368   5.711   5.401
12584SOL    HW138056   0.427   5.775   5.440
12584SOL    HW238057   0.420   5.670   5.332
12585SOL     OW38058   1.521   7.446   2.780
12585SOL    HW138059   1.520   7.379   2.849
12585SOL    HW238060   1.586   7.510   2.810
12586SOL     OW38061   5.034   7.667   2.563
12586SOL    HW138062   5.072   7.754   2.554
12586SOL    HW238063   5.088   7.624   2.629
12587SOL     OW38064   0.484   5.546   0.340
12587SOL    HW138065   0.450   5.634   0.323
12587SOL    HW238066   0.507   5.546   0.433
12588SOL     OW38067   3.924   0.434   5.368
12588SOL    HW138068   3.888   0.517   5.338
12588SOL    HW238069   4.018   0.451   5.378
12589SOL     OW38070   7.396   3.631   3.009
12589SOL    HW138071   7.455   3.620   2.934
12589SOL    HW238072   7.340   3.705   2.985
12590SOL     OW38073   8.217   1.514   1.090
12590SOL    HW138074   0.028   1.600   1.077
12590SOL    HW238075   0.017   1.486   1.177
12591SOL     OW38076   4.565   7.415   4.922
12591SOL    HW138077   4.487   7.463   4.950
12591SOL    HW238078   4.582   7.353   4.993
12592SOL     OW38079   5.904   0.959   5.413
12592SOL    HW138080   5.949   1.003   5.485
12592SOL    HW238081   5.838   1.022   5.384
12593SOL     OW38082   1.272   6.700   5.306
12593SOL    HW138083   1.265   6.691   5.211
12593SOL    HW238084   1.343   6.762   5.319
12594SOL     OW38085   2.745   3.074   3.174
12594SOL    HW138086   2.725   3.154   3.126
12594SOL    HW238087   2.802   3.102   3.245
12595SOL     OW38088   1.468   1.383   3.654
12595SOL    HW138089   1.406   1.311   3.640
12595SOL    HW238090   1.440   1.450   3.592
12596SOL     OW38091   2.766   0.339   1.027
12596SOL    HW138092   2.802   0.302   1.108
12596SOL    HW238093   2.680   0.372   1.052
12597SOL     OW38094   1.018   6.270   0.441
12597SOL    HW138095   0.977   6.356   0.429
12597SOL    HW238096   1.029   6.261   0.536
12598SOL     OW38097   2.114   4.025   2.073
12598SOL    HW138098   2.084   3.935   2.088
12598SOL    HW238099   2.076   4.076   2.144
12599SOL     OW38100   0.814   4.625   2.544
12599SOL    HW138101   0.747   4.569   2.583
12599SOL    HW238102   0.865   4.566   2.488
12600SOL     OW38103   0.474   4.750   2.268
12600SOL    HW138104   0.520   4.804   2.333
12600SOL    HW238105   0.499   4.787   2.184
12601SOL     OW38106   3.730   2.458   1.785
12601SOL    HW138107   3.746   2.453   1.879
12601SOL    HW238108   3.694   2.546   1.772
12602SOL     OW38109   6.114   6.450   1.908
12602SOL    HW138110   6.117   6.546   1.912
12602SOL    HW238111   6.163   6.422   1.985
12603SOL     OW38112   4.279   0.013   4.554
12603SOL    HW138113   4.260   8.208   4.641
12603SOL    HW238114   4.209   8.208   4.499
12604SOL     OW38115   0.081   6.926   3.695
12604SOL    HW138116   0.136   6.994   3.656
12604SOL    HW238117   0.132   6.894   3.769
12605SOL     OW38118   7.405   7.859   0.847
12605SOL    HW138119   7.481   7.909   0.819
12605SOL    HW238120   7.405   7.867   0.942
12606SOL     OW38121   7.987   3.459   5.282
12606SOL    HW138122   7.960   3.392   5.219
12606SOL    HW238123   8.029   3.527   5.229
12607SOL     OW38124   0.874   5.941   2.810
12607SOL    HW138125   0.929   5.865   2.830
12607SOL    HW238126   0.858   5.982   2.895
12608SOL     OW38127   7.957   4.692   3.330
12608SOL    HW138128   7.937   4.668   3.239
12608SOL    HW238129   8.042   4.735   3.325
12609SOL     OW38130   3.691   4.745   5.809
12609SOL    HW138131   7.753   0.639   0.069
12609SOL    HW238132   3.627   4.728   5.739
12610SOL     OW38133   6.736   1.758   1.748
12610SOL    HW138134   6.713   1.841   1.706
12610SOL    HW238135   6.816   1.777   1.797
12611SOL     OW38136   0.220   8.152   5.630
12611SOL    HW138137   0.216   8.175   5.723
12611SOL    HW238138   0.303   8.189   5.599
12612SOL     OW38139   3.499   2.577   0.624
12612SOL    HW138140   3.469   2.496   0.666
12612SOL    HW238141   3.577   2.551   0.575
12613SOL     OW38142   0.223   6.651   2.956
12613SOL    HW138143   0.202   6.647   3.049
12613SOL    HW238144   0.194   6.738   2.928
12614SOL     OW38145   6.228   6.340   0.681
12614SOL    HW138146   6.321   6.325   0.695
12614SOL    HW238147   6.193   6.355   0.769
12615SOL     OW38148   1.041   4.936   3.155
12615SOL    HW138149   1.025   4.883   3.233
12615SOL    HW238150   1.040   5.026   3.187
12616SOL     OW38151   5.328   4.180   4.295
12616SOL    HW138152   5.338   4.103   4.351
12616SOL    HW238153   5.305   4.145   4.209
12617SOL     OW38154   1.388   4.458   2.127
12617SOL    HW138155   1.339   4.419   2.054
12617SOL    HW238156   1.441   4.527   2.087
12618SOL     OW38157   5.804   3.366   3.496
12618SOL    HW138158   5.741   3.299   3.471
12618SOL    HW238159   5.878   3.354   3.437
12619SOL     OW38160   7.995   4.737   3.706
12619SOL    HW138161   7.907   4.720   3.740
12619SOL    HW238162   8.047   4.759   3.783
12620SOL     OW38163   1.891   6.544   0.013
12620SOL    HW138164   1.795   6.548   0.012
12620SOL    HW238165   6.032   2.470   5.749
12621SOL     OW38166   2.418   6.858   1.406
12621SOL    HW138167   2.435   6.952   1.417
12621SOL    HW238168   2.336   6.854   1.357
12622SOL     OW38169   5.956   2.163   1.002
12622SOL    HW138170   6.022   2.222   0.966
12622SOL    HW238171   5.911   2.215   1.069
12623SOL     OW38172   3.349   0.813   1.856
12623SOL    HW138173   3.426   0.867   1.875
12623SOL    HW238174   3.356   0.739   1.916
12624SOL     OW38175   7.364   1.345   2.482
12624SOL    HW138176   7.316   1.380   2.407
12624SOL    HW238177   7.329   1.257   2.493
12625SOL     OW38178   2.678   0.407   1.378
12625SOL    HW138179   2.686   0.401   1.473
12625SOL    HW238180   2.747   0.350   1.344
12626SOL     OW38181   3.470   1.730   2.659
12626SOL    HW138182   3.399   1.666   2.654
12626SOL    HW238183   3.504   1.735   2.570
12627SOL     OW38184   0.127   3.586   5.733
12627SOL    HW138185   0.118   3.491   5.728
12627SOL    HW238186   0.073   3.611   5.808
12628SOL     OW38187   3.535   1.452   3.590
12628SOL    HW138188   3.579   1.380   3.635
12628SOL    HW238189   3.491   1.501   3.659
12629SOL     OW38190   5.291   6.939   1.450
12629SOL    HW138191   5.365   6.917   1.393
12629SOL    HW238192   5.220   6.883   1.420
12630SOL     OW38193   4.643   1.348   2.876
12630SOL    HW138194   4.599   1.420   2.831
12630SOL    HW238195   4.612   1.269   2.832
12631SOL     OW38196   4.437   7.239   1.227
12631SOL    HW138197   4.437   7.240   1.131
12631SOL    HW238198   4.496   7.310   1.252
12632SOL     OW38199   7.802   6.527   0.575
12632SOL    HW138200   7.777   6.486   0.658
12632SOL    HW238201   7.742   6.489   0.510
12633SOL     OW38202   6.706   3.605   0.885
12633SOL    HW138203   6.763   3.557   0.826
12633SOL    HW238204   6.691   3.689   0.841
12634SOL     OW38205   0.410   5.053   4.649
12634SOL    HW138206   0.426   4.959   4.645
12634SOL    HW238207   0.445   5.079   4.734
12635SOL     OW38208   4.554   1.144   2.730
12635SOL    HW138209   4.476   1.101   2.694
12635SOL    HW238210   4.581   1.205   2.661
12636SOL     OW38211   5.841   7.343   3.228
12636SOL    HW138212   5.777   7.273   3.236
12636SOL    HW238213   5.819   7.386   3.145
12637SOL     OW38214   2.412   2.120   3.239
12637SOL    HW138215   2.363   2.176   3.299
12637SOL    HW238216   2.491   2.097   3.287
12638SOL     OW38217   4.815   8.015   0.593
12638SOL    HW138218   4.744   8.009   0.529
12638SOL    HW238219   4.815   7.929   0.636
12639SOL     OW38220   1.721   4.443   4.824
12639SOL    HW138221   1.768   4.383   4.766
12639SOL    HW238222   1.660   4.489   4.766
12640SOL     OW38223   5.394   2.875   4.005
12640SOL    HW138224   5.337   2.845   3.934
12640SOL    HW238225   5.349   2.849   4.085
12641SOL     OW38226   3.866   3.477   4.884
12641SOL    HW138227   3.925   3.450   4.814
12641SOL    HW238228   3.778   3.457   4.851
12642SOL     OW38229   6.443   2.909   5.627
12642SOL    HW138230   6.350   2.913   5.648
12642SOL    HW238231   6.479   2.991   5.661
12643SOL     OW38232   5.203   4.936   2.745
12643SOL    HW138233   5.238   4.866   2.800
12643SOL    HW238234   5.197   4.897   2.658
12644SOL     OW38235   6.708   1.567   3.681
12644SOL    HW138236   6.738   1.516   3.606
12644SOL    HW238237   6.650   1.508   3.729
12645SOL     OW38238   2.414   0.221   1.803
12645SOL    HW138239   2.339   0.274   1.830
12645SOL    HW238240   2.428   0.160   1.876
12646SOL     OW38241   4.230   4.901   4.375
12646SOL    HW138242   4.253   4.992   4.358
12646SOL    HW238243   4.195   4.901   4.464
12647SOL     OW38244   4.689   3.674   1.290
12647SOL    HW138245   4.750   3.648   1.221
12647SOL    HW238246   4.687   3.600   1.350
12648SOL     OW38247   3.405   7.342   1.783
12648SOL    HW138248   3.461   7.379   1.714
12648SOL    HW238249   3.316   7.349   1.748
12649SOL     OW38250   7.638   0.530   4.967
12649SOL    HW138251   7.691   0.470   5.019
12649SOL    HW238252   7.551   0.490   4.964
12650SOL     OW38253   0.992   3.258   3.093
12650SOL    HW138254   0.984   3.327   3.027
12650SOL    HW238255   0.999   3.305   3.176
12651SOL     OW38256   3.177   7.028   2.953
12651SOL    HW138257   3.146   7.118   2.965
12651SOL    HW238258   3.257   7.037   2.901
12652SOL     OW38259   1.064   1.587   1.740
12652SOL    HW138260   1.115   1.570   1.661
12652SOL    HW238261   1.122   1.560   1.812
12653SOL     OW38262   6.100   2.095   1.592
12653SOL    HW138263   6.064   2.069   1.507
12653SOL    HW238264   6.054   2.040   1.655
12654SOL     OW38265   3.370   0.178   1.324
12654SOL    HW138266   3.448   0.182   1.380
12654SOL    HW238267   3.325   0.261   1.340
12655SOL     OW38268   5.827   6.156   5.673
12655SOL    HW138269   5.892   6.096   5.709
12655SOL    HW238270   5.834   6.235   5.727
12656SOL     OW38271   0.733   2.468   0.716
12656SOL    HW138272   0.777   2.472   0.631
12656SOL    HW238273   0.640   2.479   0.695
12657SOL     OW38274   0.182   0.639   0.382
12657SOL    HW138275   0.257   0.591   0.417
12657SOL    HW238276   0.220   0.706   0.326
12658SOL     OW38277   0.205   1.284   4.852
12658SOL    HW138278   0.272   1.330   4.802
12658SOL    HW238279   0.249   1.259   4.933
12659SOL     OW38280   3.241   5.809   5.697
12659SOL    HW138281   3.197   5.738   5.744
12659SOL    HW238282   3.332   5.804   5.726
12660SOL     OW38283   5.852   5.107   2.437
12660SOL    HW138284   5.845   5.200   2.416
12660SOL    HW238285   5.878   5.066   2.354
12661SOL     OW38286   6.086   7.742   4.286
12661SOL    HW138287   6.131   7.659   4.268
12661SOL    HW238288   6.155   7.808   4.280
12662SOL     OW38289   3.470   2.486   2.633
12662SOL    HW138290   3.415   2.542   2.578
12662SOL    HW238291   3.507   2.422   2.572
12663SOL     OW38292   2.933   3.969   5.279
12663SOL    HW138293   2.930   3.980   5.374
12663SOL    HW238294   2.956   4.056   5.246
12664SOL     OW38295   1.763   0.689   2.327
12664SOL    HW138296   1.837   0.629   2.336
12664SOL    HW238297   1.798   0.775   2.350
12665SOL     OW38298   6.196   1.102   2.512
12665SOL    HW138299   6.101   1.108   2.502
12665SOL    HW238300   6.211   1.110   2.606
12666SOL     OW38301   4.508   2.413   5.078
12666SOL    HW138302   4.440   2.386   5.016
12666SOL    HW238303   4.590   2.392   5.034
12667SOL     OW38304   2.818   2.455   0.322
12667SOL    HW138305   2.884   2.513   0.359
12667SOL    HW238306   2.799   2.492   0.236
12668SOL     OW38307   3.261   0.296   0.171
12668SOL    HW138308   3.271   0.218   0.226
12668SOL    HW238309   3.321   0.282   0.098
12669SOL     OW38310   1.822   5.991   1.781
12669SOL    HW138311   1.832   5.969   1.688
12669SOL    HW238312   1.735   5.958   1.804
12670SOL     OW38313   6.627   7.180   3.129
12670SOL    HW138314   6.659   7.091   3.115
12670SOL    HW238315   6.621   7.189   3.224
12671SOL     OW38316   7.024   6.342   1.253
12671SOL    HW138317   7.053   6.432   1.265
12671SOL    HW238318   7.095   6.289   1.289
12672SOL     OW38319   6.408   6.309   1.804
12672SOL    HW138320   6.342   6.377   1.792
12672SOL    HW238321   6.478   6.332   1.743
12673SOL     OW38322   7.660   3.009   1.049
12673SOL    HW138323   7.644   3.095   1.011
12673SOL    HW238324   7.606   2.949   0.997
12674SOL     OW38325   6.508   0.007   4.529
12674SOL    HW138326   6.486   0.100   4.539
12674SOL    HW238327   6.603   0.006   4.515
12675SOL     OW38328   2.679   4.067   3.598
12675SOL    HW138329   2.767   4.032   3.586
12675SOL    HW238330   2.623   4.009   3.546
12676SOL     OW38331   1.745   5.952   5.410
12676SOL    HW138332   1.721   5.997   5.329
12676SOL    HW238333   1.839   5.968   5.420
12677SOL     OW38334   4.950   4.111   4.955
12677SOL    HW138335   4.881   4.161   4.912
12677SOL    HW238336   5.030   4.140   4.912
12678SOL     OW38337   6.072   5.657   4.349
12678SOL    HW138338   6.083   5.574   4.302
12678SOL    HW238339   6.044   5.719   4.281
12679SOL     OW38340   4.090   7.432   0.903
12679SOL    HW138341   4.006   7.466   0.872
12679SOL    HW238342   4.136   7.509   0.937
12680SOL     OW38343   1.992   7.321   0.545
12680SOL    HW138344   2.068   7.270   0.573
12680SOL    HW238345   1.917   7.263   0.560
12681SOL     OW38346   0.920   7.412   4.314
12681SOL    HW138347   0.863   7.389   4.387
12681SOL    HW238348   0.912   7.339   4.253
12682SOL     OW38349   5.244   7.509   5.545
12682SOL    HW138350   5.255   7.598   5.579
12682SOL    HW238351   5.314   7.458   5.585
12683SOL     OW38352   1.477   0.005   3.038
12683SOL    HW138353   1.387   8.210   3.061
12683SOL    HW238354   1.473   0.099   3.019
12684SOL     OW38355   0.803   0.315   1.945
12684SOL    HW138356   0.772   0.357   2.025
12684SOL    HW238357   0.803   0.385   1.880
12685SOL     OW38358   7.615   3.754   5.458
12685SOL    HW138359   7.621   3.793   5.371
12685SOL    HW238360   7.696   3.704   5.467
12686SOL     OW38361   2.000   1.792   0.389
12686SOL    HW138362   2.087   1.791   0.348
12686SOL    HW238363   1.971   1.701   0.388
12687SOL     OW38364   1.113   1.211   0.598
12687SOL    HW138365   1.089   1.177   0.684
12687SOL    HW238366   1.109   1.306   0.608
12688SOL     OW38367   3.062   3.621   0.583
12688SOL    HW138368   2.985   3.568   0.602
12688SOL    HW238369   3.082   3.602   0.491
12689SOL     OW38370   3.624   6.862   1.871
12689SOL    HW138371   3.617   6.774   1.908
12689SOL    HW238372   3.718   6.880   1.869
12690SOL     OW38373   5.678   0.428   0.922
12690SOL    HW138374   5.665   0.481   1.001
12690SOL    HW238375   5.670   0.491   0.850
12691SOL     OW38376   1.720   1.897   5.280
12691SOL    HW138377   1.788   1.849   5.328
12691SOL    HW238378   1.689   1.835   5.214
12692SOL     OW38379   1.792   5.391   3.222
12692SOL    HW138380   1.774   5.454   3.292
12692SOL    HW238381   1.788   5.305   3.265
12693SOL     OW38382   5.671   4.099   4.858
12693SOL    HW138383   5.751   4.114   4.909
12693SOL    HW238384   5.694   4.125   4.769
12694SOL     OW38385   0.433   2.197   2.721
12694SOL    HW138386   0.492   2.149   2.663
12694SOL    HW238387   0.376   2.129   2.758
12695SOL     OW38388   6.359   2.441   3.218
12695SOL    HW138389   6.317   2.359   3.242
12695SOL    HW238390   6.421   2.459   3.289
12696SOL     OW38391   1.626   0.880   5.231
12696SOL    HW138392   1.599   0.940   5.300
12696SOL    HW238393   1.613   0.929   5.150
12697SOL     OW38394   0.779   2.432   3.064
12697SOL    HW138395   0.854   2.473   3.021
12697SOL    HW238396   0.741   2.374   2.998
12698SOL     OW38397   2.166   6.114   5.244
12698SOL    HW138398   2.124   6.144   5.163
12698SOL    HW238399   2.118   6.158   5.314
12699SOL     OW38400   7.586   6.372   1.019
12699SOL    HW138401   7.555   6.399   1.105
12699SOL    HW238402   7.524   6.412   0.958
12700SOL     OW38403   7.084   1.023   1.963
12700SOL    HW138404   7.039   0.977   2.034
12700SOL    HW238405   7.132   1.093   2.007
12701SOL     OW38406   1.732   3.558   3.377
12701SOL    HW138407   1.780   3.612   3.314
12701SOL    HW238408   1.733   3.610   3.458
12702SOL     OW38409   2.991   6.375   0.265
12702SOL    HW138410   3.008   6.468   0.280
12702SOL    HW238411   2.906   6.358   0.306
12703SOL     OW38412   6.682   5.222   2.185
12703SOL    HW138413   6.652   5.201   2.096
12703SOL    HW238414   6.723   5.308   2.177
12704SOL     OW38415   5.116   5.319   4.017
12704SOL    HW138416   5.147   5.283   4.100
12704SOL    HW238417   5.143   5.254   3.952
12705SOL     OW38418   7.784   0.991   4.982
12705SOL    HW138419   7.838   1.041   4.920
12705SOL    HW238420   7.830   0.907   4.992
12706SOL     OW38421   7.716   1.120   1.034
12706SOL    HW138422   7.760   1.193   1.078
12706SOL    HW238423   7.698   1.153   0.946
12707SOL     OW38424   3.950   0.412   4.937
12707SOL    HW138425   3.959   0.435   4.844
12707SOL    HW238426   3.957   0.496   4.983
12708SOL     OW38427   0.044   6.274   0.879
12708SOL    HW138428   0.055   6.320   0.962
12708SOL    HW238429   8.179   6.263   0.869
12709SOL     OW38430   5.331   0.133   1.978
12709SOL    HW138431   5.370   0.214   1.946
12709SOL    HW238432   5.383   0.063   1.938
12710SOL     OW38433   2.694   4.021   0.378
12710SOL    HW138434   2.677   3.963   0.452
12710SOL    HW238435   2.639   3.987   0.308
12711SOL     OW38436   2.103   7.397   2.630
12711SOL    HW138437   2.092   7.454   2.554
12711SOL    HW238438   2.129   7.313   2.593
12712SOL     OW38439   5.901   6.805   5.662
12712SOL    HW138440   5.829   6.767   5.611
12712SOL    HW238441   5.974   6.744   5.650
12713SOL     OW38442   5.603   3.468   3.315
12713SOL    HW138443   5.617   3.382   3.276
12713SOL    HW238444   5.655   3.528   3.262
12714SOL     OW38445   2.595   8.054   3.354
12714SOL    HW138446   2.567   8.136   3.394
12714SOL    HW238447   2.666   8.080   3.295
12715SOL     OW38448   7.834   4.915   3.446
12715SOL    HW138449   7.756   4.930   3.392
12715SOL    HW238450   7.881   4.845   3.401
12716SOL     OW38451   2.835   2.140   4.376
12716SOL    HW138452   2.810   2.191   4.299
12716SOL    HW238453   2.884   2.066   4.340
12717SOL     OW38454   5.725   4.187   4.150
12717SOL    HW138455   5.684   4.218   4.069
12717SOL    HW238456   5.696   4.249   4.217
12718SOL     OW38457   8.004   2.240   1.272
12718SOL    HW138458   8.042   2.277   1.351
12718SOL    HW238459   7.916   2.277   1.268
12719SOL     OW38460   5.838   6.917   3.325
12719SOL    HW138461   5.756   6.941   3.367
12719SOL    HW238462   5.906   6.947   3.385
12720SOL     OW38463   0.599   5.619   2.472
12720SOL    HW138464   0.546   5.667   2.409
12720SOL    HW238465   0.668   5.680   2.497
12721SOL     OW38466   3.124   3.178   5.663
12721SOL    HW138467   3.137   3.084   5.679
12721SOL    HW238468   3.157   3.220   5.742
12722SOL     OW38469   4.841   6.706   2.452
12722SOL    HW138470   4.863   6.775   2.515
12722SOL    HW238471   4.811   6.633   2.506
12723SOL     OW38472   2.637   2.358   3.399
12723SOL    HW138473   2.702   2.409   3.350
12723SOL    HW238474   2.554   2.379   3.356
12724SOL     OW38475   7.160   4.651   1.675
12724SOL    HW138476   7.207   4.577   1.713
12724SOL    HW238477   7.085   4.612   1.631
12725SOL     OW38478   7.829   3.506   5.786
12725SOL    HW138479   3.781   7.585   0.025
12725SOL    HW238480   7.769   3.433   5.771
12726SOL     OW38481   6.983   4.904   1.459
12726SOL    HW138482   7.048   4.942   1.400
12726SOL    HW238483   7.008   4.934   1.546
12727SOL     OW38484   0.060   1.052   2.720
12727SOL    HW138485   0.083   1.091   2.636
12727SOL    HW238486   8.197   1.028   2.711
12728SOL     OW38487   4.477   1.303   5.424
12728SOL    HW138488   4.572   1.298   5.432
12728SOL    HW238489   4.462   1.385   5.377
12729SOL     OW38490   4.831   4.773   4.333
12729SOL    HW138491   4.745   4.814   4.333
12729SOL    HW238492   4.883   4.825   4.395
12730SOL     OW38493   3.662   2.199   4.634
12730SOL    HW138494   3.665   2.214   4.539
12730SOL    HW238495   3.572   2.221   4.658
12731SOL     OW38496   4.996   1.870   5.495
12731SOL    HW138497   5.038   1.956   5.504
12731SOL    HW238498   5.057   1.819   5.441
12732SOL     OW38499   1.989   4.810   3.891
12732SOL    HW138500   1.914   4.869   3.893
12732SOL    HW238501   2.021   4.816   3.801
12733SOL     OW38502   5.215   4.547   4.427
12733SOL    HW138503   5.279   4.617   4.413
12733SOL    HW238504   5.187   4.522   4.339
12734SOL     OW38505   4.369   1.677   1.167
12734SOL    HW138506   4.388   1.768   1.191
12734SOL    HW238507   4.417   1.625   1.232
12735SOL     OW38508   5.924   1.444   1.340
12735SOL    HW138509   5.862   1.517   1.348
12735SOL    HW238510   6.007   1.486   1.315
12736SOL     OW38511   3.109   2.413   1.959
12736SOL    HW138512   3.108   2.327   2.001
12736SOL    HW238513   3.056   2.468   2.016
12737SOL     OW38514   6.943   1.797   1.921
12737SOL    HW138515   7.029   1.838   1.921
12737SOL    HW238516   6.897   1.837   1.995
12738SOL     OW38517   4.975   5.749   3.898
12738SOL    HW138518   4.972   5.664   3.941
12738SOL    HW238519   4.905   5.799   3.939
12739SOL     OW38520   8.206   6.765   1.486
12739SOL    HW138521   0.072   6.776   1.487
12739SOL    HW238522   8.192   6.670   1.483
12740SOL     OW38523   3.216   3.333   2.672
12740SOL    HW138524   3.246   3.420   2.698
12740SOL    HW238525   3.132   3.322   2.716
12741SOL     OW38526   2.438   7.786   0.009
12741SOL    HW138527   6.584   3.707   5.745
12741SOL    HW238528   2.497   7.823   0.075
12742SOL     OW38529   7.237   6.004   4.410
12742SOL    HW138530   7.235   5.909   4.424
12742SOL    HW238531   7.241   6.041   4.498
12743SOL     OW38532   1.530   4.712   2.062
12743SOL    HW138533   1.625   4.706   2.059
12743SOL    HW238534   1.512   4.766   2.139
12744SOL     OW38535   4.435   6.040   4.230
12744SOL    HW138536   4.392   5.978   4.288
12744SOL    HW238537   4.366   6.068   4.170
12745SOL     OW38538   7.804   6.388   5.405
12745SOL    HW138539   7.763   6.389   5.319
12745SOL    HW238540   7.758   6.320   5.453
12746SOL     OW38541   5.174   3.715   5.591
12746SOL    HW138542   5.116   3.790   5.601
12746SOL    HW238543   5.221   3.731   5.509
12747SOL     OW38544   0.342   1.699   4.107
12747SOL    HW138545   0.259   1.680   4.151
12747SOL    HW238546   0.326   1.679   4.015
12748SOL     OW38547   1.606   8.219   2.632
12748SOL    HW138548   1.632   8.204   2.541
12748SOL    HW238549   1.674   8.176   2.684
12749SOL     OW38550   6.542   3.095   0.130
12749SOL    HW138551   6.608   3.025   0.125
12749SOL    HW238552   6.548   3.128   0.220
12750SOL     OW38553   3.228   5.110   0.056
12750SOL    HW138554   3.232   5.163   0.136
12750SOL    HW238555   3.137   5.081   0.050
12751SOL     OW38556   5.355   6.717   2.207
12751SOL    HW138557   5.319   6.730   2.295
12751SOL    HW238558   5.355   6.622   2.195
12752SOL     OW38559   0.143   7.940   4.316
12752SOL    HW138560   0.210   8.006   4.335
12752SOL    HW238561   0.148   7.879   4.390
12753SOL     OW38562   5.733   8.220   0.011
12753SOL    HW138563   5.752   8.146   0.069
12753SOL    HW238564   1.661   4.083   5.748
12754SOL     OW38565   3.871   5.858   5.113
12754SOL    HW138566   3.917   5.898   5.187
12754SOL    HW238567   3.891   5.915   5.039
12755SOL     OW38568   1.048   3.408   0.424
12755SOL    HW138569   0.973   3.371   0.377
12755SOL    HW238570   1.111   3.336   0.427
12756SOL     OW38571   5.950   7.613   1.065
12756SOL    HW138572   6.041   7.643   1.062
12756SOL    HW238573   5.952   7.537   1.123
12757SOL     OW38574   1.200   8.081   1.501
12757SOL    HW138575   1.129   8.066   1.563
12757SOL    HW238576   1.243   7.996   1.492
12758SOL     OW38577   2.686   7.135   0.996
12758SOL    HW138578   2.746   7.142   0.922
12758SOL    HW238579   2.599   7.152   0.959
12759SOL     OW38580   0.720   0.949   3.760
12759SOL    HW138581   0.664   0.872   3.749
12759SOL    HW238582   0.664   1.023   3.736
12760SOL     OW38583   6.778   4.949   3.946
12760SOL    HW138584   6.811   4.952   3.856
12760SOL    HW238585   6.774   5.041   3.974
12761SOL     OW38586   6.227   5.172   4.416
12761SOL    HW138587   6.203   5.254   4.460
12761SOL    HW238588   6.212   5.104   4.482
12762SOL     OW38589   6.944   5.263   2.451
12762SOL    HW138590   7.015   5.296   2.506
12762SOL    HW238591   6.877   5.234   2.513
12763SOL     OW38592   4.674   0.790   2.939
12763SOL    HW138593   4.640   0.701   2.928
12763SOL    HW238594   4.681   0.801   3.034
12764SOL     OW38595   3.998   2.974   4.482
12764SOL    HW138596   3.932   2.935   4.539
12764SOL    HW238597   4.033   2.900   4.432
12765SOL     OW38598   3.426   7.528   2.837
12765SOL    HW138599   3.422   7.537   2.932
12765SOL    HW238600   3.517   7.504   2.820
12766SOL     OW38601   2.470   4.865   4.920
12766SOL    HW138602   2.416   4.786   4.926
12766SOL    HW238603   2.426   4.919   4.855
12767SOL     OW38604   6.530   5.228   5.051
12767SOL    HW138605   6.438   5.238   5.028
12767SOL    HW238606   6.541   5.280   5.131
12768SOL     OW38607   6.367   2.804   1.860
12768SOL    HW138608   6.292   2.819   1.917
12768SOL    HW238609   6.410   2.889   1.854
12769SOL     OW38610   2.734   4.414   0.433
12769SOL    HW138611   2.807   4.352   0.440
12769SOL    HW238612   2.696   4.417   0.521
12770SOL     OW38613   0.544   8.002   3.987
12770SOL    HW138614   0.636   7.987   4.007
12770SOL    HW238615   0.542   8.021   3.893
12771SOL     OW38616   3.262   1.599   0.962
12771SOL    HW138617   3.333   1.591   1.026
12771SOL    HW238618   3.205   1.524   0.979
12772SOL     OW38619   4.018   7.787   5.261
12772SOL    HW138620   4.106   7.749   5.259
12772SOL    HW238621   4.030   7.874   5.299
12773SOL     OW38622   5.976   8.211   3.981
12773SOL    HW138623   6.008   0.014   4.065
12773SOL    HW238624   6.031   8.135   3.962
12774SOL     OW38625   0.930   0.138   5.378
12774SOL    HW138626   0.838   0.149   5.402
12774SOL    HW238627   0.961   0.067   5.435
12775SOL     OW38628   6.022   6.722   1.922
12775SOL    HW138629   5.959   6.752   1.856
12775SOL    HW238630   5.969   6.680   1.989
12776SOL     OW38631   7.906   6.610   5.532
12776SOL    HW138632   7.865   6.597   5.617
12776SOL    HW238633   7.872   6.538   5.478
12777SOL     OW38634   0.855   3.119   0.507
12777SOL    HW138635   0.859   3.167   0.424
12777SOL    HW238636   0.892   3.033   0.486
12778SOL     OW38637   7.681   3.272   5.728
12778SOL    HW138638   7.718   3.230   5.650
12778SOL    HW238639   7.681   3.203   5.794
12779SOL     OW38640   3.397   3.668   2.004
12779SOL    HW138641   3.365   3.717   1.928
12779SOL    HW238642   3.361   3.580   1.993
12780SOL     OW38643   0.229   0.678   1.068
12780SOL    HW138644   0.298   0.615   1.088
12780SOL    HW238645   0.168   0.672   1.142
12781SOL     OW38646   5.350   1.580   4.910
12781SOL    HW138647   5.305   1.608   4.830
12781SOL    HW238648   5.324   1.645   4.976
12782SOL     OW38649   3.062   7.332   1.913
12782SOL    HW138650   3.139   7.289   1.950
12782SOL    HW238651   3.081   7.426   1.920
12783SOL     OW38652   0.625   4.583   2.997
12783SOL    HW138653   0.670   4.499   2.992
12783SOL    HW238654   0.532   4.560   2.993
12784SOL     OW38655   7.871   7.140   0.536
12784SOL    HW138656   7.805   7.129   0.467
12784SOL    HW238657   7.823   7.125   0.618
12785SOL     OW38658   5.106   8.075   5.566
12785SOL    HW138659   5.081   8.004   5.507
12785SOL    HW238660   5.077   8.046   5.652
12786SOL     OW38661   1.979   7.859   2.519
12786SOL    HW138662   2.012   7.945   2.546
12786SOL    HW238663   1.975   7.864   2.424
12787SOL     OW38664   5.280   6.286   3.237
12787SOL    HW138665   5.302   6.294   3.330
12787SOL    HW238666   5.294   6.374   3.202
12788SOL     OW38667   8.121   0.892   5.279
12788SOL    HW138668   8.085   0.974   5.244
12788SOL    HW238669   8.046   0.846   5.316
12789SOL     OW38670   8.042   2.561   3.101
12789SOL    HW138671   8.044   2.650   3.136
12789SOL    HW238672   8.131   2.545   3.070
12790SOL     OW38673   6.105   4.559   3.198
12790SOL    HW138674   6.193   4.559   3.236
12790SOL    HW238675   6.054   4.616   3.256
12791SOL     OW38676   5.444   3.679   5.751
12791SOL    HW138677   5.449   3.650   5.660
12791SOL    HW238678   5.497   3.615   5.800
12792SOL     OW38679   1.379   6.217   0.563
12792SOL    HW138680   1.401   6.151   0.629
12792SOL    HW238681   1.347   6.292   0.614
12793SOL     OW38682   4.474   1.754   4.470
12793SOL    HW138683   4.564   1.784   4.461
12793SOL    HW238684   4.441   1.750   4.380
12794SOL     OW38685   2.644   1.747   4.732
12794SOL    HW138686   2.588   1.812   4.774
12794SOL    HW238687   2.614   1.743   4.641
12795SOL     OW38688   4.620   7.904   3.566
12795SOL    HW138689   4.554   7.838   3.543
12795SOL    HW238690   4.615   7.911   3.661
12796SOL     OW38691   3.039   0.081   4.908
12796SOL    HW138692   3.089   0.116   4.982
12796SOL    HW238693   3.092   0.102   4.831
12797SOL     OW38694   6.088   7.724   1.597
12797SOL    HW138695   6.155   7.792   1.593
12797SOL    HW238696   6.093   7.680   1.512
12798SOL     OW38697   3.800   2.383   5.461
12798SOL    HW138698   3.719   2.429   5.438
12798SOL    HW238699   3.858   2.397   5.386
12799SOL     OW38700   3.268   0.896   5.231
12799SOL    HW138701   3.324   0.837   5.180
12799SOL    HW238702   3.289   0.983   5.198
12800SOL     OW38703   1.094   7.628   4.736
12800SOL    HW138704   1.140   7.550   4.705
12800SOL    HW238705   1.154   7.667   4.800
12801SOL     OW38706   7.215   4.367   5.743
12801SOL    HW138707   7.310   4.364   5.730
12801SOL    HW238708   3.088   0.221   0.014
12802SOL     OW38709   7.689   0.282   0.747
12802SOL    HW138710   7.761   0.344   0.761
12802SOL    HW238711   7.651   0.270   0.834
12803SOL     OW38712   0.690   2.372   2.484
12803SOL    HW138713   0.663   2.412   2.567
12803SOL    HW238714   0.613   2.380   2.428
12804SOL     OW38715   4.143   0.419   3.003
12804SOL    HW138716   4.188   0.374   3.075
12804SOL    HW238717   4.185   0.505   2.998
12805SOL     OW38718   0.563   2.124   0.412
12805SOL    HW138719   0.652   2.111   0.445
12805SOL    HW238720   0.545   2.045   0.361
12806SOL     OW38721   6.214   5.333   4.635
12806SOL    HW138722   6.303   5.303   4.618
12806SOL    HW238723   6.212   5.351   4.729
12807SOL     OW38724   0.232   5.243   4.497
12807SOL    HW138725   0.278   5.170   4.538
12807SOL    HW238726   0.284   5.263   4.419
12808SOL     OW38727   5.178   3.039   4.909
12808SOL    HW138728   5.220   3.078   4.832
12808SOL    HW238729   5.103   3.096   4.927
12809SOL     OW38730   1.334   2.257   0.352
12809SOL    HW138731   1.362   2.310   0.426
12809SOL    HW238732   1.350   2.312   0.276
12810SOL     OW38733   1.007   0.493   1.024
12810SOL    HW138734   0.991   0.423   1.087
12810SOL    HW238735   0.939   0.558   1.041
12811SOL     OW38736   6.881   1.501   5.382
12811SOL    HW138737   6.810   1.565   5.387
12811SOL    HW238738   6.845   1.429   5.330
12812SOL     OW38739   4.240   2.830   2.089
12812SOL    HW138740   4.272   2.905   2.140
12812SOL    HW238741   4.294   2.829   2.010
12813SOL     OW38742   6.540   2.460   4.400
12813SOL    HW138743   6.446   2.476   4.399
12813SOL    HW238744   6.570   2.495   4.484
12814SOL     OW38745   3.836   1.305   0.381
12814SOL    HW138746   3.830   1.322   0.287
12814SOL    HW238747   3.907   1.242   0.390
12815SOL     OW38748   6.146   2.717   2.481
12815SOL    HW138749   6.113   2.682   2.564
12815SOL    HW238750   6.236   2.685   2.475
12816SOL     OW38751   7.724   3.584   3.391
12816SOL    HW138752   7.691   3.668   3.422
12816SOL    HW238753   7.648   3.543   3.349
12817SOL     OW38754   5.485   0.354   3.552
12817SOL    HW138755   5.494   0.315   3.465
12817SOL    HW238756   5.480   0.279   3.611
12818SOL     OW38757   3.889   0.343   5.642
12818SOL    HW138758   3.905   0.341   5.548
12818SOL    HW238759   3.810   0.396   5.652
12819SOL     OW38760   0.035   5.505   2.269
12819SOL    HW138761   0.126   5.480   2.287
12819SOL    HW238762   0.041   5.569   2.198
12820SOL     OW38763   2.938   3.849   0.363
12820SOL    HW138764   2.895   3.905   0.299
12820SOL    HW238765   2.899   3.874   0.447
12821SOL     OW38766   7.038   0.941   0.799
12821SOL    HW138767   7.060   1.026   0.760
12821SOL    HW238768   7.070   0.947   0.889
12822SOL     OW38769   0.507   4.165   2.962
12822SOL    HW138770   0.468   4.081   2.939
12822SOL    HW238771   0.517   4.162   3.057
12823SOL     OW38772   6.665   0.926   2.940
12823SOL    HW138773   6.620   0.976   3.008
12823SOL    HW238774   6.699   0.849   2.985
12824SOL     OW38775   5.660   5.135   4.164
12824SOL    HW138776   5.579   5.097   4.199
12824SOL    HW238777   5.682   5.206   4.224
12825SOL     OW38778   3.040   6.992   1.409
12825SOL    HW138779   3.107   6.924   1.400
12825SOL    HW238780   2.999   6.998   1.322
12826SOL     OW38781   4.789   4.772   5.228
12826SOL    HW138782   4.785   4.864   5.203
12826SOL    HW238783   4.704   4.754   5.268
12827SOL     OW38784   6.107   4.906   2.880
12827SOL    HW138785   6.012   4.900   2.876
12827SOL    HW238786   6.137   4.816   2.865
12828SOL     OW38787   7.508   1.904   2.915
12828SOL    HW138788   7.565   1.837   2.877
12828SOL    HW238789   7.419   1.869   2.905
12829SOL     OW38790   1.675   5.518   2.616
12829SOL    HW138791   1.742   5.585   2.628
12829SOL    HW238792   1.693   5.454   2.684
12830SOL     OW38793   0.560   4.135   4.687
12830SOL    HW138794   0.500   4.179   4.747
12830SOL    HW238795   0.569   4.047   4.723
12831SOL     OW38796   0.727   1.873   3.584
12831SOL    HW138797   0.786   1.943   3.556
12831SOL    HW238798   0.753   1.797   3.533
12832SOL     OW38799   3.006   4.928   1.209
12832SOL    HW138800   3.042   4.846   1.244
12832SOL    HW238801   3.079   4.990   1.213
12833SOL     OW38802   1.796   1.137   1.189
12833SOL    HW138803   1.793   1.224   1.228
12833SOL    HW238804   1.885   1.106   1.208
12834SOL     OW38805   5.080   7.508   1.247
12834SOL    HW138806   5.107   7.469   1.163
12834SOL    HW238807   5.135   7.464   1.312
12835SOL     OW38808   8.050   1.611   0.217
12835SOL    HW138809   7.999   1.686   0.185
12835SOL    HW238810   7.991   1.566   0.277
12836SOL     OW38811   0.126   4.284   3.910
12836SOL    HW138812   0.182   4.225   3.860
12836SOL    HW238813   0.178   4.305   3.988
12837SOL     OW38814   3.071   6.719   2.627
12837SOL    HW138815   3.115   6.791   2.581
12837SOL    HW238816   3.049   6.755   2.713
12838SOL     OW38817   5.436   7.172   0.386
12838SOL    HW138818   5.404   7.240   0.327
12838SOL    HW238819   5.383   7.095   0.366
12839SOL     OW38820   3.957   4.498   3.953
12839SOL    HW138821   3.999   4.458   4.029
12839SOL    HW238822   4.019   4.564   3.923
12840SOL     OW38823   1.714   3.347   4.128
12840SOL    HW138824   1.796   3.325   4.084
12840SOL    HW238825   1.739   3.407   4.198
12841SOL     OW38826   7.267   1.533   2.208
12841SOL    HW138827   7.190   1.530   2.151
12841SOL    HW238828   7.233   1.514   2.295
12842SOL     OW38829   6.401   1.722   1.217
12842SOL    HW138830   6.392   1.787   1.287
12842SOL    HW238831   6.417   1.639   1.263
12843SOL     OW38832   4.490   2.219   0.300
12843SOL    HW138833   4.516   2.136   0.260
12843SOL    HW238834   4.546   2.284   0.258
12844SOL     OW38835   2.248   7.526   2.850
12844SOL    HW138836   2.308   7.459   2.884
12844SOL    HW238837   2.221   7.493   2.764
12845SOL     OW38838   1.284   5.265   5.818
12845SOL    HW138839   1.249   5.354   5.818
12845SOL    HW238840   1.357   5.268   5.756
12846SOL     OW38841   6.534   1.925   2.918
12846SOL    HW138842   6.605   1.970   2.873
12846SOL    HW238843   6.578   1.857   2.970
12847SOL     OW38844   8.214   3.923   3.355
12847SOL    HW138845   8.215   3.911   3.450
12847SOL    HW238846   8.145   3.864   3.324
12848SOL     OW38847   7.631   2.593   4.506
12848SOL    HW138848   7.713   2.554   4.536
12848SOL    HW238849   7.658   2.671   4.457
12849SOL     OW38850   4.820   4.068   3.095
12849SOL    HW138851   4.885   4.133   3.069
12849SOL    HW238852   4.749   4.079   3.032
12850SOL     OW38853   4.870   3.835   4.233
12850SOL    HW138854   4.951   3.867   4.274
12850SOL    HW238855   4.802   3.854   4.297
12851SOL     OW38856   5.053   2.328   1.892
12851SOL    HW138857   5.033   2.236   1.908
12851SOL    HW238858   5.123   2.327   1.827
12852SOL     OW38859   0.374   4.472   2.994
12852SOL    HW138860   0.339   4.540   3.052
12852SOL    HW238861   0.380   4.394   3.049
12853SOL     OW38862   2.608   2.155   2.844
12853SOL    HW138863   2.628   2.204   2.764
12853SOL    HW238864   2.694   2.135   2.882
12854SOL     OW38865   4.800   0.863   1.746
12854SOL    HW138866   4.855   0.853   1.669
12854SOL    HW238867   4.720   0.814   1.725
12855SOL     OW38868   6.341   2.195   1.386
12855SOL    HW138869   6.411   2.166   1.445
12855SOL    HW238870   6.287   2.253   1.440
12856SOL     OW38871   7.602   5.810   2.650
12856SOL    HW138872   7.604   5.814   2.746
12856SOL    HW238873   7.572   5.721   2.630
12857SOL     OW38874   7.120   5.575   2.445
12857SOL    HW138875   7.145   5.495   2.491
12857SOL    HW238876   7.157   5.646   2.498
12858SOL     OW38877   0.847   3.605   2.677
12858SOL    HW138878   0.935   3.642   2.668
12858SOL    HW238879   0.794   3.677   2.712
12859SOL     OW38880   2.848   3.442   4.658
12859SOL    HW138881   2.775   3.382   4.642
12859SOL    HW238882   2.896   3.403   4.731
12860SOL     OW38883   5.754   1.524   5.638
12860SOL    HW138884   5.735   1.525   5.732
12860SOL    HW238885   5.803   1.443   5.625
12861SOL     OW38886   3.616   7.477   2.154
12861SOL    HW138887   3.698   7.467   2.203
12861SOL    HW238888   3.547   7.471   2.220
12862SOL     OW38889   4.723   4.266   4.088
12862SOL    HW138890   4.757   4.339   4.139
12862SOL    HW238891   4.799   4.209   4.074
12863SOL     OW38892   5.957   7.000   0.632
12863SOL    HW138893   5.968   7.093   0.652
12863SOL    HW238894   6.001   6.954   0.704
12864SOL     OW38895   0.239   4.017   0.304
12864SOL    HW138896   0.237   3.923   0.288
12864SOL    HW238897   0.194   4.055   0.228
12865SOL     OW38898   6.941   5.119   0.137
12865SOL    HW138899   6.862   5.148   0.183
12865SOL    HW238900   6.920   5.031   0.105
12866SOL     OW38901   2.193   5.918   0.884
12866SOL    HW138902   2.108   5.892   0.850
12866SOL    HW238903   2.186   5.905   0.979
12867SOL     OW38904   3.275   6.888   1.660
12867SOL    HW138905   3.234   6.861   1.578
12867SOL    HW238906   3.202   6.904   1.719
12868SOL     OW38907   1.497   4.546   4.674
12868SOL    HW138908   1.461   4.625   4.714
12868SOL    HW238909   1.420   4.499   4.641
12869SOL     OW38910   7.464   5.337   2.450
12869SOL    HW138911   7.439   5.334   2.358
12869SOL    HW238912   7.509   5.254   2.465
12870SOL     OW38913   0.135   2.135   1.795
12870SOL    HW138914   0.183   2.093   1.723
12870SOL    HW238915   0.163   2.226   1.793
12871SOL     OW38916   6.179   3.071   4.848
12871SOL    HW138917   6.161   3.046   4.939
12871SOL    HW238918   6.273   3.086   4.846
12872SOL     OW38919   6.719   4.396   2.253
12872SOL    HW138920   6.662   4.456   2.206
12872SOL    HW238921   6.805   4.439   2.253
12873SOL     OW38922   3.871   6.234   5.653
12873SOL    HW138923   3.936   6.263   5.718
12873SOL    HW238924   3.826   6.161   5.695
12874SOL     OW38925   6.517   4.559   2.137
12874SOL    HW138926   6.428   4.527   2.120
12874SOL    HW238927   6.515   4.651   2.111
12875SOL     OW38928   6.648   5.249   3.962
12875SOL    HW138929   6.634   5.287   4.049
12875SOL    HW238930   6.678   5.322   3.909
12876SOL     OW38931   3.111   2.126   0.928
12876SOL    HW138932   3.087   2.128   0.835
12876SOL    HW238933   3.028   2.133   0.975
12877SOL     OW38934   1.080   2.808   5.405
12877SOL    HW138935   1.174   2.796   5.391
12877SOL    HW238936   1.073   2.848   5.492
12878SOL     OW38937   7.158   5.011   1.286
12878SOL    HW138938   7.208   4.933   1.261
12878SOL    HW238939   7.181   5.076   1.220
12879SOL     OW38940   1.550   6.099   5.547
12879SOL    HW138941   1.624   6.040   5.531
12879SOL    HW238942   1.472   6.047   5.526
12880SOL     OW38943   3.952   6.641   3.910
12880SOL    HW138944   3.919   6.614   3.996
12880SOL    HW238945   3.987   6.561   3.871
12881SOL     OW38946   0.076   5.782   0.376
12881SOL    HW138947   0.051   5.703   0.328
12881SOL    HW238948   8.228   5.804   0.428
12882SOL     OW38949   2.379   4.156   5.470
12882SOL    HW138950   2.398   4.070   5.508
12882SOL    HW238951   2.347   4.208   5.544
12883SOL     OW38952   3.690   3.028   3.334
12883SOL    HW138953   3.733   3.083   3.399
12883SOL    HW238954   3.659   2.952   3.383
12884SOL     OW38955   0.379   4.382   0.947
12884SOL    HW138956   0.349   4.468   0.919
12884SOL    HW238957   0.325   4.320   0.897
12885SOL     OW38958   0.050   6.194   2.372
12885SOL    HW138959   0.057   6.288   2.354
12885SOL    HW238960   0.023   6.189   2.464
12886SOL     OW38961   6.841   2.560   3.759
12886SOL    HW138962   6.773   2.614   3.799
12886SOL    HW238963   6.865   2.497   3.827
12887SOL     OW38964   2.324   7.369   1.379
12887SOL    HW138965   2.318   7.464   1.385
12887SOL    HW238966   2.406   7.353   1.333
12888SOL     OW38967   2.767   8.150   5.096
12888SOL    HW138968   2.672   8.146   5.107
12888SOL    HW238969   2.781   8.216   5.028
12889SOL     OW38970   0.984   2.895   0.420
12889SOL    HW138971   1.071   2.907   0.382
12889SOL    HW238972   0.950   2.816   0.378
12890SOL     OW38973   3.678   7.309   0.385
12890SOL    HW138974   3.659   7.400   0.363
12890SOL    HW238975   3.740   7.314   0.458
12891SOL     OW38976   5.224   2.573   3.740
12891SOL    HW138977   5.235   2.590   3.646
12891SOL    HW238978   5.216   2.660   3.779
12892SOL     OW38979   8.072   3.903   4.563
12892SOL    HW138980   8.061   3.989   4.523
12892SOL    HW238981   8.018   3.906   4.642
12893SOL     OW38982   5.320   3.419   3.485
12893SOL    HW138983   5.289   3.503   3.452
12893SOL    HW238984   5.401   3.440   3.532
12894SOL     OW38985   8.048   1.233   4.530
12894SOL    HW138986   7.988   1.305   4.509
12894SOL    HW238987   8.044   1.226   4.625
12895SOL     OW38988   2.190   4.107   0.711
12895SOL    HW138989   2.179   4.077   0.801
12895SOL    HW238990   2.202   4.027   0.660
12896SOL     OW38991   7.471   4.870   0.834
12896SOL    HW138992   7.505   4.958   0.816
12896SOL    HW238993   7.378   4.883   0.853
12897SOL     OW38994   2.216   2.842   0.494
12897SOL    HW138995   2.195   2.755   0.459
12897SOL    HW238996   2.133   2.890   0.491
12898SOL     OW38997   5.634   0.458   4.590
12898SOL    HW138998   5.552   0.414   4.614
12898SOL    HW238999   5.661   0.502   4.670
12899SOL     OW39000   0.848   4.371   2.426
12899SOL    HW139001   0.801   4.318   2.490
12899SOL    HW239002   0.832   4.327   2.342
12900SOL     OW39003   5.747   3.075   1.980
12900SOL    HW139004   5.682   3.010   1.953
12900SOL    HW239005   5.818   3.066   1.916
12901SOL     OW39006   5.127   6.095   2.027
12901SOL    HW139007   5.183   6.018   2.016
12901SOL    HW239008   5.142   6.148   1.949
12902SOL     OW39009   3.218   5.327   2.194
12902SOL    HW139010   3.162   5.319   2.116
12902SOL    HW239011   3.208   5.243   2.239
12903SOL     OW39012   1.447   0.617   1.380
12903SOL    HW139013   1.399   0.602   1.299
12903SOL    HW239014   1.382   0.605   1.449
12904SOL     OW39015   1.835   0.297   3.100
12904SOL    HW139016   1.803   0.245   3.174
12904SOL    HW239017   1.799   0.254   3.023
12905SOL     OW39018   6.004   4.166   3.671
12905SOL    HW139019   5.986   4.238   3.611
12905SOL    HW239020   5.981   4.201   3.757
12906SOL     OW39021   0.884   0.377   1.236
12906SOL    HW139022   0.871   0.311   1.304
12906SOL    HW239023   0.810   0.437   1.248
12907SOL     OW39024   0.014   4.185   4.837
12907SOL    HW139025   0.001   4.272   4.874
12907SOL    HW239026   8.186   4.128   4.889
12908SOL     OW39027   2.244   2.790   4.452
12908SOL    HW139028   2.300   2.867   4.453
12908SOL    HW239029   2.259   2.748   4.537
12909SOL     OW39030   4.166   5.535   0.227
12909SOL    HW139031   4.099   5.524   0.159
12909SOL    HW239032   4.221   5.457   0.219
12910SOL     OW39033   2.629   8.101   0.629
12910SOL    HW139034   2.722   8.081   0.633
12910SOL    HW239035   2.620   8.155   0.550
12911SOL     OW39036   1.778   7.447   3.246
12911SOL    HW139037   1.780   7.428   3.340
12911SOL    HW239038   1.687   7.433   3.220
12912SOL     OW39039   4.743   5.342   2.121
12912SOL    HW139040   4.790   5.421   2.150
12912SOL    HW239041   4.736   5.351   2.026
12913SOL     OW39042   2.913   3.559   3.873
12913SOL    HW139043   2.910   3.613   3.952
12913SOL    HW239044   2.844   3.594   3.817
12914SOL     OW39045   0.370   3.539   3.188
12914SOL    HW139046   0.347   3.622   3.230
12914SOL    HW239047   0.466   3.536   3.191
12915SOL     OW39048   0.213   3.246   3.900
12915SOL    HW139049   0.300   3.281   3.881
12915SOL    HW239050   0.214   3.231   3.995
12916SOL     OW39051   0.336   2.409   3.969
12916SOL    HW139052   0.313   2.500   3.988
12916SOL    HW239053   0.278   2.358   4.025
12917SOL     OW39054   6.887   7.106   3.672
12917SOL    HW139055   6.947   7.080   3.602
12917SOL    HW239056   6.842   7.025   3.696
12918SOL     OW39057   6.959   2.871   0.001
12918SOL    HW139058   2.854   7.003   5.726
12918SOL    HW239059   7.041   2.901   0.040
12919SOL     OW39060   7.181   5.832   3.630
12919SOL    HW139061   7.094   5.827   3.669
12919SOL    HW239062   7.238   5.860   3.701
12920SOL     OW39063   1.091   3.218   3.596
12920SOL    HW139064   1.116   3.139   3.549
12920SOL    HW239065   1.168   3.275   3.590
12921SOL     OW39066   7.535   5.367   4.625
12921SOL    HW139067   7.491   5.450   4.608
12921SOL    HW239068   7.464   5.303   4.635
12922SOL     OW39069   5.214   3.451   0.923
12922SOL    HW139070   5.216   3.537   0.882
12922SOL    HW239071   5.125   3.442   0.957
12923SOL     OW39072   2.234   4.497   3.735
12923SOL    HW139073   2.298   4.434   3.703
12923SOL    HW239074   2.153   4.447   3.743
12924SOL     OW39075   5.010   5.429   3.611
12924SOL    HW139076   4.916   5.447   3.610
12924SOL    HW239077   5.035   5.426   3.519
12925SOL     OW39078   4.908   3.946   1.736
12925SOL    HW139079   4.998   3.915   1.743
12925SOL    HW239080   4.880   3.920   1.648
12926SOL     OW39081   0.847   0.703   1.072
12926SOL    HW139082   0.839   0.788   1.115
12926SOL    HW239083   0.773   0.700   1.011
12927SOL     OW39084   3.985   4.595   0.055
12927SOL    HW139085   3.954   4.598   0.145
12927SOL    HW239086   3.918   4.641   0.005
12928SOL     OW39087   3.824   3.819   0.959
12928SOL    HW139088   3.785   3.902   0.985
12928SOL    HW239089   3.751   3.767   0.926
12929SOL     OW39090   1.625   6.215   0.419
12929SOL    HW139091   1.617   6.286   0.355
12929SOL    HW239092   1.539   6.212   0.462
12930SOL     OW39093   1.686   0.976   4.577
12930SOL    HW139094   1.680   1.046   4.512
12930SOL    HW239095   1.772   0.936   4.561
12931SOL     OW39096   6.312   7.503   4.784
12931SOL    HW139097   6.367   7.511   4.706
12931SOL    HW239098   6.318   7.589   4.826
12932SOL     OW39099   2.975   2.087   0.684
12932SOL    HW139100   2.887   2.117   0.707
12932SOL    HW239101   2.989   2.120   0.595
12933SOL     OW39102   3.139   8.138   4.323
12933SOL    HW139103   3.199   8.114   4.252
12933SOL    HW239104   3.122   8.056   4.370
12934SOL     OW39105   1.820   3.010   4.050
12934SOL    HW139106   1.791   2.920   4.037
12934SOL    HW239107   1.884   3.025   3.981
12935SOL     OW39108   2.929   2.581   2.106
12935SOL    HW139109   2.860   2.646   2.122
12935SOL    HW239110   2.882   2.498   2.097
12936SOL     OW39111   6.930   0.088   0.896
12936SOL    HW139112   6.934   0.141   0.816
12936SOL    HW239113   6.932   0.152   0.967
12937SOL     OW39114   1.731   1.450   2.083
12937SOL    HW139115   1.756   1.382   2.146
12937SOL    HW239116   1.814   1.491   2.059
12938SOL     OW39117   5.177   6.364   0.536
12938SOL    HW139118   5.212   6.435   0.482
12938SOL    HW239119   5.227   6.287   0.509
12939SOL     OW39120   1.372   1.173   0.990
12939SOL    HW139121   1.433   1.122   0.937
12939SOL    HW239122   1.394   1.150   1.080
12940SOL     OW39123   0.981   3.162   1.851
12940SOL    HW139124   0.941   3.131   1.932
12940SOL    HW239125   0.915   3.145   1.784
12941SOL     OW39126   4.786   7.409   3.630
12941SOL    HW139127   4.842   7.409   3.708
12941SOL    HW239128   4.774   7.502   3.609
12942SOL     OW39129   2.445   8.194   1.322
12942SOL    HW139130   2.377   8.169   1.259
12942SOL    HW239131   2.417   0.050   1.354
12943SOL     OW39132   1.641   2.070   0.340
12943SOL    HW139133   1.561   2.102   0.298
12943SOL    HW239134   1.665   1.992   0.290
12944SOL     OW39135   6.669   6.905   3.155
12944SOL    HW139136   6.693   6.836   3.094
12944SOL    HW239137   6.688   6.869   3.241
12945SOL     OW39138   2.079   6.412   5.785
12945SOL    HW139139   2.010   6.388   5.723
12945SOL    HW239140   2.089   6.507   5.774
12946SOL     OW39141   5.375   6.604   5.393
12946SOL    HW139142   5.394   6.698   5.391
12946SOL    HW239143   5.379   6.577   5.301
12947SOL     OW39144   7.482   6.502   0.196
12947SOL    HW139145   7.401   6.497   0.247
12947SOL    HW239146   7.453   6.523   0.107
12948SOL     OW39147   6.888   2.856   3.344
12948SOL    HW139148   6.830   2.932   3.346
12948SOL    HW239149   6.859   2.805   3.268
12949SOL     OW39150   1.626   5.754   3.127
12949SOL    HW139151   1.630   5.673   3.076
12949SOL    HW239152   1.541   5.792   3.106
12950SOL     OW39153   5.234   0.899   3.130
12950SOL    HW139154   5.242   0.932   3.220
12950SOL    HW239155   5.196   0.812   3.140
12951SOL     OW39156   6.132   1.276   5.437
12951SOL    HW139157   6.075   1.220   5.490
12951SOL    HW239158   6.158   1.347   5.496
12952SOL     OW39159   0.900   1.477   4.913
12952SOL    HW139160   0.818   1.527   4.915
12952SOL    HW239161   0.943   1.504   4.832
12953SOL     OW39162   4.125   6.209   3.924
12953SOL    HW139163   4.214   6.244   3.929
12953SOL    HW239164   4.133   6.117   3.950
12954SOL     OW39165   3.355   5.551   1.168
12954SOL    HW139166   3.295   5.613   1.209
12954SOL    HW239167   3.440   5.595   1.171
12955SOL     OW39168   5.502   7.876   5.497
12955SOL    HW139169   5.545   7.913   5.574
12955SOL    HW239170   5.500   7.948   5.434
12956SOL     OW39171   0.155   2.063   1.391
12956SOL    HW139172   0.124   2.117   1.318
12956SOL    HW239173   0.122   1.975   1.372
12957SOL     OW39174   2.092   7.994   1.804
12957SOL    HW139175   2.067   7.981   1.895
12957SOL    HW239176   2.121   8.085   1.799
12958SOL     OW39177   3.104   7.258   0.909
12958SOL    HW139178   3.036   7.262   0.976
12958SOL    HW239179   3.160   7.186   0.936
12959SOL     OW39180   4.288   4.789   4.938
12959SOL    HW139181   4.235   4.827   4.868
12959SOL    HW239182   4.365   4.846   4.944
12960SOL     OW39183   1.880   0.876   2.570
12960SOL    HW139184   1.790   0.852   2.591
12960SOL    HW239185   1.892   0.962   2.610
12961SOL     OW39186   1.233   4.083   0.441
12961SOL    HW139187   1.184   4.164   0.455
12961SOL    HW239188   1.172   4.014   0.467
12962SOL     OW39189   1.919   0.431   1.058
12962SOL    HW139190   2.014   0.432   1.070
12962SOL    HW239191   1.885   0.470   1.138
12963SOL     OW39192   4.946   3.781   4.623
12963SOL    HW139193   5.033   3.802   4.588
12963SOL    HW239194   4.885   3.818   4.559
12964SOL     OW39195   7.005   1.580   2.133
12964SOL    HW139196   6.958   1.498   2.149
12964SOL    HW239197   6.954   1.624   2.066
12965SOL     OW39198   5.440   4.650   1.495
12965SOL    HW139199   5.350   4.678   1.478
12965SOL    HW239200   5.492   4.730   1.489
12966SOL     OW39201   6.181   6.358   4.729
12966SOL    HW139202   6.192   6.264   4.741
12966SOL    HW239203   6.270   6.392   4.724
12967SOL     OW39204   7.715   8.195   1.280
12967SOL    HW139205   7.673   8.229   1.359
12967SOL    HW239206   7.678   0.018   1.209
12968SOL     OW39207   3.002   0.368   5.397
12968SOL    HW139208   3.054   0.412   5.329
12968SOL    HW239209   3.035   0.403   5.479
12969SOL     OW39210   0.399   8.038   3.543
12969SOL    HW139211   0.398   8.108   3.608
12969SOL    HW239212   0.477   8.055   3.490
12970SOL     OW39213   0.147   0.277   0.442
12970SOL    HW139214   0.140   0.362   0.485
12970SOL    HW239215   0.239   0.252   0.453
12971SOL     OW39216   3.344   3.671   3.717
12971SOL    HW139217   3.290   3.638   3.789
12971SOL    HW239218   3.361   3.762   3.739
12972SOL     OW39219   1.017   3.810   1.641
12972SOL    HW139220   1.047   3.721   1.657
12972SOL    HW239221   1.039   3.858   1.721
12973SOL     OW39222   0.045   2.533   1.665
12973SOL    HW139223   0.042   2.495   1.753
12973SOL    HW239224   0.069   2.625   1.679
12974SOL     OW39225   5.793   3.357   5.335
12974SOL    HW139226   5.864   3.379   5.395
12974SOL    HW239227   5.751   3.441   5.315
12975SOL     OW39228   7.364   1.193   1.980
12975SOL    HW139229   7.291   1.198   2.041
12975SOL    HW239230   7.435   1.241   2.023
12976SOL     OW39231   3.443   1.910   5.461
12976SOL    HW139232   3.473   1.916   5.370
12976SOL    HW239233   3.445   1.816   5.481
12977SOL     OW39234   6.797   7.453   2.554
12977SOL    HW139235   6.733   7.458   2.625
12977SOL    HW239236   6.857   7.526   2.571
12978SOL     OW39237   4.421   5.849   4.444
12978SOL    HW139238   4.488   5.894   4.495
12978SOL    HW239239   4.362   5.812   4.509
12979SOL     OW39240   4.513   4.636   4.152
12979SOL    HW139241   4.456   4.571   4.110
12979SOL    HW239242   4.533   4.698   4.082
12980SOL     OW39243   7.786   4.891   1.424
12980SOL    HW139244   7.801   4.861   1.334
12980SOL    HW239245   7.800   4.986   1.421
12981SOL     OW39246   0.501   0.264   5.608
12981SOL    HW139247   0.444   0.268   5.684
12981SOL    HW239248   0.457   0.318   5.542
12982SOL     OW39249   4.148   0.668   4.564
12982SOL    HW139250   4.181   0.588   4.523
12982SOL    HW239251   4.200   0.677   4.644
12983SOL     OW39252   1.096   0.045   4.930
12983SOL    HW139253   1.027   0.088   4.981
12983SOL    HW239254   1.176   0.092   4.954
12984SOL     OW39255   3.762   5.965   3.819
12984SOL    HW139256   3.773   6.004   3.906
12984SOL    HW239257   3.760   6.040   3.759
12985SOL     OW39258   7.024   6.635   4.908
12985SOL    HW139259   7.114   6.605   4.920
12985SOL    HW239260   7.029   6.698   4.836
12986SOL     OW39261   1.043   6.385   2.434
12986SOL    HW139262   1.016   6.318   2.496
12986SOL    HW239263   0.964   6.437   2.419
12987SOL     OW39264   5.025   6.851   0.917
12987SOL    HW139265   5.086   6.777   0.914
12987SOL    HW239266   4.954   6.826   0.859
12988SOL     OW39267   0.539   5.164   5.476
12988SOL    HW139268   0.447   5.189   5.481
12988SOL    HW239269   0.566   5.154   5.567
12989SOL     OW39270   4.775   1.059   2.267
12989SOL    HW139271   4.709   1.032   2.331
12989SOL    HW239272   4.787   1.153   2.283
12990SOL     OW39273   1.516   2.296   0.881
12990SOL    HW139274   1.566   2.376   0.897
12990SOL    HW239275   1.582   2.227   0.874
12991SOL     OW39276   5.592   5.925   0.852
12991SOL    HW139277   5.570   5.924   0.945
12991SOL    HW239278   5.569   6.013   0.823
12992SOL     OW39279   7.146   3.955   4.233
12992SOL    HW139280   7.166   4.003   4.152
12992SOL    HW239281   7.157   3.863   4.210
12993SOL     OW39282   7.315   0.728   1.111
12993SOL    HW139283   7.378   0.800   1.110
12993SOL    HW239284   7.356   0.660   1.164
12994SOL     OW39285   2.365   3.132   3.376
12994SOL    HW139286   2.371   3.112   3.469
12994SOL    HW239287   2.272   3.124   3.356
12995SOL     OW39288   2.282   5.055   1.800
12995SOL    HW139289   2.192   5.034   1.826
12995SOL    HW239290   2.298   5.142   1.837
12996SOL     OW39291   3.052   0.660   3.334
12996SOL    HW139292   3.071   0.742   3.379
12996SOL    HW239293   3.079   0.676   3.243
12997SOL     OW39294   1.421   3.183   2.451
12997SOL    HW139295   1.361   3.141   2.390
12997SOL    HW239296   1.478   3.112   2.481
12998SOL     OW39297   4.526   7.794   1.870
12998SOL    HW139298   4.562   7.853   1.936
12998SOL    HW239299   4.510   7.712   1.917
12999SOL     OW39300   4.023   3.446   4.655
12999SOL    HW139301   3.983   3.393   4.586
12999SOL    HW239302   4.094   3.391   4.689
13000SOL     OW39303   0.532   4.383   3.255
13000SOL    HW139304   0.510   4.475   3.267
13000SOL    HW239305   0.469   4.336   3.310
13001SOL     OW39306   4.401   3.554   4.539
13001SOL    HW139307   4.390   3.617   4.468
13001SOL    HW239308   4.397   3.606   4.619
13002SOL     OW39309   5.609   4.833   0.780
13002SOL    HW139310   5.692   4.868   0.747
13002SOL    HW239311   5.623   4.739   0.787
13003SOL     OW39312   0.864   6.957   4.492
13003SOL    HW139313   0.826   6.900   4.559
13003SOL    HW239314   0.912   7.023   4.541
13004SOL     OW39315   2.131   5.887   1.702
13004SOL    HW139316   2.213   5.839   1.712
13004SOL    HW239317   2.065   5.819   1.688
13005SOL     OW39318   3.554   3.701   0.967
13005SOL    HW139319   3.502   3.639   0.916
13005SOL    HW239320   3.498   3.779   0.974
13006SOL     OW39321   4.317   2.551   2.046
13006SOL    HW139322   4.338   2.548   1.953
13006SOL    HW239323   4.319   2.644   2.069
13007SOL     OW39324   1.044   6.692   4.720
13007SOL    HW139325   1.099   6.708   4.797
13007SOL    HW239326   1.105   6.659   4.654
13008SOL     OW39327   6.076   5.897   5.427
13008SOL    HW139328   5.986   5.927   5.417
13008SOL    HW239329   6.096   5.911   5.520
13009SOL     OW39330   4.720   4.019   3.385
13009SOL    HW139331   4.625   4.025   3.382
13009SOL    HW239332   4.748   4.044   3.297
13010SOL     OW39333   2.639   3.762   3.360
13010SOL    HW139334   2.623   3.854   3.380
13010SOL    HW239335   2.669   3.762   3.269
13011SOL     OW39336   4.616   3.520   3.490
13011SOL    HW139337   4.521   3.520   3.502
13011SOL    HW239338   4.628   3.521   3.395
13012SOL     OW39339   4.160   7.866   1.906
13012SOL    HW139340   4.089   7.859   1.842
13012SOL    HW239341   4.223   7.925   1.865
13013SOL     OW39342   5.323   2.571   2.756
13013SOL    HW139343   5.291   2.661   2.753
13013SOL    HW239344   5.297   2.534   2.672
13014SOL     OW39345   2.500   1.935   3.993
13014SOL    HW139346   2.560   1.862   3.977
13014SOL    HW239347   2.554   2.013   3.980
13015SOL     OW39348   3.604   3.705   2.574
13015SOL    HW139349   3.644   3.626   2.611
13015SOL    HW239350   3.618   3.697   2.480
13016SOL     OW39351   2.769   7.443   3.316
13016SOL    HW139352   2.807   7.420   3.401
13016SOL    HW239353   2.675   7.441   3.331
13017SOL     OW39354   1.293   3.975   4.176
13017SOL    HW139355   1.266   3.892   4.215
13017SOL    HW239356   1.285   3.961   4.082
13018SOL     OW39357   4.709   7.104   3.211
13018SOL    HW139358   4.751   7.188   3.226
13018SOL    HW239359   4.781   7.045   3.188
13019SOL     OW39360   3.757   5.246   3.710
13019SOL    HW139361   3.764   5.159   3.750
13019SOL    HW239362   3.725   5.229   3.621
13020SOL     OW39363   1.244   0.598   1.142
13020SOL    HW139364   1.319   0.597   1.083
13020SOL    HW239365   1.185   0.663   1.105
13021SOL     OW39366   5.313   3.166   1.183
13021SOL    HW139367   5.237   3.156   1.241
13021SOL    HW239368   5.277   3.156   1.095
13022SOL     OW39369   0.214   0.143   4.365
13022SOL    HW139370   0.163   0.062   4.356
13022SOL    HW239371   0.194   0.193   4.286
13023SOL     OW39372   1.203   0.569   2.050
13023SOL    HW139373   1.115   0.604   2.064
13023SOL    HW239374   1.231   0.540   2.137
13024SOL     OW39375   4.978   1.858   0.579
13024SOL    HW139376   4.977   1.831   0.487
13024SOL    HW239377   4.943   1.947   0.578
13025SOL     OW39378   1.111   3.816   4.671
13025SOL    HW139379   1.078   3.906   4.675
13025SOL    HW239380   1.156   3.803   4.754
13026SOL     OW39381   0.596   0.753   2.913
13026SOL    HW139382   0.633   0.741   3.000
13026SOL    HW239383   0.501   0.747   2.926
13027SOL     OW39384   0.756   4.752   0.134
13027SOL    HW139385   0.767   4.846   0.121
13027SOL    HW239386   0.796   4.712   0.057
13028SOL     OW39387   1.791   2.733   4.006
13028SOL    HW139388   1.765   2.678   3.932
13028SOL    HW239389   1.708   2.760   4.046
13029SOL     OW39390   1.687   3.564   1.034
13029SOL    HW139391   1.640   3.629   0.983
13029SOL    HW239392   1.759   3.613   1.075
13030SOL     OW39393   1.186   6.927   2.031
13030SOL    HW139394   1.263   6.984   2.034
13030SOL    HW239395   1.216   6.848   1.986
13031SOL     OW39396   4.799   2.225   2.389
13031SOL    HW139397   4.797   2.188   2.301
13031SOL    HW239398   4.726   2.182   2.435
13032SOL     OW39399   4.917   1.853   0.096
13032SOL    HW139400   4.886   1.763   0.085
13032SOL    HW239401   4.919   1.866   0.191
13033SOL     OW39402   7.837   6.215   5.698
13033SOL    HW139403   7.742   6.203   5.698
13033SOL    HW239404   7.873   6.126   5.697
13034SOL     OW39405   0.078   7.888   0.756
13034SOL    HW139406   0.081   7.825   0.828
13034SOL    HW239407   0.088   7.834   0.677
13035SOL     OW39408   7.667   2.610   0.642
13035SOL    HW139409   7.661   2.705   0.631
13035SOL    HW239410   7.731   2.583   0.577
13036SOL     OW39411   7.450   7.689   5.603
13036SOL    HW139412   7.433   7.603   5.642
13036SOL    HW239413   7.397   7.750   5.654
13037SOL     OW39414   3.773   0.257   4.758
13037SOL    HW139415   3.868   0.266   4.749
13037SOL    HW239416   3.750   0.311   4.833
13038SOL     OW39417   1.436   6.227   3.203
13038SOL    HW139418   1.471   6.315   3.190
13038SOL    HW239419   1.501   6.169   3.164
13039SOL     OW39420   1.419   6.460   1.638
13039SOL    HW139421   1.417   6.500   1.551
13039SOL    HW239422   1.328   6.462   1.667
13040SOL     OW39423   4.296   0.611   1.643
13040SOL    HW139424   4.351   0.571   1.575
13040SOL    HW239425   4.221   0.552   1.651
13041SOL     OW39426   5.865   3.962   0.566
13041SOL    HW139427   5.839   3.952   0.657
13041SOL    HW239428   5.809   3.902   0.518
13042SOL     OW39429   3.847   3.884   2.994
13042SOL    HW139430   3.752   3.871   3.000
13042SOL    HW239431   3.861   3.920   2.906
13043SOL     OW39432   0.154   6.602   5.684
13043SOL    HW139433   0.063   6.627   5.665
13043SOL    HW239434   0.205   6.646   5.616
13044SOL     OW39435   3.424   7.911   4.420
13044SOL    HW139436   3.365   7.922   4.495
13044SOL    HW239437   3.511   7.932   4.455
13045SOL     OW39438   7.147   1.049   0.151
13045SOL    HW139439   7.197   0.985   0.101
13045SOL    HW239440   7.068   1.063   0.099
13046SOL     OW39441   2.996   3.308   0.627
13046SOL    HW139442   2.908   3.271   0.625
13046SOL    HW239443   3.005   3.354   0.544
13047SOL     OW39444   5.410   5.969   0.239
13047SOL    HW139445   5.469   5.897   0.218
13047SOL    HW239446   5.401   6.018   0.157
13048SOL     OW39447   7.671   2.054   2.501
13048SOL    HW139448   7.658   2.114   2.574
13048SOL    HW239449   7.594   2.067   2.446
13049SOL     OW39450   6.565   2.178   5.095
13049SOL    HW139451   6.626   2.245   5.064
13049SOL    HW239452   6.612   2.132   5.164
13050SOL     OW39453   5.289   7.758   5.635
13050SOL    HW139454   5.359   7.803   5.588
13050SOL    HW239455   5.272   7.814   5.711
13051SOL     OW39456   6.376   6.551   2.917
13051SOL    HW139457   6.291   6.585   2.944
13051SOL    HW239458   6.410   6.507   2.995
13052SOL     OW39459   3.066   0.947   4.121
13052SOL    HW139460   3.072   1.020   4.183
13052SOL    HW239461   3.026   0.876   4.171
13053SOL     OW39462   5.783   6.470   4.191
13053SOL    HW139463   5.779   6.420   4.273
13053SOL    HW239464   5.723   6.543   4.205
13054SOL     OW39465   5.339   6.134   1.358
13054SOL    HW139466   5.251   6.117   1.325
13054SOL    HW239467   5.397   6.093   1.294
13055SOL     OW39468   7.837   2.958   3.759
13055SOL    HW139469   7.778   3.025   3.794
13055SOL    HW239470   7.779   2.888   3.729
13056SOL     OW39471   1.595   2.932   0.630
13056SOL    HW139472   1.668   2.954   0.688
13056SOL    HW239473   1.586   3.008   0.572
13057SOL     OW39474   7.445   1.118   1.332
13057SOL    HW139475   7.438   1.078   1.419
13057SOL    HW239476   7.355   1.125   1.301
13058SOL     OW39477   0.143   6.002   0.197
13058SOL    HW139478   0.104   6.074   0.247
13058SOL    HW239479   0.139   5.927   0.256
13059SOL     OW39480   5.069   1.963   4.616
13059SOL    HW139481   5.092   1.967   4.523
13059SOL    HW239482   4.988   2.013   4.623
13060SOL     OW39483   3.599   5.321   5.410
13060SOL    HW139484   3.678   5.289   5.368
13060SOL    HW239485   3.625   5.405   5.449
13061SOL     OW39486   0.818   6.321   5.167
13061SOL    HW139487   0.877   6.382   5.122
13061SOL    HW239488   0.876   6.254   5.203
13062SOL     OW39489   5.380   3.577   4.889
13062SOL    HW139490   5.431   3.499   4.868
13062SOL    HW239491   5.293   3.559   4.854
13063SOL     OW39492   5.620   3.947   4.210
13063SOL    HW139493   5.625   4.038   4.181
13063SOL    HW239494   5.692   3.938   4.272
13064SOL     OW39495   8.077   8.156   3.700
13064SOL    HW139496   8.159   8.169   3.652
13064SOL    HW239497   8.105   8.128   3.787
13065SOL     OW39498   0.263   4.986   5.395
13065SOL    HW139499   0.200   4.914   5.404
13065SOL    HW239500   0.209   5.064   5.387
13066SOL     OW39501   8.078   7.963   5.437
13066SOL    HW139502   8.082   7.910   5.516
13066SOL    HW239503   8.165   8.002   5.429
13067SOL     OW39504   4.921   8.103   5.086
13067SOL    HW139505   4.889   8.140   5.168
13067SOL    HW239506   4.997   8.051   5.111
13068SOL     OW39507   1.657   3.504   5.670
13068SOL    HW139508   1.730   3.556   5.638
13068SOL    HW239509   1.697   3.440   5.729
13069SOL     OW39510   1.272   4.902   2.943
13069SOL    HW139511   1.213   4.878   3.014
13069SOL    HW239512   1.330   4.826   2.934
13070SOL     OW39513   0.120   2.333   3.058
13070SOL    HW139514   0.179   2.316   2.985
13070SOL    HW239515   0.069   2.409   3.031
13071SOL     OW39516   3.712   1.178   0.904
13071SOL    HW139517   3.760   1.247   0.858
13071SOL    HW239518   3.665   1.131   0.835
13072SOL     OW39519   2.420   3.654   2.690
13072SOL    HW139520   2.382   3.718   2.629
13072SOL    HW239521   2.505   3.633   2.652
13073SOL     OW39522   4.821   1.847   1.057
13073SOL    HW139523   4.735   1.888   1.058
13073SOL    HW239524   4.882   1.919   1.039
13074SOL     OW39525   3.286   2.143   0.533
13074SOL    HW139526   3.278   2.123   0.440
13074SOL    HW239527   3.230   2.220   0.546
13075SOL     OW39528   6.839   2.982   4.408
13075SOL    HW139529   6.864   3.056   4.464
13075SOL    HW239530   6.756   3.008   4.369
13076SOL     OW39531   1.096   2.351   0.611
13076SOL    HW139532   1.121   2.344   0.703
13076SOL    HW239533   1.004   2.376   0.613
13077SOL     OW39534   4.092   0.699   0.048
13077SOL    HW139535   0.053   4.832   5.811
13077SOL    HW239536   8.131   4.822   5.809
13078SOL     OW39537   6.912   4.921   3.715
13078SOL    HW139538   6.959   4.838   3.722
13078SOL    HW239539   6.894   4.931   3.622
13079SOL     OW39540   6.812   4.383   0.101
13079SOL    HW139541   6.906   4.395   0.113
13079SOL    HW239542   6.788   4.443   0.030
13080SOL     OW39543   3.394   0.257   3.627
13080SOL    HW139544   3.425   0.209   3.550
13080SOL    HW239545   3.441   0.340   3.624
13081SOL     OW39546   7.338   4.410   4.768
13081SOL    HW139547   7.366   4.395   4.678
13081SOL    HW239548   7.370   4.334   4.816
13082SOL     OW39549   2.474   1.950   3.038
13082SOL    HW139550   2.513   1.874   3.080
13082SOL    HW239551   2.469   2.016   3.108
13083SOL     OW39552   7.251   5.358   0.712
13083SOL    HW139553   7.276   5.369   0.804
13083SOL    HW239554   7.246   5.263   0.699
13084SOL     OW39555   7.367   3.471   1.120
13084SOL    HW139556   7.293   3.434   1.072
13084SOL    HW239557   7.333   3.489   1.207
13085SOL     OW39558   2.267   3.428   2.721
13085SOL    HW139559   2.217   3.427   2.639
13085SOL    HW239560   2.309   3.514   2.722
13086SOL     OW39561   1.720   3.823   5.492
13086SOL    HW139562   1.794   3.780   5.449
13086SOL    HW239563   1.644   3.796   5.441
13087SOL     OW39564   6.228   2.365   1.566
13087SOL    HW139565   6.227   2.282   1.613
13087SOL    HW239566   6.275   2.425   1.624
13088SOL     OW39567   2.812   1.571   3.817
13088SOL    HW139568   2.853   1.494   3.777
13088SOL    HW239569   2.884   1.615   3.862
13089SOL     OW39570   2.899   3.890   5.579
13089SOL    HW139571   2.804   3.892   5.573
13089SOL    HW239572   2.925   3.820   5.520
13090SOL     OW39573   0.840   0.063   0.730
13090SOL    HW139574   0.858   0.157   0.738
13090SOL    HW239575   0.829   0.048   0.636
13091SOL     OW39576   1.028   2.494   4.256
13091SOL    HW139577   0.972   2.544   4.197
13091SOL    HW239578   1.113   2.538   4.252
13092SOL     OW39579   1.908   5.262   5.101
13092SOL    HW139580   1.846   5.332   5.084
13092SOL    HW239581   1.983   5.283   5.046
13093SOL     OW39582   8.144   4.616   5.197
13093SOL    HW139583   8.227   4.610   5.150
13093SOL    HW239584   8.134   4.531   5.240
13094SOL     OW39585   3.967   6.249   1.581
13094SOL    HW139586   4.033   6.190   1.544
13094SOL    HW239587   3.975   6.237   1.676
13095SOL     OW39588   1.961   2.543   1.054
13095SOL    HW139589   1.953   2.634   1.084
13095SOL    HW239590   1.966   2.550   0.959
13096SOL     OW39591   5.888   7.954   5.245
13096SOL    HW139592   5.865   7.866   5.214
13096SOL    HW239593   5.979   7.965   5.217
13097SOL     OW39594   6.738   2.089   0.329
13097SOL    HW139595   6.686   2.075   0.250
13097SOL    HW239596   6.714   2.177   0.359
13098SOL     OW39597   4.651   0.458   1.754
13098SOL    HW139598   4.711   0.395   1.715
13098SOL    HW239599   4.568   0.410   1.763
13099SOL     OW39600   5.200   4.463   4.159
13099SOL    HW139601   5.249   4.382   4.149
13099SOL    HW239602   5.108   4.436   4.156
13100SOL     OW39603   2.288   4.331   2.112
13100SOL    HW139604   2.195   4.335   2.088
13100SOL    HW239605   2.333   4.380   2.043
13101SOL     OW39606   2.798   5.717   0.313
13101SOL    HW139607   2.819   5.626   0.335
13101SOL    HW239608   2.814   5.723   0.219
13102SOL     OW39609   3.837   6.993   0.135
13102SOL    HW139610   3.782   6.983   0.213
13102SOL    HW239611   3.775   6.996   0.062
13103SOL     OW39612   7.166   5.336   0.286
13103SOL    HW139613   7.136   5.427   0.284
13103SOL    HW239614   7.143   5.301   0.200
13104SOL     OW39615   0.099   2.650   1.305
13104SOL    HW139616   0.083   2.741   1.280
13104SOL    HW239617   0.121   2.606   1.223
13105SOL     OW39618   2.540   5.510   4.727
13105SOL    HW139619   2.561   5.423   4.761
13105SOL    HW239620   2.486   5.549   4.796
13106SOL     OW39621   0.578   6.317   0.337
13106SOL    HW139622   0.633   6.241   0.354
13106SOL    HW239623   0.589   6.335   0.244
13107SOL     OW39624   5.603   3.812   4.825
13107SOL    HW139625   5.509   3.832   4.826
13107SOL    HW239626   5.645   3.893   4.853
13108SOL     OW39627   4.603   1.965   1.637
13108SOL    HW139628   4.663   1.905   1.593
13108SOL    HW239629   4.557   2.009   1.566
13109SOL     OW39630   0.792   7.612   5.379
13109SOL    HW139631   0.825   7.527   5.408
13109SOL    HW239632   0.703   7.617   5.415
13110SOL     OW39633   5.534   4.995   0.977
13110SOL    HW139634   5.515   4.922   1.036
13110SOL    HW239635   5.546   4.955   0.891
13111SOL     OW39636   2.581   1.028   2.088
13111SOL    HW139637   2.526   1.096   2.127
13111SOL    HW239638   2.519   0.965   2.052
13112SOL     OW39639   6.559   0.954   1.789
13112SOL    HW139640   6.483   0.999   1.827
13112SOL    HW239641   6.598   1.019   1.731
13113SOL     OW39642   6.723   6.607   2.125
13113SOL    HW139643   6.655   6.603   2.058
13113SOL    HW239644   6.772   6.687   2.105
13114SOL     OW39645   7.864   6.921   2.419
13114SOL    HW139646   7.863   6.863   2.495
13114SOL    HW239647   7.919   6.875   2.355
13115SOL     OW39648   0.955   0.687   2.046
13115SOL    HW139649   0.910   0.770   2.063
13115SOL    HW239650   0.912   0.652   1.968
13116SOL     OW39651   1.044   1.745   1.078
13116SOL    HW139652   1.087   1.819   1.120
13116SOL    HW239653   1.091   1.668   1.112
13117SOL     OW39654   7.146   3.390   0.996
13117SOL    HW139655   7.082   3.459   1.012
13117SOL    HW239656   7.157   3.390   0.901
13118SOL     OW39657   6.739   3.559   3.773
13118SOL    HW139658   6.677   3.496   3.738
13118SOL    HW239659   6.765   3.523   3.858
13119SOL     OW39660   4.361   3.158   5.746
13119SOL    HW139661   4.447   3.154   5.705
13119SOL    HW239662   4.366   3.095   5.818
13120SOL     OW39663   4.287   0.345   4.708
13120SOL    HW139664   4.249   0.390   4.633
13120SOL    HW239665   4.234   0.265   4.717
13121SOL     OW39666   6.053   7.593   3.462
13121SOL    HW139667   5.964   7.576   3.492
13121SOL    HW239668   6.109   7.559   3.532
13122SOL     OW39669   0.874   3.603   3.226
13122SOL    HW139670   0.933   3.673   3.198
13122SOL    HW239671   0.931   3.539   3.269
13123SOL     OW39672   2.023   3.593   1.338
13123SOL    HW139673   1.957   3.650   1.300
13123SOL    HW239674   2.050   3.535   1.266
13124SOL     OW39675   7.780   3.254   3.335
13124SOL    HW139676   7.758   3.302   3.255
13124SOL    HW239677   7.787   3.163   3.307
13125SOL     OW39678   1.369   4.349   3.460
13125SOL    HW139679   1.375   4.380   3.370
13125SOL    HW239680   1.447   4.384   3.503
13126SOL     OW39681   5.886   5.472   1.384
13126SOL    HW139682   5.926   5.385   1.389
13126SOL    HW239683   5.797   5.455   1.353
13127SOL     OW39684   4.253   2.125   0.480
13127SOL    HW139685   4.276   2.140   0.388
13127SOL    HW239686   4.158   2.112   0.479
13128SOL     OW39687   4.352   4.687   0.843
13128SOL    HW139688   4.297   4.617   0.808
13128SOL    HW239689   4.402   4.719   0.768
13129SOL     OW39690   6.190   2.265   3.685
13129SOL    HW139691   6.098   2.255   3.708
13129SOL    HW239692   6.194   2.245   3.592
13130SOL     OW39693   6.972   2.982   1.614
13130SOL    HW139694   6.987   2.891   1.638
13130SOL    HW239695   6.897   2.979   1.554
13131SOL     OW39696   6.877   5.514   3.519
13131SOL    HW139697   6.948   5.556   3.469
13131SOL    HW239698   6.800   5.523   3.463
13132SOL     OW39699   6.913   2.009   3.807
13132SOL    HW139700   6.851   2.033   3.876
13132SOL    HW239701   6.859   2.002   3.728
13133SOL     OW39702   4.882   3.783   3.016
13133SOL    HW139703   4.862   3.876   3.020
13133SOL    HW239704   4.830   3.744   3.087
13134SOL     OW39705   7.903   7.822   0.533
13134SOL    HW139706   7.845   7.842   0.459
13134SOL    HW239707   7.872   7.737   0.565
13135SOL     OW39708   5.467   4.548   2.566
13135SOL    HW139709   5.392   4.520   2.618
13135SOL    HW239710   5.429   4.596   2.492
13136SOL     OW39711   6.413   0.448   4.906
13136SOL    HW139712   6.498   0.488   4.926
13136SOL    HW239713   6.433   0.379   4.842
13137SOL     OW39714   8.011   1.921   0.183
13137SOL    HW139715   8.022   1.953   0.273
13137SOL    HW239716   8.031   1.997   0.128
13138SOL     OW39717   5.758   3.426   3.763
13138SOL    HW139718   5.809   3.507   3.764
13138SOL    HW239719   5.787   3.380   3.684
13139SOL     OW39720   0.973   5.039   1.856
13139SOL    HW139721   0.958   5.086   1.938
13139SOL    HW239722   1.013   5.104   1.798
13140SOL     OW39723   0.408   5.496   2.106
13140SOL    HW139724   0.352   5.457   2.039
13140SOL    HW239725   0.469   5.551   2.057
13141SOL     OW39726   6.735   7.642   3.781
13141SOL    HW139727   6.686   7.722   3.765
13141SOL    HW239728   6.726   7.592   3.700
13142SOL     OW39729   3.488   3.115   2.485
13142SOL    HW139730   3.416   3.057   2.460
13142SOL    HW239731   3.485   3.117   2.581
13143SOL     OW39732   6.534   5.853   2.244
13143SOL    HW139733   6.626   5.844   2.270
13143SOL    HW239734   6.506   5.937   2.281
13144SOL     OW39735   4.542   5.760   5.268
13144SOL    HW139736   4.568   5.852   5.272
13144SOL    HW239737   4.467   5.754   5.328
13145SOL     OW39738   3.667   5.576   3.060
13145SOL    HW139739   3.674   5.662   3.019
13145SOL    HW239740   3.744   5.528   3.028
13146SOL     OW39741   7.508   3.606   0.444
13146SOL    HW139742   7.525   3.685   0.496
13146SOL    HW239743   7.547   3.535   0.495
13147SOL     OW39744   6.141   2.968   5.136
13147SOL    HW139745   6.228   2.927   5.138
13147SOL    HW239746   6.080   2.895   5.148
13148SOL     OW39747   2.703   0.505   2.283
13148SOL    HW139748   2.753   0.566   2.229
13148SOL    HW239749   2.618   0.498   2.239
13149SOL     OW39750   3.349   0.598   0.617
13149SOL    HW139751   3.295   0.622   0.541
13149SOL    HW239752   3.340   0.672   0.677
13150SOL     OW39753   3.990   1.362   2.359
13150SOL    HW139754   4.024   1.345   2.447
13150SOL    HW239755   4.002   1.279   2.312
13151SOL     OW39756   4.508   4.129   0.260
13151SOL    HW139757   4.517   4.202   0.199
13151SOL    HW239758   4.465   4.060   0.209
13152SOL     OW39759   6.074   4.770   0.792
13152SOL    HW139760   6.010   4.788   0.723
13152SOL    HW239761   6.029   4.708   0.850
13153SOL     OW39762   7.345   7.616   0.720
13153SOL    HW139763   7.401   7.581   0.650
13153SOL    HW239764   7.393   7.692   0.753
13154SOL     OW39765   7.654   7.934   3.102
13154SOL    HW139766   7.732   7.947   3.156
13154SOL    HW239767   7.686   7.938   3.012
13155SOL     OW39768   2.909   0.665   4.190
13155SOL    HW139769   2.882   0.752   4.218
13155SOL    HW239770   2.853   0.646   4.115
13156SOL     OW39771   1.119   0.873   4.338
13156SOL    HW139772   1.049   0.938   4.328
13156SOL    HW239773   1.073   0.791   4.358
13157SOL     OW39774   5.034   6.997   1.847
13157SOL    HW139775   4.974   6.930   1.814
13157SOL    HW239776   5.105   6.948   1.888
13158SOL     OW39777   5.040   0.207   4.402
13158SOL    HW139778   5.067   0.135   4.459
13158SOL    HW239779   5.098   0.280   4.425
13159SOL     OW39780   5.348   3.368   4.549
13159SOL    HW139781   5.378   3.457   4.568
13159SOL    HW239782   5.323   3.370   4.457
13160SOL     OW39783   0.711   5.173   4.706
13160SOL    HW139784   0.754   5.245   4.752
13160SOL    HW239785   0.710   5.101   4.769
13161SOL     OW39786   5.778   5.951   5.448
13161SOL    HW139787   5.761   6.019   5.513
13161SOL    HW239788   5.692   5.915   5.427
13162SOL     OW39789   4.435   4.858   4.623
13162SOL    HW139790   4.476   4.878   4.707
13162SOL    HW239791   4.350   4.902   4.627
13163SOL     OW39792   0.274   5.467   1.321
13163SOL    HW139793   0.255   5.524   1.247
13163SOL    HW239794   0.199   5.408   1.325
13164SOL     OW39795   0.648   4.896   0.455
13164SOL    HW139796   0.643   4.803   0.433
13164SOL    HW239797   0.715   4.901   0.523
13165SOL     OW39798   3.160   6.512   0.056
13165SOL    HW139799   3.124   6.425   0.038
13165SOL    HW239800   3.138   6.529   0.148
13166SOL     OW39801   3.753   2.352   0.551
13166SOL    HW139802   3.684   2.364   0.485
13166SOL    HW239803   3.834   2.376   0.506
13167SOL     OW39804   5.758   0.511   2.745
13167SOL    HW139805   5.696   0.513   2.672
13167SOL    HW239806   5.835   0.557   2.713
13168SOL     OW39807   4.203   4.861   2.912
13168SOL    HW139808   4.211   4.858   2.817
13168SOL    HW239809   4.111   4.880   2.928
13169SOL     OW39810   7.448   5.592   1.823
13169SOL    HW139811   7.499   5.514   1.844
13169SOL    HW239812   7.507   5.665   1.841
13170SOL     OW39813   6.082   5.116   5.548
13170SOL    HW139814   6.061   5.096   5.639
13170SOL    HW239815   6.141   5.045   5.522
13171NA      NA39816   0.001   3.240   3.772
13172NA      NA39817   4.469   4.826   1.221
13173NA      NA39818   7.906   1.758   3.377
13174NA      NA39819   2.532   7.877   4.584
13175NA      NA39820   0.826   7.216   0.635
13176NA      NA39821   3.262   1.760   0.811
13177NA      NA39822   0.328   2.030   2.208
13178NA      NA39823   2.238   1.338   5.806
13179NA      NA39824   6.266   6.870   0.328
13180NA      NA39825   1.843   4.982   2.804
13181NA      NA39826   3.706   2.404   2.740
13182NA      NA39827   7.603   2.677   0.283
13183NA      NA39828   0.941   0.958   3.676
13184NA      NA39829   8.001   0.653   0.121
13185NA      NA39830   1.048   1.027   0.148
13186NA      NA39831   7.337   3.081   2.603
13187NA      NA39832   2.751   4.158   1.918
13188NA      NA39833   1.375   6.497   5.391
13189NA      NA39834   2.438   7.404   0.886
13190NA      NA39835   0.244   5.454   0.869
13191NA      NA39836   5.518   4.826   3.461
13192NA      NA39837   5.644   4.389   2.516
13193NA      NA39838   6.333   1.344   0.571
13194NA      NA39839   1.523   6.982   2.704
13195NA      NA39840   0.009   0.320   1.717
13196NA      NA39841   3.298   5.598   5.119
13197NA      NA39842   0.353   2.031   3.306
13198NA      NA39843   0.314   6.200   5.806
13199NA      NA39844   6.460   0.282   1.529
13200NA      NA39845   0.325   7.509   0.924
13201NA      NA39846   2.179   7.506   2.312
13202NA      NA39847   8.110   3.995   5.712
13203NA      NA39848   6.175   5.935   0.741
13204NA      NA39849   6.329   6.610   2.324
13205NA      NA39850   4.193   4.377   1.344
13206NA      NA39851   5.671   6.442   3.179
13207NA      NA39852   7.312   1.262   4.542
13208CL      CL39853   2.388   5.064   2.464
13209CL      CL39854   3.989   1.887   0.057
13210CL      CL39855   7.208   7.374   4.411
13211CL      CL39856   8.195   6.538   2.538
13212CL      CL39857   4.383   5.074   5.518
13213CL      CL39858   4.160   3.324   3.520
13214CL      CL39859   5.869   4.922   0.605
13215CL      CL39860   6.482   6.285   0.155
13216CL      CL39861   3.878   0.912   1.765
13217CL      CL39862   4.938   5.400   5.573
13218CL      CL39863   3.502   1.730   0.032
13219CL      CL39864   1.052   6.113   5.221
13220CL      CL39865   4.480   3.558   3.195
13221CL      CL39866   2.824   7.771   4.885
13222CL      CL39867   6.124   6.849   4.852
13223CL      CL39868   1.031   7.100   2.744
13224CL      CL39869   1.214   6.673   5.000
13225CL      CL39870   7.071   2.178   5.148
13226CL      CL39871   6.892   0.601   3.927
13227CL      CL39872   7.674   2.469   2.355
13228CL      CL39873   0.648   3.097   3.730
13229CL      CL39874   5.555   0.740   1.647
13230CL      CL39875   3.700   4.503   1.423
13231CL      CL39876   5.822   7.170   1.473
13232CL      CL39877   3.681   3.203   2.110
13233CL      CL39878   5.558   5.949   1.151
13234CL      CL39879   7.555   5.748   3.670
13235CL      CL39880   1.136   1.273   3.146
13236CL      CL39881   8.136   1.230   0.029
13237CL      CL39882   7.866   6.833   1.211
13238CL      CL39883   0.788   4.681   4.889
13239CL      CL39884   6.649   1.264   0.088
13240CL      CL39885   4.680   0.390   5.631
13241CL      CL39886   7.939   7.903   2.637
13242CL      CL39887   6.541   2.739   1.046
13243CL      CL39888   1.631   1.432   3.221
13244CL      CL39889   4.480   6.580   5.384
13245CL      CL39890   0.001   2.085   0.024
13246CL      CL39891   5.212   2.520   1.045
13247CL      CL39892   7.359   7.244   1.846
13248CL      CL39893   4.430   7.357   0.431
13249CL      CL39894   0.269   3.641   5.306
13250CL      CL39895   0.157   0.329   4.125
13251CL      CL39896   0.702   7.750   1.690
13252CL      CL39897   5.576   7.772   1.867
   8.22928   8.22928   5.81897   0.00000   0.00000   0.00000   0.00000   4.11464   4.11464
